<event>
12    1  0.1489025E-007  0.1244273E+04  0.7818608E-02  0.9074963E-01
         -1   -1    0    0    0  501 -0.00000000000E+00  0.00000000000E+00  0.71722244566E+03  0.71722244566E+03  0.00000000000E+00 0.  1.
          1   -1    0    0  501    0  0.00000000000E+00 -0.00000000000E+00 -0.53965677339E+03  0.53965677339E+03  0.00000000000E+00 0. -1.
         23    2    1    2    0    0 -0.10494278669E+03  0.17352214756E+03 -0.15632520295E+03  0.27183893038E+03  0.91301209313E+02 0.  0.
        254    2    1    2    0    0  0.10494278669E+03 -0.17352214756E+03  0.33389087522E+03  0.98504028867E+03  0.90426673586E+03 0.  0.
        -24    2    4    4    0    0  0.98528284585E+02  0.13407572765E+03 -0.25574095673E+03  0.31527936347E+03  0.79457639486E+02 0.  0.
         24    2    4    4    0    0  0.64145021021E+01 -0.30759787521E+03  0.58963183194E+03  0.66976092520E+03  0.79097414736E+02 0.  0.
         11    1    3    3    0    0  0.46144061045E+01  0.40424982568E+02 -0.24438893786E+01  0.40760821319E+02  0.00000000000E+00 0.  1.
        -11    1    3    3    0    0 -0.10955719279E+03  0.13309716499E+03 -0.15388131357E+03  0.23107810906E+03  0.00000000000E+00 0. -1.
          4    1    6    6  502    0  0.20183957577E+02 -0.77717719693E+02  0.22069664524E+03  0.23484983568E+03  0.00000000000E+00 0. -1.
          3    1    5    5  503    0  0.50543028797E+02  0.10244849175E+02 -0.70029681519E+02  0.86969598069E+02  0.00000000000E+00 0. -1.
         -4    1    5    5    0  503  0.47985255788E+02  0.12383087848E+03 -0.18571127521E+03  0.22830976540E+03  0.00000000000E+00 0.  1.
         -3    1    6    6    0  502 -0.13769455475E+02 -0.22988015552E+03  0.36893518670E+03  0.43491108953E+03  0.00000000000E+00 0.  1.
<mgrwt>
<rscale>  0 0.12442732E+04</rscale>
<asrwt>0</asrwt>
<pdfrwt beam="1">  1        1 0.83024119E-01 0.12442732E+04</pdfrwt>
<pdfrwt beam="2">  1       -1 0.11034191E+00 0.12442732E+04</pdfrwt>
<totfact> 0.29795208E+01</totfact>
</mgrwt>
</event>
<event>
12    1  0.1489025E-007  0.2188253E+04  0.7818608E-02  0.8523333E-01
          1   -1    0    0  501    0  0.00000000000E+00  0.00000000000E+00  0.29402630523E+04  0.29402630523E+04  0.00000000000E+00 0. -1.
         -1   -1    0    0    0  501 -0.00000000000E+00 -0.00000000000E+00 -0.40714474262E+03  0.40714474262E+03  0.00000000000E+00 0.  1.
         23    2    1    2    0    0  0.34764628458E+03  0.83517656319E+03  0.11320996870E+04  0.14520283193E+04  0.91425968937E+02 0.  0.
        254    2    1    2    0    0 -0.34764628458E+03 -0.83517656319E+03  0.14010186227E+04  0.18953794757E+04  0.90068437574E+03 0.  0.
        -24    2    4    4    0    0 -0.25591205221E+03  0.51000749119E+02  0.72543371606E+03  0.77448574225E+03  0.74040756885E+02 0.  0.
         24    2    4    4    0    0 -0.91734232373E+02 -0.88617731231E+03  0.67558490664E+03  0.11208937334E+04  0.79135309877E+02 0.  0.
         11    1    3    3    0    0  0.34734637719E+03  0.78223929480E+03  0.10760732620E+04  0.13749478118E+04  0.00000000000E+00 0. -1.
        -11    1    3    3    0    0  0.29990738788E+00  0.52937268393E+02  0.56026424956E+02  0.77080507410E+02  0.00000000000E+00 0.  1.
          4    1    6    6  502    0 -0.13859030283E+02 -0.44515927793E+03  0.30778611309E+03  0.54137893093E+03  0.00000000000E+00 0. -1.
          1    1    5    5  503    0 -0.25477594810E+03  0.53683218909E+02  0.72620663880E+03  0.77147181022E+03  0.00000000000E+00 0. -1.
         -2    1    5    5    0  503 -0.11361041081E+01 -0.26824697907E+01 -0.77292274420E+00  0.30139320316E+01  0.00000000000E+00 0.  1.
         -3    1    6    6    0  502 -0.77875202090E+02 -0.44101803438E+03  0.36779879356E+03  0.57951480248E+03  0.00000000000E+00 0.  1.
<mgrwt>
<rscale>  0 0.21882529E+04</rscale>
<asrwt>0</asrwt>
<pdfrwt beam="1">  1        1 0.45234815E+00 0.21882529E+04</pdfrwt>
<pdfrwt beam="2">  1       -1 0.62637655E-01 0.21882529E+04</pdfrwt>
<totfact> 0.15600252E+00</totfact>
</mgrwt>
</event>
<event>
12    1  0.1489025E-007  0.2177861E+04  0.7818608E-02  0.8527700E-01
          2   -1    0    0  501    0  0.00000000000E+00  0.00000000000E+00  0.27685954313E+04  0.27685954313E+04  0.00000000000E+00 0. -1.
         -2   -1    0    0    0  501 -0.00000000000E+00 -0.00000000000E+00 -0.42829269545E+03  0.42829269545E+03  0.00000000000E+00 0.  1.
         23    2    1    2    0    0 -0.52435995199E+03  0.71534677913E+03  0.12612014771E+04  0.15447327660E+04  0.94317437887E+02 0.  0.
        254    2    1    2    0    0  0.52435995199E+03 -0.71534677913E+03  0.10791012587E+04  0.16521553607E+04  0.88231708327E+03 0.  0.
        -24    2    4    4    0    0  0.71047634104E+03 -0.72701305322E+03  0.10171411022E+04  0.14402291804E+04  0.79746220239E+02 0.  0.
         24    2    4    4    0    0 -0.18611638905E+03  0.11666274086E+02  0.61960156546E+02  0.21192618022E+03  0.79361405235E+02 0.  0.
         11    1    3    3    0    0 -0.27675500583E+03  0.42316018843E+03  0.65092165553E+03  0.82423108408E+03  0.00000000000E+00 0.  1.
        -11    1    3    3    0    0 -0.24760494617E+03  0.29218659070E+03  0.61027982153E+03  0.72050168197E+03  0.00000000000E+00 0. -1.
          4    1    6    6  502    0 -0.15986282533E+03  0.29580521947E+02  0.27218002857E+02  0.16483916368E+03  0.00000000000E+00 0. -1.
          3    1    5    5  503    0  0.65327313767E+03 -0.67463111567E+03  0.90751735059E+03  0.13059405332E+04  0.00000000000E+00 0. -1.
         -4    1    5    5    0  503  0.57203203367E+02 -0.52381937550E+02  0.10962375161E+03  0.13428864723E+03  0.00000000000E+00 0.  1.
         -3    1    6    6    0  502 -0.26253563714E+02 -0.17914247860E+02  0.34742153689E+02  0.47087016544E+02  0.00000000000E+00 0.  1.
<mgrwt>
<rscale>  0 0.21778606E+04</rscale>
<asrwt>0</asrwt>
<pdfrwt beam="1">  1        2 0.42593775E+00 0.21778606E+04</pdfrwt>
<pdfrwt beam="2">  1       -2 0.65891186E-01 0.21778606E+04</pdfrwt>
<totfact> 0.46925873E+00</totfact>
</mgrwt>
</event>
<event>
12    1  0.1489025E-007  0.1485888E+04  0.7818608E-02  0.8893892E-01
          1   -1    0    0  501    0  0.00000000000E+00  0.00000000000E+00  0.26852634656E+04  0.26852634656E+04  0.00000000000E+00 0. -1.
         -1   -1    0    0    0  501 -0.00000000000E+00 -0.00000000000E+00 -0.20555363204E+03  0.20555363204E+03  0.00000000000E+00 0.  1.
         23    2    1    2    0    0 -0.33911408732E+02  0.80011891091E+02  0.16786132057E+04  0.16835160509E+04  0.94509857717E+02 0.  0.
        254    2    1    2    0    0  0.33911408732E+02 -0.80011891091E+02  0.80109662791E+03  0.12073010467E+04  0.89903733170E+03 0.  0.
        -24    2    4    4    0    0  0.43781262844E+03  0.65501085858E+01  0.58306286302E+03  0.73351473054E+03  0.79741809240E+02 0.  0.
         24    2    4    4    0    0 -0.40390121971E+03 -0.86561999677E+02  0.21803376490E+03  0.47378631618E+03  0.79407655118E+02 0.  0.
         13    1    3    3    0    0 -0.98318429956E+01  0.81043436122E+02  0.15758941682E+04  0.15780073298E+04  0.00000000000E+00 0. -1.
        -13    1    3    3    0    0 -0.24079565736E+02 -0.10315450303E+01  0.10271903749E+03  0.10550872113E+03  0.00000000000E+00 0.  1.
          4    1    6    6  502    0 -0.38595525874E+03 -0.68009884817E+02  0.18950793891E+03  0.43531605196E+03  0.00000000000E+00 0. -1.
          3    1    5    5  503    0  0.21503702806E+03 -0.64536811051E+01  0.35009628236E+03  0.41091359233E+03  0.00000000000E+00 0. -1.
         -4    1    5    5    0  503  0.22277560038E+03  0.13003789691E+02  0.23296658065E+03  0.32260113821E+03  0.00000000000E+00 0.  1.
         -3    1    6    6    0  502 -0.17945960971E+02 -0.18552114860E+02  0.28525825991E+02  0.38470264224E+02  0.00000000000E+00 0.  1.
<mgrwt>
<rscale>  0 0.14858878E+04</rscale>
<asrwt>0</asrwt>
<pdfrwt beam="1">  1        1 0.41311743E+00 0.14858878E+04</pdfrwt>
<pdfrwt beam="2">  1       -1 0.31623638E-01 0.14858878E+04</pdfrwt>
<totfact> 0.90867261E+00</totfact>
</mgrwt>
</event>
<event>
12    1  0.1489025E-007  0.1165655E+04  0.7818608E-02  0.9143462E-01
          1   -1    0    0  501    0  0.00000000000E+00  0.00000000000E+00  0.13524518742E+04  0.13524518742E+04  0.00000000000E+00 0. -1.
         -1   -1    0    0    0  501 -0.00000000000E+00 -0.00000000000E+00 -0.25116428304E+03  0.25116428304E+03  0.00000000000E+00 0.  1.
         23    2    1    2    0    0 -0.18733703443E+03 -0.25341501816E+02  0.36521200194E+03  0.42063159282E+03  0.88395556063E+02 0.  0.
        254    2    1    2    0    0  0.18733703443E+03  0.25341501816E+02  0.73607558919E+03  0.11829845644E+04  0.90659133593E+03 0.  0.
        -24    2    4    4    0    0  0.40251491871E+03 -0.24301917896E+03  0.67188645348E+03  0.82393288840E+03  0.79733412707E+02 0.  0.
         24    2    4    4    0    0 -0.21517788427E+03  0.26836068077E+03  0.64189135711E+02  0.35905167598E+03  0.80491515200E+02 0.  0.
         11    1    3    3    0    0 -0.14604554784E+03 -0.19616122198E+02  0.18954555830E+03  0.24008667802E+03  0.00000000000E+00 0.  1.
        -11    1    3    3    0    0 -0.41291486598E+02 -0.57253796183E+01  0.17566644365E+03  0.18054491480E+03  0.00000000000E+00 0. -1.
          2    1    6    6  502    0 -0.57506244291E+01  0.50936520144E+02  0.59705934199E+01  0.51606654140E+02  0.00000000000E+00 0. -1.
          1    1    5    5  503    0  0.32934527784E+03 -0.23070357382E+03  0.55175300000E+03  0.68273261532E+03  0.00000000000E+00 0. -1.
         -2    1    5    5    0  503  0.73169640870E+02 -0.12315605131E+02  0.12013345348E+03  0.14120027308E+03  0.00000000000E+00 0.  1.
         -1    1    6    6    0  502 -0.20942725984E+03  0.21742416063E+03  0.58218542292E+02  0.30744502184E+03  0.00000000000E+00 0.  1.
<mgrwt>
<rscale>  0 0.11656545E+04</rscale>
<asrwt>0</asrwt>
<pdfrwt beam="1">  1        1 0.20806951E+00 0.11656545E+04</pdfrwt>
<pdfrwt beam="2">  1       -1 0.38640660E-01 0.11656545E+04</pdfrwt>
<totfact> 0.53402896E+01</totfact>
</mgrwt>
</event>
<event>
12    1  0.1489025E-007  0.1840792E+04  0.7818608E-02  0.8684903E-01
         -2   -1    0    0    0  501 -0.00000000000E+00  0.00000000000E+00  0.51118282201E+03  0.51118282201E+03  0.00000000000E+00 0.  1.
          2   -1    0    0  501    0  0.00000000000E+00 -0.00000000000E+00 -0.16571932472E+04  0.16571932472E+04  0.00000000000E+00 0. -1.
         23    2    1    2    0    0  0.45212943837E+03 -0.35147726730E+03 -0.90266653677E+03  0.10724194190E+04  0.85552528731E+02 0.  0.
        254    2    1    2    0    0 -0.45212943837E+03  0.35147726730E+03 -0.24334388843E+03  0.10959566502E+04  0.90219035279E+03 0.  0.
        -24    2    4    4    0    0 -0.60112401677E+03  0.99409137302E+02  0.11692427908E+03  0.62546699539E+03  0.79406644403E+02 0.  0.
         24    2    4    4    0    0  0.14899457839E+03  0.25206813000E+03 -0.36026816751E+03  0.47048965483E+03  0.76352054513E+02 0.  0.
         13    1    3    3    0    0  0.32461280216E+03 -0.29829434185E+03 -0.69035259042E+03  0.81910907992E+03  0.00000000000E+00 0. -1.
        -13    1    3    3    0    0  0.12751663621E+03 -0.53182925446E+02 -0.21231394635E+03  0.25331033908E+03  0.00000000000E+00 0.  1.
          4    1    6    6  502    0  0.53313151029E+02  0.10924254978E+03 -0.94510664008E+02  0.15397562263E+03  0.00000000000E+00 0. -1.
          1    1    5    5  503    0 -0.13036890759E+03 -0.83074421142E+01  0.11235942676E+02  0.13111564388E+03  0.00000000000E+00 0. -1.
         -2    1    5    5    0  503 -0.47075510917E+03  0.10771657942E+03  0.10568833641E+03  0.49435135152E+03  0.00000000000E+00 0.  1.
         -3    1    6    6    0  502  0.95681427365E+02  0.14282558022E+03 -0.26575750350E+03  0.31651403219E+03  0.00000000000E+00 0.  1.
<mgrwt>
<rscale>  0 0.18407919E+04</rscale>
<asrwt>0</asrwt>
<pdfrwt beam="1">  1        2 0.25495280E+00 0.18407919E+04</pdfrwt>
<pdfrwt beam="2">  1       -2 0.78643512E-01 0.18407919E+04</pdfrwt>
<totfact> 0.14003425E+01</totfact>
</mgrwt>
</event>
<event>
12    1  0.1489025E-007  0.1951604E+04  0.7818608E-02  0.8629588E-01
          1   -1    0    0  501    0  0.00000000000E+00  0.00000000000E+00  0.18408434339E+04  0.18408434339E+04  0.00000000000E+00 0. -1.
         -1   -1    0    0    0  501 -0.00000000000E+00 -0.00000000000E+00 -0.51725698764E+03  0.51725698764E+03  0.00000000000E+00 0.  1.
         23    2    1    2    0    0 -0.12764997853E+03  0.75323188763E+03  0.46213661476E+03  0.89755437675E+03  0.91546791083E+02 0.  0.
        254    2    1    2    0    0  0.12764997853E+03 -0.75323188763E+03  0.86144983148E+03  0.14605460448E+04  0.89858007054E+03 0.  0.
        -24    2    4    4    0    0 -0.18478387163E+03  0.10009344956E+03  0.27840775117E+02  0.22479318495E+03  0.74786959973E+02 0.  0.
         24    2    4    4    0    0  0.31243385016E+03 -0.85332533720E+03  0.83360905636E+03  0.12357528598E+04  0.80012685682E+02 0.  0.
         11    1    3    3    0    0 -0.59065117128E+01  0.46650676115E+02  0.57440849568E+02  0.74233575029E+02  0.00000000000E+00 0. -1.
        -11    1    3    3    0    0 -0.12174346682E+03  0.70658121152E+03  0.40469576519E+03  0.82332080172E+03  0.00000000000E+00 0.  1.
          4    1    6    6  502    0  0.30091685322E+03 -0.83842213927E+03  0.80031337874E+03  0.11974991191E+04  0.00000000000E+00 0. -1.
          3    1    5    5  503    0 -0.15102260132E+03  0.53875284720E+02 -0.17638688716E+01  0.16035424424E+03  0.00000000000E+00 0. -1.
         -4    1    5    5    0  503 -0.33761270314E+02  0.46218164840E+02  0.29604643989E+02  0.64438940712E+02  0.00000000000E+00 0.  1.
         -3    1    6    6    0  502  0.11516996939E+02 -0.14903197928E+02  0.33295677619E+02  0.38253740668E+02  0.00000000000E+00 0.  1.
<mgrwt>
<rscale>  0 0.19516036E+04</rscale>
<asrwt>0</asrwt>
<pdfrwt beam="1">  1        1 0.28320668E+00 0.19516036E+04</pdfrwt>
<pdfrwt beam="2">  1       -1 0.79577999E-01 0.19516036E+04</pdfrwt>
<totfact> 0.56156360E+00</totfact>
</mgrwt>
</event>
<event>
12    1  0.1489025E-007  0.1077953E+04  0.7818608E-02  0.9226951E-01
          1   -1    0    0  501    0  0.00000000000E+00  0.00000000000E+00  0.16343371630E+04  0.16343371630E+04  0.00000000000E+00 0. -1.
         -1   -1    0    0    0  501 -0.00000000000E+00 -0.00000000000E+00 -0.17774533755E+03  0.17774533755E+03  0.00000000000E+00 0.  1.
         23    2    1    2    0    0 -0.34595771673E+02 -0.89543284290E+02  0.38250434307E+03  0.40468197933E+03  0.90791325303E+02 0.  0.
        254    2    1    2    0    0  0.34595771673E+02  0.89543284290E+02  0.10740874824E+04  0.14074005213E+04  0.90437682422E+03 0.  0.
        -24    2    4    4    0    0 -0.30304088823E+03 -0.17420428547E+03  0.83768330023E+03  0.91131419003E+03  0.81236250817E+02 0.  0.
         24    2    4    4    0    0  0.33763665990E+03  0.26374756976E+03  0.23640418219E+03  0.49608633124E+03  0.81568474421E+02 0.  0.
         13    1    3    3    0    0 -0.22265564851E+02 -0.62371498806E+02  0.36309701871E+03  0.36908725830E+03  0.00000000000E+00 0. -1.
        -13    1    3    3    0    0 -0.12330206822E+02 -0.27171785484E+02  0.19407324356E+02  0.35594721032E+02  0.00000000000E+00 0.  1.
          4    1    6    6  502    0  0.13447434684E+03  0.10230405128E+03  0.48784573460E+02  0.17586757369E+03  0.00000000000E+00 0. -1.
          3    1    5    5  503    0 -0.32797509386E+02  0.66689292248E+01  0.69611529480E+02  0.77239344090E+02  0.00000000000E+00 0. -1.
         -4    1    5    5    0  503 -0.27024337884E+03 -0.18087321470E+03  0.76807177075E+03  0.83407484594E+03  0.00000000000E+00 0.  1.
         -3    1    6    6    0  502  0.20316231306E+03  0.16144351848E+03  0.18761960873E+03  0.32021875755E+03  0.00000000000E+00 0.  1.
<mgrwt>
<rscale>  0 0.10779533E+04</rscale>
<asrwt>0</asrwt>
<pdfrwt beam="1">  1        1 0.25143648E+00 0.10779533E+04</pdfrwt>
<pdfrwt beam="2">  1       -1 0.27345438E-01 0.10779533E+04</pdfrwt>
<totfact> 0.63301176E+01</totfact>
</mgrwt>
</event>
<event>
12    1  0.1489025E-007  0.3129413E+04  0.7818608E-02  0.8207712E-01
         -2   -1    0    0    0  501 -0.00000000000E+00  0.00000000000E+00  0.76084899363E+03  0.76084899363E+03  0.00000000000E+00 0.  1.
          2   -1    0    0  501    0  0.00000000000E+00 -0.00000000000E+00 -0.32178609109E+04  0.32178609109E+04  0.00000000000E+00 0. -1.
         23    2    1    2    0    0 -0.12661251035E+04 -0.52086782052E+03 -0.59364199067E+03  0.14949694316E+04  0.90259206237E+02 0.  0.
        254    2    1    2    0    0  0.12661251035E+04  0.52086782052E+03 -0.18633699266E+04  0.24837404729E+04  0.90688653611E+03 0.  0.
        -24    2    4    4    0    0  0.21391301248E+03  0.27062018905E+03 -0.11050795068E+04  0.11604979650E+04  0.80998436728E+02 0.  0.
         24    2    4    4    0    0  0.10522120910E+04  0.25024763147E+03 -0.75829041978E+03  0.13232425079E+04  0.78690612995E+02 0.  0.
         11    1    3    3    0    0 -0.65041825982E+03 -0.28528350103E+03 -0.35361594309E+03  0.79339449448E+03  0.00000000000E+00 0. -1.
        -11    1    3    3    0    0 -0.61570684364E+03 -0.23558431949E+03 -0.24002604758E+03  0.70157493713E+03  0.00000000000E+00 0.  1.
          2    1    6    6  502    0  0.29683672996E+03  0.84504500089E+02 -0.17692389921E+03  0.35574586562E+03  0.00000000000E+00 0. -1.
          1    1    5    5  503    0  0.11230635593E+03  0.86245571067E+02 -0.50932075392E+03  0.52863848373E+03  0.00000000000E+00 0. -1.
         -2    1    5    5    0  503  0.10160665655E+03  0.18437461799E+03 -0.59575875288E+03  0.63185948125E+03  0.00000000000E+00 0.  1.
         -1    1    6    6    0  502  0.75537536102E+03  0.16574313138E+03 -0.58136652056E+03  0.96749664230E+03  0.00000000000E+00 0.  1.
<mgrwt>
<rscale>  0 0.31294129E+04</rscale>
<asrwt>0</asrwt>
<pdfrwt beam="1">  1        2 0.49505554E+00 0.31294129E+04</pdfrwt>
<pdfrwt beam="2">  1       -2 0.11705369E+00 0.31294129E+04</pdfrwt>
<totfact> 0.60315336E-01</totfact>
</mgrwt>
</event>
<event>
12    1  0.1489025E-007  0.1832894E+04  0.7818608E-02  0.8689000E-01
         -2   -1    0    0    0  501 -0.00000000000E+00  0.00000000000E+00  0.42598686592E+03  0.42598686592E+03  0.00000000000E+00 0.  1.
          2   -1    0    0  501    0  0.00000000000E+00 -0.00000000000E+00 -0.19715995234E+04  0.19715995234E+04  0.00000000000E+00 0. -1.
         23    2    1    2    0    0  0.36056823078E+02 -0.44972424797E+03  0.94644967865E+02  0.46985376368E+03  0.90845448977E+02 0.  0.
        254    2    1    2    0    0 -0.36056823078E+02  0.44972424797E+03 -0.16402576253E+04  0.19277326256E+04  0.90672818679E+03 0.  0.
        -24    2    4    4    0    0 -0.32561311370E+02  0.72174858832E+03 -0.11013299721E+04  0.13195842733E+04  0.79960510064E+02 0.  0.
         24    2    4    4    0    0 -0.34955117082E+01 -0.27202434035E+03 -0.53892765322E+03  0.60814835231E+03  0.73429848554E+02 0.  0.
         13    1    3    3    0    0 -0.11845433816E+02 -0.43844252038E+02 -0.12958931416E+02  0.47228875093E+02  0.00000000000E+00 0. -1.
        -13    1    3    3    0    0  0.47902256894E+02 -0.40587999593E+03  0.10760389928E+03  0.42262488859E+03  0.00000000000E+00 0.  1.
          4    1    6    6  502    0  0.27469451930E+02 -0.18629201588E+03 -0.32502717496E+03  0.37563539561E+03  0.00000000000E+00 0. -1.
          3    1    5    5  503    0 -0.50062988211E+02  0.66511637691E+03 -0.10256209293E+04  0.12234313990E+04  0.00000000000E+00 0. -1.
         -4    1    5    5    0  503  0.17501676840E+02  0.56632211405E+02 -0.75709042808E+02  0.96152874236E+02  0.00000000000E+00 0.  1.
         -3    1    6    6    0  502 -0.30964963638E+02 -0.85732324473E+02 -0.21390047826E+03  0.23251295670E+03  0.00000000000E+00 0.  1.
<mgrwt>
<rscale>  0 0.18328944E+04</rscale>
<asrwt>0</asrwt>
<pdfrwt beam="1">  1        2 0.30332300E+00 0.18328944E+04</pdfrwt>
<pdfrwt beam="2">  1       -2 0.65536443E-01 0.18328944E+04</pdfrwt>
<totfact> 0.13992284E+01</totfact>
</mgrwt>
</event>
<event>
12    1  0.1884578E-007  0.1958524E+04  0.7818608E-02  0.8626261E-01
         -2   -1    0    0    0  501 -0.00000000000E+00  0.00000000000E+00  0.55981535773E+03  0.55981535773E+03  0.00000000000E+00 0.  1.
          2   -1    0    0  501    0  0.00000000000E+00 -0.00000000000E+00 -0.17129832364E+04  0.17129832364E+04  0.00000000000E+00 0. -1.
         23    2    1    2    0    0  0.64938347597E+03  0.31386326645E+03 -0.24087574653E+03  0.76561894504E+03  0.89118992626E+02 0.  0.
        254    2    1    2    0    0 -0.64938347597E+03 -0.31386326645E+03 -0.91229213217E+03  0.15071796491E+04  0.95869938532E+03 0.  0.
        -24    2    4    4    0    0 -0.61564044857E+01  0.11732288822E+03 -0.67963904184E+03  0.69442867428E+03  0.80742770893E+02 0.  0.
         24    2    4    4    0    0 -0.64322707149E+03 -0.43118615467E+03 -0.23265309033E+03  0.81275097485E+03  0.82305049667E+02 0.  0.
         13    1    3    3    0    0  0.10770555632E+02  0.71752894606E+01 -0.19490007514E+02  0.23395513253E+02  0.00000000000E+00 0. -1.
        -13    1    3    3    0    0  0.63861292034E+03  0.30668797699E+03 -0.22138573902E+03  0.74222343179E+03  0.00000000000E+00 0.  1.
          2    1    6    6  502    0 -0.63629745303E+03 -0.41175710950E+03 -0.22340097449E+03  0.79014325370E+03  0.00000000000E+00 0. -1.
          3    1    5    5  503    0 -0.28779096609E+02  0.76820102044E+02 -0.56228172184E+03  0.56823436995E+03  0.00000000000E+00 0. -1.
         -4    1    5    5    0  503  0.22622692123E+02  0.40502786176E+02 -0.11735731999E+03  0.12619430432E+03  0.00000000000E+00 0.  1.
         -1    1    6    6    0  502 -0.69296184545E+01 -0.19429045163E+02 -0.92521158447E+01  0.22607721147E+02  0.00000000000E+00 0.  1.
<mgrwt>
<rscale>  0 0.19585243E+04</rscale>
<asrwt>0</asrwt>
<pdfrwt beam="1">  1        2 0.26353589E+00 0.19585243E+04</pdfrwt>
<pdfrwt beam="2">  1       -2 0.86125439E-01 0.19585243E+04</pdfrwt>
<totfact> 0.10512400E+01</totfact>
</mgrwt>
</event>
<event>
12    1  0.1489025E-007  0.2511556E+04  0.7818608E-02  0.8398880E-01
         -1   -1    0    0    0  501 -0.00000000000E+00  0.00000000000E+00  0.89892430594E+03  0.89892430594E+03  0.00000000000E+00 0.  1.
          1   -1    0    0  501    0  0.00000000000E+00 -0.00000000000E+00 -0.17542952103E+04  0.17542952103E+04  0.00000000000E+00 0. -1.
         23    2    1    2    0    0  0.18876702315E+03  0.34290369786E+03 -0.14594246470E+04  0.15136799821E+04  0.89949169097E+02 0.  0.
        254    2    1    2    0    0 -0.18876702315E+03 -0.34290369786E+03  0.60405374262E+03  0.11395395341E+04  0.88343278793E+03 0.  0.
        -24    2    4    4    0    0  0.34283042839E+03 -0.19176481743E+03  0.32160223873E+03  0.51388196669E+03  0.79625547998E+02 0.  0.
         24    2    4    4    0    0 -0.53159745154E+03 -0.15113888044E+03  0.28245150389E+03  0.62565756743E+03  0.78928625724E+02 0.  0.
         11    1    3    3    0    0  0.15569099149E+03  0.28940658659E+03 -0.10738549515E+04  0.11230139420E+04  0.00000000000E+00 0.  1.
        -11    1    3    3    0    0  0.33076031658E+02  0.53497111266E+02 -0.38556969551E+03  0.39066604009E+03  0.00000000000E+00 0. -1.
          4    1    6    6  502    0 -0.20463204646E+03 -0.90196666701E+02  0.14001719845E+03  0.26384565372E+03  0.00000000000E+00 0. -1.
          1    1    5    5  503    0  0.19658451394E+03 -0.75967826415E+02  0.13653313945E+03  0.25111328109E+03  0.00000000000E+00 0. -1.
         -2    1    5    5    0  503  0.14624591445E+03 -0.11579699101E+03  0.18506909928E+03  0.26276868560E+03  0.00000000000E+00 0.  1.
         -3    1    6    6    0  502 -0.32696540508E+03 -0.60942213734E+02  0.14243430544E+03  0.36181191371E+03  0.00000000000E+00 0.  1.
<mgrwt>
<rscale>  0 0.25115562E+04</rscale>
<asrwt>0</asrwt>
<pdfrwt beam="1">  1        1 0.26989157E+00 0.25115562E+04</pdfrwt>
<pdfrwt beam="2">  1       -1 0.13829605E+00 0.25115562E+04</pdfrwt>
<totfact> 0.16809640E+00</totfact>
</mgrwt>
</event>
<event>
12    1  0.1489025E-007  0.1833199E+04  0.7818608E-02  0.8688841E-01
          1   -1    0    0  501    0  0.00000000000E+00  0.00000000000E+00  0.22782101424E+04  0.22782101424E+04  0.00000000000E+00 0. -1.
         -1   -1    0    0    0  501 -0.00000000000E+00 -0.00000000000E+00 -0.36877844393E+03  0.36877844393E+03  0.00000000000E+00 0.  1.
         23    2    1    2    0    0 -0.28770927796E+03 -0.54892896842E+03  0.11440575660E+04  0.13043748829E+04  0.91795860023E+02 0.  0.
        254    2    1    2    0    0  0.28770927796E+03  0.54892896842E+03  0.76537413246E+03  0.13426137034E+04  0.91253183664E+03 0.  0.
        -24    2    4    4    0    0 -0.16936725804E+03  0.50460083923E+03  0.68248409507E+03  0.86918690246E+03  0.79962843459E+02 0.  0.
         24    2    4    4    0    0  0.45707653601E+03  0.44328129187E+02  0.82890037392E+02  0.47342680093E+03  0.79863851205E+02 0.  0.
         13    1    3    3    0    0 -0.15622046683E+03 -0.36090362762E+03  0.65132866492E+03  0.76084511725E+03  0.00000000000E+00 0.  1.
        -13    1    3    3    0    0 -0.13148881113E+03 -0.18802534080E+03  0.49272890105E+03  0.54352976567E+03  0.00000000000E+00 0. -1.
          4    1    6    6  502    0  0.34124162388E+03 -0.20806595989E+01  0.56801933605E+02  0.34594310901E+03  0.00000000000E+00 0. -1.
          1    1    5    5  503    0 -0.15376441829E+03  0.34434282827E+03  0.48621773649E+03  0.61532362785E+03  0.00000000000E+00 0. -1.
         -2    1    5    5    0  503 -0.15602839756E+02  0.16025801096E+03  0.19626635858E+03  0.25386327461E+03  0.00000000000E+00 0.  1.
         -3    1    6    6    0  502  0.11583491213E+03  0.46408788786E+02  0.26088103787E+02  0.12748369191E+03  0.00000000000E+00 0.  1.
<mgrwt>
<rscale>  0 0.18331992E+04</rscale>
<asrwt>0</asrwt>
<pdfrwt beam="1">  1        1 0.35049386E+00 0.18331992E+04</pdfrwt>
<pdfrwt beam="2">  1       -1 0.56735147E-01 0.18331992E+04</pdfrwt>
<totfact> 0.57023392E+00</totfact>
</mgrwt>
</event>
<event>
12    1  0.1489025E-007  0.1376762E+04  0.7818608E-02  0.8970813E-01
         -1   -1    0    0    0  501 -0.00000000000E+00  0.00000000000E+00  0.21005507137E+03  0.21005507137E+03  0.00000000000E+00 0.  1.
          1   -1    0    0  501    0  0.00000000000E+00 -0.00000000000E+00 -0.22559262021E+04  0.22559262021E+04  0.00000000000E+00 0. -1.
         23    2    1    2    0    0 -0.31409566815E+03  0.96332625897E+02 -0.91140904060E+03  0.97280173400E+03  0.87981309500E+02 0.  0.
        254    2    1    2    0    0  0.31409566815E+03 -0.96332625897E+02 -0.11344620902E+04  0.14931795395E+04  0.91358898835E+03 0.  0.
        -24    2    4    4    0    0  0.63146127146E+03 -0.85708988477E+02 -0.70316753362E+03  0.95237131795E+03  0.80480922288E+02 0.  0.
         24    2    4    4    0    0 -0.31736560331E+03 -0.10623637421E+02 -0.43129455655E+03  0.54080822157E+03  0.74998334470E+02 0.  0.
         13    1    3    3    0    0 -0.25762943589E+02  0.98516193236E+01 -0.27123693493E+02  0.38684343272E+02  0.00000000000E+00 0.  1.
        -13    1    3    3    0    0 -0.28833272456E+03  0.86481006574E+02 -0.88428534711E+03  0.93411739073E+03  0.00000000000E+00 0. -1.
          2    1    6    6  502    0 -0.13151084345E+02  0.12026835455E+02 -0.93105937446E+01  0.20106788565E+02  0.00000000000E+00 0. -1.
          3    1    5    5  503    0  0.26181434886E+03 -0.18790346127E+02 -0.23671421412E+03  0.35345926150E+03  0.00000000000E+00 0. -1.
         -4    1    5    5    0  503  0.36964692260E+03 -0.66918642349E+02 -0.46645331950E+03  0.59891205645E+03  0.00000000000E+00 0.  1.
         -1    1    6    6    0  502 -0.30421451896E+03 -0.22650472875E+02 -0.42198396280E+03  0.52070143300E+03  0.00000000000E+00 0.  1.
<mgrwt>
<rscale>  0 0.13767625E+04</rscale>
<asrwt>0</asrwt>
<pdfrwt beam="1">  1        1 0.34706557E+00 0.13767625E+04</pdfrwt>
<pdfrwt beam="2">  1       -1 0.32316165E-01 0.13767625E+04</pdfrwt>
<totfact> 0.17475635E+01</totfact>
</mgrwt>
</event>
<event>
12    1  0.1489025E-007  0.1261920E+04  0.7818608E-02  0.9060320E-01
         -2   -1    0    0    0  501 -0.00000000000E+00  0.00000000000E+00  0.18947982329E+04  0.18947982329E+04  0.00000000000E+00 0.  1.
          2   -1    0    0  501    0  0.00000000000E+00 -0.00000000000E+00 -0.21010718443E+03  0.21010718443E+03  0.00000000000E+00 0. -1.
         23    2    1    2    0    0 -0.96749881580E+01 -0.24075020310E+02  0.92997376409E+03  0.93495884723E+03  0.92863513379E+02 0.  0.
        254    2    1    2    0    0  0.96749881580E+01  0.24075020310E+02  0.75471728436E+03  0.11699465701E+04  0.89359027832E+03 0.  0.
        -24    2    4    4    0    0  0.33939389213E+03 -0.10283254049E+01  0.72695824107E+01  0.34875398321E+03  0.79920100783E+02 0.  0.
         24    2    4    4    0    0 -0.32971890397E+03  0.25103345715E+02  0.74744770195E+03  0.82119258686E+03  0.79589345786E+02 0.  0.
         13    1    3    3    0    0  0.31481482304E+02 -0.18338991579E+02  0.17050505742E+03  0.17435417100E+03  0.00000000000E+00 0. -1.
        -13    1    3    3    0    0 -0.41156470462E+02 -0.57360287313E+01  0.75946870667E+03  0.76060467623E+03  0.00000000000E+00 0.  1.
          4    1    6    6  502    0 -0.33287987062E+03  0.29396344112E+02  0.72813821319E+03  0.80116066480E+03  0.00000000000E+00 0. -1.
          3    1    5    5  503    0  0.34255850416E+03 -0.43794535540E+01  0.31940939178E+01  0.34260138737E+03  0.00000000000E+00 0. -1.
         -4    1    5    5    0  503 -0.31646120337E+01  0.33511281491E+01  0.40754884929E+01  0.61525958466E+01  0.00000000000E+00 0.  1.
         -3    1    6    6    0  502  0.31609666483E+01 -0.42929983970E+01  0.19309488759E+02  0.20031922062E+02  0.00000000000E+00 0.  1.
<mgrwt>
<rscale>  0 0.12619203E+04</rscale>
<asrwt>0</asrwt>
<pdfrwt beam="1">  1        2 0.32324184E-01 0.12619203E+04</pdfrwt>
<pdfrwt beam="2">  1       -2 0.29150741E+00 0.12619203E+04</pdfrwt>
<totfact> 0.57963561E+00</totfact>
</mgrwt>
</event>
<event>
12    1  0.1489025E-007  0.1442166E+04  0.7818608E-02  0.8923850E-01
          1   -1    0    0  501    0  0.00000000000E+00  0.00000000000E+00  0.47901777213E+03  0.47901777213E+03  0.00000000000E+00 0. -1.
         -1   -1    0    0    0  501 -0.00000000000E+00 -0.00000000000E+00 -0.10854725353E+04  0.10854725353E+04  0.00000000000E+00 0.  1.
         23    2    1    2    0    0 -0.27881595951E+03 -0.27491061372E+03 -0.44475354279E+03  0.59943485410E+03  0.90566250217E+02 0.  0.
        254    2    1    2    0    0  0.27881595951E+03  0.27491061372E+03 -0.16170122037E+03  0.96505545332E+03  0.86710469870E+03 0.  0.
        -24    2    4    4    0    0 -0.14174630005E+03 -0.20227449274E+03 -0.19264184659E+03  0.32316764236E+03  0.79495031399E+02 0.  0.
         24    2    4    4    0    0  0.42056225956E+03  0.47718510646E+03  0.30940626219E+02  0.64188781096E+03  0.80525769281E+02 0.  0.
         11    1    3    3    0    0 -0.91079906012E+02 -0.36237403201E+02 -0.11690617366E+03  0.15256392795E+03  0.00000000000E+00 0. -1.
        -11    1    3    3    0    0 -0.18773605349E+03 -0.23867321052E+03 -0.32784736913E+03  0.44687092616E+03  0.00000000000E+00 0.  1.
          4    1    6    6  502    0  0.30331091900E+03  0.39276516918E+03  0.33585698851E+02  0.49738314293E+03  0.00000000000E+00 0. -1.
          3    1    5    5  503    0 -0.11034547330E+03 -0.14377832116E+03 -0.93738409284E+02  0.20404709870E+03  0.00000000000E+00 0. -1.
         -4    1    5    5    0  503 -0.31400826755E+02 -0.58496171589E+02 -0.98903437309E+02  0.11912054367E+03  0.00000000000E+00 0.  1.
         -3    1    6    6    0  502  0.11725134056E+03  0.84419937281E+02 -0.26450726320E+01  0.14450466803E+03  0.00000000000E+00 0.  1.
<mgrwt>
<rscale>  0 0.14421659E+04</rscale>
<asrwt>0</asrwt>
<pdfrwt beam="1">  1        1 0.73695041E-01 0.14421659E+04</pdfrwt>
<pdfrwt beam="2">  1       -1 0.16699578E+00 0.14421659E+04</pdfrwt>
<totfact> 0.11832868E+01</totfact>
</mgrwt>
</event>
<event>
12    1  0.1489025E-007  0.2187457E+04  0.7818608E-02  0.8523667E-01
          2   -1    0    0  501    0  0.00000000000E+00  0.00000000000E+00  0.10112687969E+04  0.10112687969E+04  0.00000000000E+00 0.  1.
         -2   -1    0    0    0  501 -0.00000000000E+00 -0.00000000000E+00 -0.11829117196E+04  0.11829117196E+04  0.00000000000E+00 0. -1.
         23    2    1    2    0    0  0.50024242830E+03  0.58613937725E+03  0.41726050016E+03  0.88128088039E+03  0.93529719921E+02 0.  0.
        254    2    1    2    0    0 -0.50024242830E+03 -0.58613937725E+03 -0.58890342285E+03  0.13128996361E+04  0.88492731705E+03 0.  0.
        -24    2    4    4    0    0 -0.62945444662E+03 -0.66486616335E+03 -0.28168053365E+03  0.96127159786E+03  0.80244914327E+02 0.  0.
         24    2    4    4    0    0  0.12921201832E+03  0.78726786102E+02 -0.30722288920E+03  0.35162803827E+03  0.79766666728E+02 0.  0.
         11    1    3    3    0    0  0.21851944468E+03  0.31017886192E+03  0.16961613133E+03  0.41560955968E+03  0.00000000000E+00 0.  1.
        -11    1    3    3    0    0  0.28172298361E+03  0.27596051532E+03  0.24764436883E+03  0.46567132071E+03  0.00000000000E+00 0. -1.
          2    1    6    6  502    0 -0.93630353578E+01  0.24485740267E+01 -0.39485308803E+02  0.40654047242E+02  0.00000000000E+00 0. -1.
          3    1    5    5  503    0 -0.12115141432E+03 -0.16980935334E+03 -0.82308682766E+02  0.22424897087E+03  0.00000000000E+00 0. -1.
         -4    1    5    5    0  503 -0.50830303229E+03 -0.49505681001E+03 -0.19937185088E+03  0.73702262699E+03  0.00000000000E+00 0.  1.
         -1    1    6    6    0  502  0.13857505368E+03  0.76278212076E+02 -0.26773758040E+03  0.31097399103E+03  0.00000000000E+00 0.  1.
<mgrwt>
<rscale>  0 0.21874567E+04</rscale>
<asrwt>0</asrwt>
<pdfrwt beam="1">  1        2 0.15557982E+00 0.21874567E+04</pdfrwt>
<pdfrwt beam="2">  1       -2 0.18198642E+00 0.21874567E+04</pdfrwt>
<totfact> 0.39816551E+00</totfact>
</mgrwt>
</event>
<event>
12    1  0.1489025E-007  0.1814814E+04  0.7818608E-02  0.8698461E-01
         -2   -1    0    0    0  501 -0.00000000000E+00  0.00000000000E+00  0.32656555343E+03  0.32656555343E+03  0.00000000000E+00 0.  1.
          2   -1    0    0  501    0  0.00000000000E+00 -0.00000000000E+00 -0.25213542632E+04  0.25213542632E+04  0.00000000000E+00 0. -1.
         23    2    1    2    0    0  0.17314948872E+03  0.69007994311E+03 -0.11370276272E+04  0.13445401434E+04  0.93623175092E+02 0.  0.
        254    2    1    2    0    0 -0.17314948872E+03 -0.69007994311E+03 -0.10577610826E+04  0.15033796732E+04  0.79693215566E+03 0.  0.
        -24    2    4    4    0    0  0.12241759986E+03 -0.19958069792E+03  0.50964944109E+02  0.25315308921E+03  0.81673357409E+02 0.  0.
         24    2    4    4    0    0 -0.29556708858E+03 -0.49049924519E+03 -0.11087260267E+04  0.12502265840E+04  0.76444069465E+02 0.  0.
         13    1    3    3    0    0  0.76370638311E+02  0.48001415481E+03 -0.75316647065E+03  0.89638484800E+03  0.00000000000E+00 0. -1.
        -13    1    3    3    0    0  0.96778850406E+02  0.21006578830E+03 -0.38386115659E+03  0.44815529545E+03  0.00000000000E+00 0.  1.
          4    1    6    6  502    0 -0.27921420532E+03 -0.47703023632E+03 -0.10891616735E+04  0.12213891967E+04  0.00000000000E+00 0. -1.
          3    1    5    5  503    0  0.82330219248E+02 -0.18303727325E+03  0.58684135299E+02  0.20910460573E+03  0.00000000000E+00 0. -1.
         -4    1    5    5    0  503  0.40087380612E+02 -0.16543424661E+02 -0.77191911902E+01  0.44048483475E+02  0.00000000000E+00 0.  1.
         -3    1    6    6    0  502 -0.16352883261E+02 -0.13469008867E+02 -0.19564353145E+02  0.28837387274E+02  0.00000000000E+00 0.  1.
<mgrwt>
<rscale>  0 0.18148140E+04</rscale>
<asrwt>0</asrwt>
<pdfrwt beam="1">  1        2 0.38790068E+00 0.18148140E+04</pdfrwt>
<pdfrwt beam="2">  1       -2 0.50240851E-01 0.18148140E+04</pdfrwt>
<totfact> 0.11968488E+01</totfact>
</mgrwt>
</event>
<event>
12    1  0.1489025E-007  0.3041515E+04  0.7818608E-02  0.8231974E-01
          1   -1    0    0  501    0  0.00000000000E+00  0.00000000000E+00  0.36378420554E+04  0.36378420554E+04  0.00000000000E+00 0.  1.
         -1   -1    0    0    0  501 -0.00000000000E+00 -0.00000000000E+00 -0.63573506542E+03  0.63573506542E+03  0.00000000000E+00 0. -1.
         23    2    1    2    0    0  0.45015528240E+03 -0.13053942339E+04  0.11838352435E+04  0.18211226754E+04  0.91258046599E+02 0.  0.
        254    2    1    2    0    0 -0.45015528240E+03  0.13053942339E+04  0.18182717465E+04  0.24524544454E+04  0.89539196924E+03 0.  0.
        -24    2    4    4    0    0 -0.23990925765E+03  0.89124122407E+03  0.50084747337E+03  0.10532875708E+04  0.81848298190E+02 0.  0.
         24    2    4    4    0    0 -0.21024602475E+03  0.41415300981E+03  0.13174242731E+04  0.13991668746E+04  0.79593473393E+02 0.  0.
         13    1    3    3    0    0  0.41302230300E+03 -0.11316693686E+04  0.10592412942E+04  0.16041368713E+04  0.00000000000E+00 0. -1.
        -13    1    3    3    0    0  0.37132979398E+02 -0.17372486531E+03  0.12459394926E+03  0.21698580410E+03  0.00000000000E+00 0.  1.
          4    1    6    6  502    0 -0.17025170003E+03  0.29067257126E+03  0.85798749260E+03  0.92174764578E+03  0.00000000000E+00 0. -1.
          1    1    5    5  503    0 -0.66032167859E+01  0.12605681213E+03  0.57830940562E+02  0.13884646212E+03  0.00000000000E+00 0. -1.
         -2    1    5    5    0  503 -0.23330604086E+03  0.76518441193E+03  0.44301653281E+03  0.91444110872E+03  0.00000000000E+00 0.  1.
         -3    1    6    6    0  502 -0.39994324721E+02  0.12348043856E+03  0.45943678054E+03  0.47741922880E+03  0.00000000000E+00 0.  1.
<mgrwt>
<rscale>  0 0.30415153E+04</rscale>
<asrwt>0</asrwt>
<pdfrwt beam="1">  1        1 0.55966800E+00 0.30415153E+04</pdfrwt>
<pdfrwt beam="2">  1       -1 0.97805397E-01 0.30415153E+04</pdfrwt>
<totfact> 0.16469562E-01</totfact>
</mgrwt>
</event>
<event>
12    1  0.1489025E-007  0.4392735E+04  0.7818608E-02  0.7929690E-01
         -2   -1    0    0    0  501 -0.00000000000E+00  0.00000000000E+00  0.16128270778E+04  0.16128270778E+04  0.00000000000E+00 0. -1.
          2   -1    0    0  501    0  0.00000000000E+00 -0.00000000000E+00 -0.29910399003E+04  0.29910399003E+04  0.00000000000E+00 0.  1.
         23    2    1    2    0    0  0.18308733824E+04 -0.82108560969E+03 -0.11784397864E+02  0.20092606615E+04  0.10349209157E+03 0.  0.
        254    2    1    2    0    0 -0.18308733824E+04  0.82108560969E+03 -0.13664284246E+04  0.25946063166E+04  0.91573815993E+03 0.  0.
        -24    2    4    4    0    0 -0.11939847311E+04  0.96336513072E+03 -0.10771010108E+04  0.18762889895E+04  0.81497676133E+02 0.  0.
         24    2    4    4    0    0 -0.63688865136E+03 -0.14227952102E+03 -0.28932741377E+03  0.71831732715E+03  0.79992585854E+02 0.  0.
         13    1    3    3    0    0  0.61290192911E+03 -0.26599754468E+03 -0.52034568369E+02  0.67015749253E+03  0.00000000000E+00 0. -1.
        -13    1    3    3    0    0  0.12179714533E+04 -0.55508806501E+03  0.40250170506E+02  0.13391031690E+04  0.00000000000E+00 0.  1.
          4    1    6    6  502    0 -0.14515580463E+03 -0.42924986361E+02 -0.32873238643E+02  0.15489806936E+03  0.00000000000E+00 0. -1.
          1    1    5    5  503    0 -0.51447796604E+02  0.56153648448E+02 -0.37670648032E+02  0.84965791543E+02  0.00000000000E+00 0. -1.
         -2    1    5    5    0  503 -0.11425369345E+04  0.90721148227E+03 -0.10394303628E+04  0.17913231979E+04  0.00000000000E+00 0.  1.
         -3    1    6    6    0  502 -0.49173284672E+03 -0.99354534663E+02 -0.25645417513E+03  0.56341925779E+03  0.00000000000E+00 0.  1.
<mgrwt>
<rscale>  0 0.43927350E+04</rscale>
<asrwt>0</asrwt>
<pdfrwt beam="1">  1        2 0.46015998E+00 0.43927350E+04</pdfrwt>
<pdfrwt beam="2">  1       -2 0.24812725E+00 0.43927350E+04</pdfrwt>
<totfact> 0.88914296E-02</totfact>
</mgrwt>
</event>
<event>
12    1  0.1489025E-007  0.1454125E+04  0.7818608E-02  0.8915546E-01
         -2   -1    0    0    0  501 -0.00000000000E+00  0.00000000000E+00  0.74167945528E+03  0.74167945528E+03  0.00000000000E+00 0.  1.
          2   -1    0    0  501    0  0.00000000000E+00 -0.00000000000E+00 -0.71273338567E+03  0.71273338567E+03  0.00000000000E+00 0. -1.
         23    2    1    2    0    0 -0.25154804086E+03 -0.22581714476E+03 -0.26540019824E+03  0.43848158833E+03  0.86942730275E+02 0.  0.
        254    2    1    2    0    0  0.25154804086E+03  0.22581714476E+03  0.29434626785E+03  0.10159312526E+04  0.91170542662E+03 0.  0.
        -24    2    4    4    0    0 -0.95563607143E+02 -0.98369306738E+02 -0.24556224121E+03  0.29230006075E+03  0.79558705936E+02 0.  0.
         24    2    4    4    0    0  0.34711164800E+03  0.32418645150E+03  0.53990850906E+03  0.72363119187E+03  0.80978714343E+02 0.  0.
         13    1    3    3    0    0 -0.25408868866E+03 -0.22304549146E+03 -0.26990142270E+03  0.43261660965E+03  0.00000000000E+00 0. -1.
        -13    1    3    3    0    0  0.25406478014E+01 -0.27716533009E+01  0.45012244611E+01  0.58649786803E+01  0.00000000000E+00 0.  1.
          4    1    6    6  502    0  0.33689203527E+03  0.28648078819E+03  0.50475010575E+03  0.67107388168E+03  0.00000000000E+00 0. -1.
          1    1    5    5  503    0 -0.58448425112E+02 -0.58231586177E+02 -0.21358526344E+03  0.22896681154E+03  0.00000000000E+00 0. -1.
         -2    1    5    5    0  503 -0.37115182031E+02 -0.40137720560E+02 -0.31976977770E+02  0.63333249216E+02  0.00000000000E+00 0.  1.
         -3    1    6    6    0  502  0.10219612734E+02  0.37705663316E+02  0.35158403309E+02  0.52557310184E+02  0.00000000000E+00 0.  1.
<mgrwt>
<rscale>  0 0.14541248E+04</rscale>
<asrwt>0</asrwt>
<pdfrwt beam="1">  1        2 0.10965129E+00 0.14541248E+04</pdfrwt>
<pdfrwt beam="2">  1       -2 0.11410453E+00 0.14541248E+04</pdfrwt>
<totfact> 0.23332192E+01</totfact>
</mgrwt>
</event>
<event>
12    1  0.1489025E-007  0.3994145E+04  0.7818608E-02  0.8005729E-01
          2   -1    0    0  501    0  0.00000000000E+00  0.00000000000E+00  0.28994439462E+04  0.28994439462E+04  0.00000000000E+00 0. -1.
         -2   -1    0    0    0  501 -0.00000000000E+00 -0.00000000000E+00 -0.13755389346E+04  0.13755389346E+04  0.00000000000E+00 0.  1.
         23    2    1    2    0    0  0.69373181546E+02 -0.14305886447E+04 -0.60291581089E+03  0.15565313457E+04  0.88802287148E+02 0.  0.
        254    2    1    2    0    0 -0.69373181546E+02  0.14305886447E+04  0.21268208226E+04  0.27184515352E+04  0.90289281139E+03 0.  0.
        -24    2    4    4    0    0 -0.43917500666E+03  0.72251118503E+03  0.79380809778E+03  0.11624242684E+04  0.78751410997E+02 0.  0.
         24    2    4    4    0    0  0.36980182511E+03  0.70807745972E+03  0.13330127248E+04  0.15560272667E+04  0.78554767943E+02 0.  0.
         11    1    3    3    0    0 -0.90450156393E+01 -0.22085049404E+02 -0.15337639812E+02  0.28369083702E+02  0.00000000000E+00 0. -1.
        -11    1    3    3    0    0  0.78418197185E+02 -0.14085035953E+04 -0.58757817108E+03  0.15281622620E+04  0.00000000000E+00 0.  1.
          4    1    6    6  502    0  0.36757261951E+03  0.70986284592E+03  0.13307282109E+04  0.15523699500E+04  0.00000000000E+00 0. -1.
          3    1    5    5  503    0 -0.39789459768E+03  0.60510908679E+03  0.69144886652E+03  0.10012884963E+04  0.00000000000E+00 0. -1.
         -4    1    5    5    0  503 -0.41280408979E+02  0.11740209824E+03  0.10235923126E+03  0.16113577213E+03  0.00000000000E+00 0.  1.
         -3    1    6    6    0  502  0.22292056039E+01 -0.17853861968E+01  0.22845139227E+01  0.36573166884E+01  0.00000000000E+00 0.  1.
<mgrwt>
<rscale>  0 0.39941447E+04</rscale>
<asrwt>0</asrwt>
<pdfrwt beam="1">  1        2 0.44606830E+00 0.39941447E+04</pdfrwt>
<pdfrwt beam="2">  1       -2 0.21162137E+00 0.39941447E+04</pdfrwt>
<totfact> 0.17732530E-01</totfact>
</mgrwt>
</event>
<event>
12    1  0.1686021E-007  0.1445628E+04  0.7818608E-02  0.8921437E-01
         -1   -1    0    0    0  501 -0.00000000000E+00  0.00000000000E+00  0.48933299706E+03  0.48933299706E+03  0.00000000000E+00 0.  1.
          1   -1    0    0  501    0  0.00000000000E+00 -0.00000000000E+00 -0.10676981154E+04  0.10676981154E+04  0.00000000000E+00 0. -1.
         23    2    1    2    0    0  0.53502967035E+02  0.18016073602E+03  0.21815362994E+03  0.30427746724E+03  0.98352999581E+02 0.  0.
        254    2    1    2    0    0 -0.53502967035E+02 -0.18016073602E+03 -0.79651874825E+03  0.12527536452E+04  0.94848780749E+03 0.  0.
        -24    2    4    4    0    0  0.27287431133E+03  0.25631903547E+03 -0.17099466131E+03  0.41920237858E+03  0.79571491628E+02 0.  0.
         24    2    4    4    0    0 -0.32637727837E+03 -0.43647977148E+03 -0.62552408694E+03  0.83355126662E+03  0.80564334467E+02 0.  0.
         11    1    3    3    0    0  0.27312727320E+02  0.16825015343E+03  0.21637780653E+03  0.27545136478E+03  0.00000000000E+00 0.  1.
        -11    1    3    3    0    0  0.26190239715E+02  0.11910582585E+02  0.17758234163E+01  0.28826102453E+02  0.00000000000E+00 0. -1.
          2    1    6    6  502    0 -0.43987375088E+01  0.35501589477E+01 -0.55546325349E+01  0.79250528593E+01  0.00000000000E+00 0. -1.
          3    1    5    5  503    0  0.11244636459E+02  0.11575470741E+02 -0.30256135562E+02  0.34290918785E+02  0.00000000000E+00 0. -1.
         -2    1    5    5    0  503  0.26162967488E+03  0.24474356473E+03 -0.14073852575E+03  0.38491145979E+03  0.00000000000E+00 0.  1.
         -1    1    6    6    0  502 -0.32197854086E+03 -0.44002993043E+03 -0.61996945441E+03  0.82562621376E+03  0.00000000000E+00 0.  1.
<mgrwt>
<rscale>  0 0.14456278E+04</rscale>
<asrwt>0</asrwt>
<pdfrwt beam="1">  1        1 0.16426125E+00 0.14456278E+04</pdfrwt>
<pdfrwt beam="2">  1       -1 0.75282000E-01 0.14456278E+04</pdfrwt>
<totfact> 0.23122921E+01</totfact>
</mgrwt>
</event>
<event>
12    1  0.1489025E-007  0.1289162E+04  0.7818608E-02  0.9038204E-01
         -2   -1    0    0    0  501 -0.00000000000E+00  0.00000000000E+00  0.24943165223E+03  0.24943165223E+03  0.00000000000E+00 0.  1.
          2   -1    0    0  501    0  0.00000000000E+00 -0.00000000000E+00 -0.16657252115E+04  0.16657252115E+04  0.00000000000E+00 0. -1.
         23    2    1    2    0    0  0.22485431516E+03 -0.22016014044E+03 -0.30810304474E+03  0.45042016684E+03  0.94450463378E+02 0.  0.
        254    2    1    2    0    0 -0.22485431516E+03  0.22016014044E+03 -0.11081905145E+04  0.14647366969E+04  0.90462004410E+03 0.  0.
        -24    2    4    4    0    0  0.14176347813E+03  0.47673111940E+03 -0.59451721248E+03  0.77877070900E+03  0.75257274209E+02 0.  0.
         24    2    4    4    0    0 -0.36661779330E+03 -0.25657097895E+03 -0.51367330203E+03  0.68596598786E+03  0.80323108021E+02 0.  0.
         13    1    3    3    0    0  0.20350182731E+03 -0.18472920615E+03 -0.21637055569E+03  0.34979149603E+03  0.00000000000E+00 0. -1.
        -13    1    3    3    0    0  0.21352487851E+02 -0.35430934290E+02 -0.91732489049E+02  0.10062867081E+03  0.00000000000E+00 0.  1.
          4    1    6    6  502    0 -0.18009897705E+03 -0.15830844658E+03 -0.31850519835E+03  0.39867626863E+03  0.00000000000E+00 0. -1.
          3    1    5    5  503    0  0.33223442527E+02  0.22763521087E+03 -0.24523892679E+03  0.33624948710E+03  0.00000000000E+00 0. -1.
         -4    1    5    5    0  503  0.10854003561E+03  0.24909590852E+03 -0.34927828569E+03  0.44252122190E+03  0.00000000000E+00 0.  1.
         -3    1    6    6    0  502 -0.18651881624E+03 -0.98262532376E+02 -0.19516810368E+03  0.28728971923E+03  0.00000000000E+00 0.  1.
<mgrwt>
<rscale>  0 0.12891619E+04</rscale>
<asrwt>0</asrwt>
<pdfrwt beam="1">  1        2 0.25626542E+00 0.12891619E+04</pdfrwt>
<pdfrwt beam="2">  1       -2 0.38374100E-01 0.12891619E+04</pdfrwt>
<totfact> 0.64454962E+01</totfact>
</mgrwt>
</event>
<event>
12    1  0.1489025E-007  0.1915423E+04  0.7818608E-02  0.8647217E-01
         -1   -1    0    0    0  501 -0.00000000000E+00  0.00000000000E+00  0.10160106037E+04  0.10160106037E+04  0.00000000000E+00 0.  1.
          1   -1    0    0  501    0  0.00000000000E+00 -0.00000000000E+00 -0.90275718311E+03  0.90275718311E+03  0.00000000000E+00 0. -1.
         23    2    1    2    0    0 -0.25036748691E+03  0.66006989464E+03  0.26721259821E+03  0.76002498378E+03  0.88652461938E+02 0.  0.
        254    2    1    2    0    0  0.25036748691E+03 -0.66006989464E+03 -0.15395917763E+03  0.11587428030E+04  0.90587267917E+03 0.  0.
        -24    2    4    4    0    0  0.17262311000E+03 -0.71313696823E+03  0.21667724939E+03  0.76929957744E+03  0.80682934233E+02 0.  0.
         24    2    4    4    0    0  0.77744376912E+02  0.53067073595E+02 -0.37063642702E+03  0.38944322558E+03  0.73718128554E+02 0.  0.
         11    1    3    3    0    0 -0.26164154532E+02  0.10552640684E+03  0.10887781120E+02  0.10926540761E+03  0.00000000000E+00 0.  1.
        -11    1    3    3    0    0 -0.22420333238E+03  0.55454348780E+03  0.25632481710E+03  0.65075957616E+03  0.00000000000E+00 0. -1.
          4    1    6    6  502    0  0.31047592967E+02 -0.12755448518E+02 -0.62844612189E+02  0.71246752748E+02  0.00000000000E+00 0. -1.
          3    1    5    5  503    0  0.23862327509E+02 -0.29131400453E+02  0.49279791202E+01  0.37978074526E+02  0.00000000000E+00 0. -1.
         -2    1    5    5    0  503  0.14876078249E+03 -0.68400556778E+03  0.21174927027E+03  0.73132150291E+03  0.00000000000E+00 0.  1.
         -3    1    6    6    0  502  0.46696783944E+02  0.65822522113E+02 -0.30779181483E+03  0.31819647284E+03  0.00000000000E+00 0.  1.
<mgrwt>
<rscale>  0 0.19154225E+04</rscale>
<asrwt>0</asrwt>
<pdfrwt beam="1">  1        1 0.13888572E+00 0.19154225E+04</pdfrwt>
<pdfrwt beam="2">  1       -1 0.15630932E+00 0.19154225E+04</pdfrwt>
<totfact> 0.52744197E+00</totfact>
</mgrwt>
</event>
<event>
12    1  0.1489025E-007  0.1892673E+04  0.7818608E-02  0.8658512E-01
          2   -1    0    0  501    0  0.00000000000E+00  0.00000000000E+00  0.15003562075E+04  0.15003562075E+04  0.00000000000E+00 0. -1.
         -2   -1    0    0    0  501 -0.00000000000E+00 -0.00000000000E+00 -0.59689323311E+03  0.59689323311E+03  0.00000000000E+00 0.  1.
         23    2    1    2    0    0 -0.19535068459E+03  0.31565227498E+03  0.10479286413E+04  0.11155297224E+04  0.91944960187E+02 0.  0.
        254    2    1    2    0    0  0.19535068459E+03 -0.31565227498E+03 -0.14446566686E+03  0.98171971822E+03  0.89727644991E+03 0.  0.
        -24    2    4    4    0    0  0.31447228092E+03 -0.20168935313E+03  0.30995211282E+03  0.49184545882E+03  0.79184799572E+02 0.  0.
         24    2    4    4    0    0 -0.11912159633E+03 -0.11396292185E+03 -0.45441777968E+03  0.48987425940E+03  0.79396279890E+02 0.  0.
         13    1    3    3    0    0 -0.15222157608E+02  0.55626228578E+02  0.26321998397E+03  0.26946382197E+03  0.00000000000E+00 0.  1.
        -13    1    3    3    0    0 -0.18012852698E+03  0.26002604641E+03  0.78470865728E+03  0.84606590042E+03  0.00000000000E+00 0. -1.
          4    1    6    6  502    0 -0.86168091627E+02 -0.44003802365E+02 -0.32515994977E+03  0.33924956533E+03  0.00000000000E+00 0. -1.
          3    1    5    5  503    0  0.27932806083E+03 -0.18752089706E+03  0.24335483659E+03  0.41522262570E+03  0.00000000000E+00 0. -1.
         -2    1    5    5    0  503  0.35144220090E+02 -0.14168456071E+02  0.66597276239E+02  0.76622833122E+02  0.00000000000E+00 0.  1.
         -3    1    6    6    0  502 -0.32953504705E+02 -0.69959119488E+02 -0.12925782991E+03  0.15062469408E+03  0.00000000000E+00 0.  1.
<mgrwt>
<rscale>  0 0.18926727E+04</rscale>
<asrwt>0</asrwt>
<pdfrwt beam="1">  1        2 0.23082403E+00 0.18926727E+04</pdfrwt>
<pdfrwt beam="2">  1       -2 0.91829729E-01 0.18926727E+04</pdfrwt>
<totfact> 0.11994205E+01</totfact>
</mgrwt>
</event>
<event>
12    1  0.1489025E-007  0.1348786E+04  0.7818608E-02  0.8991748E-01
          2   -1    0    0  501    0  0.00000000000E+00  0.00000000000E+00  0.40733437560E+03  0.40733437560E+03  0.00000000000E+00 0. -1.
         -2   -1    0    0    0  501 -0.00000000000E+00 -0.00000000000E+00 -0.11165411415E+04  0.11165411415E+04  0.00000000000E+00 0.  1.
         23    2    1    2    0    0 -0.30075859907E+03 -0.10620012193E+03 -0.39097029885E+03  0.51264993414E+03  0.90653072663E+02 0.  0.
        254    2    1    2    0    0  0.30075859907E+03  0.10620012193E+03 -0.31823646705E+03  0.10112255830E+04  0.90530024293E+03 0.  0.
        -24    2    4    4    0    0  0.21773114151E+03  0.47050149394E+03 -0.34880545340E+03  0.62903892691E+03  0.72430804656E+02 0.  0.
         24    2    4    4    0    0  0.83027457559E+02 -0.36430137202E+03  0.30568986348E+02  0.38218665604E+03  0.74317755408E+02 0.  0.
         11    1    3    3    0    0 -0.13278428147E+02 -0.35868005428E+01 -0.63517737062E+02  0.64989881626E+02  0.00000000000E+00 0. -1.
        -11    1    3    3    0    0 -0.28748017092E+03 -0.10261332139E+03 -0.32745256178E+03  0.44766005252E+03  0.00000000000E+00 0.  1.
          4    1    6    6  502    0  0.20759221623E+02 -0.55258677097E+02 -0.21180100934E+02  0.62714139973E+02  0.00000000000E+00 0. -1.
          1    1    5    5  503    0  0.56874826616E+02  0.60476742887E+02 -0.54234834861E+02  0.99164507991E+02  0.00000000000E+00 0. -1.
         -4    1    5    5    0  503  0.16085631490E+03  0.41002475106E+03 -0.29457061854E+03  0.52987441892E+03  0.00000000000E+00 0.  1.
         -3    1    6    6    0  502  0.62268235936E+02 -0.30904269492E+03  0.51749087283E+02  0.31947251607E+03  0.00000000000E+00 0.  1.
<mgrwt>
<rscale>  0 0.13487855E+04</rscale>
<asrwt>0</asrwt>
<pdfrwt beam="1">  1        2 0.62666827E-01 0.13487855E+04</pdfrwt>
<pdfrwt beam="2">  1       -2 0.17177556E+00 0.13487855E+04</pdfrwt>
<totfact> 0.15736486E+01</totfact>
</mgrwt>
</event>
<event>
12    1  0.1489025E-007  0.1524414E+04  0.7818608E-02  0.8868378E-01
          2   -1    0    0  501    0  0.00000000000E+00  0.00000000000E+00  0.21528497841E+04  0.21528497841E+04  0.00000000000E+00 0. -1.
         -2   -1    0    0    0  501 -0.00000000000E+00 -0.00000000000E+00 -0.26985603163E+03  0.26985603163E+03  0.00000000000E+00 0.  1.
         23    2    1    2    0    0 -0.19402382926E+03  0.49463597313E+03  0.44967295326E+03  0.70226722735E+03  0.93077932258E+02 0.  0.
        254    2    1    2    0    0  0.19402382926E+03 -0.49463597313E+03  0.14333207992E+04  0.17204385884E+04  0.78942411334E+03 0.  0.
        -24    2    4    4    0    0  0.90424858738E+02 -0.68905665582E+03  0.12034910148E+04  0.13920225833E+04  0.79752866456E+02 0.  0.
         24    2    4    4    0    0  0.10359897052E+03  0.19442068270E+03  0.22982978440E+03  0.32841600507E+03  0.80642383627E+02 0.  0.
         13    1    3    3    0    0 -0.63839467630E+02  0.19482784938E+03  0.11774998519E+03  0.23642848292E+03  0.00000000000E+00 0. -1.
        -13    1    3    3    0    0 -0.13018436163E+03  0.29980812375E+03  0.33192296807E+03  0.46583874443E+03  0.00000000000E+00 0.  1.
          4    1    6    6  502    0  0.11449204157E+03  0.18516450516E+03  0.20130421683E+03  0.29650920604E+03  0.00000000000E+00 0. -1.
          1    1    5    5  503    0  0.89014518454E+02 -0.68423246260E+03  0.12031767579E+04  0.13869866467E+04  0.00000000000E+00 0. -1.
         -2    1    5    5    0  503  0.14103402840E+01 -0.48241932223E+01  0.31425688699E+00  0.50359365915E+01  0.00000000000E+00 0.  1.
         -3    1    6    6    0  502 -0.10893071044E+02  0.92561775395E+01  0.28525567569E+02  0.31906799034E+02  0.00000000000E+00 0.  1.
<mgrwt>
<rscale>  0 0.15244140E+04</rscale>
<asrwt>0</asrwt>
<pdfrwt beam="1">  1        2 0.33120765E+00 0.15244140E+04</pdfrwt>
<pdfrwt beam="2">  1       -2 0.41516314E-01 0.15244140E+04</pdfrwt>
<totfact> 0.29120711E+01</totfact>
</mgrwt>
</event>
<event>
12    1  0.1489025E-007  0.1145783E+04  0.7818608E-02  0.9161683E-01
         -1   -1    0    0    0  501 -0.00000000000E+00  0.00000000000E+00  0.84356493882E+03  0.84356493882E+03  0.00000000000E+00 0.  1.
          1   -1    0    0  501    0  0.00000000000E+00 -0.00000000000E+00 -0.38906859538E+03  0.38906859538E+03  0.00000000000E+00 0. -1.
         23    2    1    2    0    0 -0.13541611114E+03 -0.82382514528E+02  0.22512445408E+03  0.28954418034E+03  0.89612558745E+02 0.  0.
        254    2    1    2    0    0  0.13541611114E+03  0.82382514528E+02  0.22937188935E+03  0.94308935386E+03  0.90093377331E+03 0.  0.
        -24    2    4    4    0    0  0.14272211059E+03  0.46415263752E+03  0.25307730233E+03  0.55200738633E+03  0.69690471618E+02 0.  0.
         24    2    4    4    0    0 -0.73059994532E+01 -0.38177012299E+03 -0.23705412983E+02  0.39108196753E+03  0.81125546451E+02 0.  0.
         13    1    3    3    0    0 -0.85508359609E+02 -0.85934102821E+01  0.70768770895E+02  0.11132719882E+03  0.00000000000E+00 0. -1.
        -13    1    3    3    0    0 -0.49907751528E+02 -0.73789104246E+02  0.15435568319E+03  0.17821698152E+03  0.00000000000E+00 0.  1.
          4    1    6    6  502    0 -0.18648052846E+02 -0.19955983731E+03  0.25394618876E+02  0.20203159459E+03  0.00000000000E+00 0. -1.
          3    1    5    5  503    0  0.13125199219E+03  0.45962852946E+03  0.24385840254E+03  0.53661195573E+03  0.00000000000E+00 0. -1.
         -2    1    5    5    0  503  0.11470118398E+02  0.45241080657E+01  0.92188997936E+01  0.15395430597E+02  0.00000000000E+00 0.  1.
         -3    1    6    6    0  502  0.11342053393E+02 -0.18221028568E+03 -0.49100031859E+02  0.18905037295E+03  0.00000000000E+00 0.  1.
<mgrwt>
<rscale>  0 0.11457829E+04</rscale>
<asrwt>0</asrwt>
<pdfrwt beam="1">  1        1 0.59856707E-01 0.11457829E+04</pdfrwt>
<pdfrwt beam="2">  1       -1 0.12977922E+00 0.11457829E+04</pdfrwt>
<totfact> 0.31508737E+01</totfact>
</mgrwt>
</event>
<event>
12    1  0.1489025E-007  0.2243469E+04  0.7818608E-02  0.8500550E-01
         -2   -1    0    0    0  501 -0.00000000000E+00  0.00000000000E+00  0.13288673703E+04  0.13288673703E+04  0.00000000000E+00 0. -1.
          2   -1    0    0  501    0  0.00000000000E+00 -0.00000000000E+00 -0.94688797744E+03  0.94688797744E+03  0.00000000000E+00 0.  1.
         23    2    1    2    0    0  0.57472090516E+03  0.73656797058E+03 -0.37451179873E+01  0.93854464552E+03  0.89529501289E+02 0.  0.
        254    2    1    2    0    0 -0.57472090516E+03 -0.73656797058E+03  0.38572451085E+03  0.13372107022E+04  0.87550703582E+03 0.  0.
        -24    2    4    4    0    0 -0.17780882048E+03  0.75397151552E+02  0.37580387744E+03  0.42978483856E+03  0.78649514011E+02 0.  0.
         24    2    4    4    0    0 -0.39691208468E+03 -0.81196512214E+03  0.99206334034E+01  0.90742586367E+03  0.80602211847E+02 0.  0.
         13    1    3    3    0    0  0.20852251620E+03  0.20792357179E+03 -0.21021422750E+02  0.29522152985E+03  0.00000000000E+00 0. -1.
        -13    1    3    3    0    0  0.36619838896E+03  0.52864439879E+03  0.17276304763E+02  0.64332311567E+03  0.00000000000E+00 0.  1.
          4    1    6    6  502    0 -0.15789326399E+03 -0.34759784531E+03 -0.34128889013E+02  0.38330056867E+03  0.00000000000E+00 0. -1.
          3    1    5    5  503    0 -0.83744895816E+01 -0.31780235134E+01 -0.12168004041E+01  0.90394973548E+01  0.00000000000E+00 0. -1.
         -4    1    5    5    0  503 -0.16943433090E+03  0.78575175065E+02  0.37702067785E+03  0.42074534121E+03  0.00000000000E+00 0.  1.
         -3    1    6    6    0  502 -0.23901882069E+03 -0.46436727683E+03  0.44049522416E+02  0.52412529500E+03  0.00000000000E+00 0.  1.
<mgrwt>
<rscale>  0 0.22434692E+04</rscale>
<asrwt>0</asrwt>
<pdfrwt beam="1">  1        2 0.14567507E+00 0.22434692E+04</pdfrwt>
<pdfrwt beam="2">  1       -2 0.20444113E+00 0.22434692E+04</pdfrwt>
<totfact> 0.30897879E+00</totfact>
</mgrwt>
</event>
<event>
12    1  0.1489025E-007  0.2444744E+04  0.7818608E-02  0.8422939E-01
         -2   -1    0    0    0  501 -0.00000000000E+00  0.00000000000E+00  0.47519445973E+03  0.47519445973E+03  0.00000000000E+00 0.  1.
          2   -1    0    0  501    0  0.00000000000E+00 -0.00000000000E+00 -0.31443836596E+04  0.31443836596E+04  0.00000000000E+00 0. -1.
         23    2    1    2    0    0  0.10334643955E+04 -0.27771684376E+03 -0.15239837164E+04  0.18643914180E+04  0.90849819040E+02 0.  0.
        254    2    1    2    0    0 -0.10334643955E+04  0.27771684376E+03 -0.11452054835E+04  0.17551867014E+04  0.78994269109E+03 0.  0.
        -24    2    4    4    0    0 -0.10411484065E+04  0.27604799510E+03 -0.66570891606E+03  0.12689715941E+04  0.83234882495E+02 0.  0.
         24    2    4    4    0    0  0.76840110561E+01  0.16688486649E+01 -0.47949656747E+03  0.48621510730E+03  0.80164476362E+02 0.  0.
         11    1    3    3    0    0  0.82371684526E+01 -0.28040808742E+01 -0.21645702347E+01  0.89665588699E+01  0.00000000000E+00 0. -1.
        -11    1    3    3    0    0  0.10252272270E+04 -0.27491276289E+03 -0.15218191461E+04  0.18554248591E+04  0.00000000000E+00 0.  1.
          4    1    6    6  502    0  0.25972007916E+01  0.58478664921E+01  0.26904900298E+00  0.64043252437E+01  0.00000000000E+00 0. -1.
          3    1    5    5  503    0 -0.61209772515E+03  0.20368810388E+03 -0.40701441108E+03  0.76276680553E+03  0.00000000000E+00 0. -1.
         -4    1    5    5    0  503 -0.42905068138E+03  0.72359891217E+02 -0.25869450499E+03  0.50620478856E+03  0.00000000000E+00 0.  1.
         -3    1    6    6    0  502  0.50868102645E+01 -0.41790178272E+01 -0.47976561647E+03  0.47981078206E+03  0.00000000000E+00 0.  1.
<mgrwt>
<rscale>  0 0.24447443E+04</rscale>
<asrwt>0</asrwt>
<pdfrwt beam="1">  1        2 0.48375132E+00 0.24447443E+04</pdfrwt>
<pdfrwt beam="2">  1       -2 0.73106842E-01 0.24447443E+04</pdfrwt>
<totfact> 0.21347336E+00</totfact>
</mgrwt>
</event>
<event>
12    1  0.1489025E-007  0.1591498E+04  0.7818608E-02  0.8825788E-01
         -1   -1    0    0    0  501 -0.00000000000E+00  0.00000000000E+00  0.23446505946E+03  0.23446505946E+03  0.00000000000E+00 0.  1.
          1   -1    0    0  501    0  0.00000000000E+00 -0.00000000000E+00 -0.27006861881E+04  0.27006861881E+04  0.00000000000E+00 0. -1.
         23    2    1    2    0    0  0.79548456903E+02 -0.22838332796E+03 -0.18413792914E+04  0.18593141643E+04  0.88795074220E+02 0.  0.
        254    2    1    2    0    0 -0.79548456903E+02  0.22838332796E+03 -0.62484183722E+03  0.10758370833E+04  0.84173107742E+03 0.  0.
        -24    2    4    4    0    0  0.88311680638E+02 -0.19958768581E+03 -0.55816970623E+03  0.60455831222E+03  0.79392283354E+02 0.  0.
         24    2    4    4    0    0 -0.16786013754E+03  0.42797101377E+03 -0.66672130992E+02  0.47127877104E+03  0.79512845405E+02 0.  0.
         13    1    3    3    0    0  0.77263662041E+02 -0.22995300283E+03 -0.16333370580E+04  0.16512534639E+04  0.00000000000E+00 0. -1.
        -13    1    3    3    0    0  0.22847948615E+01  0.15696748733E+01 -0.20804223341E+03  0.20806070040E+03  0.00000000000E+00 0.  1.
          2    1    6    6  502    0 -0.60113766320E+02  0.17122971770E+03  0.12213322045E+02  0.18188580582E+03  0.00000000000E+00 0. -1.
          1    1    5    5  503    0 -0.11023434725E+02 -0.38795148470E+01 -0.17527238326E+02  0.21065868885E+02  0.00000000000E+00 0. -1.
         -2    1    5    5    0  503  0.99335115362E+02 -0.19570817096E+03 -0.54064246790E+03  0.58349244333E+03  0.00000000000E+00 0.  1.
         -1    1    6    6    0  502 -0.10774637122E+03  0.25674129607E+03 -0.78885453036E+02  0.28939296522E+03  0.00000000000E+00 0.  1.
<mgrwt>
<rscale>  0 0.15914981E+04</rscale>
<asrwt>0</asrwt>
<pdfrwt beam="1">  1        1 0.41549016E+00 0.15914981E+04</pdfrwt>
<pdfrwt beam="2">  1       -1 0.36071550E-01 0.15914981E+04</pdfrwt>
<totfact> 0.69398128E+00</totfact>
</mgrwt>
</event>
<event>
12    1  0.1489025E-007  0.1365835E+04  0.7818608E-02  0.8978927E-01
          2   -1    0    0  501    0  0.00000000000E+00  0.00000000000E+00  0.55298648013E+03  0.55298648013E+03  0.00000000000E+00 0.  1.
         -2   -1    0    0    0  501 -0.00000000000E+00 -0.00000000000E+00 -0.84337699243E+03  0.84337699243E+03  0.00000000000E+00 0. -1.
         23    2    1    2    0    0  0.28784653052E+03 -0.68979398890E+01 -0.33995439600E+03  0.45505770404E+03  0.92764842158E+02 0.  0.
        254    2    1    2    0    0 -0.28784653052E+03  0.68979398890E+01  0.49563883704E+02  0.94130576852E+03  0.89481660947E+03 0.  0.
        -24    2    4    4    0    0  0.22349710988E+03 -0.18840296154E+03  0.20373912975E+03  0.36636888766E+03  0.85263678140E+02 0.  0.
         24    2    4    4    0    0 -0.51134364040E+03  0.19530090143E+03 -0.15417524605E+03  0.57493688086E+03  0.84661973753E+02 0.  0.
         13    1    3    3    0    0  0.46834877581E+02 -0.35228893369E+02 -0.83218792256E+02  0.10178383010E+03  0.00000000000E+00 0.  1.
        -13    1    3    3    0    0  0.24101165293E+03  0.28330953480E+02 -0.25673560375E+03  0.35327387394E+03  0.00000000000E+00 0. -1.
          4    1    6    6  502    0 -0.34446817067E+02  0.32741662290E+02  0.16378864111E+01  0.47552942364E+02  0.00000000000E+00 0. -1.
          3    1    5    5  503    0  0.13329742893E+03 -0.14609191387E+03  0.96710619019E+02  0.22014539670E+03  0.00000000000E+00 0. -1.
         -4    1    5    5    0  503  0.90199680958E+02 -0.42311047675E+02  0.10702851073E+03  0.14622349096E+03  0.00000000000E+00 0.  1.
         -3    1    6    6    0  502 -0.47689682333E+03  0.16255923914E+03 -0.15581313246E+03  0.52738393849E+03  0.00000000000E+00 0.  1.
<mgrwt>
<rscale>  0 0.13658347E+04</rscale>
<asrwt>0</asrwt>
<pdfrwt beam="1">  1        2 0.85074843E-01 0.13658347E+04</pdfrwt>
<pdfrwt beam="2">  1       -2 0.12975031E+00 0.13658347E+04</pdfrwt>
<totfact> 0.23280556E+01</totfact>
</mgrwt>
</event>
<event>
12    1  0.1489025E-007  0.1377246E+04  0.7818608E-02  0.8970455E-01
          1   -1    0    0  501    0  0.00000000000E+00  0.00000000000E+00  0.69308160219E+03  0.69308160219E+03  0.00000000000E+00 0. -1.
         -1   -1    0    0    0  501 -0.00000000000E+00 -0.00000000000E+00 -0.68419345043E+03  0.68419345043E+03  0.00000000000E+00 0.  1.
         23    2    1    2    0    0  0.10262996594E+03 -0.40382972840E+02 -0.36517029192E+03  0.39211459094E+03  0.90778939900E+02 0.  0.
        254    2    1    2    0    0 -0.10262996594E+03  0.40382972840E+02  0.37405844368E+03  0.98516046167E+03  0.90468653220E+03 0.  0.
        -24    2    4    4    0    0 -0.36262279481E+03 -0.55120511294E+02 -0.13457310545E+03  0.40027833389E+03  0.87058955854E+02 0.  0.
         24    2    4    4    0    0  0.25999282887E+03  0.95503484133E+02  0.50863154912E+03  0.58488212778E+03  0.81632494054E+02 0.  0.
         13    1    3    3    0    0 -0.13439349813E+02  0.39740151859E+01 -0.14889135319E+02  0.20447378087E+02  0.00000000000E+00 0. -1.
        -13    1    3    3    0    0  0.11606931575E+03 -0.44356988025E+02 -0.35028115660E+03  0.37166721286E+03  0.00000000000E+00 0.  1.
          2    1    6    6  502    0  0.58858732263E+02  0.82792248458E+01  0.54678935073E+02  0.80763121958E+02  0.00000000000E+00 0. -1.
          1    1    5    5  503    0 -0.58093883620E+02 -0.12077087374E+02 -0.58778954346E+02  0.83520780812E+02  0.00000000000E+00 0. -1.
         -2    1    5    5    0  503 -0.30452891119E+03 -0.43043423920E+02 -0.75794151101E+02  0.31675755308E+03  0.00000000000E+00 0.  1.
         -1    1    6    6    0  502  0.20113409661E+03  0.87224259288E+02  0.45395261405E+03  0.50411900582E+03  0.00000000000E+00 0.  1.
<mgrwt>
<rscale>  0 0.13772464E+04</rscale>
<asrwt>0</asrwt>
<pdfrwt beam="1">  1        1 0.10662794E+00 0.13772464E+04</pdfrwt>
<pdfrwt beam="2">  1       -1 0.10526053E+00 0.13772464E+04</pdfrwt>
<totfact> 0.22878548E+01</totfact>
</mgrwt>
</event>
<event>
12    1  0.1489025E-007  0.3602657E+04  0.7818608E-02  0.8089883E-01
          2   -1    0    0  501    0  0.00000000000E+00  0.00000000000E+00  0.36710580537E+04  0.36710580537E+04  0.00000000000E+00 0. -1.
         -2   -1    0    0    0  501 -0.00000000000E+00 -0.00000000000E+00 -0.88388284695E+03  0.88388284695E+03  0.00000000000E+00 0.  1.
         23    2    1    2    0    0 -0.41794383866E+03 -0.84583203210E+03 -0.46044401799E+03  0.10538167281E+04  0.91717631952E+02 0.  0.
        254    2    1    2    0    0  0.41794383866E+03  0.84583203210E+03  0.32476192247E+04  0.35011241725E+04  0.90594203104E+03 0.  0.
        -24    2    4    4    0    0  0.54863772803E+03  0.81980314508E+03  0.18791942114E+04  0.21237959634E+04  0.77832232913E+02 0.  0.
         24    2    4    4    0    0 -0.13069388938E+03  0.26028887022E+02  0.13684250132E+04  0.13773282091E+04  0.81777643293E+02 0.  0.
         11    1    3    3    0    0 -0.79990482069E+02 -0.23770469372E+03 -0.97248306693E+02  0.26899671335E+03  0.00000000000E+00 0. -1.
        -11    1    3    3    0    0 -0.33795335659E+03 -0.60812733838E+03 -0.36319571130E+03  0.78482001479E+03  0.00000000000E+00 0.  1.
          4    1    6    6  502    0 -0.27594723066E+02 -0.16301057138E+02  0.60084835038E+03  0.60170252896E+03  0.00000000000E+00 0. -1.
          1    1    5    5  503    0  0.53590639489E+03  0.77089965564E+03  0.17899417211E+04  0.20212306420E+04  0.00000000000E+00 0. -1.
         -2    1    5    5    0  503  0.12731333143E+02  0.48903489439E+02  0.89252490360E+02  0.10256532142E+03  0.00000000000E+00 0.  1.
         -3    1    6    6    0  502 -0.10309916631E+03  0.42329944159E+02  0.76757666287E+03  0.77562568011E+03  0.00000000000E+00 0.  1.
<mgrwt>
<rscale>  0 0.36026575E+04</rscale>
<asrwt>0</asrwt>
<pdfrwt beam="1">  1        2 0.56477816E+00 0.36026575E+04</pdfrwt>
<pdfrwt beam="2">  1       -2 0.13598198E+00 0.36026575E+04</pdfrwt>
<totfact> 0.19305640E-01</totfact>
</mgrwt>
</event>
<event>
12    1  0.1726117E-007  0.2445617E+04  0.7818608E-02  0.8422620E-01
         -2   -1    0    0    0  501 -0.00000000000E+00  0.00000000000E+00  0.17439884979E+04  0.17439884979E+04  0.00000000000E+00 0.  1.
          2   -1    0    0  501    0  0.00000000000E+00 -0.00000000000E+00 -0.85737957673E+03  0.85737957673E+03  0.00000000000E+00 0. -1.
         23    2    1    2    0    0  0.39802640910E+03 -0.49811473846E+03 -0.51541784542E+03  0.82474379466E+03  0.89462039100E+02 0.  0.
        254    2    1    2    0    0 -0.39802640910E+03  0.49811473846E+03  0.14020267666E+04  0.17766242800E+04  0.88553456339E+03 0.  0.
        -24    2    4    4    0    0 -0.59088024728E+03  0.31735075041E+03  0.13291573716E+04  0.14910644088E+04  0.82236168070E+02 0.  0.
         24    2    4    4    0    0  0.19285383818E+03  0.18076398805E+03  0.72869394990E+02  0.28555987117E+03  0.79788902847E+02 0.  0.
         13    1    3    3    0    0  0.36096477024E+03 -0.40574172220E+03 -0.45355000698E+03  0.70755177854E+03  0.00000000000E+00 0. -1.
        -13    1    3    3    0    0  0.37061638863E+02 -0.92373016264E+02 -0.61867838435E+02  0.11719201612E+03  0.00000000000E+00 0.  1.
          4    1    6    6  502    0  0.18954270172E+03  0.18764076858E+03  0.64838106295E+02  0.27448037058E+03  0.00000000000E+00 0. -1.
          1    1    5    5  503    0 -0.49525402214E+03  0.23786181412E+03  0.11256200393E+04  0.12525475088E+04  0.00000000000E+00 0. -1.
         -2    1    5    5    0  503 -0.95626225138E+02  0.79488936292E+02  0.20353733235E+03  0.23851690000E+03  0.00000000000E+00 0.  1.
         -3    1    6    6    0  502  0.33111364564E+01 -0.68767805254E+01  0.80312886949E+01  0.11079500581E+02  0.00000000000E+00 0.  1.
<mgrwt>
<rscale>  0 0.24456166E+04</rscale>
<asrwt>0</asrwt>
<pdfrwt beam="1">  1        2 0.13190455E+00 0.24456166E+04</pdfrwt>
<pdfrwt beam="2">  1       -2 0.26830592E+00 0.24456166E+04</pdfrwt>
<totfact> 0.13946607E+00</totfact>
</mgrwt>
</event>
<event>
12    1  0.1489025E-007  0.2029002E+04  0.7818608E-02  0.8593180E-01
          2   -1    0    0  501    0  0.00000000000E+00  0.00000000000E+00  0.17059378757E+04  0.17059378757E+04  0.00000000000E+00 0. -1.
         -2   -1    0    0    0  501 -0.00000000000E+00 -0.00000000000E+00 -0.60331182545E+03  0.60331182545E+03  0.00000000000E+00 0.  1.
         23    2    1    2    0    0 -0.12373438687E+03 -0.76775295305E+03  0.18995921695E+03  0.80772219207E+03  0.10759107789E+03 0.  0.
        254    2    1    2    0    0  0.12373438687E+03  0.76775295305E+03  0.91266683333E+03  0.15015275091E+04  0.90380822995E+03 0.  0.
        -24    2    4    4    0    0 -0.96441336921E+02  0.71117837029E+03  0.19988470189E+03  0.74925118632E+03  0.79673335055E+02 0.  0.
         24    2    4    4    0    0  0.22017572380E+03  0.56574582765E+02  0.71278213144E+03  0.75227632279E+03  0.78633746962E+02 0.  0.
         11    1    3    3    0    0 -0.34607582183E+02 -0.28360098245E+03  0.18019967982E+02  0.28627245980E+03  0.00000000000E+00 0. -1.
        -11    1    3    3    0    0 -0.89126804692E+02 -0.48415197060E+03  0.17193924897E+03  0.52144973227E+03  0.00000000000E+00 0.  1.
          4    1    6    6  502    0  0.66973403835E+02  0.55795285744E+02  0.27220996859E+03  0.28582655183E+03  0.00000000000E+00 0. -1.
          3    1    5    5  503    0 -0.72577426431E+02  0.56905317832E+03  0.12615197001E+03  0.58736983419E+03  0.00000000000E+00 0. -1.
         -4    1    5    5    0  503 -0.23863910490E+02  0.14212519197E+03  0.73732731877E+02  0.16188135213E+03  0.00000000000E+00 0.  1.
         -3    1    6    6    0  502  0.15320231996E+03  0.77929702039E+00  0.44057216286E+03  0.46644977096E+03  0.00000000000E+00 0.  1.
<mgrwt>
<rscale>  0 0.20290022E+04</rscale>
<asrwt>0</asrwt>
<pdfrwt beam="1">  1        2 0.26245198E+00 0.20290022E+04</pdfrwt>
<pdfrwt beam="2">  1       -2 0.92817205E-01 0.20290022E+04</pdfrwt>
<totfact> 0.88761165E+00</totfact>
</mgrwt>
</event>
<event>
12    1  0.1489025E-007  0.1593982E+04  0.7818608E-02  0.8824253E-01
          2   -1    0    0  501    0  0.00000000000E+00  0.00000000000E+00  0.84728098882E+03  0.84728098882E+03  0.00000000000E+00 0. -1.
         -2   -1    0    0    0  501 -0.00000000000E+00 -0.00000000000E+00 -0.74968619748E+03  0.74968619748E+03  0.00000000000E+00 0.  1.
         23    2    1    2    0    0  0.40087381086E+03  0.23580689790E+03  0.29797595607E+03  0.55902379195E+03  0.86100082663E+02 0.  0.
        254    2    1    2    0    0 -0.40087381086E+03 -0.23580689790E+03 -0.20038116474E+03  0.10379433944E+04  0.90601830741E+03 0.  0.
        -24    2    4    4    0    0  0.18754380263E+03 -0.37919098380E+02  0.20532531703E+03  0.29203322218E+03  0.80711716111E+02 0.  0.
         24    2    4    4    0    0 -0.58841761349E+03 -0.19788779952E+03 -0.40570648177E+03  0.74591017217E+03  0.79933513135E+02 0.  0.
         13    1    3    3    0    0  0.51935517708E+02  0.68631805528E+02  0.54974500568E+02  0.10212648257E+03  0.00000000000E+00 0.  1.
        -13    1    3    3    0    0  0.34893829315E+03  0.16717509237E+03  0.24300145551E+03  0.45689730938E+03  0.00000000000E+00 0. -1.
          2    1    6    6  502    0 -0.29223630386E+03 -0.10668972085E+03 -0.15656747929E+03  0.34827880986E+03  0.00000000000E+00 0. -1.
          3    1    5    5  503    0  0.19236092462E+03 -0.42193030157E+02  0.18313157784E+03  0.26892406347E+03  0.00000000000E+00 0. -1.
         -4    1    5    5    0  503 -0.48171219837E+01  0.42739317774E+01  0.22193739189E+02  0.23109158709E+02  0.00000000000E+00 0.  1.
         -1    1    6    6    0  502 -0.29618130963E+03 -0.91198078676E+02 -0.24913900248E+03  0.39763136230E+03  0.00000000000E+00 0.  1.
<mgrwt>
<rscale>  0 0.15939823E+04</rscale>
<asrwt>0</asrwt>
<pdfrwt beam="1">  1        2 0.13035092E+00 0.15939823E+04</pdfrwt>
<pdfrwt beam="2">  1       -2 0.11533634E+00 0.15939823E+04</pdfrwt>
<totfact> 0.17905447E+01</totfact>
</mgrwt>
</event>
<event>
12    1  0.1489025E-007  0.1608435E+04  0.7818608E-02  0.8815383E-01
          2   -1    0    0  501    0  0.00000000000E+00  0.00000000000E+00  0.51135763741E+03  0.51135763741E+03  0.00000000000E+00 0. -1.
         -2   -1    0    0    0  501 -0.00000000000E+00 -0.00000000000E+00 -0.12648015747E+04  0.12648015747E+04  0.00000000000E+00 0.  1.
         23    2    1    2    0    0 -0.14925799389E+03 -0.18711147103E+02  0.32717987895E+03  0.37156110045E+03  0.91558300618E+02 0.  0.
        254    2    1    2    0    0  0.14925799389E+03  0.18711147103E+02 -0.10806238162E+04  0.14045981117E+04  0.88460158677E+03 0.  0.
        -24    2    4    4    0    0  0.32254502452E+03 -0.34800115156E+03 -0.53145342417E+03  0.71743687753E+03  0.84456123814E+02 0.  0.
         24    2    4    4    0    0 -0.17328703063E+03  0.36671229866E+03 -0.54917039208E+03  0.68716123415E+03  0.78077763810E+02 0.  0.
         13    1    3    3    0    0 -0.51360805838E+02  0.34369173800E+02  0.85886388995E+02  0.10580947169E+03  0.00000000000E+00 0.  1.
        -13    1    3    3    0    0 -0.97897188051E+02 -0.53080320903E+02  0.24129348996E+03  0.26575162876E+03  0.00000000000E+00 0. -1.
          2    1    6    6  502    0 -0.95451893138E+02  0.21595590907E+03 -0.38130936939E+03  0.44849175439E+03  0.00000000000E+00 0. -1.
          1    1    5    5  503    0  0.26058470157E+02 -0.46623920318E+02 -0.10005824213E+03  0.11342171587E+03  0.00000000000E+00 0. -1.
         -2    1    5    5    0  503  0.29648655436E+03 -0.30137723124E+03 -0.43139518204E+03  0.60401516166E+03  0.00000000000E+00 0.  1.
         -1    1    6    6    0  502 -0.77835137492E+02  0.15075638959E+03 -0.16786102269E+03  0.23866947976E+03  0.00000000000E+00 0.  1.
<mgrwt>
<rscale>  0 0.16084352E+04</rscale>
<asrwt>0</asrwt>
<pdfrwt beam="1">  1        2 0.78670406E-01 0.16084352E+04</pdfrwt>
<pdfrwt beam="2">  1       -2 0.19458486E+00 0.16084352E+04</pdfrwt>
<totfact> 0.82944400E+00</totfact>
</mgrwt>
</event>
<event>
12    1  0.1489025E-007  0.1165921E+04  0.7818608E-02  0.9143220E-01
         -1   -1    0    0    0  501 -0.00000000000E+00  0.00000000000E+00  0.19612953945E+03  0.19612953945E+03  0.00000000000E+00 0.  1.
          1   -1    0    0  501    0  0.00000000000E+00 -0.00000000000E+00 -0.17327477430E+04  0.17327477430E+04  0.00000000000E+00 0. -1.
         23    2    1    2    0    0 -0.89495438860E+02 -0.68835886122E+02 -0.57174502065E+03  0.59012123217E+03  0.92751750556E+02 0.  0.
        254    2    1    2    0    0  0.89495438860E+02  0.68835886122E+02 -0.96487318291E+03  0.13387560503E+04  0.92116214116E+03 0.  0.
        -24    2    4    4    0    0  0.44177026417E+03  0.26012273823E+03 -0.52082088265E+03  0.73519112225E+03  0.80167257549E+02 0.  0.
         24    2    4    4    0    0 -0.35227482531E+03 -0.19128685211E+03 -0.44405230027E+03  0.60356492805E+03  0.80124681945E+02 0.  0.
         13    1    3    3    0    0 -0.97980737293E+02 -0.53779758752E+02 -0.55469579889E+03  0.56584442795E+03  0.00000000000E+00 0. -1.
        -13    1    3    3    0    0  0.84852984333E+01 -0.15056127369E+02 -0.17049221754E+02  0.24276804223E+02  0.00000000000E+00 0.  1.
          2    1    6    6  502    0 -0.28142024881E+03 -0.12475006096E+03 -0.30037996571E+03  0.43010238078E+03  0.00000000000E+00 0. -1.
          1    1    5    5  503    0  0.33509142524E+03  0.23499696896E+03 -0.40836460410E+03  0.57816216459E+03  0.00000000000E+00 0. -1.
         -4    1    5    5    0  503  0.10667883893E+03  0.25125769275E+02 -0.11245627855E+03  0.15702895765E+03  0.00000000000E+00 0.  1.
         -1    1    6    6    0  502 -0.70854576496E+02 -0.66536791151E+02 -0.14367233456E+03  0.17346254727E+03  0.00000000000E+00 0.  1.
<mgrwt>
<rscale>  0 0.11659211E+04</rscale>
<asrwt>0</asrwt>
<pdfrwt beam="1">  1        1 0.26657658E+00 0.11659211E+04</pdfrwt>
<pdfrwt beam="2">  1       -1 0.30173775E-01 0.11659211E+04</pdfrwt>
<totfact> 0.45390169E+01</totfact>
</mgrwt>
</event>
<event>
12    1  0.1489025E-007  0.1771603E+04  0.7818608E-02  0.8721548E-01
         -2   -1    0    0    0  501 -0.00000000000E+00  0.00000000000E+00  0.39268773367E+03  0.39268773367E+03  0.00000000000E+00 0.  1.
          2   -1    0    0  501    0  0.00000000000E+00 -0.00000000000E+00 -0.19981390378E+04  0.19981390378E+04  0.00000000000E+00 0. -1.
         23    2    1    2    0    0 -0.48419671624E+03 -0.18055511113E+03 -0.11482941935E+04  0.12629831016E+04  0.97468723113E+02 0.  0.
        254    2    1    2    0    0  0.48419671624E+03  0.18055511113E+03 -0.45715711059E+03  0.11278436698E+04  0.89218390008E+03 0.  0.
        -24    2    4    4    0    0  0.39904696590E+03  0.51057854488E+03 -0.42028601348E+03  0.77640090176E+03  0.78924619933E+02 0.  0.
         24    2    4    4    0    0  0.85149750343E+02 -0.33002343375E+03 -0.36871097111E+02  0.35144276804E+03  0.77373087048E+02 0.  0.
         13    1    3    3    0    0 -0.19535601991E+03 -0.44689888517E+02 -0.35124352216E+03  0.40439234972E+03  0.00000000000E+00 0.  1.
        -13    1    3    3    0    0 -0.28884069633E+03 -0.13586522261E+03 -0.79705067136E+03  0.85859075193E+03  0.00000000000E+00 0. -1.
          2    1    6    6  502    0 -0.11833240670E+02 -0.41124755775E+02  0.76290596777E+01  0.43468076491E+02  0.00000000000E+00 0. -1.
          1    1    5    5  503    0  0.16366031151E+03  0.14933112829E+03 -0.14873746892E+03  0.26684699380E+03  0.00000000000E+00 0. -1.
         -2    1    5    5    0  503  0.23538665439E+03  0.36124741659E+03 -0.27154854456E+03  0.50955390796E+03  0.00000000000E+00 0.  1.
         -1    1    6    6    0  502  0.96982991013E+02 -0.28889867798E+03 -0.44500156789E+02  0.30797469155E+03  0.00000000000E+00 0.  1.
<mgrwt>
<rscale>  0 0.17716034E+04</rscale>
<asrwt>0</asrwt>
<pdfrwt beam="1">  1        2 0.30740601E+00 0.17716034E+04</pdfrwt>
<pdfrwt beam="2">  1       -2 0.60413497E-01 0.17716034E+04</pdfrwt>
<totfact> 0.16175434E+01</totfact>
</mgrwt>
</event>
<event>
12    1  0.1489025E-007  0.2107656E+04  0.7818608E-02  0.8557878E-01
          1   -1    0    0  501    0  0.00000000000E+00  0.00000000000E+00  0.20219987729E+04  0.20219987729E+04  0.00000000000E+00 0. -1.
         -1   -1    0    0    0  501 -0.00000000000E+00 -0.00000000000E+00 -0.54923550146E+03  0.54923550146E+03  0.00000000000E+00 0.  1.
         23    2    1    2    0    0 -0.24686204132E+03  0.28480010468E+03  0.15433019797E+04  0.15912617645E+04  0.91000194897E+02 0.  0.
        254    2    1    2    0    0  0.24686204132E+03 -0.28480010468E+03 -0.70538708318E+02  0.97997250982E+03  0.90184169540E+03 0.  0.
        -24    2    4    4    0    0  0.50577233424E+03  0.76897192335E+02  0.23669674296E+02  0.51827221498E+03  0.79542460765E+02 0.  0.
         24    2    4    4    0    0 -0.25891029291E+03 -0.36169729702E+03 -0.94208382614E+02  0.46170029485E+03  0.80202671143E+02 0.  0.
         11    1    3    3    0    0 -0.20477754997E+03  0.21470957971E+03  0.10453011129E+04  0.10865948947E+04  0.00000000000E+00 0. -1.
        -11    1    3    3    0    0 -0.42084491357E+02  0.70090524969E+02  0.49800086680E+03  0.50466686976E+03  0.00000000000E+00 0.  1.
          4    1    6    6  502    0 -0.21723059023E+01 -0.33652702945E+02 -0.17980312388E+02  0.38216684341E+02  0.00000000000E+00 0. -1.
          3    1    5    5  503    0  0.88941391364E+02  0.33838774733E+01  0.32943658838E+02  0.94906830008E+02  0.00000000000E+00 0. -1.
         -4    1    5    5    0  503  0.41683094287E+03  0.73513314862E+02 -0.92739845421E+01  0.42336538497E+03  0.00000000000E+00 0.  1.
         -3    1    6    6    0  502 -0.25673798701E+03 -0.32804459407E+03 -0.76228070226E+02  0.42348361051E+03  0.00000000000E+00 0.  1.
<mgrwt>
<rscale>  0 0.21076561E+04</rscale>
<asrwt>0</asrwt>
<pdfrwt beam="1">  1        1 0.31107673E+00 0.21076561E+04</pdfrwt>
<pdfrwt beam="2">  1       -1 0.84497770E-01 0.21076561E+04</pdfrwt>
<totfact> 0.36693451E+00</totfact>
</mgrwt>
</event>
<event>
12    1  0.1489025E-007  0.1213033E+04  0.7818608E-02  0.9101525E-01
         -2   -1    0    0    0  501 -0.00000000000E+00  0.00000000000E+00  0.57816481227E+03  0.57816481227E+03  0.00000000000E+00 0.  1.
          2   -1    0    0  501    0  0.00000000000E+00 -0.00000000000E+00 -0.63625802187E+03  0.63625802187E+03  0.00000000000E+00 0. -1.
         23    2    1    2    0    0  0.26767602780E+03  0.92911905068E+02 -0.12656218323E+03  0.32389716151E+03  0.92780962716E+02 0.  0.
        254    2    1    2    0    0 -0.26767602780E+03 -0.92911905068E+02  0.68468973634E+02  0.89052567264E+03  0.84146592047E+03 0.  0.
        -24    2    4    4    0    0 -0.30946524792E+03 -0.49560463114E+02 -0.34034445040E+03  0.46964525501E+03  0.80668094485E+02 0.  0.
         24    2    4    4    0    0  0.41789220111E+02 -0.43351441954E+02  0.40881342403E+03  0.42088041763E+03  0.79913852596E+02 0.  0.
         11    1    3    3    0    0  0.10425564519E+03  0.29833600287E+02 -0.11266464465E+01  0.10844608150E+03  0.00000000000E+00 0.  1.
        -11    1    3    3    0    0  0.16342038261E+03  0.63078304780E+02 -0.12543553678E+03  0.21545108001E+03  0.00000000000E+00 0. -1.
          4    1    6    6  502    0  0.85351003878E+01  0.36117209356E+01  0.13405183723E+01  0.93642648538E+01  0.00000000000E+00 0. -1.
          3    1    5    5  503    0 -0.26791344055E+03 -0.32274020555E+02 -0.32424991962E+03  0.42184977706E+03  0.00000000000E+00 0. -1.
         -4    1    5    5    0  503 -0.41551807371E+02 -0.17286442559E+02 -0.16094530773E+02  0.47795477955E+02  0.00000000000E+00 0.  1.
         -3    1    6    6    0  502  0.33254119724E+02 -0.46963162889E+02  0.40747290566E+03  0.41151615277E+03  0.00000000000E+00 0.  1.
<mgrwt>
<rscale>  0 0.12130326E+04</rscale>
<asrwt>0</asrwt>
<pdfrwt beam="1">  1        2 0.97885849E-01 0.12130326E+04</pdfrwt>
<pdfrwt beam="2">  1       -2 0.88948433E-01 0.12130326E+04</pdfrwt>
<totfact> 0.49444026E+01</totfact>
</mgrwt>
</event>
<event>
12    1  0.1489025E-007  0.2396338E+04  0.7818608E-02  0.8440876E-01
         -2   -1    0    0    0  501 -0.00000000000E+00  0.00000000000E+00  0.12558278729E+04  0.12558278729E+04  0.00000000000E+00 0.  1.
          2   -1    0    0  501    0  0.00000000000E+00 -0.00000000000E+00 -0.11431571072E+04  0.11431571072E+04  0.00000000000E+00 0. -1.
         23    2    1    2    0    0  0.27260935079E+03  0.87644585078E+03 -0.41580558542E+03  0.10118082988E+04  0.91589088257E+02 0.  0.
        254    2    1    2    0    0 -0.27260935079E+03 -0.87644585078E+03  0.52847635115E+03  0.13871766813E+04  0.89582291993E+03 0.  0.
        -24    2    4    4    0    0  0.28751811790E+03 -0.40777168862E+03  0.39225288148E+03  0.63949913273E+03  0.78437233365E+02 0.  0.
         24    2    4    4    0    0 -0.56012746869E+03 -0.46867416216E+03  0.13622346967E+03  0.74767754855E+03  0.84063258673E+02 0.  0.
         13    1    3    3    0    0  0.21055121063E+03  0.74661953990E+03 -0.37850564699E+03  0.86315646001E+03  0.00000000000E+00 0. -1.
        -13    1    3    3    0    0  0.62058140158E+02  0.12982631088E+03 -0.37299938436E+02  0.14865183875E+03  0.00000000000E+00 0.  1.
          2    1    6    6  502    0  0.27453459546E+01 -0.57783335570E+01  0.10788202366E+01  0.64876741756E+01  0.00000000000E+00 0. -1.
          3    1    5    5  503    0  0.10672853873E+03 -0.20248472401E+03  0.21136073791E+03  0.31155161044E+03  0.00000000000E+00 0. -1.
         -4    1    5    5    0  503  0.18078957916E+03 -0.20528696461E+03  0.18089214357E+03  0.32794752229E+03  0.00000000000E+00 0.  1.
         -1    1    6    6    0  502 -0.56287281464E+03 -0.46289582861E+03  0.13514464944E+03  0.74118987437E+03  0.00000000000E+00 0.  1.
<mgrwt>
<rscale>  0 0.23963377E+04</rscale>
<asrwt>0</asrwt>
<pdfrwt beam="1">  1        2 0.17587032E+00 0.23963377E+04</pdfrwt>
<pdfrwt beam="2">  1       -2 0.19320429E+00 0.23963377E+04</pdfrwt>
<totfact> 0.27199223E+00</totfact>
</mgrwt>
</event>
<event>
12    1  0.1489025E-007  0.2085198E+04  0.7818608E-02  0.8567792E-01
         -1   -1    0    0    0  501 -0.00000000000E+00  0.00000000000E+00  0.18390967674E+04  0.18390967674E+04  0.00000000000E+00 0.  1.
          1   -1    0    0  501    0  0.00000000000E+00 -0.00000000000E+00 -0.59105781534E+03  0.59105781534E+03  0.00000000000E+00 0. -1.
         23    2    1    2    0    0  0.63178212670E+02  0.37198571342E+03  0.13846973284E+04  0.14380963544E+04  0.91485385195E+02 0.  0.
        254    2    1    2    0    0 -0.63178212670E+02 -0.37198571342E+03 -0.13665837636E+03  0.99205822832E+03  0.90727016869E+03 0.  0.
        -24    2    4    4    0    0 -0.25106114399E+03 -0.19397358415E+03  0.32219002581E+03  0.45901211383E+03  0.78919316644E+02 0.  0.
         24    2    4    4    0    0  0.18788293132E+03 -0.17801212927E+03 -0.45884840217E+03  0.53304611449E+03  0.81289543936E+02 0.  0.
         11    1    3    3    0    0  0.42390828257E+02  0.32824384594E+03  0.12893872305E+04  0.13311876032E+04  0.00000000000E+00 0.  1.
        -11    1    3    3    0    0  0.20787384413E+02  0.43741867479E+02  0.95310097852E+02  0.10690875116E+03  0.00000000000E+00 0. -1.
          2    1    6    6  502    0  0.52807522064E+02 -0.69090092756E+01 -0.93488658609E+02  0.10759413592E+03  0.00000000000E+00 0. -1.
          3    1    5    5  503    0 -0.77948693652E+01 -0.27027261329E+02  0.11037786379E+02  0.30216974890E+02  0.00000000000E+00 0. -1.
         -4    1    5    5    0  503 -0.24326627463E+03 -0.16694632282E+03  0.31115223943E+03  0.42879513894E+03  0.00000000000E+00 0.  1.
         -1    1    6    6    0  502  0.13507540926E+03 -0.17110311999E+03 -0.36535974356E+03  0.42545197857E+03  0.00000000000E+00 0.  1.
<mgrwt>
<rscale>  0 0.20851978E+04</rscale>
<asrwt>0</asrwt>
<pdfrwt beam="1">  1        1 0.90931973E-01 0.20851978E+04</pdfrwt>
<pdfrwt beam="2">  1       -1 0.28293796E+00 0.20851978E+04</pdfrwt>
<totfact> 0.13734020E+00</totfact>
</mgrwt>
</event>
<event>
12    1  0.1489025E-007  0.1141899E+04  0.7818608E-02  0.9165290E-01
          2   -1    0    0  501    0  0.00000000000E+00  0.00000000000E+00  0.35218354863E+03  0.35218354863E+03  0.00000000000E+00 0. -1.
         -2   -1    0    0    0  501 -0.00000000000E+00 -0.00000000000E+00 -0.92560600235E+03  0.92560600235E+03  0.00000000000E+00 0.  1.
         23    2    1    2    0    0  0.79885927621E+02  0.10281901841E+03 -0.26626490092E+03  0.31003246269E+03  0.90937442684E+02 0.  0.
        254    2    1    2    0    0 -0.79885927621E+02 -0.10281901841E+03 -0.30715755279E+03  0.96775708828E+03  0.90843519731E+03 0.  0.
        -24    2    4    4    0    0 -0.40228269584E+03 -0.36708051398E+00 -0.43462380696E+03  0.59761081201E+03  0.80058272120E+02 0.  0.
         24    2    4    4    0    0  0.32239676822E+03 -0.10245193790E+03  0.12746625417E+03  0.37014627627E+03  0.79527002643E+02 0.  0.
         13    1    3    3    0    0  0.66748654572E+02  0.10982813230E+03 -0.17261287118E+03  0.21520410040E+03  0.00000000000E+00 0.  1.
        -13    1    3    3    0    0  0.13137273049E+02 -0.70091138881E+01 -0.93652029740E+02  0.94828362292E+02  0.00000000000E+00 0. -1.
          4    1    6    6  502    0  0.20596453624E+03 -0.34832790320E+02  0.49930359384E+02  0.21477372805E+03  0.00000000000E+00 0. -1.
          1    1    5    5  503    0 -0.16811695826E+03 -0.39032328571E+02 -0.19325904086E+03  0.25910594590E+03  0.00000000000E+00 0. -1.
         -2    1    5    5    0  503 -0.23416573758E+03  0.38665248057E+02 -0.24136476610E+03  0.33850486611E+03  0.00000000000E+00 0.  1.
         -3    1    6    6    0  502  0.11643223198E+03 -0.67619147579E+02  0.77535894782E+02  0.15537254823E+03  0.00000000000E+00 0.  1.
<mgrwt>
<rscale>  0 0.11418988E+04</rscale>
<asrwt>0</asrwt>
<pdfrwt beam="1">  1        2 0.54182085E-01 0.11418988E+04</pdfrwt>
<pdfrwt beam="2">  1       -2 0.14240092E+00 0.11418988E+04</pdfrwt>
<totfact> 0.31195780E+01</totfact>
</mgrwt>
</event>
<event>
12    1  0.1489025E-007  0.3526840E+04  0.7818608E-02  0.8107459E-01
          2   -1    0    0  501    0  0.00000000000E+00  0.00000000000E+00  0.20718208463E+04  0.20718208463E+04  0.00000000000E+00 0. -1.
         -2   -1    0    0    0  501 -0.00000000000E+00 -0.00000000000E+00 -0.15009261380E+04  0.15009261380E+04  0.00000000000E+00 0.  1.
         23    2    1    2    0    0 -0.48014252874E+03 -0.15571743093E+04  0.22557242816E+02  0.16322844334E+04  0.92276566723E+02 0.  0.
        254    2    1    2    0    0  0.48014252874E+03  0.15571743093E+04  0.54833746544E+03  0.19404625509E+04  0.89966230231E+03 0.  0.
        -24    2    4    4    0    0  0.60342116188E+03  0.15966970713E+04  0.51613503882E+03  0.17849631890E+04  0.78355417246E+02 0.  0.
         24    2    4    4    0    0 -0.12327863314E+03 -0.39522762047E+02  0.32202426621E+02  0.15549936199E+03  0.79896089960E+02 0.  0.
         11    1    3    3    0    0 -0.59190753103E+02 -0.21157729715E+03  0.34104930095E+02  0.22233228325E+03  0.00000000000E+00 0. -1.
        -11    1    3    3    0    0 -0.42095177564E+03 -0.13455970121E+04 -0.11547687279E+02  0.14099521501E+04  0.00000000000E+00 0.  1.
          4    1    6    6  502    0  0.97136548621E+01  0.55871638037E+01 -0.81576924671E+00  0.11235522668E+02  0.00000000000E+00 0. -1.
          1    1    5    5  503    0  0.10853937185E+03  0.29524399746E+03  0.63837940729E+02  0.32097522638E+03  0.00000000000E+00 0. -1.
         -2    1    5    5    0  503  0.49488179003E+03  0.13014530739E+04  0.45229709809E+03  0.14639879626E+04  0.00000000000E+00 0.  1.
         -3    1    6    6    0  502 -0.13299228800E+03 -0.45109925850E+02  0.33018195868E+02  0.14426383932E+03  0.00000000000E+00 0.  1.
<mgrwt>
<rscale>  0 0.35268400E+04</rscale>
<asrwt>0</asrwt>
<pdfrwt beam="1">  1        2 0.31874167E+00 0.35268400E+04</pdfrwt>
<pdfrwt beam="2">  1       -2 0.23091171E+00 0.35268400E+04</pdfrwt>
<totfact> 0.42156703E-01</totfact>
</mgrwt>
</event>
<event>
12    1  0.1489025E-007  0.2013633E+04  0.7818608E-02  0.8600273E-01
          1   -1    0    0  501    0  0.00000000000E+00  0.00000000000E+00  0.64225721898E+03  0.64225721898E+03  0.00000000000E+00 0. -1.
         -1   -1    0    0    0  501 -0.00000000000E+00 -0.00000000000E+00 -0.15783080272E+04  0.15783080272E+04  0.00000000000E+00 0.  1.
         23    2    1    2    0    0 -0.12052495701E+02 -0.35173578170E+03 -0.11704259575E+04  0.12279621030E+04  0.11887254417E+03 0.  0.
        254    2    1    2    0    0  0.12052495701E+02  0.35173578170E+03  0.23437514924E+03  0.99260314317E+03  0.89803450183E+03 0.  0.
        -24    2    4    4    0    0 -0.84008760033E+02 -0.18638826416E+03  0.36365908689E+03  0.42511368096E+03  0.81704672326E+02 0.  0.
         24    2    4    4    0    0  0.96061255735E+02  0.53812404586E+03 -0.12928393765E+03  0.56748946221E+03  0.80775612654E+02 0.  0.
         11    1    3    3    0    0 -0.83030861402E+01 -0.76264849241E+02 -0.12343890212E+03  0.14533558073E+03  0.00000000000E+00 0. -1.
        -11    1    3    3    0    0 -0.37494095612E+01 -0.27547093246E+03 -0.10469870553E+04  0.10826265223E+04  0.00000000000E+00 0.  1.
          4    1    6    6  502    0  0.14911350365E+02  0.15219773855E+03 -0.71846673403E+02  0.16896284938E+03  0.00000000000E+00 0. -1.
          3    1    5    5  503    0 -0.93479746898E+02 -0.13459445055E+03  0.23893237860E+03  0.28972885728E+03  0.00000000000E+00 0. -1.
         -4    1    5    5    0  503  0.94709868649E+01 -0.51793813614E+02  0.12472670829E+03  0.13538482367E+03  0.00000000000E+00 0.  1.
         -3    1    6    6    0  502  0.81149905370E+02  0.38592630731E+03 -0.57437264250E+02  0.39852661283E+03  0.00000000000E+00 0.  1.
<mgrwt>
<rscale>  0 0.20136333E+04</rscale>
<asrwt>0</asrwt>
<pdfrwt beam="1">  1        1 0.98808803E-01 0.20136333E+04</pdfrwt>
<pdfrwt beam="2">  1       -1 0.24281662E+00 0.20136333E+04</pdfrwt>
<totfact> 0.22316376E+00</totfact>
</mgrwt>
</event>
<event>
12    1  0.1489025E-007  0.2009565E+04  0.7818608E-02  0.8602162E-01
         -1   -1    0    0    0  501 -0.00000000000E+00  0.00000000000E+00  0.96595066005E+03  0.96595066005E+03  0.00000000000E+00 0.  1.
          1   -1    0    0  501    0  0.00000000000E+00 -0.00000000000E+00 -0.10451759004E+04  0.10451759004E+04  0.00000000000E+00 0. -1.
         23    2    1    2    0    0 -0.32228072409E+03 -0.15014757909E+03  0.68206977646E+03  0.77436876501E+03  0.89546879591E+02 0.  0.
        254    2    1    2    0    0  0.32228072409E+03  0.15014757909E+03 -0.76129501685E+03  0.12367577955E+04  0.90751891517E+03 0.  0.
        -24    2    4    4    0    0  0.51568913685E+03 -0.19166247880E+03 -0.55418322067E+03  0.78520729470E+03  0.82229325235E+02 0.  0.
         24    2    4    4    0    0 -0.19340841276E+03  0.34181005789E+03 -0.20711179618E+03  0.45155050079E+03  0.82229124078E+02 0.  0.
         11    1    3    3    0    0 -0.20574821185E+03 -0.80557041320E+02  0.33098851150E+03  0.39796376510E+03  0.00000000000E+00 0. -1.
        -11    1    3    3    0    0 -0.11653251223E+03 -0.69590537765E+02  0.35108126496E+03  0.37640499992E+03  0.00000000000E+00 0.  1.
          4    1    6    6  502    0 -0.98417091900E+01  0.19820686628E+02  0.73715916162E+01  0.23325077088E+02  0.00000000000E+00 0. -1.
          3    1    5    5  503    0  0.21400043975E+03 -0.56639989625E+02 -0.27131044786E+03  0.35016229917E+03  0.00000000000E+00 0. -1.
         -4    1    5    5    0  503  0.30168869710E+03 -0.13502248917E+03 -0.28287277281E+03  0.43504499553E+03  0.00000000000E+00 0.  1.
         -3    1    6    6    0  502 -0.18356670357E+03  0.32198937126E+03 -0.21448338780E+03  0.42822542370E+03  0.00000000000E+00 0.  1.
<mgrwt>
<rscale>  0 0.20095655E+04</rscale>
<asrwt>0</asrwt>
<pdfrwt beam="1">  1        1 0.16079629E+00 0.20095655E+04</pdfrwt>
<pdfrwt beam="2">  1       -1 0.14860779E+00 0.20095655E+04</pdfrwt>
<totfact> 0.46290786E+00</totfact>
</mgrwt>
</event>
<event>
12    1  0.1489025E-007  0.1460201E+04  0.7818608E-02  0.8911358E-01
         -2   -1    0    0    0  501 -0.00000000000E+00  0.00000000000E+00  0.79796373613E+03  0.79796373613E+03  0.00000000000E+00 0.  1.
          2   -1    0    0  501    0  0.00000000000E+00 -0.00000000000E+00 -0.66800915591E+03  0.66800915591E+03  0.00000000000E+00 0. -1.
         23    2    1    2    0    0 -0.35646429768E+03  0.27133814798E+03  0.15351239794E+03  0.48227269245E+03  0.91267231204E+02 0.  0.
        254    2    1    2    0    0  0.35646429768E+03 -0.27133814798E+03 -0.23557817718E+02  0.98370019959E+03  0.87545412548E+03 0.  0.
        -24    2    4    4    0    0  0.55057511784E+03 -0.31752916222E+03  0.20247194769E+03  0.67181081453E+03  0.79857070265E+02 0.  0.
         24    2    4    4    0    0 -0.19411082016E+03  0.46191014242E+02 -0.22602976541E+03  0.31188938506E+03  0.79830528985E+02 0.  0.
         13    1    3    3    0    0 -0.91521594854E+02  0.35039680735E+02  0.70998225980E+01  0.98256750565E+02  0.00000000000E+00 0. -1.
        -13    1    3    3    0    0 -0.26494270282E+03  0.23629846725E+03  0.14641257534E+03  0.38401594188E+03  0.00000000000E+00 0.  1.
          2    1    6    6  502    0 -0.16353501585E+03  0.58434099056E+02 -0.21661678829E+03  0.27763479305E+03  0.00000000000E+00 0. -1.
          1    1    5    5  503    0  0.52635686621E+03 -0.30050778348E+03  0.20968049884E+03  0.64134420566E+03  0.00000000000E+00 0. -1.
         -2    1    5    5    0  503  0.24218251626E+02 -0.17021378742E+02 -0.72085511525E+01  0.30466608866E+02  0.00000000000E+00 0.  1.
         -1    1    6    6    0  502 -0.30575804317E+02 -0.12243084814E+02 -0.94129771155E+01  0.34254592007E+02  0.00000000000E+00 0.  1.
<mgrwt>
<rscale>  0 0.14602015E+04</rscale>
<asrwt>0</asrwt>
<pdfrwt beam="1">  1        2 0.10277064E+00 0.14602015E+04</pdfrwt>
<pdfrwt beam="2">  1       -2 0.12276365E+00 0.14602015E+04</pdfrwt>
<totfact> 0.21123262E+01</totfact>
</mgrwt>
</event>
<event>
12    1  0.1489025E-007  0.1429069E+04  0.7818608E-02  0.8933042E-01
          2   -1    0    0  501    0  0.00000000000E+00  0.00000000000E+00  0.13884422747E+04  0.13884422747E+04  0.00000000000E+00 0. -1.
         -2   -1    0    0    0  501 -0.00000000000E+00 -0.00000000000E+00 -0.36772119168E+03  0.36772119168E+03  0.00000000000E+00 0.  1.
         23    2    1    2    0    0 -0.16271286456E+03  0.31277663495E+03  0.61537925028E+03  0.71462479546E+03  0.87705626645E+02 0.  0.
        254    2    1    2    0    0  0.16271286456E+03 -0.31277663495E+03  0.40534183270E+03  0.10415386709E+04  0.89229821356E+03 0.  0.
        -24    2    4    4    0    0 -0.91972593827E+02  0.66183354973E+02  0.54126341086E+03  0.55880057548E+03  0.80329376490E+02 0.  0.
         24    2    4    4    0    0  0.25468545839E+03 -0.37895998992E+03 -0.13592157816E+03  0.48273809539E+03  0.78013054390E+02 0.  0.
         11    1    3    3    0    0 -0.68572202108E+02  0.13304513045E+03  0.34927220584E+03  0.37999240441E+03  0.00000000000E+00 0.  1.
        -11    1    3    3    0    0 -0.94140662455E+02  0.17973150450E+03  0.26610704444E+03  0.33463239105E+03  0.00000000000E+00 0. -1.
          2    1    6    6  502    0  0.14135012953E+01 -0.13553529663E+02 -0.18348925527E+02  0.22855616820E+02  0.00000000000E+00 0. -1.
          3    1    5    5  503    0 -0.50212817547E+01 -0.33318283728E+01 -0.18246187324E+00  0.60289006545E+01  0.00000000000E+00 0. -1.
         -4    1    5    5    0  503 -0.86951312073E+02  0.69515183345E+02  0.54144587274E+03  0.55277167483E+03  0.00000000000E+00 0.  1.
         -1    1    6    6    0  502  0.25327195709E+03 -0.36540646026E+03 -0.11757265264E+03  0.45988247857E+03  0.00000000000E+00 0.  1.
<mgrwt>
<rscale>  0 0.14290691E+04</rscale>
<asrwt>0</asrwt>
<pdfrwt beam="1">  1        2 0.21360650E+00 0.14290691E+04</pdfrwt>
<pdfrwt beam="2">  1       -2 0.56572492E-01 0.14290691E+04</pdfrwt>
<totfact> 0.41826674E+01</totfact>
</mgrwt>
</event>
<event>
12    1  0.1489025E-007  0.1637379E+04  0.7818608E-02  0.8797908E-01
          2   -1    0    0  501    0  0.00000000000E+00  0.00000000000E+00  0.27089830525E+04  0.27089830525E+04  0.00000000000E+00 0.  1.
         -2   -1    0    0    0  501 -0.00000000000E+00 -0.00000000000E+00 -0.24741860717E+03  0.24741860717E+03  0.00000000000E+00 0. -1.
         23    2    1    2    0    0  0.44721767742E+02 -0.23861638200E+03 -0.58636577683E+02  0.26625398810E+03  0.92277427745E+02 0.  0.
        254    2    1    2    0    0 -0.44721767742E+02  0.23861638200E+03  0.25202010230E+04  0.26901476716E+04  0.90914436925E+03 0.  0.
        -24    2    4    4    0    0 -0.38776105877E+03  0.59196221510E+02  0.54798871951E+03  0.67868143429E+03  0.80336922953E+02 0.  0.
         24    2    4    4    0    0  0.34303929103E+03  0.17942016049E+03  0.19722123035E+04  0.20114662373E+04  0.80669104683E+02 0.  0.
         13    1    3    3    0    0  0.64339064298E+02 -0.20530417102E+03 -0.69501696502E+02  0.22609688996E+03  0.00000000000E+00 0. -1.
        -13    1    3    3    0    0 -0.19617296556E+02 -0.33312210977E+02  0.10865118819E+02  0.40157098143E+02  0.00000000000E+00 0.  1.
          2    1    6    6  502    0  0.26668684607E+03  0.99997513615E+02  0.14643309937E+04  0.14917729840E+04  0.00000000000E+00 0. -1.
          3    1    5    5  503    0 -0.19975064268E+03  0.23562567162E+02  0.21348557465E+03  0.29331144609E+03  0.00000000000E+00 0. -1.
         -4    1    5    5    0  503 -0.18801041609E+03  0.35633654348E+02  0.33450314486E+03  0.38536998820E+03  0.00000000000E+00 0.  1.
         -1    1    6    6    0  502  0.76352444959E+02  0.79422646873E+02  0.50788130978E+03  0.51969325328E+03  0.00000000000E+00 0.  1.
<mgrwt>
<rscale>  0 0.16373794E+04</rscale>
<asrwt>0</asrwt>
<pdfrwt beam="1">  1        2 0.41676660E+00 0.16373794E+04</pdfrwt>
<pdfrwt beam="2">  1       -2 0.38064403E-01 0.16373794E+04</pdfrwt>
<totfact> 0.16393659E+01</totfact>
</mgrwt>
</event>
<event>
12    1  0.1489025E-007  0.1470145E+04  0.7818608E-02  0.8904552E-01
          2   -1    0    0  501    0  0.00000000000E+00  0.00000000000E+00  0.15984202418E+04  0.15984202418E+04  0.00000000000E+00 0. -1.
         -2   -1    0    0    0  501 -0.00000000000E+00 -0.00000000000E+00 -0.33804121044E+03  0.33804121044E+03  0.00000000000E+00 0.  1.
         23    2    1    2    0    0 -0.17562608106E+03  0.21794095377E+03 -0.71353182944E+02  0.30349095420E+03  0.93127347701E+02 0.  0.
        254    2    1    2    0    0  0.17562608106E+03 -0.21794095377E+03  0.13317322143E+04  0.16329704980E+04  0.90262903630E+03 0.  0.
        -24    2    4    4    0    0  0.31415290856E+03 -0.32053578385E+03  0.13666464334E+04  0.14409587185E+04  0.84878240778E+02 0.  0.
         24    2    4    4    0    0 -0.13852682750E+03  0.10259483009E+03 -0.34914219112E+02  0.19201177954E+03  0.77033367374E+02 0.  0.
         13    1    3    3    0    0 -0.24603526112E+02  0.87863476002E+02  0.15544382711E+01  0.91256452871E+02  0.00000000000E+00 0. -1.
        -13    1    3    3    0    0 -0.15102255495E+03  0.13007747776E+03 -0.72907621215E+02  0.21223450133E+03  0.00000000000E+00 0.  1.
          4    1    6    6  502    0 -0.14618753183E+02  0.12999336419E+02  0.21464926718E+02  0.29041931254E+02  0.00000000000E+00 0. -1.
          1    1    5    5  503    0  0.10207628906E+03 -0.13276580056E+03  0.62540561824E+03  0.64743996935E+03  0.00000000000E+00 0. -1.
         -2    1    5    5    0  503  0.21207661950E+03 -0.18776998329E+03  0.74124081517E+03  0.79351874914E+03  0.00000000000E+00 0.  1.
         -3    1    6    6    0  502 -0.12390807432E+03  0.89595493667E+02 -0.56379145829E+02  0.16296984829E+03  0.00000000000E+00 0.  1.
<mgrwt>
<rscale>  0 0.14701455E+04</rscale>
<asrwt>0</asrwt>
<pdfrwt beam="1">  1        2 0.24591080E+00 0.14701455E+04</pdfrwt>
<pdfrwt beam="2">  1       -2 0.52006341E-01 0.14701455E+04</pdfrwt>
<totfact> 0.37767845E+01</totfact>
</mgrwt>
</event>
<event>
12    1  0.1489025E-007  0.1898101E+04  0.7818608E-02  0.8655802E-01
          1   -1    0    0  501    0  0.00000000000E+00  0.00000000000E+00  0.64755390182E+03  0.64755390182E+03  0.00000000000E+00 0. -1.
         -1   -1    0    0    0  501 -0.00000000000E+00 -0.00000000000E+00 -0.13909216270E+04  0.13909216270E+04  0.00000000000E+00 0.  1.
         23    2    1    2    0    0  0.44061601887E+03  0.47069258159E+03 -0.64540006188E+03  0.91749285256E+03  0.97764575251E+02 0.  0.
        254    2    1    2    0    0 -0.44061601887E+03 -0.47069258159E+03 -0.97967663294E+02  0.11209826762E+04  0.91176231275E+03 0.  0.
        -24    2    4    4    0    0 -0.30895128522E+03 -0.65376319096E+02  0.36334961693E+03  0.48810385161E+03  0.80606861335E+02 0.  0.
         24    2    4    4    0    0 -0.13166473365E+03 -0.40531626250E+03 -0.46131728022E+03  0.63287882464E+03  0.78135132420E+02 0.  0.
         11    1    3    3    0    0  0.19807069949E+03  0.16746428740E+03 -0.20696050647E+03  0.33182667281E+03  0.00000000000E+00 0.  1.
        -11    1    3    3    0    0  0.24254531937E+03  0.30322829419E+03 -0.43843955542E+03  0.58566617975E+03  0.00000000000E+00 0. -1.
          2    1    6    6  502    0 -0.11743201965E+01 -0.99150607390E+02 -0.12724662416E+03  0.16131932722E+03  0.00000000000E+00 0. -1.
          1    1    5    5  503    0 -0.15210080083E+03 -0.17302937941E+02  0.11947840106E+03  0.19418839717E+03  0.00000000000E+00 0. -1.
         -2    1    5    5    0  503 -0.15685048439E+03 -0.48073381155E+02  0.24387121587E+03  0.29391545444E+03  0.00000000000E+00 0.  1.
         -1    1    6    6    0  502 -0.13049041345E+03 -0.30616565511E+03 -0.33407065606E+03  0.47155949742E+03  0.00000000000E+00 0.  1.
<mgrwt>
<rscale>  0 0.18981009E+04</rscale>
<asrwt>0</asrwt>
<pdfrwt beam="1">  1        1 0.99623678E-01 0.18981009E+04</pdfrwt>
<pdfrwt beam="2">  1       -1 0.21398794E+00 0.18981009E+04</pdfrwt>
<totfact> 0.34615870E+00</totfact>
</mgrwt>
</event>
<event>
12    1  0.1489025E-007  0.2145438E+04  0.7818608E-02  0.8541488E-01
          2   -1    0    0  501    0  0.00000000000E+00  0.00000000000E+00  0.19487648874E+04  0.19487648874E+04  0.00000000000E+00 0. -1.
         -2   -1    0    0    0  501 -0.00000000000E+00 -0.00000000000E+00 -0.59048984831E+03  0.59048984831E+03  0.00000000000E+00 0.  1.
         23    2    1    2    0    0  0.47257328076E+03  0.60680196163E+03  0.55730715590E+02  0.77668388233E+03  0.92724398504E+02 0.  0.
        254    2    1    2    0    0 -0.47257328076E+03 -0.60680196163E+03  0.13025443235E+04  0.17625708534E+04  0.90470999342E+03 0.  0.
        -24    2    4    4    0    0  0.25769873608E+03 -0.87104360192E+02  0.38049015006E+03  0.47425145845E+03  0.78395684905E+02 0.  0.
         24    2    4    4    0    0 -0.73027201684E+03 -0.51969760144E+03  0.92205417348E+03  0.12883193950E+04  0.78741025426E+02 0.  0.
         13    1    3    3    0    0  0.76436561781E+02  0.13977962394E+03 -0.15915226701E+02  0.16010679463E+03  0.00000000000E+00 0. -1.
        -13    1    3    3    0    0  0.39613671898E+03  0.46702233769E+03  0.71645942291E+02  0.61657708770E+03  0.00000000000E+00 0.  1.
          2    1    6    6  502    0 -0.57678789030E+03 -0.43999116014E+03  0.77176101929E+03  0.10591938266E+04  0.00000000000E+00 0. -1.
          3    1    5    5  503    0  0.48786901707E+02 -0.31305966517E+02  0.38340820365E+02  0.69499955569E+02  0.00000000000E+00 0. -1.
         -4    1    5    5    0  503  0.20891183437E+03 -0.55798393675E+02  0.34214932969E+03  0.40475150288E+03  0.00000000000E+00 0.  1.
         -1    1    6    6    0  502 -0.15348412654E+03 -0.79706441298E+02  0.15029315419E+03  0.22912556837E+03  0.00000000000E+00 0.  1.
<mgrwt>
<rscale>  0 0.21454378E+04</rscale>
<asrwt>0</asrwt>
<pdfrwt beam="1">  1        2 0.29980998E+00 0.21454378E+04</pdfrwt>
<pdfrwt beam="2">  1       -2 0.90844593E-01 0.21454378E+04</pdfrwt>
<totfact> 0.67739753E+00</totfact>
</mgrwt>
</event>
<event>
12    1  0.1489025E-007  0.1475256E+04  0.7818608E-02  0.8901076E-01
          2   -1    0    0  501    0  0.00000000000E+00  0.00000000000E+00  0.10629648575E+04  0.10629648575E+04  0.00000000000E+00 0.  1.
         -2   -1    0    0    0  501 -0.00000000000E+00 -0.00000000000E+00 -0.51186546575E+03  0.51186546575E+03  0.00000000000E+00 0. -1.
         23    2    1    2    0    0  0.46581931003E+02 -0.42637947212E+03  0.34664054635E+03  0.55888816416E+03  0.90702707369E+02 0.  0.
        254    2    1    2    0    0 -0.46581931003E+02  0.42637947212E+03  0.20445884542E+03  0.10159421591E+04  0.89797868607E+03 0.  0.
        -24    2    4    4    0    0  0.41370453039E+03  0.27410512596E+03  0.84771081163E+02  0.50985772417E+03  0.80521451477E+02 0.  0.
         24    2    4    4    0    0 -0.46028646140E+03  0.15227434616E+03  0.11968776426E+03  0.50608443493E+03  0.82129113743E+02 0.  0.
         13    1    3    3    0    0  0.13619122631E+02 -0.81925773898E+02  0.11743349665E+03  0.14383302495E+03  0.00000000000E+00 0.  1.
        -13    1    3    3    0    0  0.32962808371E+02 -0.34445369822E+03  0.22920704969E+03  0.41505513921E+03  0.00000000000E+00 0. -1.
          4    1    6    6  502    0 -0.44683696790E+03  0.14721998163E+03  0.13035458835E+03  0.48818983765E+03  0.00000000000E+00 0. -1.
          3    1    5    5  503    0  0.24958575642E+03  0.15467017574E+03  0.89061836221E+02  0.30683533653E+03  0.00000000000E+00 0. -1.
         -4    1    5    5    0  503  0.16411877397E+03  0.11943495022E+03 -0.42907550580E+01  0.20302238764E+03  0.00000000000E+00 0.  1.
         -3    1    6    6    0  502 -0.13449493493E+02  0.50543645328E+01 -0.10666824086E+02  0.17894597289E+02  0.00000000000E+00 0.  1.
<mgrwt>
<rscale>  0 0.14752559E+04</rscale>
<asrwt>0</asrwt>
<pdfrwt beam="1">  1        2 0.16353305E+00 0.14752559E+04</pdfrwt>
<pdfrwt beam="2">  1       -2 0.78748533E-01 0.14752559E+04</pdfrwt>
<totfact> 0.31854525E+01</totfact>
</mgrwt>
</event>
<event>
12    1  0.1489025E-007  0.1772294E+04  0.7818608E-02  0.8721173E-01
          2   -1    0    0  501    0  0.00000000000E+00  0.00000000000E+00  0.63630050476E+03  0.63630050476E+03  0.00000000000E+00 0. -1.
         -2   -1    0    0    0  501 -0.00000000000E+00 -0.00000000000E+00 -0.12340973256E+04  0.12340973256E+04  0.00000000000E+00 0.  1.
         23    2    1    2    0    0  0.18512486529E+03 -0.19686707505E+03 -0.84583405873E+03  0.89256628576E+03  0.90617098803E+02 0.  0.
        254    2    1    2    0    0 -0.18512486529E+03  0.19686707505E+03  0.24803723793E+03  0.97783154455E+03  0.90642385071E+03 0.  0.
        -24    2    4    4    0    0  0.35590911172E+03  0.15673095545E+03  0.85705187841E+02  0.40595469416E+03  0.78853955421E+02 0.  0.
         24    2    4    4    0    0 -0.54103397700E+03  0.40136119595E+02  0.16233205009E+03  0.57187685039E+03  0.79766942799E+02 0.  0.
         13    1    3    3    0    0  0.82771890978E+02 -0.41252664060E+02 -0.19882789457E+03  0.21928406209E+03  0.00000000000E+00 0. -1.
        -13    1    3    3    0    0  0.10235297431E+03 -0.15561441099E+03 -0.64700616416E+03  0.67328222367E+03  0.00000000000E+00 0.  1.
          2    1    6    6  502    0 -0.92848871389E+02  0.46611847149E+01  0.60448410726E+02  0.11089026071E+03  0.00000000000E+00 0. -1.
          1    1    5    5  503    0  0.64669613263E+02  0.35832461897E+02 -0.13967438029E+02  0.75241036213E+02  0.00000000000E+00 0. -1.
         -2    1    5    5    0  503  0.29123949845E+03  0.12089849356E+03  0.99672625870E+02  0.33071365795E+03  0.00000000000E+00 0.  1.
         -1    1    6    6    0  502 -0.44818510561E+03  0.35474934880E+02  0.10188363937E+03  0.46098658968E+03  0.00000000000E+00 0.  1.
<mgrwt>
<rscale>  0 0.17722943E+04</rscale>
<asrwt>0</asrwt>
<pdfrwt beam="1">  1        2 0.97892386E-01 0.17722943E+04</pdfrwt>
<pdfrwt beam="2">  1       -2 0.18986113E+00 0.17722943E+04</pdfrwt>
<totfact> 0.67786522E+00</totfact>
</mgrwt>
</event>
<event>
12    1  0.1489025E-007  0.1674452E+04  0.7818608E-02  0.8776071E-01
         -2   -1    0    0    0  501 -0.00000000000E+00  0.00000000000E+00  0.52885474307E+03  0.52885474307E+03  0.00000000000E+00 0.  1.
          2   -1    0    0  501    0  0.00000000000E+00 -0.00000000000E+00 -0.13254058167E+04  0.13254058167E+04  0.00000000000E+00 0. -1.
         23    2    1    2    0    0 -0.43894188479E+03  0.22426987056E+03  0.10098155879E+03  0.51168894344E+03  0.93066355696E+02 0.  0.
        254    2    1    2    0    0  0.43894188479E+03 -0.22426987056E+03 -0.89753263246E+03  0.13425716164E+04  0.86831259676E+03 0.  0.
        -24    2    4    4    0    0  0.29896933086E+03 -0.89463442318E+02  0.88560094022E+02  0.33424616338E+03  0.80568226835E+02 0.  0.
         24    2    4    4    0    0  0.13997255392E+03 -0.13480642825E+03 -0.98609272648E+03  0.10083254530E+04  0.81094173515E+02 0.  0.
         13    1    3    3    0    0 -0.24791577780E+03  0.17114558160E+03  0.37936966704E+02  0.30363177769E+03  0.00000000000E+00 0.  1.
        -13    1    3    3    0    0 -0.19102610699E+03  0.53124288969E+02  0.63044592082E+02  0.20805716575E+03  0.00000000000E+00 0. -1.
          2    1    6    6  502    0  0.15093326771E+02 -0.21227017508E+02 -0.32426312280E+03  0.32530749698E+03  0.00000000000E+00 0. -1.
          1    1    5    5  503    0  0.57370920479E+02 -0.52218631983E+02  0.15510757984E+02  0.79112525279E+02  0.00000000000E+00 0. -1.
         -2    1    5    5    0  503  0.24159841038E+03 -0.37244810336E+02  0.73049336038E+02  0.25513363810E+03  0.00000000000E+00 0.  1.
         -1    1    6    6    0  502  0.12487922715E+03 -0.11357941074E+03 -0.66182960368E+03  0.68301795600E+03  0.00000000000E+00 0.  1.
<mgrwt>
<rscale>  0 0.16744517E+04</rscale>
<asrwt>0</asrwt>
<pdfrwt beam="1">  1        2 0.20390859E+00 0.16744517E+04</pdfrwt>
<pdfrwt beam="2">  1       -2 0.81362268E-01 0.16744517E+04</pdfrwt>
<totfact> 0.20272417E+01</totfact>
</mgrwt>
</event>
<event>
12    1  0.1489025E-007  0.1970187E+04  0.7818608E-02  0.8620687E-01
         -2   -1    0    0    0  501 -0.00000000000E+00  0.00000000000E+00  0.40878041336E+03  0.40878041336E+03  0.00000000000E+00 0.  1.
          2   -1    0    0  501    0  0.00000000000E+00 -0.00000000000E+00 -0.23739142787E+04  0.23739142787E+04  0.00000000000E+00 0. -1.
         23    2    1    2    0    0  0.64144384964E+03 -0.12023913660E+03 -0.18468138407E+03  0.68439553969E+03  0.91555332531E+02 0.  0.
        254    2    1    2    0    0 -0.64144384964E+03  0.12023913660E+03 -0.17804524813E+04  0.20982991524E+04  0.89829874351E+03 0.  0.
        -24    2    4    4    0    0  0.20190685827E+03  0.11939707139E+03 -0.27985769980E+03  0.37514046145E+03  0.85953438573E+02 0.  0.
         24    2    4    4    0    0 -0.84335070791E+03  0.84206520811E+00 -0.15005947815E+04  0.17231586910E+04  0.79057260001E+02 0.  0.
         11    1    3    3    0    0  0.16236639502E+02 -0.20041130833E+02 -0.59997826471E+01  0.26481555453E+02  0.00000000000E+00 0. -1.
        -11    1    3    3    0    0  0.62520721014E+03 -0.10019800576E+03 -0.17868160143E+03  0.65791398424E+03  0.00000000000E+00 0.  1.
          4    1    6    6  502    0 -0.21713970069E+03 -0.97333382537E+01 -0.32207351101E+03  0.38855595991E+03  0.00000000000E+00 0. -1.
          1    1    5    5  503    0  0.36818910928E+02 -0.10453691497E+02 -0.29352660192E+02  0.48233707386E+02  0.00000000000E+00 0. -1.
         -2    1    5    5    0  503  0.16508794734E+03  0.12985076289E+03 -0.25050503961E+03  0.32690675406E+03  0.00000000000E+00 0.  1.
         -3    1    6    6    0  502 -0.62621100722E+03  0.10575403462E+02 -0.11785212705E+04  0.13346027311E+04  0.00000000000E+00 0.  1.
<mgrwt>
<rscale>  0 0.19701875E+04</rscale>
<asrwt>0</asrwt>
<pdfrwt beam="1">  1        2 0.36521757E+00 0.19701875E+04</pdfrwt>
<pdfrwt beam="2">  1       -2 0.62889296E-01 0.19701875E+04</pdfrwt>
<totfact> 0.89825892E+00</totfact>
</mgrwt>
</event>
<event>
12    1  0.1489025E-007  0.2457359E+04  0.7818608E-02  0.8418336E-01
         -1   -1    0    0    0  501 -0.00000000000E+00  0.00000000000E+00  0.68238166025E+03  0.68238166025E+03  0.00000000000E+00 0.  1.
          1   -1    0    0  501    0  0.00000000000E+00 -0.00000000000E+00 -0.22123297210E+04  0.22123297210E+04  0.00000000000E+00 0. -1.
         23    2    1    2    0    0 -0.20847348724E+03  0.59362691591E+02  0.56295246681E+03  0.61090603199E+03  0.96465413510E+02 0.  0.
        254    2    1    2    0    0  0.20847348724E+03 -0.59362691591E+02 -0.20929005275E+04  0.22838053492E+04  0.88800288907E+03 0.  0.
        -24    2    4    4    0    0  0.24146051368E+03 -0.21808276028E+03 -0.21810953113E+03  0.40027102909E+03  0.82352044084E+02 0.  0.
         24    2    4    4    0    0 -0.32987026438E+02  0.15872006869E+03 -0.18747909964E+04  0.18835343201E+04  0.81117512484E+02 0.  0.
         11    1    3    3    0    0 -0.78961726948E+02  0.72349510205E+02  0.25428807402E+03  0.27591997126E+03  0.00000000000E+00 0.  1.
        -11    1    3    3    0    0 -0.12951176029E+03 -0.12986818613E+02  0.30866439278E+03  0.33498606073E+03  0.00000000000E+00 0. -1.
          2    1    6    6  502    0  0.42989797742E+01  0.45837752400E+02 -0.23673580817E+03  0.24117094278E+03  0.00000000000E+00 0. -1.
          3    1    5    5  503    0  0.11524399579E+03 -0.15279492900E+03 -0.14729020555E+03  0.24149922059E+03  0.00000000000E+00 0. -1.
         -4    1    5    5    0  503  0.12621651788E+03 -0.65287831282E+02 -0.70819325583E+02  0.15877180851E+03  0.00000000000E+00 0.  1.
         -1    1    6    6    0  502 -0.37286006212E+02  0.11288231629E+03 -0.16380551882E+04  0.16423633774E+04  0.00000000000E+00 0.  1.
<mgrwt>
<rscale>  0 0.24573589E+04</rscale>
<asrwt>0</asrwt>
<pdfrwt beam="1">  1        1 0.34035842E+00 0.24573589E+04</pdfrwt>
<pdfrwt beam="2">  1       -1 0.10498179E+00 0.24573589E+04</pdfrwt>
<totfact> 0.16223204E+00</totfact>
</mgrwt>
</event>
<event>
12    1  0.1516808E-007  0.2010754E+04  0.7818608E-02  0.8601609E-01
         -1   -1    0    0    0  501 -0.00000000000E+00  0.00000000000E+00  0.84801790997E+03  0.84801790997E+03  0.00000000000E+00 0.  1.
          1   -1    0    0  501    0  0.00000000000E+00 -0.00000000000E+00 -0.11919357900E+04  0.11919357900E+04  0.00000000000E+00 0. -1.
         23    2    1    2    0    0 -0.23437784586E+03  0.44689203871E+03 -0.77316308246E+03  0.92782756348E+03  0.91855139157E+02 0.  0.
        254    2    1    2    0    0  0.23437784586E+03 -0.44689203871E+03  0.42924520245E+03  0.11121261365E+04  0.89326795011E+03 0.  0.
        -24    2    4    4    0    0 -0.13099140310E+03 -0.58506544605E+03  0.36921770930E+03  0.70898065342E+03  0.82894669376E+02 0.  0.
         24    2    4    4    0    0  0.36536924896E+03  0.13817340734E+03  0.60027493151E+02  0.40314548305E+03  0.79601519993E+02 0.  0.
         13    1    3    3    0    0 -0.18457024953E+03  0.27179211043E+03 -0.45414205687E+03  0.56051952340E+03  0.00000000000E+00 0. -1.
        -13    1    3    3    0    0 -0.49807596329E+02  0.17509992829E+03 -0.31902102559E+03  0.36730804008E+03  0.00000000000E+00 0.  1.
          4    1    6    6  502    0  0.15602831175E+03  0.49284401703E+02  0.63952143969E+02  0.17568057103E+03  0.00000000000E+00 0. -1.
          3    1    5    5  503    0 -0.60661528141E+02 -0.15972812105E+03  0.72377007467E+02  0.18555679686E+03  0.00000000000E+00 0. -1.
         -4    1    5    5    0  503 -0.70329874961E+02 -0.42533732501E+03  0.29684070183E+03  0.52342385656E+03  0.00000000000E+00 0.  1.
         -3    1    6    6    0  502  0.20934093721E+03  0.88889005638E+02 -0.39246508177E+01  0.22746491202E+03  0.00000000000E+00 0.  1.
<mgrwt>
<rscale>  0 0.20107540E+04</rscale>
<asrwt>0</asrwt>
<pdfrwt beam="1">  1        1 0.18337474E+00 0.20107540E+04</pdfrwt>
<pdfrwt beam="2">  1       -1 0.13046429E+00 0.20107540E+04</pdfrwt>
<totfact> 0.50460113E+00</totfact>
</mgrwt>
</event>
<event>
12    1  0.1489025E-007  0.1218377E+04  0.7818608E-02  0.9096922E-01
         -2   -1    0    0    0  501 -0.00000000000E+00  0.00000000000E+00  0.76671795910E+03  0.76671795910E+03  0.00000000000E+00 0.  1.
          2   -1    0    0  501    0  0.00000000000E+00 -0.00000000000E+00 -0.48402460317E+03  0.48402460317E+03  0.00000000000E+00 0. -1.
         23    2    1    2    0    0  0.13090198629E+03 -0.26801168012E+02  0.30617384166E+03  0.34505371256E+03  0.86406079709E+02 0.  0.
        254    2    1    2    0    0 -0.13090198629E+03  0.26801168012E+02 -0.23480485726E+02  0.90568884971E+03  0.89547044991E+03 0.  0.
        -24    2    4    4    0    0  0.17145358853E+03  0.36794637773E+03  0.10220084350E+03  0.42617856880E+03  0.80014312387E+02 0.  0.
         24    2    4    4    0    0 -0.30235557482E+03 -0.34114520972E+03 -0.12568132922E+03  0.47951028092E+03  0.79595007726E+02 0.  0.
         13    1    3    3    0    0  0.39054492932E+02 -0.18898236053E+02  0.27116286654E+02  0.51163363318E+02  0.00000000000E+00 0. -1.
        -13    1    3    3    0    0  0.91847493360E+02 -0.79029319593E+01  0.27905755501E+03  0.29389034924E+03  0.00000000000E+00 0.  1.
          4    1    6    6  502    0 -0.18036133563E+03 -0.20406458350E+03 -0.11519581823E+03  0.29570702083E+03  0.00000000000E+00 0. -1.
          3    1    5    5  503    0  0.17137315214E+03  0.35351651170E+03  0.11225926208E+03  0.40858881928E+03  0.00000000000E+00 0. -1.
         -4    1    5    5    0  503  0.80436391862E-01  0.14429866031E+02 -0.10058418584E+02  0.17589749518E+02  0.00000000000E+00 0.  1.
         -3    1    6    6    0  502 -0.12199423919E+03 -0.13708062621E+03 -0.10485510993E+02  0.18380326009E+03  0.00000000000E+00 0.  1.
<mgrwt>
<rscale>  0 0.12183766E+04</rscale>
<asrwt>0</asrwt>
<pdfrwt beam="1">  1        2 0.74465324E-01 0.12183766E+04</pdfrwt>
<pdfrwt beam="2">  1       -2 0.11795661E+00 0.12183766E+04</pdfrwt>
<totfact> 0.34911934E+01</totfact>
</mgrwt>
</event>
<event>
12    1  0.1489025E-007  0.1941892E+04  0.7818608E-02  0.8634280E-01
         -2   -1    0    0    0  501 -0.00000000000E+00  0.00000000000E+00  0.44691459850E+03  0.44691459850E+03  0.00000000000E+00 0.  1.
          2   -1    0    0  501    0  0.00000000000E+00 -0.00000000000E+00 -0.21094327334E+04  0.21094327334E+04  0.00000000000E+00 0. -1.
         23    2    1    2    0    0 -0.24771881216E+03  0.84594859576E+02  0.28260882410E+03  0.39613575072E+03  0.92384443361E+02 0.  0.
        254    2    1    2    0    0  0.24771881216E+03 -0.84594859576E+02 -0.19451269590E+04  0.21602115812E+04  0.90248229273E+03 0.  0.
        -24    2    4    4    0    0  0.14319920874E+03 -0.20516914914E+03 -0.19638479026E+04  0.19814415597E+04  0.82532882982E+02 0.  0.
         24    2    4    4    0    0  0.10451960342E+03  0.12057428956E+03  0.18720943573E+02  0.17877002152E+03  0.78394770644E+02 0.  0.
         13    1    3    3    0    0 -0.47186081642E+02  0.38763086541E+02  0.23809531388E+02  0.65543855271E+02  0.00000000000E+00 0. -1.
        -13    1    3    3    0    0 -0.20053273052E+03  0.45831773035E+02  0.25879929271E+03  0.33059189545E+03  0.00000000000E+00 0.  1.
          4    1    6    6  502    0  0.15010674482E+02  0.61740398599E+02  0.31461668225E+02  0.70901577804E+02  0.00000000000E+00 0. -1.
          3    1    5    5  503    0  0.10747671689E+03 -0.84201328212E+02 -0.94361867550E+03  0.95344497120E+03  0.00000000000E+00 0. -1.
         -4    1    5    5    0  503  0.35722491848E+02 -0.12096782093E+03 -0.10202292271E+04  0.10279965885E+04  0.00000000000E+00 0.  1.
         -3    1    6    6    0  502  0.89508928938E+02  0.58833890963E+02 -0.12740724652E+02  0.10786844372E+03  0.00000000000E+00 0.  1.
<mgrwt>
<rscale>  0 0.19418922E+04</rscale>
<asrwt>0</asrwt>
<pdfrwt beam="1">  1        2 0.32452812E+00 0.19418922E+04</pdfrwt>
<pdfrwt beam="2">  1       -2 0.68756091E-01 0.19418922E+04</pdfrwt>
<totfact> 0.10474310E+01</totfact>
</mgrwt>
</event>
<event>
12    1  0.1489025E-007  0.2453985E+04  0.7818608E-02  0.8419565E-01
          1   -1    0    0  501    0  0.00000000000E+00  0.00000000000E+00  0.14351580753E+04  0.14351580753E+04  0.00000000000E+00 0. -1.
         -1   -1    0    0    0  501 -0.00000000000E+00 -0.00000000000E+00 -0.10490205188E+04  0.10490205188E+04  0.00000000000E+00 0.  1.
         23    2    1    2    0    0  0.31238841535E+03 -0.10515384565E+01  0.11898338209E+04  0.12334495771E+04  0.90031717981E+02 0.  0.
        254    2    1    2    0    0 -0.31238841535E+03  0.10515384565E+01 -0.80369626440E+03  0.12507290170E+04  0.90598441526E+03 0.  0.
        -24    2    4    4    0    0  0.16312743047E+02 -0.10499326342E+03 -0.87647072991E+03  0.88672506278E+03  0.82405737802E+02 0.  0.
         24    2    4    4    0    0 -0.32870115839E+03  0.10604480187E+03  0.72774465510E+02  0.36400395419E+03  0.88953944819E+02 0.  0.
         13    1    3    3    0    0  0.27205653687E+03  0.27812677624E+02  0.10519806467E+04  0.10869459901E+04  0.00000000000E+00 0. -1.
        -13    1    3    3    0    0  0.40331878479E+02 -0.28864216080E+02  0.13785317414E+03  0.14650358703E+03  0.00000000000E+00 0.  1.
          4    1    6    6  502    0 -0.16249151414E+03  0.19623869818E+02  0.66202688187E+02  0.17655419666E+03  0.00000000000E+00 0. -1.
          1    1    5    5  503    0  0.71429643869E+01  0.46161640253E+01 -0.28421146099E+03  0.28433868092E+03  0.00000000000E+00 0. -1.
         -2    1    5    5    0  503  0.91697786606E+01 -0.10960942744E+03 -0.59225926893E+03  0.60238638186E+03  0.00000000000E+00 0.  1.
         -3    1    6    6    0  502 -0.16620964425E+03  0.86420932055E+02  0.65717773228E+01  0.18744975753E+03  0.00000000000E+00 0.  1.
<mgrwt>
<rscale>  0 0.24539847E+04</rscale>
<asrwt>0</asrwt>
<pdfrwt beam="1">  1        1 0.22079355E+00 0.24539847E+04</pdfrwt>
<pdfrwt beam="2">  1       -1 0.16138777E+00 0.24539847E+04</pdfrwt>
<totfact> 0.18469950E+00</totfact>
</mgrwt>
</event>
<event>
12    1  0.1489025E-007  0.1648573E+04  0.7818608E-02  0.8791251E-01
          1   -1    0    0  501    0  0.00000000000E+00  0.00000000000E+00  0.42443694739E+03  0.42443694739E+03  0.00000000000E+00 0. -1.
         -1   -1    0    0    0  501 -0.00000000000E+00 -0.00000000000E+00 -0.16008227594E+04  0.16008227594E+04  0.00000000000E+00 0.  1.
         23    2    1    2    0    0  0.41039566018E+03 -0.92712801476E+02 -0.71679774585E+03  0.83596206544E+03  0.89517065105E+02 0.  0.
        254    2    1    2    0    0 -0.41039566018E+03  0.92712801476E+02 -0.45958806621E+03  0.11892976414E+04  0.10130090956E+04 0.  0.
        -24    2    4    4    0    0  0.31165761377E+03  0.45340326225E+02  0.56510599971E+01  0.32539299146E+03  0.81623838480E+02 0.  0.
         24    2    4    4    0    0 -0.72205327395E+03  0.47372475251E+02 -0.46523912620E+03  0.86390464993E+03  0.79238360564E+02 0.  0.
         13    1    3    3    0    0  0.17999443795E+02 -0.14543573249E+02 -0.13423690180E+02  0.26752400973E+02  0.00000000000E+00 0. -1.
        -13    1    3    3    0    0  0.39239621639E+03 -0.78169228227E+02 -0.70337405567E+03  0.80920966447E+03  0.00000000000E+00 0.  1.
          2    1    6    6  502    0 -0.39244465761E+03  0.95944852101E+01 -0.29472383081E+03  0.49088389653E+03  0.00000000000E+00 0. -1.
          3    1    5    5  503    0  0.25021793936E+03  0.58196989024E+02  0.28765175789E+02  0.25850211227E+03  0.00000000000E+00 0. -1.
         -4    1    5    5    0  503  0.61439674405E+02 -0.12856662799E+02 -0.23114115792E+02  0.66890879185E+02  0.00000000000E+00 0.  1.
         -1    1    6    6    0  502 -0.32960861635E+03  0.37777990041E+02 -0.17051529540E+03  0.37302075340E+03  0.00000000000E+00 0.  1.
<mgrwt>
<rscale>  0 0.16485731E+04</rscale>
<asrwt>0</asrwt>
<pdfrwt beam="1">  1        1 0.65297993E-01 0.16485731E+04</pdfrwt>
<pdfrwt beam="2">  1       -1 0.24628042E+00 0.16485731E+04</pdfrwt>
<totfact> 0.39059940E+00</totfact>
</mgrwt>
</event>
<event>
12    1  0.1489025E-007  0.2378463E+04  0.7818608E-02  0.8447611E-01
         -1   -1    0    0    0  501 -0.00000000000E+00  0.00000000000E+00  0.48933598487E+03  0.48933598487E+03  0.00000000000E+00 0.  1.
          1   -1    0    0  501    0  0.00000000000E+00 -0.00000000000E+00 -0.28901847241E+04  0.28901847241E+04  0.00000000000E+00 0. -1.
         23    2    1    2    0    0 -0.11113705545E+03  0.10154285663E+04 -0.11260533729E+04  0.15230130581E+04  0.90144096466E+02 0.  0.
        254    2    1    2    0    0  0.11113705545E+03 -0.10154285663E+04 -0.12747953663E+04  0.18565076509E+04  0.88208322370E+03 0.  0.
        -24    2    4    4    0    0 -0.14008653654E+03 -0.46885574010E+03 -0.11280613819E+04  0.12321875908E+04  0.79459642596E+02 0.  0.
         24    2    4    4    0    0  0.25122359200E+03 -0.54657282619E+03 -0.14673398438E+03  0.62432006008E+03  0.79934521623E+02 0.  0.
         13    1    3    3    0    0 -0.17479600413E+02  0.30326499367E+03 -0.39284204697E+03  0.49658842786E+03  0.00000000000E+00 0. -1.
        -13    1    3    3    0    0 -0.93657455041E+02  0.71216357262E+03 -0.73321132598E+03  0.10264246303E+04  0.00000000000E+00 0.  1.
          2    1    6    6  502    0  0.23380794285E+02 -0.13954065509E+02 -0.10711275236E+02  0.29259338728E+02  0.00000000000E+00 0. -1.
          3    1    5    5  503    0 -0.34042262910E+02 -0.14452023320E+03 -0.25907009738E+03  0.29860055062E+03  0.00000000000E+00 0. -1.
         -4    1    5    5    0  503 -0.10604427363E+03 -0.32433550689E+03 -0.86899128453E+03  0.93358704018E+03  0.00000000000E+00 0.  1.
         -1    1    6    6    0  502  0.22784279771E+03 -0.53261876068E+03 -0.13602270914E+03  0.59506072136E+03  0.00000000000E+00 0.  1.
<mgrwt>
<rscale>  0 0.23784629E+04</rscale>
<asrwt>0</asrwt>
<pdfrwt beam="1">  1        1 0.44464380E+00 0.23784629E+04</pdfrwt>
<pdfrwt beam="2">  1       -1 0.75282459E-01 0.23784629E+04</pdfrwt>
<totfact> 0.11437729E+00</totfact>
</mgrwt>
</event>
<event>
12    1  0.1952285E-007  0.1496746E+04  0.7818608E-02  0.8886619E-01
          2   -1    0    0  501    0  0.00000000000E+00  0.00000000000E+00  0.14476353907E+04  0.14476353907E+04  0.00000000000E+00 0. -1.
         -2   -1    0    0    0  501 -0.00000000000E+00 -0.00000000000E+00 -0.38688091539E+03  0.38688091539E+03  0.00000000000E+00 0.  1.
         23    2    1    2    0    0 -0.32113058169E+03  0.18025375836E+02 -0.73253414459E+02  0.34616711922E+03  0.10495640536E+03 0.  0.
        254    2    1    2    0    0  0.32113058169E+03 -0.18025375836E+02  0.11340078898E+04  0.14883491869E+04  0.90871317993E+03 0.  0.
        -24    2    4    4    0    0 -0.22240798583E+03 -0.18103205199E+03  0.72670215497E+03  0.78531383223E+03  0.79899168031E+02 0.  0.
         24    2    4    4    0    0  0.54353856752E+03  0.16300667615E+03  0.40730573483E+03  0.70303535468E+03  0.79720746689E+02 0.  0.
         11    1    3    3    0    0  0.48245380280E+01 -0.10067184770E+02 -0.25408828848E+01  0.11449037610E+02  0.00000000000E+00 0. -1.
        -11    1    3    3    0    0 -0.32595511972E+03  0.28092560606E+02 -0.70712531574E+02  0.33471808161E+03  0.00000000000E+00 0.  1.
          2    1    6    6  502    0  0.93356829134E+02  0.29617860372E+02  0.35694508612E+02  0.10424400771E+03  0.00000000000E+00 0. -1.
          1    1    5    5  503    0  0.39969394628E+01  0.36821492446E+01  0.15597659712E+02  0.16517285995E+02  0.00000000000E+00 0. -1.
         -2    1    5    5    0  503 -0.22640492529E+03 -0.18471420123E+03  0.71110449525E+03  0.76879654624E+03  0.00000000000E+00 0.  1.
         -1    1    6    6    0  502  0.45018173839E+03  0.13338881578E+03  0.37161122622E+03  0.59879134697E+03  0.00000000000E+00 0.  1.
<mgrwt>
<rscale>  0 0.14967465E+04</rscale>
<asrwt>0</asrwt>
<pdfrwt beam="1">  1        2 0.22271313E+00 0.14967465E+04</pdfrwt>
<pdfrwt beam="2">  1       -2 0.59520142E-01 0.14967465E+04</pdfrwt>
<totfact> 0.34599560E+01</totfact>
</mgrwt>
</event>
<event>
12    1  0.1489025E-007  0.4139189E+04  0.7818608E-02  0.7977042E-01
          1   -1    0    0  501    0  0.00000000000E+00  0.00000000000E+00  0.23252758423E+04  0.23252758423E+04  0.00000000000E+00 0. -1.
         -1   -1    0    0    0  501 -0.00000000000E+00 -0.00000000000E+00 -0.18420275159E+04  0.18420275159E+04  0.00000000000E+00 0.  1.
         23    2    1    2    0    0  0.58479753352E+03 -0.59084196866E+03 -0.15652539577E+04  0.17747040338E+04  0.92043840035E+02 0.  0.
        254    2    1    2    0    0 -0.58479753352E+03  0.59084196866E+03  0.20485022841E+04  0.23925993244E+04  0.91492487758E+03 0.  0.
        -24    2    4    4    0    0 -0.19778589544E+03  0.22499007865E+02 -0.15543949428E+02  0.21558138992E+03  0.81291177426E+02 0.  0.
         24    2    4    4    0    0 -0.38701163808E+03  0.56834296080E+03  0.20640462336E+04  0.21770179344E+04  0.79551891286E+02 0.  0.
         13    1    3    3    0    0  0.10705436695E+03 -0.64101118800E+02 -0.21256312077E+03  0.24648056967E+03  0.00000000000E+00 0. -1.
        -13    1    3    3    0    0  0.47774316657E+03 -0.52674084986E+03 -0.13526908369E+04  0.15282234641E+04  0.00000000000E+00 0.  1.
          4    1    6    6  502    0 -0.11673053902E+03  0.23351675729E+03  0.72878801745E+03  0.77413698339E+03  0.00000000000E+00 0. -1.
          3    1    5    5  503    0  0.43733237603E+01  0.10963951196E+02  0.31932075510E+01  0.12228277107E+02  0.00000000000E+00 0. -1.
         -4    1    5    5    0  503 -0.20215921920E+03  0.11535056668E+02 -0.18737156979E+02  0.20335311282E+03  0.00000000000E+00 0.  1.
         -3    1    6    6    0  502 -0.27028109906E+03  0.33482620350E+03  0.13352582161E+04  0.14028809510E+04  0.00000000000E+00 0.  1.
<mgrwt>
<rscale>  0 0.41391893E+04</rscale>
<asrwt>0</asrwt>
<pdfrwt beam="1">  1        1 0.35773475E+00 0.41391893E+04</pdfrwt>
<pdfrwt beam="2">  1       -1 0.28338885E+00 0.41391893E+04</pdfrwt>
<totfact> 0.58559321E-02</totfact>
</mgrwt>
</event>
<event>
12    1  0.1489025E-007  0.1795046E+04  0.7818608E-02  0.8708938E-01
          2   -1    0    0  501    0  0.00000000000E+00  0.00000000000E+00  0.15602502651E+04  0.15602502651E+04  0.00000000000E+00 0. -1.
         -2   -1    0    0    0  501 -0.00000000000E+00 -0.00000000000E+00 -0.51629399612E+03  0.51629399612E+03  0.00000000000E+00 0.  1.
         23    2    1    2    0    0  0.54133682847E+02 -0.60640209112E+03  0.72287043856E+02  0.61968375494E+03  0.90158680651E+02 0.  0.
        254    2    1    2    0    0 -0.54133682847E+02  0.60640209112E+03  0.97166922513E+03  0.14568605063E+04  0.89869210520E+03 0.  0.
        -24    2    4    4    0    0  0.14047459514E+02  0.75338708854E+03  0.40004916049E+03  0.85717809543E+03  0.83219710222E+02 0.  0.
         24    2    4    4    0    0 -0.68181142361E+02 -0.14698499742E+03  0.57162006464E+03  0.59968241085E+03  0.81340260289E+02 0.  0.
         11    1    3    3    0    0  0.37865706140E+02 -0.28903501010E+03  0.78319829928E+02  0.30184274801E+03  0.00000000000E+00 0. -1.
        -11    1    3    3    0    0  0.16267976707E+02 -0.31736708102E+03 -0.60327860719E+01  0.31784100694E+03  0.00000000000E+00 0.  1.
          2    1    6    6  502    0 -0.72182609333E+02 -0.86507681387E+02  0.44873875502E+03  0.46266659517E+03  0.00000000000E+00 0. -1.
          3    1    5    5  503    0 -0.13678861255E+02  0.23196264419E+03  0.16232721770E+03  0.28345000468E+03  0.00000000000E+00 0. -1.
         -4    1    5    5    0  503  0.27726320769E+02  0.52142444435E+03  0.23772194278E+03  0.57372809074E+03  0.00000000000E+00 0.  1.
         -1    1    6    6    0  502  0.40014669725E+01 -0.60477316035E+02  0.12288130962E+03  0.13701581568E+03  0.00000000000E+00 0.  1.
<mgrwt>
<rscale>  0 0.17950463E+04</rscale>
<asrwt>0</asrwt>
<pdfrwt beam="1">  1        2 0.24003850E+00 0.17950463E+04</pdfrwt>
<pdfrwt beam="2">  1       -2 0.79429846E-01 0.17950463E+04</pdfrwt>
<totfact> 0.15573701E+01</totfact>
</mgrwt>
</event>
<event>
12    1  0.1489025E-007  0.2178020E+04  0.7818608E-02  0.8527633E-01
          2   -1    0    0  501    0  0.00000000000E+00  0.00000000000E+00  0.50953563889E+04  0.50953563889E+04  0.00000000000E+00 0. -1.
         -2   -1    0    0    0  501 -0.00000000000E+00 -0.00000000000E+00 -0.23274974534E+03  0.23274974534E+03  0.00000000000E+00 0.  1.
         23    2    1    2    0    0 -0.31641644419E+03  0.69197930186E+03  0.31974583687E+04  0.32879997673E+04  0.90817012817E+02 0.  0.
        254    2    1    2    0    0  0.31641644419E+03 -0.69197930186E+03  0.16651482748E+04  0.20401063669E+04  0.90020025038E+03 0.  0.
        -24    2    4    4    0    0  0.26058948982E+03 -0.86928350562E+03  0.10402281692E+04  0.13826634254E+04  0.78248376966E+02 0.  0.
         24    2    4    4    0    0  0.55826954375E+02  0.17730420376E+03  0.62492010564E+03  0.65744294155E+03  0.84573361416E+02 0.  0.
         11    1    3    3    0    0 -0.17885722515E+03  0.43617854335E+03  0.21455523328E+04  0.21967331294E+04  0.00000000000E+00 0. -1.
        -11    1    3    3    0    0 -0.13755921904E+03  0.25580075851E+03  0.10519060358E+04  0.10912666379E+04  0.00000000000E+00 0.  1.
          2    1    6    6  502    0  0.34895053253E+02  0.13009847677E+03  0.30551065711E+03  0.33388626807E+03  0.00000000000E+00 0. -1.
          1    1    5    5  503    0  0.23556156117E+03 -0.79069879464E+03  0.90823821540E+03  0.12270250563E+04  0.00000000000E+00 0. -1.
         -2    1    5    5    0  503  0.25027928643E+02 -0.78584710983E+02  0.13198995380E+03  0.15563836903E+03  0.00000000000E+00 0.  1.
         -1    1    6    6    0  502  0.20931901122E+02  0.47205726992E+02  0.31940944852E+03  0.32355667348E+03  0.00000000000E+00 0.  1.
<mgrwt>
<rscale>  0 0.21780201E+04</rscale>
<asrwt>0</asrwt>
<pdfrwt beam="1">  1        2 0.78390090E+00 0.21780201E+04</pdfrwt>
<pdfrwt beam="2">  1       -2 0.35807657E-01 0.21780201E+04</pdfrwt>
<totfact> 0.17672861E-01</totfact>
</mgrwt>
</event>
<event>
12    1  0.1489025E-007  0.2093953E+04  0.7818608E-02  0.8563912E-01
          1   -1    0    0  501    0  0.00000000000E+00  0.00000000000E+00  0.18077187577E+04  0.18077187577E+04  0.00000000000E+00 0. -1.
         -1   -1    0    0    0  501 -0.00000000000E+00 -0.00000000000E+00 -0.60637740607E+03  0.60637740607E+03  0.00000000000E+00 0.  1.
         23    2    1    2    0    0  0.10498401373E+03 -0.55080794397E+03  0.12301819053E+04  0.13550949434E+04  0.92324162918E+02 0.  0.
        254    2    1    2    0    0 -0.10498401373E+03  0.55080794397E+03 -0.28840553710E+02  0.10590012204E+04  0.89790911175E+03 0.  0.
        -24    2    4    4    0    0 -0.74424261471E+02  0.68711722084E+03  0.24837639333E+03  0.73877292360E+03  0.80159553409E+02 0.  0.
         24    2    4    4    0    0 -0.30559752260E+02 -0.13630927688E+03 -0.27721694704E+03  0.32022829679E+03  0.78630839472E+02 0.  0.
         11    1    3    3    0    0  0.98764008563E+02 -0.54610548802E+03  0.11761749623E+04  0.13005279987E+04  0.00000000000E+00 0. -1.
        -11    1    3    3    0    0  0.62200051676E+01 -0.47024559452E+01  0.54006942991E+02  0.54566944641E+02  0.00000000000E+00 0.  1.
          2    1    6    6  502    0 -0.52026003010E+02 -0.83935918784E+02 -0.13584091743E+03  0.16794254464E+03  0.00000000000E+00 0. -1.
          1    1    5    5  503    0  0.79350357243E+00  0.24062357777E+03  0.11539351433E+03  0.26686325895E+03  0.00000000000E+00 0. -1.
         -4    1    5    5    0  503 -0.75217765043E+02  0.44649364308E+03  0.13298287900E+03  0.47190966465E+03  0.00000000000E+00 0.  1.
         -1    1    6    6    0  502  0.21466250751E+02 -0.52373358094E+02 -0.14137602961E+03  0.15228575215E+03  0.00000000000E+00 0.  1.
<mgrwt>
<rscale>  0 0.20939530E+04</rscale>
<asrwt>0</asrwt>
<pdfrwt beam="1">  1        1 0.27811058E+00 0.20939530E+04</pdfrwt>
<pdfrwt beam="2">  1       -1 0.93288833E-01 0.20939530E+04</pdfrwt>
<totfact> 0.41302707E+00</totfact>
</mgrwt>
</event>
<event>
12    1  0.1489025E-007  0.2076321E+04  0.7818608E-02  0.8571746E-01
          2   -1    0    0  501    0  0.00000000000E+00  0.00000000000E+00  0.73541585672E+03  0.73541585672E+03  0.00000000000E+00 0.  1.
         -2   -1    0    0    0  501 -0.00000000000E+00 -0.00000000000E+00 -0.14655343467E+04  0.14655343467E+04  0.00000000000E+00 0. -1.
         23    2    1    2    0    0 -0.47991205002E+03 -0.16657256918E+03 -0.10099073740E+04  0.11339850954E+04  0.89147607666E+02 0.  0.
        254    2    1    2    0    0  0.47991205002E+03  0.16657256918E+03  0.27978888402E+03  0.10669651080E+04  0.89558401369E+03 0.  0.
        -24    2    4    4    0    0 -0.72541117447E+02  0.81271560027E+02 -0.25566941275E+03  0.28845461005E+03  0.77278284491E+02 0.  0.
         24    2    4    4    0    0  0.55245316746E+03  0.85301009150E+02  0.53545829677E+03  0.77851049798E+03  0.82959288060E+02 0.  0.
         13    1    3    3    0    0 -0.42222398028E+03 -0.17348266108E+03 -0.91848709996E+03  0.10256646021E+04  0.00000000000E+00 0. -1.
        -13    1    3    3    0    0 -0.57688069734E+02  0.69100918993E+01 -0.91420274040E+02  0.10832049328E+03  0.00000000000E+00 0.  1.
          2    1    6    6  502    0  0.28144550891E+01  0.74476098587E+01  0.11867396363E+01  0.80496211724E+01  0.00000000000E+00 0. -1.
          3    1    5    5  503    0 -0.34704753075E+02 -0.88340465354E+01 -0.71050075785E+02  0.79564901390E+02  0.00000000000E+00 0. -1.
         -4    1    5    5    0  503 -0.37836364372E+02  0.90105606563E+02 -0.18461933696E+03  0.20888970866E+03  0.00000000000E+00 0.  1.
         -1    1    6    6    0  502  0.54963871238E+03  0.77853399291E+02  0.53427155713E+03  0.77046087680E+03  0.00000000000E+00 0.  1.
<mgrwt>
<rscale>  0 0.20763210E+04</rscale>
<asrwt>0</asrwt>
<pdfrwt beam="1">  1        2 0.11314090E+00 0.20763210E+04</pdfrwt>
<pdfrwt beam="2">  1       -2 0.22546682E+00 0.20763210E+04</pdfrwt>
<totfact> 0.32406712E+00</totfact>
</mgrwt>
</event>
<event>
12    1  0.1489025E-007  0.3777608E+04  0.7818608E-02  0.8050977E-01
          2   -1    0    0  501    0  0.00000000000E+00  0.00000000000E+00  0.13136383092E+04  0.13136383092E+04  0.00000000000E+00 0. -1.
         -2   -1    0    0    0  501 -0.00000000000E+00 -0.00000000000E+00 -0.27158018427E+04  0.27158018427E+04  0.00000000000E+00 0.  1.
         23    2    1    2    0    0  0.12119687620E+03 -0.15456113019E+04  0.27137383663E+03  0.15764320773E+04  0.88833304157E+02 0.  0.
        254    2    1    2    0    0 -0.12119687620E+03  0.15456113019E+04 -0.16735373701E+04  0.24530080746E+04  0.90161982307E+03 0.  0.
        -24    2    4    4    0    0  0.22091850918E+03  0.10853005159E+04 -0.67724726621E+03  0.13006656777E+04  0.79907121835E+02 0.  0.
         24    2    4    4    0    0 -0.34211538538E+03  0.46031078600E+03 -0.99629010389E+03  0.11523423968E+04  0.79812729512E+02 0.  0.
         11    1    3    3    0    0  0.10916003321E+03 -0.14046397453E+04  0.22021016465E+03  0.14259808006E+04  0.00000000000E+00 0. -1.
        -11    1    3    3    0    0  0.12036842991E+02 -0.14097155658E+03  0.51163671980E+02  0.15045127678E+03  0.00000000000E+00 0.  1.
          2    1    6    6  502    0 -0.79593645963E+02  0.16039929866E+03 -0.27257145959E+03  0.32612617814E+03  0.00000000000E+00 0. -1.
          3    1    5    5  503    0  0.77015492104E+01  0.17048167321E+03 -0.11755957302E+03  0.20722829915E+03  0.00000000000E+00 0. -1.
         -4    1    5    5    0  503  0.21321695997E+03  0.91481884269E+03 -0.55968769319E+03  0.10934373786E+04  0.00000000000E+00 0.  1.
         -1    1    6    6    0  502 -0.26252173942E+03  0.29991148734E+03 -0.72371864430E+03  0.82621621868E+03  0.00000000000E+00 0.  1.
<mgrwt>
<rscale>  0 0.37776084E+04</rscale>
<asrwt>0</asrwt>
<pdfrwt beam="1">  1        2 0.20209820E+00 0.37776084E+04</pdfrwt>
<pdfrwt beam="2">  1       -2 0.41781567E+00 0.37776084E+04</pdfrwt>
<totfact> 0.73851002E-02</totfact>
</mgrwt>
</event>
<event>
12    1  0.1489025E-007  0.1241294E+04  0.7818608E-02  0.9077460E-01
         -1   -1    0    0    0  501 -0.00000000000E+00  0.00000000000E+00  0.13790762572E+03  0.13790762572E+03  0.00000000000E+00 0.  1.
          1   -1    0    0  501    0  0.00000000000E+00 -0.00000000000E+00 -0.27931937865E+04  0.27931937865E+04  0.00000000000E+00 0. -1.
         23    2    1    2    0    0 -0.16669792179E+03  0.27599128636E+02 -0.95822291662E+02  0.21524460817E+03  0.92727669738E+02 0.  0.
        254    2    1    2    0    0  0.16669792179E+03 -0.27599128636E+02 -0.25594638691E+04  0.27158568041E+04  0.89245334543E+03 0.  0.
        -24    2    4    4    0    0 -0.35799335767E+03 -0.13751930581E+00 -0.86939034102E+03  0.94416980778E+03  0.86358542200E+02 0.  0.
         24    2    4    4    0    0  0.52469127946E+03 -0.27461609330E+02 -0.16900735281E+04  0.17716869963E+04  0.80443792028E+02 0.  0.
         11    1    3    3    0    0 -0.77857104661E+01 -0.17934979404E+02 -0.33089691816E+02  0.38434469922E+02  0.00000000000E+00 0. -1.
        -11    1    3    3    0    0 -0.15891221133E+03  0.45534108040E+02 -0.62732599846E+02  0.17681013825E+03  0.00000000000E+00 0.  1.
          4    1    6    6  502    0  0.50794061159E+03 -0.40926047531E+02 -0.16348479296E+04  0.17124270376E+04  0.00000000000E+00 0. -1.
          1    1    5    5  503    0 -0.16997595814E+03  0.32735516807E+02 -0.34217302662E+03  0.38346554024E+03  0.00000000000E+00 0. -1.
         -2    1    5    5    0  503 -0.18801739953E+03 -0.32873036113E+02 -0.52721731440E+03  0.56070426754E+03  0.00000000000E+00 0.  1.
         -3    1    6    6    0  502  0.16750667865E+02  0.13464438201E+02 -0.55225598476E+02  0.59259958631E+02  0.00000000000E+00 0.  1.
<mgrwt>
<rscale>  0 0.12412940E+04</rscale>
<asrwt>0</asrwt>
<pdfrwt beam="1">  1        1 0.42972215E+00 0.12412940E+04</pdfrwt>
<pdfrwt beam="2">  1       -1 0.21216556E-01 0.12412940E+04</pdfrwt>
<totfact> 0.15540382E+01</totfact>
</mgrwt>
</event>
<event>
12    1  0.1489025E-007  0.1718517E+04  0.7818608E-02  0.8750874E-01
          2   -1    0    0  501    0  0.00000000000E+00  0.00000000000E+00  0.33540756470E+03  0.33540756470E+03  0.00000000000E+00 0. -1.
         -2   -1    0    0    0  501 -0.00000000000E+00 -0.00000000000E+00 -0.22012765759E+04  0.22012765759E+04  0.00000000000E+00 0.  1.
         23    2    1    2    0    0  0.60664559598E+03 -0.10698651578E+03 -0.77092255622E+03  0.99107978990E+03  0.91937851690E+02 0.  0.
        254    2    1    2    0    0 -0.60664559598E+03  0.10698651578E+03 -0.10949464550E+04  0.15456043507E+04  0.90028888472E+03 0.  0.
        -24    2    4    4    0    0 -0.44348884470E+03  0.20251436953E+02 -0.12252411002E+04  0.13055930117E+04  0.79151012212E+02 0.  0.
         24    2    4    4    0    0 -0.16315675128E+03  0.86735078824E+02  0.13029464519E+03  0.24001133895E+03  0.80533526377E+02 0.  0.
         11    1    3    3    0    0  0.33675573871E+03 -0.22464310873E+02 -0.46344914471E+03  0.57331856986E+03  0.00000000000E+00 0. -1.
        -11    1    3    3    0    0  0.26988985727E+03 -0.84522204904E+02 -0.30747341151E+03  0.41776122003E+03  0.00000000000E+00 0.  1.
          4    1    6    6  502    0 -0.55997271119E+02  0.23330595375E+02  0.91149338147E+02  0.10949069777E+03  0.00000000000E+00 0. -1.
          1    1    5    5  503    0 -0.15285324526E+03  0.80667572862E+01 -0.31923797503E+03  0.35403682274E+03  0.00000000000E+00 0. -1.
         -2    1    5    5    0  503 -0.29063559943E+03  0.12184679666E+02 -0.90600312513E+03  0.95155618900E+03  0.00000000000E+00 0.  1.
         -3    1    6    6    0  502 -0.10715948016E+03  0.63404483449E+02  0.39145307043E+02  0.13052064118E+03  0.00000000000E+00 0.  1.
<mgrwt>
<rscale>  0 0.17185166E+04</rscale>
<asrwt>0</asrwt>
<pdfrwt beam="1">  1        2 0.51601165E-01 0.17185166E+04</pdfrwt>
<pdfrwt beam="2">  1       -2 0.33865793E+00 0.17185166E+04</pdfrwt>
<totfact> 0.16950112E+00</totfact>
</mgrwt>
</event>
<event>
12    1  0.1489025E-007  0.1552155E+04  0.7818608E-02  0.8850492E-01
          1   -1    0    0  501    0  0.00000000000E+00  0.00000000000E+00  0.19662328151E+04  0.19662328151E+04  0.00000000000E+00 0. -1.
         -1   -1    0    0    0  501 -0.00000000000E+00 -0.00000000000E+00 -0.30632006210E+03  0.30632006210E+03  0.00000000000E+00 0.  1.
         23    2    1    2    0    0  0.15272439632E+02  0.50506403627E+03  0.47900116353E+03  0.70249581866E+03  0.93463000275E+02 0.  0.
        254    2    1    2    0    0 -0.15272439632E+02 -0.50506403627E+03  0.11809115895E+04  0.15700570586E+04  0.90288651380E+03 0.  0.
        -24    2    4    4    0    0 -0.35345748583E+03 -0.24434058278E+02  0.76091218496E+03  0.84334673460E+03  0.81958184775E+02 0.  0.
         24    2    4    4    0    0  0.33818504620E+03 -0.48062997799E+03  0.41999940454E+03  0.72671032396E+03  0.79587021087E+02 0.  0.
         11    1    3    3    0    0 -0.20440455041E+02  0.27415937837E+03  0.20840326803E+03  0.34498275185E+03  0.00000000000E+00 0.  1.
        -11    1    3    3    0    0  0.35712894673E+02  0.23090465790E+03  0.27059789550E+03  0.35751306680E+03  0.00000000000E+00 0. -1.
          2    1    6    6  502    0  0.10803092661E+03 -0.10316909844E+03  0.83609305029E+02  0.17118720707E+03  0.00000000000E+00 0. -1.
          1    1    5    5  503    0 -0.24409727885E+03 -0.38397851887E+02  0.44868329294E+03  0.51222512036E+03  0.00000000000E+00 0. -1.
         -2    1    5    5    0  503 -0.10936020699E+03  0.13963793609E+02  0.31222889202E+03  0.33112161424E+03  0.00000000000E+00 0.  1.
         -1    1    6    6    0  502  0.23015411960E+03 -0.37746087956E+03  0.33639009951E+03  0.55552311690E+03  0.00000000000E+00 0.  1.
<mgrwt>
<rscale>  0 0.15521554E+04</rscale>
<asrwt>0</asrwt>
<pdfrwt beam="1">  1        1 0.30249735E+00 0.15521554E+04</pdfrwt>
<pdfrwt beam="2">  1       -1 0.47126165E-01 0.15521554E+04</pdfrwt>
<totfact> 0.13595419E+01</totfact>
</mgrwt>
</event>
<event>
12    1  0.1489025E-007  0.1204458E+04  0.7818608E-02  0.9108963E-01
          1   -1    0    0  501    0  0.00000000000E+00  0.00000000000E+00  0.24716202719E+03  0.24716202719E+03  0.00000000000E+00 0. -1.
         -1   -1    0    0    0  501 -0.00000000000E+00 -0.00000000000E+00 -0.14673762807E+04  0.14673762807E+04  0.00000000000E+00 0.  1.
         23    2    1    2    0    0  0.74014687053E+02 -0.14148937495E+03 -0.61472229196E+03  0.64150958294E+03  0.90297462033E+02 0.  0.
        254    2    1    2    0    0 -0.74014687053E+02  0.14148937495E+03 -0.60549196153E+03  0.10730287249E+04  0.87136256055E+03 0.  0.
        -24    2    4    4    0    0  0.18287566086E+03  0.36859473098E+02  0.15695757860E+03  0.25771856072E+03  0.83552659848E+02 0.  0.
         24    2    4    4    0    0 -0.25689034791E+03  0.10462990185E+03 -0.76244954013E+03  0.81531016422E+03  0.80382183509E+02 0.  0.
         13    1    3    3    0    0 -0.14613608124E+02 -0.29711245702E+02 -0.57838845280E+02  0.66645687684E+02  0.00000000000E+00 0. -1.
        -13    1    3    3    0    0  0.88628295176E+02 -0.11177812925E+03 -0.55688344668E+03  0.57486389525E+03  0.00000000000E+00 0.  1.
          4    1    6    6  502    0 -0.20803578375E+03  0.80696237877E+02 -0.68673783098E+03  0.72208006386E+03  0.00000000000E+00 0. -1.
          3    1    5    5  503    0  0.13533306802E+03 -0.77320465398E+01  0.82177849299E+02  0.15851820955E+03  0.00000000000E+00 0. -1.
         -4    1    5    5    0  503  0.47542592832E+02  0.44591519638E+02  0.74779729298E+02  0.99200351162E+02  0.00000000000E+00 0.  1.
         -1    1    6    6    0  502 -0.48854564156E+02  0.23933663975E+02 -0.75711709148E+02  0.93230100355E+02  0.00000000000E+00 0.  1.
<mgrwt>
<rscale>  0 0.12044579E+04</rscale>
<asrwt>0</asrwt>
<pdfrwt beam="1">  1        1 0.38024927E-01 0.12044579E+04</pdfrwt>
<pdfrwt beam="2">  1       -1 0.22575020E+00 0.12044579E+04</pdfrwt>
<totfact> 0.11262958E+01</totfact>
</mgrwt>
</event>
<event>
12    1  0.1489025E-007  0.1615665E+04  0.7818608E-02  0.8810982E-01
         -1   -1    0    0    0  501 -0.00000000000E+00  0.00000000000E+00  0.30068848729E+03  0.30068848729E+03  0.00000000000E+00 0.  1.
          1   -1    0    0  501    0  0.00000000000E+00 -0.00000000000E+00 -0.21703302144E+04  0.21703302144E+04  0.00000000000E+00 0. -1.
         23    2    1    2    0    0  0.25606705413E+03  0.14536426946E+03  0.67697362732E+02  0.31554387949E+03  0.91015932214E+02 0.  0.
        254    2    1    2    0    0 -0.25606705413E+03 -0.14536426946E+03 -0.19373390898E+04  0.21554748222E+04  0.89782395438E+03 0.  0.
        -24    2    4    4    0    0 -0.25077732374E+03  0.50814649003E+02 -0.19256609682E+04  0.19440951417E+04  0.76579116130E+02 0.  0.
         24    2    4    4    0    0 -0.52897303880E+01 -0.19617891847E+03 -0.11678121661E+02  0.21137968048E+03  0.77658492749E+02 0.  0.
         11    1    3    3    0    0 -0.72215497190E+01  0.92988734480E+01  0.14690685361E+01  0.11864990102E+02  0.00000000000E+00 0. -1.
        -11    1    3    3    0    0  0.26328860385E+03  0.13606539602E+03  0.66228294196E+02  0.30367888939E+03  0.00000000000E+00 0.  1.
          2    1    6    6  502    0  0.30919151075E+02 -0.14356175643E+03 -0.26896915993E+01  0.14687820211E+03  0.00000000000E+00 0. -1.
          3    1    5    5  503    0 -0.22958080319E+03  0.34341383716E+02 -0.15283761140E+04  0.15459043378E+04  0.00000000000E+00 0. -1.
         -4    1    5    5    0  503 -0.21196520548E+02  0.16473265287E+02 -0.39728485418E+03  0.39819080391E+03  0.00000000000E+00 0.  1.
         -1    1    6    6    0  502 -0.36208881463E+02 -0.52617162033E+02 -0.89884300617E+01  0.64501478372E+02  0.00000000000E+00 0.  1.
<mgrwt>
<rscale>  0 0.16156650E+04</rscale>
<asrwt>0</asrwt>
<pdfrwt beam="1">  1        1 0.33389695E+00 0.16156650E+04</pdfrwt>
<pdfrwt beam="2">  1       -1 0.46259768E-01 0.16156650E+04</pdfrwt>
<totfact> 0.10179581E+01</totfact>
</mgrwt>
</event>
<event>
12    1  0.1489025E-007  0.2212182E+04  0.7818608E-02  0.8513375E-01
          1   -1    0    0  501    0  0.00000000000E+00  0.00000000000E+00  0.21311543085E+04  0.21311543085E+04  0.00000000000E+00 0. -1.
         -1   -1    0    0    0  501 -0.00000000000E+00 -0.00000000000E+00 -0.57407241341E+03  0.57407241341E+03  0.00000000000E+00 0.  1.
         23    2    1    2    0    0  0.17556716399E+03  0.21462742852E+03  0.17265630434E+04  0.17509143201E+04  0.88273727944E+02 0.  0.
        254    2    1    2    0    0 -0.17556716399E+03 -0.21462742852E+03 -0.16948114834E+03  0.95431240187E+03  0.89727339121E+03 0.  0.
        -24    2    4    4    0    0  0.25556970345E+03 -0.33790996996E+03 -0.23972126496E+03  0.49317639603E+03  0.79105319693E+02 0.  0.
         24    2    4    4    0    0 -0.43113686744E+03  0.12328254144E+03  0.70240116619E+02  0.46113600584E+03  0.81456481712E+02 0.  0.
         11    1    3    3    0    0  0.16161178878E+03  0.20577109642E+03  0.16969315351E+04  0.17169847842E+04  0.00000000000E+00 0. -1.
        -11    1    3    3    0    0  0.13955375217E+02  0.88563321035E+01  0.29631508316E+02  0.33929535818E+02  0.00000000000E+00 0.  1.
          2    1    6    6  502    0 -0.35935696527E+03  0.10461953422E+03  0.88834413597E+02  0.38467418482E+03  0.00000000000E+00 0. -1.
          1    1    5    5  503    0  0.11126741001E+03 -0.13952428133E+03 -0.57176041382E+02  0.18739413363E+03  0.00000000000E+00 0. -1.
         -2    1    5    5    0  503  0.14430229344E+03 -0.19838568863E+03 -0.18254522358E+03  0.30578226240E+03  0.00000000000E+00 0.  1.
         -1    1    6    6    0  502 -0.71779902170E+02  0.18663007226E+02 -0.18594296978E+02  0.76461821025E+02  0.00000000000E+00 0.  1.
<mgrwt>
<rscale>  0 0.22121816E+04</rscale>
<asrwt>0</asrwt>
<pdfrwt beam="1">  1        1 0.32786989E+00 0.22121816E+04</pdfrwt>
<pdfrwt beam="2">  1       -1 0.88318834E-01 0.22121816E+04</pdfrwt>
<totfact> 0.27829105E+00</totfact>
</mgrwt>
</event>
<event>
12    1  0.1489025E-007  0.1478210E+04  0.7818608E-02  0.8899074E-01
          3   -1    0    0  501    0  0.00000000000E+00  0.00000000000E+00  0.36406265221E+03  0.36406265221E+03  0.00000000000E+00 0. -1.
         -3   -1    0    0    0  501 -0.00000000000E+00 -0.00000000000E+00 -0.15005001696E+04  0.15005001696E+04  0.00000000000E+00 0.  1.
         23    2    1    2    0    0 -0.17256227611E+03 -0.33924856218E+03  0.66797420255E+02  0.39658901522E+03  0.89183101345E+02 0.  0.
        254    2    1    2    0    0  0.17256227611E+03  0.33924856218E+03 -0.12032349377E+04  0.14679738066E+04  0.74987029250E+03 0.  0.
        -24    2    4    4    0    0  0.40688350416E+03  0.36222490818E+03 -0.58984946800E+03  0.80619265467E+03  0.72547442999E+02 0.  0.
         24    2    4    4    0    0 -0.23432122804E+03 -0.22976346005E+02 -0.61338546968E+03  0.66178115194E+03  0.79235145377E+02 0.  0.
         13    1    3    3    0    0 -0.10441664506E+03 -0.24251314977E+03  0.72836497692E+01  0.26413730356E+03  0.00000000000E+00 0.  1.
        -13    1    3    3    0    0 -0.68145631054E+02 -0.96735412406E+02  0.59513770486E+02  0.13245171166E+03  0.00000000000E+00 0. -1.
          4    1    6    6  502    0 -0.38367031108E+02  0.18056186847E+02 -0.61475930431E+02  0.74681624124E+02  0.00000000000E+00 0. -1.
          3    1    5    5  503    0  0.21330397958E+02  0.10473803243E+02 -0.49756368124E+02  0.55139664492E+02  0.00000000000E+00 0. -1.
         -4    1    5    5    0  503  0.38555310620E+03  0.35175110494E+03 -0.54009309988E+03  0.75105299018E+03  0.00000000000E+00 0.  1.
         -3    1    6    6    0  502 -0.19595419694E+03 -0.41032532852E+02 -0.55190953925E+03  0.58709952782E+03  0.00000000000E+00 0.  1.
<mgrwt>
<rscale>  0 0.14782098E+04</rscale>
<asrwt>0</asrwt>
<pdfrwt beam="1">  1        3 0.56009640E-01 0.14782098E+04</pdfrwt>
<pdfrwt beam="2">  1       -3 0.23084618E+00 0.14782098E+04</pdfrwt>
<totfact> 0.75456702E-01</totfact>
</mgrwt>
</event>
<event>
12    1  0.1489025E-007  0.1296801E+04  0.7818608E-02  0.9032106E-01
         -2   -1    0    0    0  501 -0.00000000000E+00  0.00000000000E+00  0.30064174239E+03  0.30064174239E+03  0.00000000000E+00 0. -1.
          2   -1    0    0  501    0  0.00000000000E+00 -0.00000000000E+00 -0.13984183077E+04  0.13984183077E+04  0.00000000000E+00 0.  1.
         23    2    1    2    0    0  0.16549737170E+03  0.21461437292E+03 -0.52971736098E+03  0.60189486887E+03  0.90709655229E+02 0.  0.
        254    2    1    2    0    0 -0.16549737170E+03 -0.21461437292E+03 -0.56805920431E+03  0.10971651812E+04  0.89868318452E+03 0.  0.
        -24    2    4    4    0    0  0.26872469837E+03 -0.10079201967E+03  0.76605106193E+02  0.30768222086E+03  0.80174883801E+02 0.  0.
         24    2    4    4    0    0 -0.43422207007E+03 -0.11382235325E+03 -0.64466431050E+03  0.78948296034E+03  0.78657086151E+02 0.  0.
         11    1    3    3    0    0  0.72288257221E+02  0.64691174841E+02 -0.27803048705E+03  0.29446815102E+03  0.00000000000E+00 0. -1.
        -11    1    3    3    0    0  0.93209114474E+02  0.14992319808E+03 -0.25168687393E+03  0.30742671785E+03  0.00000000000E+00 0.  1.
          4    1    6    6  502    0 -0.46611601277E+02  0.11950626154E+02 -0.73459941268E+02  0.87816979054E+02  0.00000000000E+00 0. -1.
          1    1    5    5  503    0  0.45440024322E+02 -0.50858564089E+02  0.71621231752E+01  0.68576128208E+02  0.00000000000E+00 0. -1.
         -4    1    5    5    0  503  0.22328467405E+03 -0.49933455582E+02  0.69442983017E+02  0.23910609265E+03  0.00000000000E+00 0.  1.
         -3    1    6    6    0  502 -0.38761046879E+03 -0.12577297941E+03 -0.57120436924E+03  0.70166598129E+03  0.00000000000E+00 0.  1.
<mgrwt>
<rscale>  0 0.12968005E+04</rscale>
<asrwt>0</asrwt>
<pdfrwt beam="1">  1        2 0.21514128E+00 0.12968005E+04</pdfrwt>
<pdfrwt beam="2">  1       -2 0.46252576E-01 0.12968005E+04</pdfrwt>
<totfact> 0.62984547E+01</totfact>
</mgrwt>
</event>
<event>
12    1  0.1489025E-007  0.1784762E+04  0.7818608E-02  0.8714445E-01
          1   -1    0    0  501    0  0.00000000000E+00  0.00000000000E+00  0.95442579228E+03  0.95442579228E+03  0.00000000000E+00 0. -1.
         -1   -1    0    0    0  501 -0.00000000000E+00 -0.00000000000E+00 -0.83436936964E+03  0.83436936964E+03  0.00000000000E+00 0.  1.
         23    2    1    2    0    0  0.69126133595E+02 -0.60020622617E+03  0.34100066255E+03  0.69922794403E+03  0.87248665248E+02 0.  0.
        254    2    1    2    0    0 -0.69126133595E+02  0.60020622617E+03 -0.22094423991E+03  0.10895672179E+04  0.87938298191E+03 0.  0.
        -24    2    4    4    0    0 -0.38396754848E+03  0.42792182485E+03  0.11514433140E+03  0.59191437891E+03  0.80970664079E+02 0.  0.
         24    2    4    4    0    0  0.31484141488E+03  0.17228440132E+03 -0.33608857131E+03  0.49765283898E+03  0.76784040747E+02 0.  0.
         13    1    3    3    0    0 -0.15444471229E+00 -0.36392290803E+03  0.19283316777E+03  0.41185499564E+03  0.00000000000E+00 0.  1.
        -13    1    3    3    0    0  0.69280578307E+02 -0.23628331813E+03  0.14816749478E+03  0.28737294839E+03  0.00000000000E+00 0. -1.
          2    1    6    6  502    0  0.12468759188E+03  0.83187066931E+02 -0.92890843718E+02  0.17633999127E+03  0.00000000000E+00 0. -1.
          1    1    5    5  503    0 -0.42683903062E+02  0.15876344836E+02  0.72399867812E+01  0.46112810742E+02  0.00000000000E+00 0. -1.
         -2    1    5    5    0  503 -0.34128364542E+03  0.41204548001E+03  0.10790434462E+03  0.54580156817E+03  0.00000000000E+00 0.  1.
         -1    1    6    6    0  502  0.19015382300E+03  0.89097334386E+02 -0.24319772759E+03  0.32131284771E+03  0.00000000000E+00 0.  1.
<mgrwt>
<rscale>  0 0.17847618E+04</rscale>
<asrwt>0</asrwt>
<pdfrwt beam="1">  1        1 0.14683474E+00 0.17847618E+04</pdfrwt>
<pdfrwt beam="2">  1       -1 0.12836452E+00 0.17847618E+04</pdfrwt>
<totfact> 0.81346870E+00</totfact>
</mgrwt>
</event>
<event>
12    1  0.1489025E-007  0.2794371E+04  0.7818608E-02  0.8305018E-01
          2   -1    0    0  501    0  0.00000000000E+00  0.00000000000E+00  0.42060831097E+04  0.42060831097E+04  0.00000000000E+00 0. -1.
         -2   -1    0    0    0  501 -0.00000000000E+00 -0.00000000000E+00 -0.46411988754E+03  0.46411988754E+03  0.00000000000E+00 0.  1.
         23    2    1    2    0    0  0.55777994526E+03 -0.30794684801E+03 -0.12067574239E+03  0.65499253375E+03  0.92210931729E+02 0.  0.
        254    2    1    2    0    0 -0.55777994526E+03  0.30794684801E+03  0.38626389646E+04  0.40152104635E+04  0.89218023240E+03 0.  0.
        -24    2    4    4    0    0 -0.75228852112E+03  0.28877962792E+03  0.22979552488E+04  0.24363852676E+04  0.77737728239E+02 0.  0.
         24    2    4    4    0    0  0.19450857586E+03  0.19167220090E+02  0.15646837158E+04  0.15788251959E+04  0.79075282269E+02 0.  0.
         13    1    3    3    0    0  0.68430740652E+02 -0.15042896627E+02  0.74688328192E+01  0.70461609893E+02  0.00000000000E+00 0. -1.
        -13    1    3    3    0    0  0.48934920461E+03 -0.29290395139E+03 -0.12814457521E+03  0.58453092386E+03  0.00000000000E+00 0.  1.
          2    1    6    6  502    0  0.14437814381E+02 -0.20949485566E+02  0.14658353378E+03  0.14877521233E+03  0.00000000000E+00 0. -1.
          1    1    5    5  503    0 -0.37920748100E+03  0.18692643123E+03  0.12124498253E+04  0.12840460986E+04  0.00000000000E+00 0. -1.
         -4    1    5    5    0  503 -0.37308104012E+03  0.10185319670E+03  0.10855054235E+04  0.11523391691E+04  0.00000000000E+00 0.  1.
         -1    1    6    6    0  502  0.18007076148E+03  0.40116705655E+02  0.14181001821E+04  0.14300499836E+04  0.00000000000E+00 0.  1.
<mgrwt>
<rscale>  0 0.27943706E+04</rscale>
<asrwt>0</asrwt>
<pdfrwt beam="1">  1        2 0.64708968E+00 0.27943706E+04</pdfrwt>
<pdfrwt beam="2">  1       -2 0.71403062E-01 0.27943706E+04</pdfrwt>
<totfact> 0.35632890E-01</totfact>
</mgrwt>
</event>
<event>
12    1  0.1489025E-007  0.1219917E+04  0.7818608E-02  0.9095599E-01
          2   -1    0    0  501    0  0.00000000000E+00  0.00000000000E+00  0.13650438500E+04  0.13650438500E+04  0.00000000000E+00 0. -1.
         -2   -1    0    0    0  501 -0.00000000000E+00 -0.00000000000E+00 -0.27255510765E+03  0.27255510765E+03  0.00000000000E+00 0.  1.
         23    2    1    2    0    0 -0.18653405570E+03  0.16081244116E+03  0.39763570528E+03  0.47622586162E+03  0.89561833413E+02 0.  0.
        254    2    1    2    0    0  0.18653405570E+03 -0.16081244116E+03  0.69485303706E+03  0.11613730960E+04  0.89739129140E+03 0.  0.
        -24    2    4    4    0    0  0.20436788987E+03  0.16749803800E+03 -0.10219609762E+03  0.29447814718E+03  0.80321290162E+02 0.  0.
         24    2    4    4    0    0 -0.17833834171E+02 -0.32831047915E+03  0.79704913468E+03  0.86689494885E+03  0.90076150400E+02 0.  0.
         11    1    3    3    0    0 -0.46671484519E+02  0.76306612987E+01  0.36423185594E+02  0.59691732324E+02  0.00000000000E+00 0.  1.
        -11    1    3    3    0    0 -0.13986257118E+03  0.15318177986E+03  0.36121251968E+03  0.41653412930E+03  0.00000000000E+00 0. -1.
          4    1    6    6  502    0  0.21956833651E+02 -0.20022102548E+02  0.59125893688E+02  0.66172943405E+02  0.00000000000E+00 0. -1.
          1    1    5    5  503    0  0.32436339115E+02  0.70736041882E+02 -0.17416326988E+02  0.79743539940E+02  0.00000000000E+00 0. -1.
         -2    1    5    5    0  503  0.17193155075E+03  0.96761996117E+02 -0.84779770634E+02  0.21473460724E+03  0.00000000000E+00 0.  1.
         -3    1    6    6    0  502 -0.39790667822E+02 -0.30828837661E+03  0.73792324099E+03  0.80072200544E+03  0.00000000000E+00 0.  1.
<mgrwt>
<rscale>  0 0.12199175E+04</rscale>
<asrwt>0</asrwt>
<pdfrwt beam="1">  1        2 0.21000674E+00 0.12199175E+04</pdfrwt>
<pdfrwt beam="2">  1       -2 0.41931556E-01 0.12199175E+04</pdfrwt>
<totfact> 0.80456314E+01</totfact>
</mgrwt>
</event>
<event>
12    1  0.1489025E-007  0.1061045E+04  0.7818608E-02  0.9244015E-01
         -2   -1    0    0    0  501 -0.00000000000E+00  0.00000000000E+00  0.16343931001E+03  0.16343931001E+03  0.00000000000E+00 0.  1.
          2   -1    0    0  501    0  0.00000000000E+00 -0.00000000000E+00 -0.17220697826E+04  0.17220697826E+04  0.00000000000E+00 0. -1.
         23    2    1    2    0    0 -0.74385911164E+01  0.10619905432E+03 -0.58950896157E+02  0.15175484170E+03  0.90668362970E+02 0.  0.
        254    2    1    2    0    0  0.74385911164E+01 -0.10619905432E+03 -0.14996795765E+04  0.17337542510E+04  0.86344160129E+03 0.  0.
        -24    2    4    4    0    0  0.24794915712E+03 -0.56211775086E+02 -0.62290371475E+02  0.27339724618E+03  0.78913976374E+02 0.  0.
         24    2    4    4    0    0 -0.24051056600E+03 -0.49987279238E+02 -0.14373892050E+04  0.14603570048E+04  0.78808592848E+02 0.  0.
         11    1    3    3    0    0 -0.44605712418E+02  0.86678166920E+02 -0.46225960155E+02  0.10788704090E+03  0.00000000000E+00 0. -1.
        -11    1    3    3    0    0  0.37167121302E+02  0.19520887403E+02 -0.12724936002E+02  0.43867800801E+02  0.00000000000E+00 0.  1.
          2    1    6    6  502    0  0.25824500172E+01 -0.25360877757E+01 -0.28878276903E+01  0.46303712666E+01  0.00000000000E+00 0. -1.
          1    1    5    5  503    0  0.20155166015E+03 -0.74680364275E+02 -0.61047872363E+02  0.22344366458E+03  0.00000000000E+00 0. -1.
         -2    1    5    5    0  503  0.46397496963E+02  0.18468589189E+02 -0.12424991120E+01  0.49953581605E+02  0.00000000000E+00 0.  1.
         -1    1    6    6    0  502 -0.24309301602E+03 -0.47451191462E+02 -0.14345013773E+04  0.14557266335E+04  0.00000000000E+00 0.  1.
<mgrwt>
<rscale>  0 0.10610446E+04</rscale>
<asrwt>0</asrwt>
<pdfrwt beam="1">  1        2 0.26493382E+00 0.10610446E+04</pdfrwt>
<pdfrwt beam="2">  1       -2 0.25144508E-01 0.10610446E+04</pdfrwt>
<totfact> 0.13470989E+02</totfact>
</mgrwt>
</event>
<event>
12    1  0.1489025E-007  0.1549834E+04  0.7818608E-02  0.8851973E-01
         -2   -1    0    0    0  501 -0.00000000000E+00  0.00000000000E+00  0.12060626658E+04  0.12060626658E+04  0.00000000000E+00 0.  1.
          2   -1    0    0  501    0  0.00000000000E+00 -0.00000000000E+00 -0.49789842607E+03  0.49789842607E+03  0.00000000000E+00 0. -1.
         23    2    1    2    0    0  0.25764671370E+03 -0.46371445299E+03  0.81219200150E+02  0.54438503677E+03  0.91354183250E+02 0.  0.
        254    2    1    2    0    0 -0.25764671370E+03  0.46371445299E+03  0.62694503955E+03  0.11595760551E+04  0.81862300350E+03 0.  0.
        -24    2    4    4    0    0 -0.73551973868E+02  0.20424631887E+03 -0.17708783595E+03  0.29121746332E+03  0.79505079515E+02 0.  0.
         24    2    4    4    0    0 -0.18409473983E+03  0.25946813412E+03  0.80403287550E+03  0.86835859175E+03  0.79769625249E+02 0.  0.
         13    1    3    3    0    0  0.21576119060E+03 -0.43682047085E+03  0.84609161068E+02  0.49449340265E+03  0.00000000000E+00 0. -1.
        -13    1    3    3    0    0  0.41885523103E+02 -0.26893982136E+02 -0.33899609177E+01  0.49891634126E+02  0.00000000000E+00 0.  1.
          4    1    6    6  502    0 -0.13966641612E+03  0.13274405092E+03  0.50701740496E+03  0.54239684713E+03  0.00000000000E+00 0. -1.
          1    1    5    5  503    0 -0.72605330776E+02  0.17226221995E+03 -0.11002787897E+03  0.21691459294E+03  0.00000000000E+00 0. -1.
         -2    1    5    5    0  503 -0.94664309197E+00  0.31984098923E+02 -0.67059956977E+02  0.74302870381E+02  0.00000000000E+00 0.  1.
         -3    1    6    6    0  502 -0.44428323716E+02  0.12672408320E+03  0.29701547055E+03  0.32596174462E+03  0.00000000000E+00 0.  1.
<mgrwt>
<rscale>  0 0.15498344E+04</rscale>
<asrwt>0</asrwt>
<pdfrwt beam="1">  1        2 0.76599759E-01 0.15498344E+04</pdfrwt>
<pdfrwt beam="2">  1       -2 0.18554810E+00 0.15498344E+04</pdfrwt>
<totfact> 0.98846162E+00</totfact>
</mgrwt>
</event>
<event>
12    1  0.1489025E-007  0.2891848E+04  0.7818608E-02  0.8275307E-01
         -1   -1    0    0    0  501 -0.00000000000E+00  0.00000000000E+00  0.81224804664E+03  0.81224804664E+03  0.00000000000E+00 0.  1.
          1   -1    0    0  501    0  0.00000000000E+00 -0.00000000000E+00 -0.25739634257E+04  0.25739634257E+04  0.00000000000E+00 0. -1.
         23    2    1    2    0    0 -0.59763138542E+03  0.10138837725E+04 -0.13979295371E+03  0.11886470888E+04  0.90643558805E+02 0.  0.
        254    2    1    2    0    0  0.59763138542E+03 -0.10138837725E+04 -0.16219224253E+04  0.21975643835E+04  0.90196080230E+03 0.  0.
        -24    2    4    4    0    0  0.58687075613E+03 -0.20198665285E+03 -0.96091329870E+03  0.11471501677E+04  0.85925824673E+02 0.  0.
         24    2    4    4    0    0  0.10760629288E+02 -0.81189711970E+03 -0.66100912664E+03  0.10504142158E+04  0.84523577600E+02 0.  0.
         13    1    3    3    0    0 -0.28896353315E+03  0.43475951472E+03 -0.26588010878E+02  0.52270707040E+03  0.00000000000E+00 0.  1.
        -13    1    3    3    0    0 -0.30866785228E+03  0.57912425783E+03 -0.11320494284E+03  0.66594001840E+03  0.00000000000E+00 0. -1.
          4    1    6    6  502    0  0.61117907633E+01 -0.62761993430E+03 -0.46344746662E+03  0.78021002956E+03  0.00000000000E+00 0. -1.
          1    1    5    5  503    0  0.40576474306E+03 -0.10436534451E+03 -0.60189325920E+03  0.73335710763E+03  0.00000000000E+00 0. -1.
         -2    1    5    5    0  503  0.18110601308E+03 -0.97621308339E+02 -0.35902003950E+03  0.41379306009E+03  0.00000000000E+00 0.  1.
         -3    1    6    6    0  502  0.46488385243E+01 -0.18427718540E+03 -0.19756166002E+03  0.27020418626E+03  0.00000000000E+00 0.  1.
<mgrwt>
<rscale>  0 0.28918484E+04</rscale>
<asrwt>0</asrwt>
<pdfrwt beam="1">  1        1 0.39599437E+00 0.28918484E+04</pdfrwt>
<pdfrwt beam="2">  1       -1 0.12496124E+00 0.28918484E+04</pdfrwt>
<totfact> 0.57856712E-01</totfact>
</mgrwt>
</event>
<event>
12    1  0.1489025E-007  0.1383248E+04  0.7818608E-02  0.8966034E-01
         -2   -1    0    0    0  501 -0.00000000000E+00  0.00000000000E+00  0.40320225605E+03  0.40320225605E+03  0.00000000000E+00 0.  1.
          2   -1    0    0  501    0  0.00000000000E+00 -0.00000000000E+00 -0.11863619124E+04  0.11863619124E+04  0.00000000000E+00 0. -1.
         23    2    1    2    0    0  0.74571072507E+02 -0.38625425691E+03 -0.11729577958E+03  0.42070245047E+03  0.92081790189E+02 0.  0.
        254    2    1    2    0    0 -0.74571072507E+02  0.38625425691E+03 -0.66586387675E+03  0.11688617180E+04  0.87641874555E+03 0.  0.
        -24    2    4    4    0    0 -0.17876571137E+03  0.21201994965E+03 -0.84064754194E+03  0.88890816076E+03  0.80992529826E+02 0.  0.
         24    2    4    4    0    0  0.10419463886E+03  0.17423430726E+03  0.17478366519E+03  0.27995355722E+03  0.81305276506E+02 0.  0.
         13    1    3    3    0    0  0.46671481639E+02 -0.36710270936E+03 -0.10457047459E+03  0.38454858026E+03  0.00000000000E+00 0. -1.
        -13    1    3    3    0    0  0.27899590868E+02 -0.19151547545E+02 -0.12725304997E+02  0.36153870211E+02  0.00000000000E+00 0.  1.
          2    1    6    6  502    0  0.75202970001E+01 -0.38530631575E+01 -0.43386484768E+01  0.94986753430E+01  0.00000000000E+00 0. -1.
          1    1    5    5  503    0 -0.42436097542E+02  0.35264493902E+02 -0.88099271073E+02  0.10395137550E+03  0.00000000000E+00 0. -1.
         -2    1    5    5    0  503 -0.13632961383E+03  0.17675545574E+03 -0.75254827086E+03  0.78495678526E+03  0.00000000000E+00 0.  1.
         -1    1    6    6    0  502  0.96674341861E+02  0.17808737042E+03  0.17912231367E+03  0.27045488188E+03  0.00000000000E+00 0.  1.
<mgrwt>
<rscale>  0 0.13832481E+04</rscale>
<asrwt>0</asrwt>
<pdfrwt beam="1">  1        2 0.18251722E+00 0.13832481E+04</pdfrwt>
<pdfrwt beam="2">  1       -2 0.62031116E-01 0.13832481E+04</pdfrwt>
<totfact> 0.45387323E+01</totfact>
</mgrwt>
</event>
<event>
12    1  0.1489025E-007  0.1589249E+04  0.7818608E-02  0.8827180E-01
          2   -1    0    0  501    0  0.00000000000E+00  0.00000000000E+00  0.15516706279E+04  0.15516706279E+04  0.00000000000E+00 0. -1.
         -2   -1    0    0    0  501 -0.00000000000E+00 -0.00000000000E+00 -0.40693411862E+03  0.40693411862E+03  0.00000000000E+00 0.  1.
         23    2    1    2    0    0 -0.14880919203E+03 -0.40754802482E+02  0.10211369926E+04  0.10370484452E+04  0.94570557760E+02 0.  0.
        254    2    1    2    0    0  0.14880919203E+03  0.40754802482E+02  0.12359951660E+03  0.92155630127E+03  0.90010224217E+03 0.  0.
        -24    2    4    4    0    0 -0.23644293612E+03 -0.10829279719E+03 -0.24109428101E+03  0.36481550846E+03  0.85623074634E+02 0.  0.
         24    2    4    4    0    0  0.38525212816E+03  0.14904759967E+03  0.36469379761E+03  0.55674079282E+03  0.79525814376E+02 0.  0.
         13    1    3    3    0    0  0.85321403274E+01  0.11255347128E+02  0.53976415042E+02  0.55793670236E+02  0.00000000000E+00 0.  1.
        -13    1    3    3    0    0 -0.15734133236E+03 -0.52010149610E+02  0.96716057760E+03  0.98125477497E+03  0.00000000000E+00 0. -1.
          4    1    6    6  502    0  0.17886533183E+02  0.17540766044E+02  0.48219710848E+02  0.54339185281E+02  0.00000000000E+00 0. -1.
          3    1    5    5  503    0 -0.16044755477E+03 -0.29490160429E+02 -0.12745689188E+03  0.20702257530E+03  0.00000000000E+00 0. -1.
         -4    1    5    5    0  503 -0.75995381347E+02 -0.78802636761E+02 -0.11363738913E+03  0.15779293316E+03  0.00000000000E+00 0.  1.
         -3    1    6    6    0  502  0.36736559497E+03  0.13150683363E+03  0.31647408676E+03  0.50240160753E+03  0.00000000000E+00 0.  1.
<mgrwt>
<rscale>  0 0.15892485E+04</rscale>
<asrwt>0</asrwt>
<pdfrwt beam="1">  1        2 0.23871856E+00 0.15892485E+04</pdfrwt>
<pdfrwt beam="2">  1       -2 0.62605249E-01 0.15892485E+04</pdfrwt>
<totfact> 0.26952263E+01</totfact>
</mgrwt>
</event>
<event>
12    1  0.1489025E-007  0.1888345E+04  0.7818608E-02  0.8660680E-01
          2   -1    0    0  501    0  0.00000000000E+00  0.00000000000E+00  0.18813027503E+04  0.18813027503E+04  0.00000000000E+00 0. -1.
         -2   -1    0    0    0  501 -0.00000000000E+00 -0.00000000000E+00 -0.47385342020E+03  0.47385342020E+03  0.00000000000E+00 0.  1.
         23    2    1    2    0    0  0.37334600458E+02 -0.15414621972E+03  0.13184634941E+04  0.13311287628E+04  0.91667160512E+02 0.  0.
        254    2    1    2    0    0 -0.37334600458E+02  0.15414621972E+03  0.88985836011E+02  0.10240274078E+04  0.10077493356E+04 0.  0.
        -24    2    4    4    0    0 -0.61982791525E+02  0.61358066541E+02  0.54135270738E+03  0.55427052444E+03  0.80909713265E+02 0.  0.
         24    2    4    4    0    0  0.24648191067E+02  0.92788153183E+02 -0.45236687137E+03  0.46975688331E+03  0.82574623301E+02 0.  0.
         13    1    3    3    0    0 -0.26135371790E+02 -0.21777422395E+02  0.17453982965E+03  0.17782425571E+03  0.00000000000E+00 0.  1.
        -13    1    3    3    0    0  0.63469972247E+02 -0.13236879733E+03  0.11439236645E+04  0.11533045071E+04  0.00000000000E+00 0. -1.
          2    1    6    6  502    0  0.46745255863E+02  0.20675520110E+02 -0.17379912210E+03  0.18115940748E+03  0.00000000000E+00 0. -1.
          3    1    5    5  503    0 -0.70140805500E+02  0.53140044899E+02  0.29998812996E+03  0.31262833379E+03  0.00000000000E+00 0. -1.
         -4    1    5    5    0  503  0.81580139745E+01  0.82180216416E+01  0.24136457742E+03  0.24164219065E+03  0.00000000000E+00 0.  1.
         -1    1    6    6    0  502 -0.22097064796E+02  0.72112633073E+02 -0.27856774927E+03  0.28859747583E+03  0.00000000000E+00 0.  1.
<mgrwt>
<rscale>  0 0.18883450E+04</rscale>
<asrwt>0</asrwt>
<pdfrwt beam="1">  1        2 0.28943119E+00 0.18883450E+04</pdfrwt>
<pdfrwt beam="2">  1       -2 0.72900527E-01 0.18883450E+04</pdfrwt>
<totfact> 0.12395252E+01</totfact>
</mgrwt>
</event>
<event>
12    1  0.1489025E-007  0.2347491E+04  0.7818608E-02  0.8459428E-01
          1   -1    0    0  501    0  0.00000000000E+00  0.00000000000E+00  0.23507491646E+04  0.23507491646E+04  0.00000000000E+00 0. -1.
         -1   -1    0    0    0  501 -0.00000000000E+00 -0.00000000000E+00 -0.58605930990E+03  0.58605930990E+03  0.00000000000E+00 0.  1.
         23    2    1    2    0    0  0.67642122378E+03 -0.73413448467E+03  0.80801528616E+03  0.12874548721E+04  0.90289708697E+02 0.  0.
        254    2    1    2    0    0 -0.67642122378E+03  0.73413448467E+03  0.95667456854E+03  0.16493536024E+04  0.89924521800E+03 0.  0.
        -24    2    4    4    0    0  0.16087922127E+03  0.30876814165E+03  0.90338275067E+02  0.36887537396E+03  0.81781100700E+02 0.  0.
         24    2    4    4    0    0 -0.83730044505E+03  0.42536634301E+03  0.86633629347E+03  0.12804782284E+04  0.84127041235E+02 0.  0.
         11    1    3    3    0    0  0.54596458821E+02 -0.98319799251E+02  0.10414847587E+03  0.15327903075E+03  0.00000000000E+00 0.  1.
        -11    1    3    3    0    0  0.62182476495E+03 -0.63581468542E+03  0.70386681029E+03  0.11341758414E+04  0.00000000000E+00 0. -1.
          2    1    6    6  502    0 -0.77834728126E+03  0.36968562198E+03  0.79795212435E+03  0.11744017805E+04  0.00000000000E+00 0. -1.
          1    1    5    5  503    0  0.35231143023E+02  0.13507773306E+03  0.10040770997E+02  0.13995729524E+03  0.00000000000E+00 0. -1.
         -2    1    5    5    0  503  0.12564807825E+03  0.17369040859E+03  0.80297504071E+02  0.22891807872E+03  0.00000000000E+00 0.  1.
         -1    1    6    6    0  502 -0.58953163792E+02  0.55680721031E+02  0.68384169123E+02  0.10607644791E+03  0.00000000000E+00 0.  1.
<mgrwt>
<rscale>  0 0.23474909E+04</rscale>
<asrwt>0</asrwt>
<pdfrwt beam="1">  1        1 0.36165371E+00 0.23474909E+04</pdfrwt>
<pdfrwt beam="2">  1       -1 0.90162972E-01 0.23474909E+04</pdfrwt>
<totfact> 0.18599295E+00</totfact>
</mgrwt>
</event>
<event>
12    1  0.1489025E-007  0.2798492E+04  0.7818608E-02  0.8303737E-01
          2   -1    0    0  501    0  0.00000000000E+00  0.00000000000E+00  0.18406866317E+04  0.18406866317E+04  0.00000000000E+00 0. -1.
         -2   -1    0    0    0  501 -0.00000000000E+00 -0.00000000000E+00 -0.10636732011E+04  0.10636732011E+04  0.00000000000E+00 0.  1.
         23    2    1    2    0    0  0.12396790740E+04  0.16897825900E+03  0.25953008179E+03  0.12810822341E+04  0.91967215717E+02 0.  0.
        254    2    1    2    0    0 -0.12396790740E+04 -0.16897825900E+03  0.51748334880E+03  0.16232775987E+04  0.89547936202E+03 0.  0.
        -24    2    4    4    0    0 -0.11128030155E+04  0.15896165370E+03  0.56283499087E+03  0.12596330826E+04  0.79327910010E+02 0.  0.
         24    2    4    4    0    0 -0.12687605850E+03 -0.32793991269E+03 -0.45351642070E+02  0.36364451610E+03  0.80860633782E+02 0.  0.
         11    1    3    3    0    0  0.10791691991E+04  0.14694677547E+03  0.19377185386E+03  0.11062310096E+04  0.00000000000E+00 0.  1.
        -11    1    3    3    0    0  0.16050987483E+03  0.22031483524E+02  0.65758227930E+02  0.17485122455E+03  0.00000000000E+00 0. -1.
          4    1    6    6  502    0 -0.11186138592E+02  0.16093880631E+01  0.86197819576E+00  0.11334144562E+02  0.00000000000E+00 0. -1.
          1    1    5    5  503    0 -0.64822842950E+03  0.55553108788E+02  0.34044487107E+03  0.73429486921E+03  0.00000000000E+00 0. -1.
         -2    1    5    5    0  503 -0.46457458598E+03  0.10340854491E+03  0.22239011980E+03  0.52533821342E+03  0.00000000000E+00 0.  1.
         -3    1    6    6    0  502 -0.11568991990E+03 -0.32954930076E+03 -0.46213620266E+02  0.35231037154E+03  0.00000000000E+00 0.  1.
<mgrwt>
<rscale>  0 0.27984918E+04</rscale>
<asrwt>0</asrwt>
<pdfrwt beam="1">  1        2 0.28318256E+00 0.27984918E+04</pdfrwt>
<pdfrwt beam="2">  1       -2 0.16364203E+00 0.27984918E+04</pdfrwt>
<totfact> 0.16886316E+00</totfact>
</mgrwt>
</event>
<event>
12    1  0.1489025E-007  0.1548122E+04  0.7818608E-02  0.8853068E-01
          1   -1    0    0  501    0  0.00000000000E+00  0.00000000000E+00  0.11368821633E+04  0.11368821633E+04  0.00000000000E+00 0. -1.
         -1   -1    0    0    0  501 -0.00000000000E+00 -0.00000000000E+00 -0.52702976758E+03  0.52702976758E+03  0.00000000000E+00 0.  1.
         23    2    1    2    0    0  0.27168188443E+03 -0.24582637152E+03 -0.17739117928E+03  0.41716721785E+03  0.91209680986E+02 0.  0.
        254    2    1    2    0    0 -0.27168188443E+03  0.24582637152E+03  0.78724357504E+03  0.12467447131E+04  0.89463863200E+03 0.  0.
        -24    2    4    4    0    0  0.18901662029E+03  0.36303333307E+03  0.59827643309E+03  0.72918134943E+03  0.79058625670E+02 0.  0.
         24    2    4    4    0    0 -0.46069850472E+03 -0.11720696156E+03  0.18896714195E+03  0.51756336364E+03  0.78629959654E+02 0.  0.
         11    1    3    3    0    0  0.15637652836E+03 -0.17531616921E+03 -0.15154483058E+03  0.27956253948E+03  0.00000000000E+00 0.  1.
        -11    1    3    3    0    0  0.11530535607E+03 -0.70510202309E+02 -0.25846348702E+02  0.13760467837E+03  0.00000000000E+00 0. -1.
          2    1    6    6  502    0 -0.48721173902E+01 -0.94653728533E+01 -0.34541632726E+01  0.11192053209E+02  0.00000000000E+00 0. -1.
          1    1    5    5  503    0  0.10015674071E+03  0.13491214267E+03  0.29418245931E+03  0.33878603619E+03  0.00000000000E+00 0. -1.
         -2    1    5    5    0  503  0.88859879578E+02  0.22812119041E+03  0.30409397378E+03  0.39039531324E+03  0.00000000000E+00 0.  1.
         -1    1    6    6    0  502 -0.45582638733E+03 -0.10774158871E+03  0.19242130522E+03  0.50637131043E+03  0.00000000000E+00 0.  1.
<mgrwt>
<rscale>  0 0.15481224E+04</rscale>
<asrwt>0</asrwt>
<pdfrwt beam="1">  1        1 0.17490495E+00 0.15481224E+04</pdfrwt>
<pdfrwt beam="2">  1       -1 0.81081503E-01 0.15481224E+04</pdfrwt>
<totfact> 0.17378412E+01</totfact>
</mgrwt>
</event>
<event>
12    1  0.1489025E-007  0.2722141E+04  0.7818608E-02  0.8327856E-01
         -2   -1    0    0    0  501 -0.00000000000E+00  0.00000000000E+00  0.80526501530E+03  0.80526501530E+03  0.00000000000E+00 0.  1.
          2   -1    0    0  501    0  0.00000000000E+00 -0.00000000000E+00 -0.23005013799E+04  0.23005013799E+04  0.00000000000E+00 0. -1.
         23    2    1    2    0    0 -0.85301016710E+03  0.83597939187E+03 -0.42076047351E+03  0.12696660801E+04  0.92329247840E+02 0.  0.
        254    2    1    2    0    0  0.85301016710E+03 -0.83597939187E+03 -0.10744758911E+04  0.18361003151E+04  0.88897583649E+03 0.  0.
        -24    2    4    4    0    0  0.83674633943E+03 -0.23528927375E+03 -0.52795456776E+03  0.10200421637E+04  0.79022219125E+02 0.  0.
         24    2    4    4    0    0  0.16263827668E+02 -0.60069011812E+03 -0.54652132332E+03  0.81605815147E+03  0.78563475205E+02 0.  0.
         11    1    3    3    0    0 -0.24326745637E+02  0.32190378592E+02  0.15597135664E+01  0.40378753493E+02  0.00000000000E+00 0. -1.
        -11    1    3    3    0    0 -0.82868342146E+03  0.80378901327E+03 -0.42232018708E+03  0.12292873266E+04  0.00000000000E+00 0.  1.
          2    1    6    6  502    0  0.31343809560E+01 -0.30930400130E+03 -0.22874704768E+03  0.38471288175E+03  0.00000000000E+00 0. -1.
          1    1    5    5  503    0  0.23029445933E+03 -0.59921688325E+02 -0.10463017270E+03  0.25994926384E+03  0.00000000000E+00 0. -1.
         -2    1    5    5    0  503  0.60645188010E+03 -0.17536758542E+03 -0.42332439506E+03  0.76009289981E+03  0.00000000000E+00 0.  1.
         -3    1    6    6    0  502  0.13129446712E+02 -0.29138611682E+03 -0.31777427565E+03  0.43134526972E+03  0.00000000000E+00 0.  1.
<mgrwt>
<rscale>  0 0.27221413E+04</rscale>
<asrwt>0</asrwt>
<pdfrwt beam="1">  1        2 0.35392329E+00 0.27221413E+04</pdfrwt>
<pdfrwt beam="2">  1       -2 0.12388693E+00 0.27221413E+04</pdfrwt>
<totfact> 0.19452865E+00</totfact>
</mgrwt>
</event>
<event>
12    1  0.1489025E-007  0.3801930E+04  0.7818608E-02  0.8045741E-01
          2   -1    0    0  501    0  0.00000000000E+00  0.00000000000E+00  0.20011049035E+04  0.20011049035E+04  0.00000000000E+00 0. -1.
         -2   -1    0    0    0  501 -0.00000000000E+00 -0.00000000000E+00 -0.18058364961E+04  0.18058364961E+04  0.00000000000E+00 0.  1.
         23    2    1    2    0    0 -0.82179753093E+03 -0.10637738720E+03 -0.14929957742E+04  0.17099077016E+04  0.89892357132E+02 0.  0.
        254    2    1    2    0    0  0.82179753093E+03  0.10637738720E+03  0.16882641816E+04  0.20970336979E+04  0.92771065165E+03 0.  0.
        -24    2    4    4    0    0  0.63021259554E+03  0.44892129252E+02  0.17578333769E+04  0.18699641835E+04  0.87204632183E+02 0.  0.
         24    2    4    4    0    0  0.19158493539E+03  0.61485257946E+02 -0.69569195318E+02  0.22706951443E+03  0.78964973450E+02 0.  0.
         11    1    3    3    0    0 -0.33051693350E+03 -0.81112151893E+02 -0.56469335273E+03  0.65931722800E+03  0.00000000000E+00 0. -1.
        -11    1    3    3    0    0 -0.49128059744E+03 -0.25265235305E+02 -0.92830242146E+03  0.10505904736E+04  0.00000000000E+00 0.  1.
          4    1    6    6  502    0  0.15188715214E+03  0.14360235210E+02 -0.63154134426E+02  0.16511925399E+03  0.00000000000E+00 0. -1.
          1    1    5    5  503    0  0.60441635084E+03  0.60665803605E+02  0.16668476515E+04  0.17740858373E+04  0.00000000000E+00 0. -1.
         -2    1    5    5    0  503  0.25796244705E+02 -0.15773674352E+02  0.90985725423E+02  0.95878346221E+02  0.00000000000E+00 0.  1.
         -3    1    6    6    0  502  0.39697783245E+02  0.47125022736E+02 -0.64150608921E+01  0.61950260440E+02  0.00000000000E+00 0.  1.
<mgrwt>
<rscale>  0 0.38019302E+04</rscale>
<asrwt>0</asrwt>
<pdfrwt beam="1">  1        2 0.30786229E+00 0.38019302E+04</pdfrwt>
<pdfrwt beam="2">  1       -2 0.27782100E+00 0.38019302E+04</pdfrwt>
<totfact> 0.23225917E-01</totfact>
</mgrwt>
</event>
<event>
12    1  0.1489025E-007  0.1609516E+04  0.7818608E-02  0.8814723E-01
          1   -1    0    0  501    0  0.00000000000E+00  0.00000000000E+00  0.63643217364E+03  0.63643217364E+03  0.00000000000E+00 0. -1.
         -1   -1    0    0    0  501 -0.00000000000E+00 -0.00000000000E+00 -0.10176032483E+04  0.10176032483E+04  0.00000000000E+00 0.  1.
         23    2    1    2    0    0  0.10826875465E+03  0.39109803509E+03  0.24910895509E+03  0.48824620575E+03  0.10793187499E+03 0.  0.
        254    2    1    2    0    0 -0.10826875465E+03 -0.39109803509E+03 -0.63028002978E+03  0.11657892162E+04  0.89282237004E+03 0.  0.
        -24    2    4    4    0    0 -0.88314420202E+02  0.40587481309E+02  0.19325877145E+03  0.23236466680E+03  0.84838700960E+02 0.  0.
         24    2    4    4    0    0 -0.19954334444E+02 -0.43168551640E+03 -0.82353880124E+03  0.93342454942E+03  0.79464909168E+02 0.  0.
         11    1    3    3    0    0  0.50012320727E+02  0.32428171660E+03  0.21958135585E+03  0.39481113939E+03  0.00000000000E+00 0. -1.
        -11    1    3    3    0    0  0.58256433919E+02  0.66816318488E+02  0.29527599235E+02  0.93435066360E+02  0.00000000000E+00 0.  1.
          4    1    6    6  502    0  0.24575347531E+02 -0.28563111676E+03 -0.54084945622E+03  0.61213333259E+03  0.00000000000E+00 0. -1.
          3    1    5    5  503    0 -0.67092206453E+02  0.66983651790E+02  0.13474623295E+03  0.16475655091E+03  0.00000000000E+00 0. -1.
         -4    1    5    5    0  503 -0.21222213748E+02 -0.26396170481E+02  0.58512538509E+02  0.67608115898E+02  0.00000000000E+00 0.  1.
         -3    1    6    6    0  502 -0.44529681975E+02 -0.14605439964E+03 -0.28268934502E+03  0.32129121684E+03  0.00000000000E+00 0.  1.
<mgrwt>
<rscale>  0 0.16095160E+04</rscale>
<asrwt>0</asrwt>
<pdfrwt beam="1">  1        1 0.97912643E-01 0.16095160E+04</pdfrwt>
<pdfrwt beam="2">  1       -1 0.15655435E+00 0.16095160E+04</pdfrwt>
<totfact> 0.93535948E+00</totfact>
</mgrwt>
</event>
<event>
12    1  0.1489025E-007  0.1346666E+04  0.7818608E-02  0.8993356E-01
         -1   -1    0    0    0  501 -0.00000000000E+00  0.00000000000E+00  0.22766361243E+03  0.22766361243E+03  0.00000000000E+00 0. -1.
          1   -1    0    0  501    0  0.00000000000E+00 -0.00000000000E+00 -0.19914345705E+04  0.19914345705E+04  0.00000000000E+00 0.  1.
         23    2    1    2    0    0  0.11964802617E+03  0.32469858374E+03 -0.34269719927E+03  0.50114502723E+03  0.11815306801E+03 0.  0.
        254    2    1    2    0    0 -0.11964802617E+03 -0.32469858374E+03 -0.14210737588E+04  0.17179531557E+04  0.90120341588E+03 0.  0.
        -24    2    4    4    0    0 -0.16450714337E+03  0.21664446555E+03 -0.96060685339E+03  0.10015103703E+04  0.79120606126E+02 0.  0.
         24    2    4    4    0    0  0.44859117192E+02 -0.54134304930E+03 -0.46046690541E+03  0.71644278543E+03  0.78713762477E+02 0.  0.
         11    1    3    3    0    0  0.22440229611E+02  0.10516408417E+03 -0.39863372543E+02  0.11468276669E+03  0.00000000000E+00 0.  1.
        -11    1    3    3    0    0  0.97207796563E+02  0.21953449957E+03 -0.30283382672E+03  0.38646226054E+03  0.00000000000E+00 0. -1.
          4    1    6    6  502    0  0.15434964713E+02 -0.40478531975E+03 -0.30246480347E+03  0.50554361885E+03  0.00000000000E+00 0. -1.
          3    1    5    5  503    0 -0.84456106105E+02  0.16267454861E+03 -0.69986341148E+03  0.72346709486E+03  0.00000000000E+00 0. -1.
         -4    1    5    5    0  503 -0.80051037260E+02  0.53969916945E+02 -0.26074344191E+03  0.27804327541E+03  0.00000000000E+00 0.  1.
         -3    1    6    6    0  502  0.29424152479E+02 -0.13655772954E+03 -0.15800210194E+03  0.21089916658E+03  0.00000000000E+00 0.  1.
<mgrwt>
<rscale>  0 0.13466658E+04</rscale>
<asrwt>0</asrwt>
<pdfrwt beam="1">  1        1 0.30637455E+00 0.13466658E+04</pdfrwt>
<pdfrwt beam="2">  1       -1 0.35025171E-01 0.13466658E+04</pdfrwt>
<totfact> 0.22940413E+01</totfact>
</mgrwt>
</event>
<event>
12    1  0.1489025E-007  0.1804429E+04  0.7818608E-02  0.8703948E-01
         -2   -1    0    0    0  501 -0.00000000000E+00  0.00000000000E+00  0.10700975928E+04  0.10700975928E+04  0.00000000000E+00 0.  1.
          2   -1    0    0  501    0  0.00000000000E+00 -0.00000000000E+00 -0.76067016742E+03  0.76067016742E+03  0.00000000000E+00 0. -1.
         23    2    1    2    0    0 -0.60073038064E+03 -0.44228246936E+03  0.33990339205E+02  0.75227640958E+03  0.90959773144E+02 0.  0.
        254    2    1    2    0    0  0.60073038064E+03  0.44228246936E+03  0.27543708623E+03  0.10784913507E+04  0.72855146154E+03 0.  0.
        -24    2    4    4    0    0  0.32271039440E+03  0.61518489282E+03  0.23970360717E+03  0.73938735272E+03  0.81494705718E+02 0.  0.
         24    2    4    4    0    0  0.27801998623E+03 -0.17290242346E+03  0.35733479052E+02  0.33910399797E+03  0.80773009891E+02 0.  0.
         13    1    3    3    0    0 -0.46460136893E+03 -0.35928420549E+03 -0.81252369483E+01  0.58737176626E+03  0.00000000000E+00 0. -1.
        -13    1    3    3    0    0 -0.13612901170E+03 -0.82998263870E+02  0.42115576153E+02  0.16490464332E+03  0.00000000000E+00 0.  1.
          4    1    6    6  502    0  0.23239092900E+03 -0.14411342513E+03  0.59987071355E+02  0.27995119559E+03  0.00000000000E+00 0. -1.
          3    1    5    5  503    0  0.21090490233E+03  0.44260574821E+03  0.20229768355E+03  0.53038201228E+03  0.00000000000E+00 0. -1.
         -4    1    5    5    0  503  0.11180549208E+03  0.17257914461E+03  0.37405923623E+02  0.20900534044E+03  0.00000000000E+00 0.  1.
         -3    1    6    6    0  502  0.45629057234E+02 -0.28788998336E+02 -0.24253592303E+02  0.59152802375E+02  0.00000000000E+00 0.  1.
<mgrwt>
<rscale>  0 0.18044293E+04</rscale>
<asrwt>0</asrwt>
<pdfrwt beam="1">  1        2 0.11702618E+00 0.18044293E+04</pdfrwt>
<pdfrwt beam="2">  1       -2 0.16463040E+00 0.18044293E+04</pdfrwt>
<totfact> 0.80893791E+00</totfact>
</mgrwt>
</event>
<event>
12    1  0.1489025E-007  0.1217030E+04  0.7818608E-02  0.9098080E-01
          1   -1    0    0  501    0  0.00000000000E+00  0.00000000000E+00  0.24125947907E+04  0.24125947907E+04  0.00000000000E+00 0. -1.
         -1   -1    0    0    0  501 -0.00000000000E+00 -0.00000000000E+00 -0.15348215087E+03  0.15348215087E+03  0.00000000000E+00 0.  1.
         23    2    1    2    0    0  0.13268439942E+03 -0.59512653390E+01  0.97106736231E+03  0.98454956322E+03  0.93410132571E+02 0.  0.
        254    2    1    2    0    0 -0.13268439942E+03  0.59512653390E+01  0.12880452775E+04  0.15815273783E+04  0.90803504566E+03 0.  0.
        -24    2    4    4    0    0  0.36609137649E+03 -0.32444716489E+01  0.33679731604E+03  0.50437947121E+03  0.83263415419E+02 0.  0.
         24    2    4    4    0    0 -0.49877577591E+03  0.91957369879E+01  0.95124796145E+03  0.10771479071E+04  0.80703738702E+02 0.  0.
         11    1    3    3    0    0  0.10223552627E+03  0.10726077926E+02  0.42027276840E+03  0.43266193667E+03  0.00000000000E+00 0.  1.
        -11    1    3    3    0    0  0.30448873145E+02 -0.16677343265E+02  0.55079459391E+03  0.55188762655E+03  0.00000000000E+00 0. -1.
          2    1    6    6  502    0 -0.41970713487E+03 -0.20060300550E+02  0.76785052617E+03  0.87530047713E+03  0.00000000000E+00 0. -1.
          1    1    5    5  503    0  0.23596776225E+03  0.10756882869E+02  0.26540975542E+03  0.35530104647E+03  0.00000000000E+00 0. -1.
         -2    1    5    5    0  503  0.13012361424E+03 -0.14001354518E+02  0.71387560623E+02  0.14907842474E+03  0.00000000000E+00 0.  1.
         -1    1    6    6    0  502 -0.79068641040E+02  0.29256037538E+02  0.18339743527E+03  0.20184742999E+03  0.00000000000E+00 0.  1.
<mgrwt>
<rscale>  0 0.12170296E+04</rscale>
<asrwt>0</asrwt>
<pdfrwt beam="1">  1        1 0.37116840E+00 0.12170296E+04</pdfrwt>
<pdfrwt beam="2">  1       -1 0.23612640E-01 0.12170296E+04</pdfrwt>
<totfact> 0.23898421E+01</totfact>
</mgrwt>
</event>
<event>
12    1  0.1489025E-007  0.2083384E+04  0.7818608E-02  0.8568599E-01
         -2   -1    0    0    0  501 -0.00000000000E+00  0.00000000000E+00  0.76605994165E+03  0.76605994165E+03  0.00000000000E+00 0.  1.
          2   -1    0    0  501    0  0.00000000000E+00 -0.00000000000E+00 -0.14164971736E+04  0.14164971736E+04  0.00000000000E+00 0. -1.
         23    2    1    2    0    0 -0.22779906427E+03  0.81037036154E+03 -0.35330904270E+03  0.91770451696E+03  0.93604296058E+02 0.  0.
        254    2    1    2    0    0  0.22779906427E+03 -0.81037036154E+03 -0.29712818921E+03  0.12648525982E+04  0.89608838733E+03 0.  0.
        -24    2    4    4    0    0 -0.12954474303E+03 -0.63470810753E+03 -0.48969928658E+03  0.81533392163E+03  0.72991713713E+02 0.  0.
         24    2    4    4    0    0  0.35734380731E+03 -0.17566225401E+03  0.19257109737E+03  0.44951867661E+03  0.80197188081E+02 0.  0.
         13    1    3    3    0    0 -0.22025245780E+03  0.80091408727E+03 -0.33477623196E+03  0.89557224490E+03  0.00000000000E+00 0. -1.
        -13    1    3    3    0    0 -0.75466064740E+01  0.94562742707E+01 -0.18532810739E+02  0.22132272053E+02  0.00000000000E+00 0.  1.
          2    1    6    6  502    0  0.26042242516E+03 -0.12358446333E+03  0.17734433448E+03  0.33844345476E+03  0.00000000000E+00 0. -1.
          1    1    5    5  503    0 -0.92489808842E+02 -0.51299571625E+03 -0.35896271448E+03  0.63290852421E+03  0.00000000000E+00 0. -1.
         -2    1    5    5    0  503 -0.37054934190E+02 -0.12171239128E+03 -0.13073657210E+03  0.18242539742E+03  0.00000000000E+00 0.  1.
         -1    1    6    6    0  502  0.96921382149E+02 -0.52077790689E+02  0.15226762889E+02  0.11107522185E+03  0.00000000000E+00 0.  1.
<mgrwt>
<rscale>  0 0.20833835E+04</rscale>
<asrwt>0</asrwt>
<pdfrwt beam="1">  1        2 0.21792264E+00 0.20833835E+04</pdfrwt>
<pdfrwt beam="2">  1       -2 0.11785538E+00 0.20833835E+04</pdfrwt>
<totfact> 0.72564931E+00</totfact>
</mgrwt>
</event>
<event>
12    1  0.1489025E-007  0.2000120E+04  0.7818608E-02  0.8606565E-01
         -1   -1    0    0    0  501 -0.00000000000E+00  0.00000000000E+00  0.71804016486E+03  0.71804016486E+03  0.00000000000E+00 0.  1.
          1   -1    0    0  501    0  0.00000000000E+00 -0.00000000000E+00 -0.13928463918E+04  0.13928463918E+04  0.00000000000E+00 0. -1.
         23    2    1    2    0    0  0.22986790199E+03 -0.41680017533E+03 -0.94188430946E+03  0.10591111767E+04  0.89491863473E+02 0.  0.
        254    2    1    2    0    0 -0.22986790199E+03  0.41680017533E+03  0.26707808256E+03  0.10517753799E+04  0.89907680937E+03 0.  0.
        -24    2    4    4    0    0 -0.43547175313E+03 -0.99912266829E+02  0.89029560477E+02  0.46260205258E+03  0.80351027236E+02 0.  0.
         24    2    4    4    0    0  0.20560385114E+03  0.51671244216E+03  0.17804852209E+03  0.58917332736E+03  0.78480838235E+02 0.  0.
         11    1    3    3    0    0  0.19917442079E+03 -0.40446382361E+03 -0.86594725861E+03  0.97628176732E+03  0.00000000000E+00 0. -1.
        -11    1    3    3    0    0  0.30693481198E+02 -0.12336351714E+02 -0.75937050854E+02  0.82829409355E+02  0.00000000000E+00 0.  1.
          2    1    6    6  502    0  0.14277679653E+03  0.39617584669E+03  0.16620700565E+03  0.45273091772E+03  0.00000000000E+00 0. -1.
          1    1    5    5  503    0 -0.39947792912E+03 -0.80220705389E+02  0.10115085531E+03  0.41982076290E+03  0.00000000000E+00 0. -1.
         -2    1    5    5    0  503 -0.35993824003E+02 -0.19691561440E+02 -0.12121294835E+02  0.42781289681E+02  0.00000000000E+00 0.  1.
         -1    1    6    6    0  502  0.62827054612E+02  0.12053659546E+03  0.11841516436E+02  0.13644240964E+03  0.00000000000E+00 0.  1.
<mgrwt>
<rscale>  0 0.20001196E+04</rscale>
<asrwt>0</asrwt>
<pdfrwt beam="1">  1        1 0.21428406E+00 0.20001196E+04</pdfrwt>
<pdfrwt beam="2">  1       -1 0.11046772E+00 0.20001196E+04</pdfrwt>
<totfact> 0.54475767E+00</totfact>
</mgrwt>
</event>
<event>
12    1  0.1489025E-007  0.1514695E+04  0.7818608E-02  0.8874739E-01
          2   -1    0    0  501    0  0.00000000000E+00  0.00000000000E+00  0.20626815618E+04  0.20626815618E+04  0.00000000000E+00 0.  1.
         -2   -1    0    0    0  501 -0.00000000000E+00 -0.00000000000E+00 -0.27807261019E+03  0.27807261019E+03  0.00000000000E+00 0. -1.
         23    2    1    2    0    0 -0.34026972389E+03  0.29317639123E+03  0.31791133811E+03  0.55762489553E+03  0.90233163741E+02 0.  0.
        254    2    1    2    0    0  0.34026972389E+03 -0.29317639123E+03  0.14666976135E+04  0.17831292764E+04  0.90918218512E+03 0.  0.
        -24    2    4    4    0    0  0.55855732209E+03 -0.39912369796E+03  0.13155387574E+04  0.14860434738E+04  0.79981093225E+02 0.  0.
         24    2    4    4    0    0 -0.21828759820E+03  0.10594730673E+03  0.15115885605E+03  0.29708580268E+03  0.80849657158E+02 0.  0.
         11    1    3    3    0    0 -0.68311304609E+02  0.21580265146E+02  0.31314640338E+02  0.78184070505E+02  0.00000000000E+00 0.  1.
        -11    1    3    3    0    0 -0.27195841928E+03  0.27159612609E+03  0.28659669778E+03  0.47944082502E+03  0.00000000000E+00 0. -1.
          4    1    6    6  502    0 -0.85025671129E+02  0.81839002427E+02  0.90387731077E+02  0.14865035822E+03  0.00000000000E+00 0. -1.
          3    1    5    5  503    0  0.41963835480E+03 -0.31441589304E+03  0.93124564458E+03  0.10687245450E+04  0.00000000000E+00 0. -1.
         -2    1    5    5    0  503  0.13891896729E+03 -0.84707804922E+02  0.38429311286E+03  0.41731892873E+03  0.00000000000E+00 0.  1.
         -3    1    6    6    0  502 -0.13326192707E+03  0.24108304300E+02  0.60771124968E+02  0.14843544446E+03  0.00000000000E+00 0.  1.
<mgrwt>
<rscale>  0 0.15146950E+04</rscale>
<asrwt>0</asrwt>
<pdfrwt beam="1">  1        2 0.31733561E+00 0.15146950E+04</pdfrwt>
<pdfrwt beam="2">  1       -2 0.42780403E-01 0.15146950E+04</pdfrwt>
<totfact> 0.30836921E+01</totfact>
</mgrwt>
</event>
<event>
12    1  0.1489025E-007  0.1946091E+04  0.7818608E-02  0.8632248E-01
          2   -1    0    0  501    0  0.00000000000E+00  0.00000000000E+00  0.51642502087E+03  0.51642502087E+03  0.00000000000E+00 0. -1.
         -2   -1    0    0    0  501 -0.00000000000E+00 -0.00000000000E+00 -0.18334071680E+04  0.18334071680E+04  0.00000000000E+00 0.  1.
         23    2    1    2    0    0  0.52472654432E+02 -0.10612165381E+03  0.38723608195E+03  0.41610725450E+03  0.95803336159E+02 0.  0.
        254    2    1    2    0    0 -0.52472654432E+02  0.10612165381E+03 -0.17042182290E+04  0.19337249343E+04  0.90604479172E+03 0.  0.
        -24    2    4    4    0    0 -0.28257230109E+03  0.35396891617E+02 -0.10479521287E+03  0.31399160134E+03  0.80676166204E+02 0.  0.
         24    2    4    4    0    0  0.23009964666E+03  0.70724762196E+02 -0.15994230162E+04  0.16197333330E+04  0.86222073501E+02 0.  0.
         13    1    3    3    0    0  0.42107864537E+02 -0.45014253570E+02  0.71751221716E+02  0.94591717915E+02  0.00000000000E+00 0.  1.
        -13    1    3    3    0    0  0.10364789895E+02 -0.61107400242E+02  0.31548486023E+03  0.32151553659E+03  0.00000000000E+00 0. -1.
          2    1    6    6  502    0  0.39107552845E+02  0.21332530823E+02 -0.55903368849E+03  0.56080579743E+03  0.00000000000E+00 0. -1.
          3    1    5    5  503    0 -0.26086539499E+02  0.19561084134E+02  0.76522201787E+01  0.33491790474E+02  0.00000000000E+00 0. -1.
         -4    1    5    5    0  503 -0.25648576159E+03  0.15835807483E+02 -0.11244743305E+03  0.28049981087E+03  0.00000000000E+00 0.  1.
         -1    1    6    6    0  502  0.19099209382E+03  0.49392231373E+02 -0.10403893277E+04  0.10589275355E+04  0.00000000000E+00 0.  1.
<mgrwt>
<rscale>  0 0.19460908E+04</rscale>
<asrwt>0</asrwt>
<pdfrwt beam="1">  1        2 0.79450003E-01 0.19460908E+04</pdfrwt>
<pdfrwt beam="2">  1       -2 0.28206264E+00 0.19460908E+04</pdfrwt>
<totfact> 0.22650279E+00</totfact>
</mgrwt>
</event>
<event>
12    1  0.1489025E-007  0.1119443E+04  0.7818608E-02  0.9186446E-01
          2   -1    0    0  501    0  0.00000000000E+00  0.00000000000E+00  0.29071867770E+04  0.29071867770E+04  0.00000000000E+00 0. -1.
         -2   -1    0    0    0  501 -0.00000000000E+00 -0.00000000000E+00 -0.10776328995E+03  0.10776328995E+03  0.00000000000E+00 0.  1.
         23    2    1    2    0    0  0.12468593746E+02 -0.87964174619E+02  0.11729131538E+03  0.17363201899E+03  0.92182772299E+02 0.  0.
        254    2    1    2    0    0 -0.12468593746E+02  0.87964174619E+02  0.26821321717E+04  0.28413180479E+04  0.93346778277E+03 0.  0.
        -24    2    4    4    0    0  0.20094931414E+03 -0.30727912217E+03  0.58923430119E+03  0.69929900712E+03  0.83791132533E+02 0.  0.
         24    2    4    4    0    0 -0.21341790788E+03  0.39524329679E+03  0.20928978705E+04  0.21420190408E+04  0.79117684225E+02 0.  0.
         11    1    3    3    0    0 -0.38084191980E+02 -0.21274572698E+02  0.49122370968E+02  0.65696426476E+02  0.00000000000E+00 0. -1.
        -11    1    3    3    0    0  0.50552785726E+02 -0.66689601921E+02  0.68168944409E+02  0.10793559251E+03  0.00000000000E+00 0.  1.
          2    1    6    6  502    0 -0.14663264324E+02  0.27122931028E+02  0.72849694391E+02  0.79105895362E+02  0.00000000000E+00 0. -1.
          1    1    5    5  503    0  0.65901223319E+02 -0.51334452306E+02  0.17591132408E+03  0.19473826324E+03  0.00000000000E+00 0. -1.
         -2    1    5    5    0  503  0.13504809082E+03 -0.25594466986E+03  0.41332297711E+03  0.50456074389E+03  0.00000000000E+00 0.  1.
         -1    1    6    6    0  502 -0.19875464356E+03  0.36812036576E+03  0.20200481761E+04  0.20629131455E+04  0.00000000000E+00 0.  1.
<mgrwt>
<rscale>  0 0.11194427E+04</rscale>
<asrwt>0</asrwt>
<pdfrwt beam="1">  1        2 0.44725944E+00 0.11194427E+04</pdfrwt>
<pdfrwt beam="2">  1       -2 0.16578970E-01 0.11194427E+04</pdfrwt>
<totfact> 0.59322826E+01</totfact>
</mgrwt>
</event>
<event>
12    1  0.1489025E-007  0.2269479E+04  0.7818608E-02  0.8490053E-01
          2   -1    0    0  501    0  0.00000000000E+00  0.00000000000E+00  0.17034987103E+04  0.17034987103E+04  0.00000000000E+00 0.  1.
         -2   -1    0    0    0  501 -0.00000000000E+00 -0.00000000000E+00 -0.75587565413E+03  0.75587565413E+03  0.00000000000E+00 0. -1.
         23    2    1    2    0    0  0.60761332658E+03  0.45252400442E+03  0.10278192693E+04  0.12801864363E+04  0.92157105458E+02 0.  0.
        254    2    1    2    0    0 -0.60761332658E+03 -0.45252400442E+03 -0.80196213219E+02  0.11791879281E+04  0.90004489213E+03 0.  0.
        -24    2    4    4    0    0  0.18281536917E+03 -0.75167146395E+02  0.16147799146E+03  0.26707335772E+03  0.78622373261E+02 0.  0.
         24    2    4    4    0    0 -0.79042869575E+03 -0.37735685803E+03 -0.24167420468E+03  0.91211457034E+03  0.79817584779E+02 0.  0.
         11    1    3    3    0    0  0.44514300035E+03  0.34733225291E+03  0.69803794996E+03  0.89780229687E+03  0.00000000000E+00 0. -1.
        -11    1    3    3    0    0  0.16247032623E+03  0.10519175151E+03  0.32978131939E+03  0.38238413946E+03  0.00000000000E+00 0.  1.
          2    1    6    6  502    0 -0.63759545913E+02 -0.80291635436E+01 -0.21497265734E+02  0.67763408978E+02  0.00000000000E+00 0. -1.
          1    1    5    5  503    0  0.12963234112E+02 -0.26661508655E+02  0.50206322629E+02  0.58305714251E+02  0.00000000000E+00 0. -1.
         -2    1    5    5    0  503  0.16985213505E+03 -0.48505637740E+02  0.11127166884E+03  0.20876764347E+03  0.00000000000E+00 0.  1.
         -1    1    6    6    0  502 -0.72666914984E+03 -0.36932769449E+03 -0.22017693895E+03  0.84435116136E+03  0.00000000000E+00 0.  1.
<mgrwt>
<rscale>  0 0.22694785E+04</rscale>
<asrwt>0</asrwt>
<pdfrwt beam="1">  1        2 0.26207672E+00 0.22694785E+04</pdfrwt>
<pdfrwt beam="2">  1       -2 0.11628856E+00 0.22694785E+04</pdfrwt>
<totfact> 0.50919681E+00</totfact>
</mgrwt>
</event>
<event>
12    1  0.1489025E-007  0.2459978E+04  0.7818608E-02  0.8417384E-01
         -2   -1    0    0    0  501 -0.00000000000E+00  0.00000000000E+00  0.19701588623E+04  0.19701588623E+04  0.00000000000E+00 0.  1.
          2   -1    0    0  501    0  0.00000000000E+00 -0.00000000000E+00 -0.76789406201E+03  0.76789406201E+03  0.00000000000E+00 0. -1.
         23    2    1    2    0    0  0.91076346322E+03  0.34623334107E+03  0.27835320820E+02  0.97909232450E+03  0.92083453570E+02 0.  0.
        254    2    1    2    0    0 -0.91076346322E+03 -0.34623334107E+03  0.11744294795E+04  0.17589605998E+04  0.87480865169E+03 0.  0.
        -24    2    4    4    0    0 -0.10496559427E+02 -0.59994018802E+02 -0.11849838786E+03  0.15539653507E+03  0.79979717029E+02 0.  0.
         24    2    4    4    0    0 -0.90026690379E+03 -0.28623932227E+03  0.12929278674E+04  0.16035640648E+04  0.85684257223E+02 0.  0.
         11    1    3    3    0    0  0.63832161557E+03  0.28028741877E+03  0.42117281296E+02  0.69841920607E+03  0.00000000000E+00 0. -1.
        -11    1    3    3    0    0  0.27244184764E+03  0.65945922302E+02 -0.14281960476E+02  0.28067311843E+03  0.00000000000E+00 0.  1.
          4    1    6    6  502    0 -0.52712848121E+03 -0.17478494130E+03  0.82945761990E+03  0.99820546713E+03  0.00000000000E+00 0. -1.
          3    1    5    5  503    0  0.73953043828E+01 -0.75148197784E+02 -0.10116038206E+03  0.12623535581E+03  0.00000000000E+00 0. -1.
         -4    1    5    5    0  503 -0.17891863809E+02  0.15154178982E+02 -0.17338005801E+02  0.29161179269E+02  0.00000000000E+00 0.  1.
         -3    1    6    6    0  502 -0.37313842258E+03 -0.11145438097E+03  0.46347024745E+03  0.60535859763E+03  0.00000000000E+00 0.  1.
<mgrwt>
<rscale>  0 0.24599783E+04</rscale>
<asrwt>0</asrwt>
<pdfrwt beam="1">  1        2 0.11813755E+00 0.24599783E+04</pdfrwt>
<pdfrwt beam="2">  1       -2 0.30310136E+00 0.24599783E+04</pdfrwt>
<totfact> 0.99015950E-01</totfact>
</mgrwt>
</event>
<event>
12    1  0.1489025E-007  0.2123434E+04  0.7818608E-02  0.8550990E-01
         -2   -1    0    0    0  501 -0.00000000000E+00  0.00000000000E+00  0.50750471907E+03  0.50750471907E+03  0.00000000000E+00 0.  1.
          2   -1    0    0  501    0  0.00000000000E+00 -0.00000000000E+00 -0.22211483142E+04  0.22211483142E+04  0.00000000000E+00 0. -1.
         23    2    1    2    0    0 -0.79271274323E+03 -0.25558635767E+03 -0.98437942485E+03  0.12928009619E+04  0.92809458684E+02 0.  0.
        254    2    1    2    0    0  0.79271274323E+03  0.25558635767E+03 -0.72926417031E+03  0.14358520714E+04  0.91439983664E+03 0.  0.
        -24    2    4    4    0    0  0.97205586459E+03  0.32283379660E+03 -0.57782824720E+03  0.11788140509E+04  0.81257732891E+02 0.  0.
         24    2    4    4    0    0 -0.17934312136E+03 -0.67247438937E+02 -0.15143592312E+03  0.25703802049E+03  0.80308977985E+02 0.  0.
         13    1    3    3    0    0 -0.45470656300E+03 -0.14695695034E+03 -0.49307487025E+03  0.68664199651E+03  0.00000000000E+00 0. -1.
        -13    1    3    3    0    0 -0.33800618022E+03 -0.10862940733E+03 -0.49130455460E+03  0.60615896543E+03  0.00000000000E+00 0.  1.
          4    1    6    6  502    0 -0.10060687503E+03 -0.27225720653E+01 -0.46595577203E+02  0.11090673342E+03  0.00000000000E+00 0. -1.
          1    1    5    5  503    0  0.52538375246E+03  0.15246957859E+03 -0.34812450941E+03  0.64843329171E+03  0.00000000000E+00 0. -1.
         -2    1    5    5    0  503  0.44667211214E+03  0.17036421801E+03 -0.22970373779E+03  0.53038075916E+03  0.00000000000E+00 0.  1.
         -3    1    6    6    0  502 -0.78736246331E+02 -0.64524866871E+02 -0.10484034591E+03  0.14613128708E+03  0.00000000000E+00 0.  1.
<mgrwt>
<rscale>  0 0.21234342E+04</rscale>
<asrwt>0</asrwt>
<pdfrwt beam="1">  1        2 0.34171513E+00 0.21234342E+04</pdfrwt>
<pdfrwt beam="2">  1       -2 0.78077647E-01 0.21234342E+04</pdfrwt>
<totfact> 0.67458081E+00</totfact>
</mgrwt>
</event>
<event>
12    1  0.1489025E-007  0.1331693E+04  0.7818608E-02  0.9004803E-01
         -1   -1    0    0    0  501 -0.00000000000E+00  0.00000000000E+00  0.24130438132E+03  0.24130438132E+03  0.00000000000E+00 0.  1.
          1   -1    0    0  501    0  0.00000000000E+00 -0.00000000000E+00 -0.18373120513E+04  0.18373120513E+04  0.00000000000E+00 0. -1.
         23    2    1    2    0    0 -0.74584098092E+02 -0.87973374500E+02  0.84228409803E+02  0.16966959222E+03  0.91603729159E+02 0.  0.
        254    2    1    2    0    0  0.74584098092E+02  0.87973374500E+02 -0.16802360798E+04  0.19089468404E+04  0.89865602619E+03 0.  0.
        -24    2    4    4    0    0  0.33675426301E+03  0.34297563726E+03 -0.64612245123E+03  0.80915047545E+03  0.78832407828E+02 0.  0.
         24    2    4    4    0    0 -0.26217016492E+03 -0.25500226276E+03 -0.10341136286E+04  0.10997963650E+04  0.80010613321E+02 0.  0.
         11    1    3    3    0    0 -0.80666077439E+01 -0.70940037845E+02  0.16616553179E+02  0.73305313378E+02  0.00000000000E+00 0. -1.
        -11    1    3    3    0    0 -0.66517490348E+02 -0.17033336655E+02  0.67611856624E+02  0.96364278838E+02  0.00000000000E+00 0.  1.
          4    1    6    6  502    0 -0.25968733118E+03 -0.25628421161E+03 -0.98169461107E+03  0.10473029249E+04  0.00000000000E+00 0. -1.
          3    1    5    5  503    0  0.19952125262E+03  0.23484711809E+03 -0.46186030244E+03  0.55522683481E+03  0.00000000000E+00 0. -1.
         -4    1    5    5    0  503  0.13723301039E+03  0.10812851917E+03 -0.18426214879E+03  0.25392364064E+03  0.00000000000E+00 0.  1.
         -3    1    6    6    0  502 -0.24828337465E+01  0.12819488494E+01 -0.52419017498E+02  0.52493440083E+02  0.00000000000E+00 0.  1.
<mgrwt>
<rscale>  0 0.13316928E+04</rscale>
<asrwt>0</asrwt>
<pdfrwt beam="1">  1        1 0.28266340E+00 0.13316928E+04</pdfrwt>
<pdfrwt beam="2">  1       -1 0.37123751E-01 0.13316928E+04</pdfrwt>
<totfact> 0.26298438E+01</totfact>
</mgrwt>
</event>
<event>
12    1  0.1489025E-007  0.1952040E+04  0.7818608E-02  0.8629378E-01
         -2   -1    0    0    0  501 -0.00000000000E+00  0.00000000000E+00  0.11467538315E+04  0.11467538315E+04  0.00000000000E+00 0. -1.
          2   -1    0    0  501    0  0.00000000000E+00 -0.00000000000E+00 -0.83070583885E+03  0.83070583885E+03  0.00000000000E+00 0.  1.
         23    2    1    2    0    0 -0.67570125424E+03 -0.34737693977E+03  0.24351465206E+03  0.80291610573E+03  0.90177401898E+02 0.  0.
        254    2    1    2    0    0  0.67570125424E+03  0.34737693977E+03  0.72533340592E+02  0.11745435646E+04  0.89277577052E+03 0.  0.
        -24    2    4    4    0    0  0.36821462393E+03  0.17611745226E+03  0.47691833113E+03  0.63248237951E+03  0.77353083721E+02 0.  0.
         24    2    4    4    0    0  0.30748663031E+03  0.17125948751E+03 -0.40438499053E+03  0.54206118511E+03  0.80157769135E+02 0.  0.
         13    1    3    3    0    0 -0.27267908354E+03 -0.16471112489E+03  0.14283460724E+03  0.34912084195E+03  0.00000000000E+00 0. -1.
        -13    1    3    3    0    0 -0.40302217071E+03 -0.18266581488E+03  0.10068004482E+03  0.45379526378E+03  0.00000000000E+00 0.  1.
          4    1    6    6  502    0  0.25860319685E+03  0.11970596377E+03 -0.35645220906E+03  0.45635874981E+03  0.00000000000E+00 0. -1.
          3    1    5    5  503    0  0.28941582773E+03  0.16281402466E+03  0.41430877320E+03  0.53096298131E+03  0.00000000000E+00 0. -1.
         -4    1    5    5    0  503  0.78798796200E+02  0.13303427608E+02  0.62609557924E+02  0.10151939821E+03  0.00000000000E+00 0.  1.
         -3    1    6    6    0  502  0.48883433456E+02  0.51553523736E+02 -0.47932781468E+02  0.85702435294E+02  0.00000000000E+00 0.  1.
<mgrwt>
<rscale>  0 0.19520401E+04</rscale>
<asrwt>0</asrwt>
<pdfrwt beam="1">  1        2 0.12780090E+00 0.19520401E+04</pdfrwt>
<pdfrwt beam="2">  1       -2 0.17642367E+00 0.19520401E+04</pdfrwt>
<totfact> 0.58616666E+00</totfact>
</mgrwt>
</event>
<event>
12    1  0.1489025E-007  0.1257701E+04  0.7818608E-02  0.9063798E-01
          1   -1    0    0  501    0  0.00000000000E+00  0.00000000000E+00  0.10660749652E+04  0.10660749652E+04  0.00000000000E+00 0. -1.
         -1   -1    0    0    0  501 -0.00000000000E+00 -0.00000000000E+00 -0.37094286587E+03  0.37094286587E+03  0.00000000000E+00 0.  1.
         23    2    1    2    0    0  0.50349615088E+02  0.20226096982E+03  0.41135801111E+03  0.47005067941E+03  0.91036499603E+02 0.  0.
        254    2    1    2    0    0 -0.50349615088E+02 -0.20226096982E+03  0.28377408825E+03  0.96696715169E+03  0.90058489640E+03 0.  0.
        -24    2    4    4    0    0  0.19532322143E+03 -0.45749134020E+03 -0.40728284252E+01  0.50392687376E+03  0.80474958716E+02 0.  0.
         24    2    4    4    0    0 -0.24567283651E+03  0.25523037038E+03  0.28784691667E+03  0.46304027793E+03  0.77799530744E+02 0.  0.
         13    1    3    3    0    0  0.35855120111E+02  0.51763022139E+02  0.57607680462E+02  0.85344273079E+02  0.00000000000E+00 0. -1.
        -13    1    3    3    0    0  0.14494494976E+02  0.15049794768E+03  0.35375033065E+03  0.38470640633E+03  0.00000000000E+00 0.  1.
          2    1    6    6  502    0  0.92361020126E+00  0.86015597512E+01 -0.27499871586E+01  0.90775721054E+01  0.00000000000E+00 0. -1.
          1    1    5    5  503    0  0.56821054592E+02 -0.22095184640E+03 -0.22224911880E+02  0.22922106662E+03  0.00000000000E+00 0. -1.
         -2    1    5    5    0  503  0.13850216683E+03 -0.23653949379E+03  0.18152083455E+02  0.27470580714E+03  0.00000000000E+00 0.  1.
         -1    1    6    6    0  502 -0.24659644671E+03  0.24662881062E+03  0.29059690383E+03  0.45396270582E+03  0.00000000000E+00 0.  1.
<mgrwt>
<rscale>  0 0.12577009E+04</rscale>
<asrwt>0</asrwt>
<pdfrwt beam="1">  1        1 0.16401153E+00 0.12577009E+04</pdfrwt>
<pdfrwt beam="2">  1       -1 0.57068134E-01 0.12577009E+04</pdfrwt>
<totfact> 0.41217603E+01</totfact>
</mgrwt>
</event>
<event>
12    1  0.1489025E-007  0.1792046E+04  0.7818608E-02  0.8710541E-01
         -1   -1    0    0    0  501 -0.00000000000E+00  0.00000000000E+00  0.55336267924E+03  0.55336267924E+03  0.00000000000E+00 0.  1.
          1   -1    0    0  501    0  0.00000000000E+00 -0.00000000000E+00 -0.14508691874E+04  0.14508691874E+04  0.00000000000E+00 0. -1.
         23    2    1    2    0    0 -0.19396834813E+03  0.63632981016E+03 -0.29596913262E+03  0.73381979886E+03  0.91402529267E+02 0.  0.
        254    2    1    2    0    0  0.19396834813E+03 -0.63632981016E+03 -0.60153737555E+03  0.12704120678E+04  0.89975566708E+03 0.  0.
        -24    2    4    4    0    0  0.22409981329E+03 -0.68636140581E+03 -0.70096404151E+02  0.72976799549E+03  0.79593439787E+02 0.  0.
         24    2    4    4    0    0 -0.30131465167E+02  0.50031595652E+02 -0.53144097140E+03  0.54064407231E+03  0.80345759570E+02 0.  0.
         13    1    3    3    0    0 -0.80954196927E+02  0.30656174739E+03 -0.18924595125E+03  0.36925291742E+03  0.00000000000E+00 0. -1.
        -13    1    3    3    0    0 -0.11301415120E+03  0.32976806277E+03 -0.10672318137E+03  0.36456688143E+03  0.00000000000E+00 0.  1.
          4    1    6    6  502    0  0.48167054642E+01  0.56248858169E+02 -0.41756009194E+03  0.42135918772E+03  0.00000000000E+00 0. -1.
          1    1    5    5  503    0  0.22183259158E+03 -0.68529296150E+03 -0.75064401643E+02  0.72420356680E+03  0.00000000000E+00 0. -1.
         -2    1    5    5    0  503  0.22672217167E+01 -0.10684443105E+01  0.49679974925E+01  0.55644286897E+01  0.00000000000E+00 0.  1.
         -3    1    6    6    0  502 -0.34948170632E+02 -0.62172625172E+01 -0.11388087946E+03  0.11928488458E+03  0.00000000000E+00 0.  1.
<mgrwt>
<rscale>  0 0.17920456E+04</rscale>
<asrwt>0</asrwt>
<pdfrwt beam="1">  1        1 0.22321064E+00 0.17920456E+04</pdfrwt>
<pdfrwt beam="2">  1       -1 0.85132720E-01 0.17920456E+04</pdfrwt>
<totfact> 0.91183957E+00</totfact>
</mgrwt>
</event>
<event>
12    1  0.1489025E-007  0.1346368E+04  0.7818608E-02  0.8993582E-01
         -2   -1    0    0    0  501 -0.00000000000E+00  0.00000000000E+00  0.16433412006E+03  0.16433412006E+03  0.00000000000E+00 0.  1.
          2   -1    0    0  501    0  0.00000000000E+00 -0.00000000000E+00 -0.27576538161E+04  0.27576538161E+04  0.00000000000E+00 0. -1.
         23    2    1    2    0    0  0.86552189248E+02 -0.19571770569E+03 -0.13746145083E+04  0.13940766752E+04  0.89933464369E+02 0.  0.
        254    2    1    2    0    0 -0.86552189248E+02  0.19571770569E+03 -0.12187051877E+04  0.15279112609E+04  0.89636699240E+03 0.  0.
        -24    2    4    4    0    0 -0.33821092248E+03  0.23513991660E+03 -0.18265879659E+03  0.45798218962E+03  0.81890424163E+02 0.  0.
         24    2    4    4    0    0  0.25165873323E+03 -0.39422210910E+02 -0.10360463911E+04  0.10699290713E+04  0.80435467744E+02 0.  0.
         11    1    3    3    0    0  0.89666340269E+02 -0.19544453295E+03 -0.11797239673E+04  0.11991610639E+04  0.00000000000E+00 0. -1.
        -11    1    3    3    0    0 -0.31141510211E+01 -0.27317273518E+00 -0.19489054102E+03  0.19491561133E+03  0.00000000000E+00 0.  1.
          4    1    6    6  502    0  0.32992009043E+02  0.19600994487E+02 -0.20557626100E+03  0.20912740312E+03  0.00000000000E+00 0. -1.
          1    1    5    5  503    0 -0.79300566454E+00  0.77083985283E+01 -0.16925488351E+02  0.18615059005E+02  0.00000000000E+00 0. -1.
         -2    1    5    5    0  503 -0.33741791682E+03  0.22743151807E+03 -0.16573330824E+03  0.43936713061E+03  0.00000000000E+00 0.  1.
         -3    1    6    6    0  502  0.21866672419E+03 -0.59023205398E+02 -0.83047013008E+03  0.86080166821E+03  0.00000000000E+00 0.  1.
<mgrwt>
<rscale>  0 0.13463679E+04</rscale>
<asrwt>0</asrwt>
<pdfrwt beam="1">  1        2 0.42425444E+00 0.13463679E+04</pdfrwt>
<pdfrwt beam="2">  1       -2 0.25282172E-01 0.13463679E+04</pdfrwt>
<totfact> 0.33920331E+01</totfact>
</mgrwt>
</event>
<event>
12    1  0.1489025E-007  0.1491621E+04  0.7818608E-02  0.8890044E-01
         -1   -1    0    0    0  501 -0.00000000000E+00  0.00000000000E+00  0.53173376613E+03  0.53173376613E+03  0.00000000000E+00 0.  1.
          1   -1    0    0  501    0  0.00000000000E+00 -0.00000000000E+00 -0.10460750354E+04  0.10460750354E+04  0.00000000000E+00 0. -1.
         23    2    1    2    0    0 -0.20173598832E+03 -0.31630356612E+03  0.13241004101E+03  0.40847016413E+03  0.92574840529E+02 0.  0.
        254    2    1    2    0    0  0.20173598832E+03  0.31630356612E+03 -0.64675131032E+03  0.11693386374E+04  0.89906631385E+03 0.  0.
        -24    2    4    4    0    0  0.45186765177E+03 -0.75104707781E+02 -0.16015997373E+03  0.49185007864E+03  0.80250799507E+02 0.  0.
         24    2    4    4    0    0 -0.25013166346E+03  0.39140827390E+03 -0.48659133659E+03  0.67748855881E+03  0.80332636753E+02 0.  0.
         13    1    3    3    0    0 -0.10792265116E+03 -0.22012137166E+03  0.12166316892E+03  0.27368347332E+03  0.00000000000E+00 0.  1.
        -13    1    3    3    0    0 -0.93813337156E+02 -0.96182194460E+02  0.10746872088E+02  0.13478669081E+03  0.00000000000E+00 0. -1.
          4    1    6    6  502    0 -0.24821692585E+03  0.39172939959E+03 -0.46820094859E+03  0.65899597346E+03  0.00000000000E+00 0. -1.
          1    1    5    5  503    0  0.36572188764E+03 -0.27854202888E+02 -0.12507151240E+03  0.38751934008E+03  0.00000000000E+00 0. -1.
         -2    1    5    5    0  503  0.86145764127E+02 -0.47250504893E+02 -0.35088461328E+02  0.10433073856E+03  0.00000000000E+00 0.  1.
         -3    1    6    6    0  502 -0.19147376075E+01 -0.32112568834E+00 -0.18390388006E+02  0.18492585348E+02  0.00000000000E+00 0.  1.
<mgrwt>
<rscale>  0 0.14916212E+04</rscale>
<asrwt>0</asrwt>
<pdfrwt beam="1">  1        1 0.16093462E+00 0.14916212E+04</pdfrwt>
<pdfrwt beam="2">  1       -1 0.81805195E-01 0.14916212E+04</pdfrwt>
<totfact> 0.20065523E+01</totfact>
</mgrwt>
</event>
<event>
12    1  0.1489025E-007  0.1426177E+04  0.7818608E-02  0.8935085E-01
          1   -1    0    0  501    0  0.00000000000E+00  0.00000000000E+00  0.81010410364E+03  0.81010410364E+03  0.00000000000E+00 0. -1.
         -1   -1    0    0    0  501 -0.00000000000E+00 -0.00000000000E+00 -0.62769118472E+03  0.62769118472E+03  0.00000000000E+00 0.  1.
         23    2    1    2    0    0 -0.23460265230E+03 -0.47658745025E+02 -0.27430195487E+03  0.37562797445E+03  0.92439452082E+02 0.  0.
        254    2    1    2    0    0  0.23460265230E+03  0.47658745025E+02  0.45671487379E+03  0.10621673139E+04  0.92860172645E+03 0.  0.
        -24    2    4    4    0    0 -0.11570817530E+03 -0.87055407790E+02 -0.22530673497E+03  0.27969591445E+03  0.80620430912E+02 0.  0.
         24    2    4    4    0    0  0.35031082760E+03  0.13471415281E+03  0.68202160876E+03  0.78247139946E+03  0.79009096079E+02 0.  0.
         13    1    3    3    0    0 -0.19555695440E+03 -0.21064284947E+02 -0.26049278881E+03  0.32640882270E+03  0.00000000000E+00 0.  1.
        -13    1    3    3    0    0 -0.39045697903E+02 -0.26594460078E+02 -0.13809166051E+02  0.49219151746E+02  0.00000000000E+00 0. -1.
          2    1    6    6  502    0  0.23799430800E+03  0.10455500688E+03  0.53675428665E+03  0.59638762927E+03  0.00000000000E+00 0. -1.
          1    1    5    5  503    0 -0.12644873317E+02 -0.30636362855E+02 -0.11072775387E+03  0.11558163793E+03  0.00000000000E+00 0. -1.
         -2    1    5    5    0  503 -0.10306330198E+03 -0.56419044935E+02 -0.11457898110E+03  0.16411427652E+03  0.00000000000E+00 0.  1.
         -1    1    6    6    0  502  0.11231651960E+03  0.30159145931E+02  0.14526732211E+03  0.18608377019E+03  0.00000000000E+00 0.  1.
<mgrwt>
<rscale>  0 0.14261770E+04</rscale>
<asrwt>0</asrwt>
<pdfrwt beam="1">  1        1 0.12463140E+00 0.14261770E+04</pdfrwt>
<pdfrwt beam="2">  1       -1 0.96567874E-01 0.14261770E+04</pdfrwt>
<totfact> 0.21764824E+01</totfact>
</mgrwt>
</event>
<event>
12    1  0.1489025E-007  0.2198712E+04  0.7818608E-02  0.8518964E-01
         -1   -1    0    0    0  501 -0.00000000000E+00  0.00000000000E+00  0.63141331735E+03  0.63141331735E+03  0.00000000000E+00 0.  1.
          1   -1    0    0  501    0  0.00000000000E+00 -0.00000000000E+00 -0.19140925953E+04  0.19140925953E+04  0.00000000000E+00 0. -1.
         23    2    1    2    0    0  0.67187574630E+03  0.37751803498E+03  0.32572059419E+02  0.77678487070E+03  0.91634660964E+02 0.  0.
        254    2    1    2    0    0 -0.67187574630E+03 -0.37751803498E+03 -0.13152513374E+04  0.17687210420E+04  0.89696775784E+03 0.  0.
        -24    2    4    4    0    0  0.18011174384E+02 -0.64748740126E+01  0.11183596131E+03  0.13849330553E+03  0.79415282150E+02 0.  0.
         24    2    4    4    0    0 -0.68988692069E+03 -0.37104316097E+03 -0.14270872987E+04  0.16302277365E+04  0.86297878993E+02 0.  0.
         13    1    3    3    0    0  0.20324194002E+03  0.12922990109E+03 -0.30221593578E+02  0.24273647901E+03  0.00000000000E+00 0. -1.
        -13    1    3    3    0    0  0.46863380628E+03  0.24828813389E+03  0.62793652998E+02  0.53404839169E+03  0.00000000000E+00 0.  1.
          2    1    6    6  502    0 -0.44405205010E+03 -0.19632555062E+03 -0.84069916138E+03  0.97082491983E+03  0.00000000000E+00 0. -1.
          3    1    5    5  503    0  0.33400147807E+02  0.22425743688E+02  0.29503955025E+02  0.49889550164E+02  0.00000000000E+00 0. -1.
         -4    1    5    5    0  503 -0.15388973423E+02 -0.28900617700E+02  0.82332006283E+02  0.88603755367E+02  0.00000000000E+00 0.  1.
         -1    1    6    6    0  502 -0.24583487059E+03 -0.17471761035E+03 -0.58638813734E+03  0.65940281663E+03  0.00000000000E+00 0.  1.
<mgrwt>
<rscale>  0 0.21987119E+04</rscale>
<asrwt>0</asrwt>
<pdfrwt beam="1">  1        1 0.29447578E+00 0.21987119E+04</pdfrwt>
<pdfrwt beam="2">  1       -1 0.97140512E-01 0.21987119E+04</pdfrwt>
<totfact> 0.31638210E+00</totfact>
</mgrwt>
</event>
<event>
12    1  0.1489025E-007  0.1934136E+04  0.7818608E-02  0.8638049E-01
         -1   -1    0    0    0  501 -0.00000000000E+00  0.00000000000E+00  0.30731498127E+03  0.30731498127E+03  0.00000000000E+00 0.  1.
          1   -1    0    0  501    0  0.00000000000E+00 -0.00000000000E+00 -0.30431993841E+04  0.30431993841E+04  0.00000000000E+00 0. -1.
         23    2    1    2    0    0 -0.73860379274E+03  0.13297059989E+02 -0.11363147674E+04  0.13589902319E+04  0.99653526606E+02 0.  0.
        254    2    1    2    0    0  0.73860379274E+03 -0.13297059989E+02 -0.15995696355E+04  0.19915241335E+04  0.92834960070E+03 0.  0.
        -24    2    4    4    0    0  0.17502212050E+02  0.36113182407E+03 -0.49249468563E+03  0.61604364000E+03  0.78969799445E+02 0.  0.
         24    2    4    4    0    0  0.72110158069E+03 -0.37442888406E+03 -0.11070749498E+04  0.13754804935E+04  0.78403855310E+02 0.  0.
         13    1    3    3    0    0 -0.51875763271E+03  0.15012507071E+02 -0.71157571799E+03  0.88072405400E+03  0.00000000000E+00 0.  1.
        -13    1    3    3    0    0 -0.21984616002E+03 -0.17154470827E+01 -0.42473904940E+03  0.47826617790E+03  0.00000000000E+00 0. -1.
          2    1    6    6  502    0  0.47784597636E+03 -0.27150640462E+03 -0.69546306534E+03  0.88640926221E+03  0.00000000000E+00 0. -1.
          3    1    5    5  503    0  0.24525999049E+02  0.29834811639E+03 -0.35253807944E+03  0.46248915732E+03  0.00000000000E+00 0. -1.
         -4    1    5    5    0  503 -0.70237869991E+01  0.62783707680E+02 -0.13995660620E+03  0.15355448268E+03  0.00000000000E+00 0.  1.
         -1    1    6    6    0  502  0.24325560432E+03 -0.10292247944E+03 -0.41161188448E+03  0.48907123127E+03  0.00000000000E+00 0.  1.
<mgrwt>
<rscale>  0 0.19341363E+04</rscale>
<asrwt>0</asrwt>
<pdfrwt beam="1">  1        1 0.46818452E+00 0.19341363E+04</pdfrwt>
<pdfrwt beam="2">  1       -1 0.47279228E-01 0.19341363E+04</pdfrwt>
<totfact> 0.23197136E+00</totfact>
</mgrwt>
</event>
<event>
12    1  0.1489025E-007  0.1816198E+04  0.7818608E-02  0.8697733E-01
          2   -1    0    0  501    0  0.00000000000E+00  0.00000000000E+00  0.26948080037E+04  0.26948080037E+04  0.00000000000E+00 0. -1.
         -2   -1    0    0    0  501 -0.00000000000E+00 -0.00000000000E+00 -0.30601205192E+03  0.30601205192E+03  0.00000000000E+00 0.  1.
         23    2    1    2    0    0 -0.45590310439E+03 -0.47237544474E+03  0.12192205978E+04  0.13877325906E+04  0.91195807542E+02 0.  0.
        254    2    1    2    0    0  0.45590310439E+03  0.47237544474E+03  0.11695753540E+04  0.16130874651E+04  0.89619108456E+03 0.  0.
        -24    2    4    4    0    0  0.41390007197E+03  0.34481731824E+03  0.12690582394E+03  0.55925491638E+03  0.80303927728E+02 0.  0.
         24    2    4    4    0    0  0.42003032416E+02  0.12755812651E+03  0.10426695300E+04  0.10538325487E+04  0.73266373787E+02 0.  0.
         13    1    3    3    0    0 -0.38136614965E+03 -0.39431438564E+03  0.10823374345E+04  0.12134159621E+04  0.00000000000E+00 0.  1.
        -13    1    3    3    0    0 -0.74536954736E+02 -0.78061059107E+02  0.13688316332E+03  0.17431662850E+03  0.00000000000E+00 0. -1.
          2    1    6    6  502    0  0.67675648307E+01  0.80194990764E+02  0.80204220091E+03  0.80606992781E+03  0.00000000000E+00 0. -1.
          3    1    5    5  503    0  0.22444616216E+03  0.21156949565E+03  0.10823762236E+03  0.32688394590E+03  0.00000000000E+00 0. -1.
         -4    1    5    5    0  503  0.18945390981E+03  0.13324782259E+03  0.18668201580E+02  0.23237097047E+03  0.00000000000E+00 0.  1.
         -1    1    6    6    0  502  0.35235467585E+02  0.47363135743E+02  0.24062732911E+03  0.24776262090E+03  0.00000000000E+00 0.  1.
<mgrwt>
<rscale>  0 0.18161979E+04</rscale>
<asrwt>0</asrwt>
<pdfrwt beam="1">  1        2 0.41458583E+00 0.18161979E+04</pdfrwt>
<pdfrwt beam="2">  1       -2 0.47078779E-01 0.18161979E+04</pdfrwt>
<totfact> 0.10804916E+01</totfact>
</mgrwt>
</event>
<event>
12    1  0.1751058E-007  0.2136579E+04  0.7818608E-02  0.8545299E-01
          2   -1    0    0  501    0  0.00000000000E+00  0.00000000000E+00  0.25001547367E+04  0.25001547367E+04  0.00000000000E+00 0. -1.
         -2   -1    0    0    0  501 -0.00000000000E+00 -0.00000000000E+00 -0.45646889665E+03  0.45646889665E+03  0.00000000000E+00 0.  1.
         23    2    1    2    0    0  0.83244459837E+03 -0.20790684884E+03  0.10867833723E+04  0.13874656626E+04  0.88168018761E+02 0.  0.
        254    2    1    2    0    0 -0.83244459837E+03  0.20790684884E+03  0.95690246770E+03  0.15691579707E+04  0.90022504803E+03 0.  0.
        -24    2    4    4    0    0 -0.36684169606E+03 -0.33832182895E+03  0.51661606334E+03  0.72277415386E+03  0.80472546097E+02 0.  0.
         24    2    4    4    0    0 -0.46560290230E+03  0.54622867780E+03  0.44028640437E+03  0.84638381682E+03  0.85799862600E+02 0.  0.
         13    1    3    3    0    0  0.78866194074E+03 -0.20330636249E+03  0.99622267655E+03  0.12867714463E+04  0.00000000000E+00 0. -1.
        -13    1    3    3    0    0  0.43782657629E+02 -0.46004863507E+01  0.90560695749E+02  0.10069421631E+03  0.00000000000E+00 0.  1.
          2    1    6    6  502    0 -0.45256774035E+03  0.49832780791E+03  0.40762658288E+03  0.78696098684E+03  0.00000000000E+00 0. -1.
          3    1    5    5  503    0 -0.27959692785E+03 -0.29911510964E+03  0.40745507147E+03  0.57763650001E+03  0.00000000000E+00 0. -1.
         -4    1    5    5    0  503 -0.87244768208E+02 -0.39206719312E+02  0.10916099187E+03  0.14513765385E+03  0.00000000000E+00 0.  1.
         -1    1    6    6    0  502 -0.13035161956E+02  0.47900869881E+02  0.32659821488E+02  0.59422829975E+02  0.00000000000E+00 0.  1.
<mgrwt>
<rscale>  0 0.21365794E+04</rscale>
<asrwt>0</asrwt>
<pdfrwt beam="1">  1        2 0.38463918E+00 0.21365794E+04</pdfrwt>
<pdfrwt beam="2">  1       -2 0.70225985E-01 0.21365794E+04</pdfrwt>
<totfact> 0.59040234E+00</totfact>
</mgrwt>
</event>
<event>
12    1  0.1489025E-007  0.1264815E+04  0.7818608E-02  0.9057942E-01
         -1   -1    0    0    0  501 -0.00000000000E+00  0.00000000000E+00  0.21655061941E+03  0.21655061941E+03  0.00000000000E+00 0.  1.
          1   -1    0    0  501    0  0.00000000000E+00 -0.00000000000E+00 -0.18468638967E+04  0.18468638967E+04  0.00000000000E+00 0. -1.
         23    2    1    2    0    0 -0.47825828652E+02  0.56041939006E+02  0.68500836549E+02  0.13489912840E+03  0.89874364646E+02 0.  0.
        254    2    1    2    0    0  0.47825828652E+02 -0.56041939006E+02 -0.16988141138E+04  0.19285153877E+04  0.90982097053E+03 0.  0.
        -24    2    4    4    0    0  0.57533582239E+02  0.36037842972E+03 -0.33868952044E+03  0.50372733074E+03  0.76471607689E+02 0.  0.
         24    2    4    4    0    0 -0.97077535872E+01 -0.41642036873E+03 -0.13601245934E+04  0.14247880570E+04  0.81129117621E+02 0.  0.
         13    1    3    3    0    0 -0.37662458176E+02  0.70960435570E+02  0.80097515569E+02  0.11344362553E+03  0.00000000000E+00 0.  1.
        -13    1    3    3    0    0 -0.10163370476E+02 -0.14918496564E+02 -0.11596679020E+02  0.21455502871E+02  0.00000000000E+00 0. -1.
          4    1    6    6  502    0  0.25210856138E+02 -0.11232307164E+03 -0.45362099690E+03  0.46800007321E+03  0.00000000000E+00 0. -1.
          3    1    5    5  503    0  0.27162092386E+02  0.24749654194E+03 -0.18282009389E+03  0.30889400166E+03  0.00000000000E+00 0. -1.
         -4    1    5    5    0  503  0.30371489853E+02  0.11288188779E+03 -0.15586942654E+03  0.19483332907E+03  0.00000000000E+00 0.  1.
         -3    1    6    6    0  502 -0.34918609725E+02 -0.30409729709E+03 -0.90650359648E+03  0.95678798374E+03  0.00000000000E+00 0.  1.
<mgrwt>
<rscale>  0 0.12648154E+04</rscale>
<asrwt>0</asrwt>
<pdfrwt beam="1">  1        1 0.28413291E+00 0.12648154E+04</pdfrwt>
<pdfrwt beam="2">  1       -1 0.33315480E-01 0.12648154E+04</pdfrwt>
<totfact> 0.31632749E+01</totfact>
</mgrwt>
</event>
<event>
12    1  0.1489025E-007  0.1146391E+04  0.7818608E-02  0.9161119E-01
          1   -1    0    0  501    0  0.00000000000E+00  0.00000000000E+00  0.22068253796E+03  0.22068253796E+03  0.00000000000E+00 0. -1.
         -1   -1    0    0    0  501 -0.00000000000E+00 -0.00000000000E+00 -0.14888046425E+04  0.14888046425E+04  0.00000000000E+00 0.  1.
         23    2    1    2    0    0 -0.75243158066E+02 -0.13272791828E+03 -0.44543240090E+03  0.47985186772E+03  0.92571907480E+02 0.  0.
        254    2    1    2    0    0  0.75243158066E+02  0.13272791828E+03 -0.82268970367E+03  0.12296353128E+04  0.90105850019E+03 0.  0.
        -24    2    4    4    0    0  0.31165857105E+03  0.42096719653E+03 -0.53073950256E+03  0.74981095432E+03  0.78661313141E+02 0.  0.
         24    2    4    4    0    0 -0.23641541299E+03 -0.28823927824E+03 -0.29195020112E+03  0.47982435846E+03  0.77603904642E+02 0.  0.
         11    1    3    3    0    0 -0.95966011392E+02 -0.11640613629E+03 -0.35696980928E+03  0.38754007360E+03  0.00000000000E+00 0. -1.
        -11    1    3    3    0    0  0.20722853326E+02 -0.16321781996E+02 -0.88462591619E+02  0.92311794119E+02  0.00000000000E+00 0.  1.
          4    1    6    6  502    0 -0.12224447870E+02 -0.44413907769E+02 -0.59134679021E+02  0.74959606402E+02  0.00000000000E+00 0. -1.
          3    1    5    5  503    0  0.37801424843E+02  0.82557736244E+02 -0.61143842169E+02  0.10946824640E+03  0.00000000000E+00 0. -1.
         -4    1    5    5    0  503  0.27385714621E+03  0.33840946028E+03 -0.46959566039E+03  0.64034270792E+03  0.00000000000E+00 0.  1.
         -3    1    6    6    0  502 -0.22419096512E+03 -0.24382537047E+03 -0.23281552210E+03  0.40486475205E+03  0.00000000000E+00 0.  1.
<mgrwt>
<rscale>  0 0.11463912E+04</rscale>
<asrwt>0</asrwt>
<pdfrwt beam="1">  1        1 0.33951158E-01 0.11463912E+04</pdfrwt>
<pdfrwt beam="2">  1       -1 0.22904688E+00 0.11463912E+04</pdfrwt>
<totfact> 0.12472100E+01</totfact>
</mgrwt>
</event>
<event>
12    1  0.1489025E-007  0.2683838E+04  0.7818608E-02  0.8340268E-01
         -1   -1    0    0    0  501 -0.00000000000E+00  0.00000000000E+00  0.99143935052E+03  0.99143935052E+03  0.00000000000E+00 0.  1.
          1   -1    0    0  501    0  0.00000000000E+00 -0.00000000000E+00 -0.18162951308E+04  0.18162951308E+04  0.00000000000E+00 0. -1.
         23    2    1    2    0    0 -0.83220792569E+03 -0.83956372818E+03 -0.36765503915E+03  0.12412490754E+04  0.89954177502E+02 0.  0.
        254    2    1    2    0    0  0.83220792569E+03  0.83956372818E+03 -0.45720074118E+03  0.15664854060E+04  0.92054697011E+03 0.  0.
        -24    2    4    4    0    0  0.52441527993E+03  0.99541073021E+03 -0.44201361572E+03  0.12120868702E+04  0.89020428965E+02 0.  0.
         24    2    4    4    0    0  0.30779264576E+03 -0.15584700203E+03 -0.15187125455E+02  0.35439853580E+03  0.79643408831E+02 0.  0.
         13    1    3    3    0    0 -0.40898913413E+03 -0.35559676281E+03 -0.18905914271E+03  0.57399000775E+03  0.00000000000E+00 0.  1.
        -13    1    3    3    0    0 -0.42321879156E+03 -0.48396696538E+03 -0.17859589644E+03  0.66725906763E+03  0.00000000000E+00 0. -1.
          2    1    6    6  502    0  0.14425061159E+03 -0.11750640035E+03 -0.52214902115E+01  0.18612699166E+03  0.00000000000E+00 0. -1.
          3    1    5    5  503    0  0.58616312001E+02  0.61376065322E+02 -0.31902193377E+02  0.90667763672E+02  0.00000000000E+00 0. -1.
         -4    1    5    5    0  503  0.46579896793E+03  0.93403466489E+03 -0.41011142234E+03  0.11214191065E+04  0.00000000000E+00 0.  1.
         -1    1    6    6    0  502  0.16354203418E+03 -0.38340601678E+02 -0.99656352436E+01  0.16827154413E+03  0.00000000000E+00 0.  1.
<mgrwt>
<rscale>  0 0.26838379E+04</rscale>
<asrwt>0</asrwt>
<pdfrwt beam="1">  1        1 0.27943002E+00 0.26838379E+04</pdfrwt>
<pdfrwt beam="2">  1       -1 0.15252913E+00 0.26838379E+04</pdfrwt>
<totfact> 0.11578236E+00</totfact>
</mgrwt>
</event>
<event>
12    1  0.1489025E-007  0.1439592E+04  0.7818608E-02  0.8925648E-01
         -2   -1    0    0    0  501 -0.00000000000E+00  0.00000000000E+00  0.71037021609E+03  0.71037021609E+03  0.00000000000E+00 0.  1.
          2   -1    0    0  501    0  0.00000000000E+00 -0.00000000000E+00 -0.72934668259E+03  0.72934668259E+03  0.00000000000E+00 0. -1.
         23    2    1    2    0    0 -0.21943854189E+03 -0.30422931158E+02  0.37063543380E+03  0.44094780985E+03  0.89361724545E+02 0.  0.
        254    2    1    2    0    0  0.21943854189E+03  0.30422931158E+02 -0.38961190030E+03  0.99876908884E+03  0.89256004367E+03 0.  0.
        -24    2    4    4    0    0 -0.54880439477E+02 -0.39481648866E+03 -0.13634911486E+03  0.42841168881E+03  0.77804701826E+02 0.  0.
         24    2    4    4    0    0  0.27431898136E+03  0.42523941982E+03 -0.25326278544E+03  0.57035740003E+03  0.71316601013E+02 0.  0.
         13    1    3    3    0    0 -0.88990646490E+00  0.37593365218E+01  0.57118342764E+02  0.57248839505E+02  0.00000000000E+00 0. -1.
        -13    1    3    3    0    0 -0.21854863542E+03 -0.34182267680E+02  0.31351709104E+03  0.38369897034E+03  0.00000000000E+00 0.  1.
          4    1    6    6  502    0  0.24319748414E+03  0.34228498094E+03 -0.18661223511E+03  0.45948683416E+03  0.00000000000E+00 0. -1.
          1    1    5    5  503    0 -0.70931310362E+02 -0.30050568527E+03 -0.12048369956E+03  0.33143813831E+03  0.00000000000E+00 0. -1.
         -2    1    5    5    0  503  0.16050870885E+02 -0.94310803392E+02 -0.15865415303E+02  0.96973550494E+02  0.00000000000E+00 0.  1.
         -3    1    6    6    0  502  0.31121497226E+02  0.82954438877E+02 -0.66650550330E+02  0.11087056588E+03  0.00000000000E+00 0.  1.
<mgrwt>
<rscale>  0 0.14395918E+04</rscale>
<asrwt>0</asrwt>
<pdfrwt beam="1">  1        2 0.11220718E+00 0.14395918E+04</pdfrwt>
<pdfrwt beam="2">  1       -2 0.10928773E+00 0.14395918E+04</pdfrwt>
<totfact> 0.25186275E+01</totfact>
</mgrwt>
</event>
<event>
12    1  0.1489025E-007  0.1439130E+04  0.7818608E-02  0.8925971E-01
          2   -1    0    0  501    0  0.00000000000E+00  0.00000000000E+00  0.67580060978E+03  0.67580060978E+03  0.00000000000E+00 0.  1.
         -2   -1    0    0    0  501 -0.00000000000E+00 -0.00000000000E+00 -0.76616391287E+03  0.76616391287E+03  0.00000000000E+00 0. -1.
         23    2    1    2    0    0  0.33595949898E+02 -0.79451595944E+02 -0.44972589888E+03  0.46675118622E+03  0.90344018979E+02 0.  0.
        254    2    1    2    0    0 -0.33595949898E+02  0.79451595944E+02  0.35936259579E+03  0.97521333643E+03  0.90247345244E+03 0.  0.
        -24    2    4    4    0    0 -0.24706209212E+02  0.48247488874E+03  0.25135320103E+03  0.55029833729E+03  0.79103813523E+02 0.  0.
         24    2    4    4    0    0 -0.88897406859E+01 -0.40302329280E+03  0.10800939475E+03  0.42491499914E+03  0.79874433422E+02 0.  0.
         11    1    3    3    0    0 -0.23807695442E+02 -0.39212293560E+02 -0.26940630874E+03  0.27328404549E+03  0.00000000000E+00 0. -1.
        -11    1    3    3    0    0  0.57403645340E+02 -0.40239302385E+02 -0.18031959014E+03  0.19346714073E+03  0.00000000000E+00 0.  1.
          2    1    6    6  502    0  0.20163560115E+02 -0.34230781463E+03  0.99662069114E+02  0.35709065675E+03  0.00000000000E+00 0. -1.
          1    1    5    5  503    0  0.13578518972E+02  0.37516881562E+03  0.18621760290E+03  0.41906206225E+03  0.00000000000E+00 0. -1.
         -2    1    5    5    0  503 -0.38284728184E+02  0.10730607312E+03  0.65135598133E+02  0.13123627504E+03  0.00000000000E+00 0.  1.
         -1    1    6    6    0  502 -0.29053300801E+02 -0.60715478167E+02  0.83473256394E+01  0.67824342398E+02  0.00000000000E+00 0.  1.
<mgrwt>
<rscale>  0 0.14391303E+04</rscale>
<asrwt>0</asrwt>
<pdfrwt beam="1">  1        2 0.10396932E+00 0.14391303E+04</pdfrwt>
<pdfrwt beam="2">  1       -2 0.11787137E+00 0.14391303E+04</pdfrwt>
<totfact> 0.23072523E+01</totfact>
</mgrwt>
</event>
<event>
12    1  0.1489025E-007  0.1241634E+04  0.7818608E-02  0.9077176E-01
          1   -1    0    0  501    0  0.00000000000E+00  0.00000000000E+00  0.48774242729E+03  0.48774242729E+03  0.00000000000E+00 0. -1.
         -1   -1    0    0    0  501 -0.00000000000E+00 -0.00000000000E+00 -0.79019874483E+03  0.79019874483E+03  0.00000000000E+00 0.  1.
         23    2    1    2    0    0  0.42245568064E+02 -0.16854318052E+03 -0.30817995717E+03  0.36580919696E+03  0.93005327033E+02 0.  0.
        254    2    1    2    0    0 -0.42245568064E+02  0.16854318052E+03  0.57236396382E+01  0.91213197516E+03  0.89541079307E+03 0.  0.
        -24    2    4    4    0    0  0.20390468496E+03  0.46331644056E+03  0.60433473504E+02  0.51606161440E+03  0.80175685165E+02 0.  0.
         24    2    4    4    0    0 -0.24615025303E+03 -0.29477326004E+03 -0.54709833866E+02  0.39607036076E+03  0.79983391116E+02 0.  0.
         13    1    3    3    0    0 -0.15386464616E+02 -0.14493274871E+02 -0.90734525876E+02  0.93164115924E+02  0.00000000000E+00 0. -1.
        -13    1    3    3    0    0  0.57632032680E+02 -0.15404990565E+03 -0.21744543130E+03  0.27264508104E+03  0.00000000000E+00 0.  1.
          4    1    6    6  502    0  0.53013084125E+01 -0.77268283343E+00 -0.65652866228E-02  0.53573270153E+01  0.00000000000E+00 0. -1.
          3    1    5    5  503    0  0.10944303828E+03  0.32223827343E+03  0.63803412259E+02  0.34624580706E+03  0.00000000000E+00 0. -1.
         -4    1    5    5    0  503  0.94461646678E+02  0.14107816713E+03 -0.33699387552E+01  0.16981580734E+03  0.00000000000E+00 0.  1.
         -3    1    6    6    0  502 -0.25145156144E+03 -0.29400057721E+03 -0.54703268579E+02  0.39071303375E+03  0.00000000000E+00 0.  1.
<mgrwt>
<rscale>  0 0.12416335E+04</rscale>
<asrwt>0</asrwt>
<pdfrwt beam="1">  1        1 0.75037297E-01 0.12416335E+04</pdfrwt>
<pdfrwt beam="2">  1       -1 0.12156904E+00 0.12416335E+04</pdfrwt>
<totfact> 0.27148384E+01</totfact>
</mgrwt>
</event>
<event>
12    1  0.1489025E-007  0.1226910E+04  0.7818608E-02  0.9089623E-01
         -2   -1    0    0    0  501 -0.00000000000E+00  0.00000000000E+00  0.96308815766E+03  0.96308815766E+03  0.00000000000E+00 0. -1.
          2   -1    0    0  501    0  0.00000000000E+00 -0.00000000000E+00 -0.39075064083E+03  0.39075064083E+03  0.00000000000E+00 0.  1.
         23    2    1    2    0    0  0.11712273661E+03  0.22182457016E+03  0.23530601730E+03  0.35537556449E+03  0.89437099124E+02 0.  0.
        254    2    1    2    0    0 -0.11712273661E+03 -0.22182457016E+03  0.33703149953E+03  0.99846323400E+03  0.90576747712E+03 0.  0.
        -24    2    4    4    0    0  0.13072171855E+03 -0.10269023493E+03  0.58931494014E+03  0.61743451820E+03  0.79371490714E+02 0.  0.
         24    2    4    4    0    0 -0.24784445516E+03 -0.11913433523E+03 -0.25228344061E+03  0.38102871580E+03  0.76916084575E+02 0.  0.
         13    1    3    3    0    0  0.72754040254E+02  0.97097456129E+02  0.16696168432E+03  0.20639106180E+03  0.00000000000E+00 0. -1.
        -13    1    3    3    0    0  0.44368696358E+02  0.12472711403E+03  0.68344332981E+02  0.14898450269E+03  0.00000000000E+00 0.  1.
          2    1    6    6  502    0 -0.17192233584E+02 -0.30944497145E+02 -0.52872727396E+02  0.63629082198E+02  0.00000000000E+00 0. -1.
          3    1    5    5  503    0  0.30129416336E+02 -0.27926270138E+02  0.55186331084E+02  0.68798178981E+02  0.00000000000E+00 0. -1.
         -4    1    5    5    0  503  0.10059230222E+03 -0.74763964788E+02  0.53412860906E+03  0.54863633922E+03  0.00000000000E+00 0.  1.
         -1    1    6    6    0  502 -0.23065222158E+03 -0.88189838090E+02 -0.19941071322E+03  0.31739963360E+03  0.00000000000E+00 0.  1.
<mgrwt>
<rscale>  0 0.12269105E+04</rscale>
<asrwt>0</asrwt>
<pdfrwt beam="1">  1        2 0.60115483E-01 0.12269105E+04</pdfrwt>
<pdfrwt beam="2">  1       -2 0.14816741E+00 0.12269105E+04</pdfrwt>
<totfact> 0.24868474E+01</totfact>
</mgrwt>
</event>
<event>
12    1  0.1489025E-007  0.1253406E+04  0.7818608E-02  0.9067353E-01
          1   -1    0    0  501    0  0.00000000000E+00  0.00000000000E+00  0.64299026130E+03  0.64299026130E+03  0.00000000000E+00 0. -1.
         -1   -1    0    0    0  501 -0.00000000000E+00 -0.00000000000E+00 -0.61082823070E+03  0.61082823070E+03  0.00000000000E+00 0.  1.
         23    2    1    2    0    0 -0.17221113229E+03  0.24674580216E+03  0.97653163690E+01  0.31430314619E+03  0.90282563855E+02 0.  0.
        254    2    1    2    0    0  0.17221113229E+03 -0.24674580216E+03  0.22396714233E+02  0.93951534580E+03  0.88974564187E+03 0.  0.
        -24    2    4    4    0    0 -0.11246027373E+03 -0.33050275360E+03  0.34253415888E+03  0.49548129921E+03  0.79326443008E+02 0.  0.
         24    2    4    4    0    0  0.28467140602E+03  0.83756951446E+02 -0.32013744464E+03  0.44403404659E+03  0.81395422159E+02 0.  0.
         11    1    3    3    0    0 -0.81498409905E+02  0.12439747871E+03 -0.40119371832E+02  0.15403339743E+03  0.00000000000E+00 0. -1.
        -11    1    3    3    0    0 -0.90712722386E+02  0.12234832345E+03  0.49884688202E+02  0.16026974877E+03  0.00000000000E+00 0.  1.
          4    1    6    6  502    0  0.11765671017E+03  0.23371769224E+01 -0.89403849255E+02  0.14778907979E+03  0.00000000000E+00 0. -1.
          1    1    5    5  503    0 -0.65538290683E+02 -0.82153091749E+02  0.93601149252E+02  0.14073227480E+03  0.00000000000E+00 0. -1.
         -2    1    5    5    0  503 -0.46921983048E+02 -0.24834966186E+03  0.24893300963E+03  0.35474902441E+03  0.00000000000E+00 0.  1.
         -3    1    6    6    0  502  0.16701469585E+03  0.81419774524E+02 -0.23073359539E+03  0.29624496680E+03  0.00000000000E+00 0.  1.
<mgrwt>
<rscale>  0 0.12534059E+04</rscale>
<asrwt>0</asrwt>
<pdfrwt beam="1">  1        1 0.98921579E-01 0.12534059E+04</pdfrwt>
<pdfrwt beam="2">  1       -1 0.93973574E-01 0.12534059E+04</pdfrwt>
<totfact> 0.33497806E+01</totfact>
</mgrwt>
</event>
<event>
12    1  0.1489025E-007  0.2117185E+04  0.7818608E-02  0.8553711E-01
          2   -1    0    0  501    0  0.00000000000E+00  0.00000000000E+00  0.10661625959E+04  0.10661625959E+04  0.00000000000E+00 0. -1.
         -2   -1    0    0    0  501 -0.00000000000E+00 -0.00000000000E+00 -0.10510766270E+04  0.10510766270E+04  0.00000000000E+00 0.  1.
         23    2    1    2    0    0  0.23058620447E+02  0.81425999085E+03 -0.29137703267E+03  0.87009956069E+03  0.92852774199E+02 0.  0.
        254    2    1    2    0    0 -0.23058620447E+02 -0.81425999085E+03  0.30646300156E+03  0.12471396623E+04  0.89324505776E+03 0.  0.
        -24    2    4    4    0    0  0.17676648799E+03 -0.90242421004E+03  0.90250187770E+02  0.92709175781E+03  0.75750807627E+02 0.  0.
         24    2    4    4    0    0 -0.19982510844E+03  0.88164219190E+02  0.21621281379E+03  0.32004790447E+03  0.89329036707E+02 0.  0.
         11    1    3    3    0    0  0.19189595190E+02  0.33379363289E+02 -0.75995536455E+01  0.39245071955E+02  0.00000000000E+00 0. -1.
        -11    1    3    3    0    0  0.38690252573E+01  0.78088062756E+03 -0.28377747902E+03  0.83085448874E+03  0.00000000000E+00 0.  1.
          2    1    6    6  502    0 -0.18187944099E+03  0.68806047580E+02  0.21972689740E+03  0.29341832369E+03  0.00000000000E+00 0. -1.
          3    1    5    5  503    0  0.17046466788E+03 -0.89506505318E+03  0.82872577406E+02  0.91491393940E+03  0.00000000000E+00 0. -1.
         -4    1    5    5    0  503  0.63018201173E+01 -0.73591568563E+01  0.73776103639E+01  0.12177818405E+02  0.00000000000E+00 0.  1.
         -1    1    6    6    0  502 -0.17945667454E+02  0.19358171610E+02 -0.35140836162E+01  0.26629580772E+02  0.00000000000E+00 0.  1.
<mgrwt>
<rscale>  0 0.21171855E+04</rscale>
<asrwt>0</asrwt>
<pdfrwt beam="1">  1        2 0.16402502E+00 0.21171855E+04</pdfrwt>
<pdfrwt beam="2">  1       -2 0.16170410E+00 0.21171855E+04</pdfrwt>
<totfact> 0.51493036E+00</totfact>
</mgrwt>
</event>
<event>
12    1  0.1489025E-007  0.2672518E+04  0.7818608E-02  0.8343977E-01
          2   -1    0    0  501    0  0.00000000000E+00  0.00000000000E+00  0.22970525943E+04  0.22970525943E+04  0.00000000000E+00 0.  1.
         -2   -1    0    0    0  501 -0.00000000000E+00 -0.00000000000E+00 -0.77733874199E+03  0.77733874199E+03  0.00000000000E+00 0. -1.
         23    2    1    2    0    0  0.11483781440E+04  0.19319421281E+03  0.46791518678E+03  0.12584536644E+04  0.93084035912E+02 0.  0.
        254    2    1    2    0    0 -0.11483781440E+04 -0.19319421281E+03  0.10517986655E+04  0.18159376719E+04  0.91392167601E+03 0.  0.
        -24    2    4    4    0    0 -0.11915833709E+04 -0.27959503566E+03  0.11302726095E+04  0.16679803183E+04  0.81227191768E+02 0.  0.
         24    2    4    4    0    0  0.43205226851E+02  0.86400822850E+02 -0.78473943939E+02  0.14795735364E+03  0.80008904518E+02 0.  0.
         13    1    3    3    0    0  0.19581587717E+03  0.12342542425E+02  0.48892441500E+02  0.20220451761E+03  0.00000000000E+00 0.  1.
        -13    1    3    3    0    0  0.95256226688E+03  0.18085167038E+03  0.41902274528E+03  0.10562491468E+04  0.00000000000E+00 0. -1.
          2    1    6    6  502    0  0.39098871970E+02  0.18685683286E+00 -0.25728012025E+02  0.46804778683E+02  0.00000000000E+00 0. -1.
          3    1    5    5  503    0 -0.55672212152E+02 -0.60250105681E+01  0.74861117169E+02  0.93487340437E+02  0.00000000000E+00 0. -1.
         -4    1    5    5    0  503 -0.11359111587E+04 -0.27357002509E+03  0.10554114923E+04  0.15744929778E+04  0.00000000000E+00 0.  1.
         -1    1    6    6    0  502  0.41063548816E+01  0.86213966017E+02 -0.52745931914E+02  0.10115257496E+03  0.00000000000E+00 0.  1.
<mgrwt>
<rscale>  0 0.26725179E+04</rscale>
<asrwt>0</asrwt>
<pdfrwt beam="1">  1        2 0.35339270E+00 0.26725179E+04</pdfrwt>
<pdfrwt beam="2">  1       -2 0.11959058E+00 0.26725179E+04</pdfrwt>
<totfact> 0.21427478E+00</totfact>
</mgrwt>
</event>
<event>
12    1  0.1489025E-007  0.1872311E+04  0.7818608E-02  0.8668763E-01
         -3   -1    0    0    0  501 -0.00000000000E+00  0.00000000000E+00  0.17441575555E+04  0.17441575555E+04  0.00000000000E+00 0.  1.
          3   -1    0    0  501    0  0.00000000000E+00 -0.00000000000E+00 -0.50247013690E+03  0.50247013690E+03  0.00000000000E+00 0. -1.
         23    2    1    2    0    0 -0.82776398364E+02  0.66838662121E+03  0.18626879020E+03  0.70438260608E+03  0.88691521618E+02 0.  0.
        254    2    1    2    0    0  0.82776398364E+02 -0.66838662121E+03  0.10554186284E+04  0.15422450863E+04  0.90056583191E+03 0.  0.
        -24    2    4    4    0    0 -0.32176497893E+02 -0.19853722253E+03  0.10292898659E+04  0.10516311226E+04  0.77704789393E+02 0.  0.
         24    2    4    4    0    0  0.11495289626E+03 -0.46984939868E+03  0.26128762518E+02  0.49061396371E+03  0.77760680059E+02 0.  0.
         13    1    3    3    0    0  0.16098880512E+02  0.10951532404E+03  0.45185182864E+02  0.11955952870E+03  0.00000000000E+00 0.  1.
        -13    1    3    3    0    0 -0.98875278876E+02  0.55887129717E+03  0.14108360734E+03  0.58482307738E+03  0.00000000000E+00 0. -1.
          2    1    6    6  502    0  0.11343680942E+03 -0.34784739605E+03  0.38886671970E+02  0.36793735054E+03  0.00000000000E+00 0. -1.
          3    1    5    5  503    0 -0.32417418627E+02 -0.51074913611E+02  0.44154386969E+03  0.44566862655E+03  0.00000000000E+00 0. -1.
         -4    1    5    5    0  503  0.24092073381E+00 -0.14746230892E+03  0.58774599621E+03  0.60596249608E+03  0.00000000000E+00 0.  1.
         -1    1    6    6    0  502  0.15160868390E+01 -0.12200200263E+03 -0.12757909451E+02  0.12267661317E+03  0.00000000000E+00 0.  1.
<mgrwt>
<rscale>  0 0.18723110E+04</rscale>
<asrwt>0</asrwt>
<pdfrwt beam="1">  1        3 0.77303099E-01 0.18723110E+04</pdfrwt>
<pdfrwt beam="2">  1       -3 0.26833193E+00 0.18723110E+04</pdfrwt>
<totfact> 0.22126543E-01</totfact>
</mgrwt>
</event>
<event>
12    1  0.1489025E-007  0.2150452E+04  0.7818608E-02  0.8539339E-01
          2   -1    0    0  501    0  0.00000000000E+00  0.00000000000E+00  0.11349679703E+04  0.11349679703E+04  0.00000000000E+00 0. -1.
         -2   -1    0    0    0  501 -0.00000000000E+00 -0.00000000000E+00 -0.10186290248E+04  0.10186290248E+04  0.00000000000E+00 0.  1.
         23    2    1    2    0    0 -0.31933659330E+03  0.68435892220E+00  0.87302634102E+03  0.93412028694E+03  0.91811710593E+02 0.  0.
        254    2    1    2    0    0  0.31933659330E+03 -0.68435892220E+00 -0.75668739547E+03  0.12194767081E+04  0.90142736757E+03 0.  0.
        -24    2    4    4    0    0 -0.13384095415E+03 -0.34659548038E+03 -0.31993668219E+03  0.49673519569E+03  0.79652658466E+02 0.  0.
         24    2    4    4    0    0  0.45317754745E+03  0.34591112145E+03 -0.43675071327E+03  0.72274151243E+03  0.81115441071E+02 0.  0.
         13    1    3    3    0    0 -0.18187711239E+03  0.52204669101E+00  0.62049059767E+03  0.64659735411E+03  0.00000000000E+00 0. -1.
        -13    1    3    3    0    0 -0.13745948092E+03  0.16231223119E+00  0.25253574335E+03  0.28752293284E+03  0.00000000000E+00 0.  1.
          4    1    6    6  502    0  0.39817172044E+03  0.27229062455E+03 -0.34639220456E+03  0.59386064237E+03  0.00000000000E+00 0. -1.
          3    1    5    5  503    0 -0.11058242559E+03 -0.32648192460E+03 -0.26901854917E+03  0.43725267265E+03  0.00000000000E+00 0. -1.
         -4    1    5    5    0  503 -0.23258528560E+02 -0.20113555771E+02 -0.50918133027E+02  0.59482523042E+02  0.00000000000E+00 0.  1.
         -3    1    6    6    0  502  0.55005827008E+02  0.73620496902E+02 -0.90358508711E+02  0.12888087005E+03  0.00000000000E+00 0.  1.
<mgrwt>
<rscale>  0 0.21504523E+04</rscale>
<asrwt>0</asrwt>
<pdfrwt beam="1">  1        2 0.17461046E+00 0.21504523E+04</pdfrwt>
<pdfrwt beam="2">  1       -2 0.15671216E+00 0.21504523E+04</pdfrwt>
<totfact> 0.50715205E+00</totfact>
</mgrwt>
</event>
<event>
12    1  0.1489025E-007  0.2006790E+04  0.7818608E-02  0.8603453E-01
         -2   -1    0    0    0  501 -0.00000000000E+00  0.00000000000E+00  0.10633252336E+04  0.10633252336E+04  0.00000000000E+00 0.  1.
          2   -1    0    0  501    0  0.00000000000E+00 -0.00000000000E+00 -0.94684206152E+03  0.94684206152E+03  0.00000000000E+00 0. -1.
         23    2    1    2    0    0 -0.50522851228E+03 -0.29845957528E+02 -0.57218781809E+03  0.76922646151E+03  0.90353855061E+02 0.  0.
        254    2    1    2    0    0  0.50522851228E+03  0.29845957528E+02  0.68867099011E+03  0.12409408336E+04  0.89973317655E+03 0.  0.
        -24    2    4    4    0    0  0.22289950985E+03  0.30926976327E+03  0.73560398827E+03  0.83272347076E+03  0.83565382965E+02 0.  0.
         24    2    4    4    0    0  0.28232900242E+03 -0.27942380574E+03 -0.46932998162E+02  0.40821736280E+03  0.81555993954E+02 0.  0.
         13    1    3    3    0    0 -0.15498404645E+03  0.32259186012E+02 -0.18317977200E+03  0.24210646131E+03  0.00000000000E+00 0.  1.
        -13    1    3    3    0    0 -0.35024446583E+03 -0.62105143540E+02 -0.38900804609E+03  0.52712000020E+03  0.00000000000E+00 0. -1.
          2    1    6    6  502    0  0.14286059895E+03 -0.86121298793E+02 -0.27497434676E+02  0.16906252616E+03  0.00000000000E+00 0. -1.
          3    1    5    5  503    0  0.14062489450E+03  0.25232129785E+03  0.57542331539E+03  0.64385820659E+03  0.00000000000E+00 0. -1.
         -4    1    5    5    0  503  0.82274615351E+02  0.56948465425E+02  0.16018067288E+03  0.18886526417E+03  0.00000000000E+00 0.  1.
         -1    1    6    6    0  502  0.13946840348E+03 -0.19330250695E+03 -0.19435563486E+02  0.23915483664E+03  0.00000000000E+00 0.  1.
<mgrwt>
<rscale>  0 0.20067895E+04</rscale>
<asrwt>0</asrwt>
<pdfrwt beam="1">  1        2 0.14566801E+00 0.20067895E+04</pdfrwt>
<pdfrwt beam="2">  1       -2 0.16358850E+00 0.20067895E+04</pdfrwt>
<totfact> 0.60035521E+00</totfact>
</mgrwt>
</event>
<event>
12    1  0.1549943E-007  0.1887324E+04  0.7818608E-02  0.8661192E-01
          1   -1    0    0  501    0  0.00000000000E+00  0.00000000000E+00  0.16006807353E+04  0.16006807353E+04  0.00000000000E+00 0. -1.
         -1   -1    0    0    0  501 -0.00000000000E+00 -0.00000000000E+00 -0.55632434019E+03  0.55632434019E+03  0.00000000000E+00 0.  1.
         23    2    1    2    0    0  0.59933790978E+02 -0.57735938391E+03 -0.53796427907E+02  0.58995266667E+03  0.90632090158E+02 0.  0.
        254    2    1    2    0    0 -0.59933790978E+02  0.57735938391E+03  0.10981528230E+04  0.15670524088E+04  0.95539400867E+03 0.  0.
        -24    2    4    4    0    0  0.29236473709E+02  0.77796566109E+03  0.10781465685E+04  0.13322289227E+04  0.79677713016E+02 0.  0.
         24    2    4    4    0    0 -0.89170264686E+02 -0.20060627718E+03  0.20006254501E+02  0.23482348616E+03  0.80917271850E+02 0.  0.
         13    1    3    3    0    0  0.26722874600E+01 -0.93018898700E+02  0.23928558268E+02  0.96084507265E+02  0.00000000000E+00 0. -1.
        -13    1    3    3    0    0  0.57261503518E+02 -0.48434048521E+03 -0.77724986175E+02  0.49386815940E+03  0.00000000000E+00 0.  1.
          4    1    6    6  502    0 -0.86284698250E+02 -0.20340313987E+03  0.68356074643E+01  0.22105341434E+03  0.00000000000E+00 0. -1.
          3    1    5    5  503    0  0.42960628055E+02  0.70899942008E+03  0.95167383938E+03  0.11875221639E+04  0.00000000000E+00 0. -1.
         -4    1    5    5    0  503 -0.13724154346E+02  0.68966241005E+02  0.12647272914E+03  0.14470675875E+03  0.00000000000E+00 0.  1.
         -3    1    6    6    0  502 -0.28855664365E+01  0.27968626890E+01  0.13170647037E+02  0.13770071820E+02  0.00000000000E+00 0.  1.
<mgrwt>
<rscale>  0 0.18873237E+04</rscale>
<asrwt>0</asrwt>
<pdfrwt beam="1">  1        1 0.24625857E+00 0.18873237E+04</pdfrwt>
<pdfrwt beam="2">  1       -1 0.85588361E-01 0.18873237E+04</pdfrwt>
<totfact> 0.70408900E+00</totfact>
</mgrwt>
</event>
<event>
12    1  0.1489025E-007  0.1532057E+04  0.7818608E-02  0.8863411E-01
         -1   -1    0    0    0  501 -0.00000000000E+00  0.00000000000E+00  0.33768484332E+03  0.33768484332E+03  0.00000000000E+00 0.  1.
          1   -1    0    0  501    0  0.00000000000E+00 -0.00000000000E+00 -0.17377135635E+04  0.17377135635E+04  0.00000000000E+00 0. -1.
         23    2    1    2    0    0 -0.35048809998E+03  0.34155411542E+03 -0.59578637670E+03  0.77640590315E+03  0.91343296387E+02 0.  0.
        254    2    1    2    0    0  0.35048809998E+03 -0.34155411542E+03 -0.80424234352E+03  0.12989925037E+04  0.89502774013E+03 0.  0.
        -24    2    4    4    0    0  0.43218722631E+03  0.16308214559E+03 -0.21857129743E+03  0.51743169603E+03  0.81120670600E+02 0.  0.
         24    2    4    4    0    0 -0.81699126338E+02 -0.50463626101E+03 -0.58567104609E+03  0.78156080768E+03  0.80586715463E+02 0.  0.
         11    1    3    3    0    0 -0.99306000575E+02  0.55002265977E+02 -0.17627482899E+03  0.20966579680E+03  0.00000000000E+00 0. -1.
        -11    1    3    3    0    0 -0.25118209940E+03  0.28655184944E+03 -0.41951154771E+03  0.56674010635E+03  0.00000000000E+00 0.  1.
          4    1    6    6  502    0 -0.60309978828E+02 -0.38044843263E+03 -0.49034087602E+03  0.62354829655E+03  0.00000000000E+00 0. -1.
          1    1    5    5  503    0  0.40882719913E+03  0.16996860736E+03 -0.21688518386E+03  0.49301946130E+03  0.00000000000E+00 0. -1.
         -2    1    5    5    0  503  0.23360027182E+02 -0.68864617785E+01 -0.16861135739E+01  0.24412234735E+02  0.00000000000E+00 0.  1.
         -3    1    6    6    0  502 -0.21389147510E+02 -0.12418782838E+03 -0.95330170071E+02  0.15801251113E+03  0.00000000000E+00 0.  1.
<mgrwt>
<rscale>  0 0.15320568E+04</rscale>
<asrwt>0</asrwt>
<pdfrwt beam="1">  1        1 0.26734055E+00 0.15320568E+04</pdfrwt>
<pdfrwt beam="2">  1       -1 0.51951514E-01 0.15320568E+04</pdfrwt>
<totfact> 0.16168045E+01</totfact>
</mgrwt>
</event>
<event>
12    1  0.1489025E-007  0.1958203E+04  0.7818608E-02  0.8626415E-01
          1   -1    0    0  501    0  0.00000000000E+00  0.00000000000E+00  0.68797834044E+03  0.68797834044E+03  0.00000000000E+00 0. -1.
         -1   -1    0    0    0  501 -0.00000000000E+00 -0.00000000000E+00 -0.13934153733E+04  0.13934153733E+04  0.00000000000E+00 0.  1.
         23    2    1    2    0    0 -0.40179989104E+03  0.65961674228E+03 -0.32179847548E+03  0.84163093914E+03  0.90834903871E+02 0.  0.
        254    2    1    2    0    0  0.40179989104E+03 -0.65961674228E+03 -0.38363855734E+03  0.12397627746E+04  0.89067154181E+03 0.  0.
        -24    2    4    4    0    0  0.47557253193E+03 -0.82074834537E+03 -0.20237818811E+03  0.97369356455E+03  0.85587073111E+02 0.  0.
         24    2    4    4    0    0 -0.73772640887E+02  0.16113160309E+03 -0.18126036924E+03  0.26606921002E+03  0.80818976771E+02 0.  0.
         13    1    3    3    0    0 -0.87495099876E+02  0.19120828817E+03 -0.12259203095E+03  0.24340256371E+03  0.00000000000E+00 0.  1.
        -13    1    3    3    0    0 -0.31430479116E+03  0.46840845411E+03 -0.19920644453E+03  0.59822837543E+03  0.00000000000E+00 0. -1.
          2    1    6    6  502    0  0.15849179565E+02  0.18156445434E+02 -0.11476339114E+02  0.26693807580E+02  0.00000000000E+00 0. -1.
          1    1    5    5  503    0  0.10032115299E+03 -0.12860536935E+03 -0.11183229199E+02  0.16348926380E+03  0.00000000000E+00 0. -1.
         -2    1    5    5    0  503  0.37525137893E+03 -0.69214297602E+03 -0.19119495891E+03  0.81020430075E+03  0.00000000000E+00 0.  1.
         -1    1    6    6    0  502 -0.89621820451E+02  0.14297515765E+03 -0.16978403012E+03  0.23937540244E+03  0.00000000000E+00 0.  1.
<mgrwt>
<rscale>  0 0.19582028E+04</rscale>
<asrwt>0</asrwt>
<pdfrwt beam="1">  1        1 0.10584282E+00 0.19582028E+04</pdfrwt>
<pdfrwt beam="2">  1       -1 0.21437159E+00 0.19582028E+04</pdfrwt>
<totfact> 0.31264285E+00</totfact>
</mgrwt>
</event>
<event>
12    1  0.2248451E-007  0.2382013E+04  0.7818608E-02  0.8446269E-01
          2   -1    0    0  501    0  0.00000000000E+00  0.00000000000E+00  0.10134572316E+04  0.10134572316E+04  0.00000000000E+00 0. -1.
         -2   -1    0    0    0  501 -0.00000000000E+00 -0.00000000000E+00 -0.13996603414E+04  0.13996603414E+04  0.00000000000E+00 0.  1.
         23    2    1    2    0    0 -0.60162571705E+03  0.11341027905E+03 -0.98578780604E+03  0.11639640650E+04  0.90660638386E+02 0.  0.
        254    2    1    2    0    0  0.60162571705E+03 -0.11341027905E+03  0.59958469633E+03  0.12491535079E+04  0.90888243659E+03 0.  0.
        -24    2    4    4    0    0  0.82504368236E+03 -0.54513233092E+02  0.36094563905E+03  0.90573281563E+03  0.80008803130E+02 0.  0.
         24    2    4    4    0    0 -0.22341796531E+03 -0.58897045962E+02  0.23863905728E+03  0.34342069232E+03  0.87205062944E+02 0.  0.
         13    1    3    3    0    0 -0.59546872641E+03  0.10361769815E+03 -0.94662686589E+03  0.11231304709E+04  0.00000000000E+00 0.  1.
        -13    1    3    3    0    0 -0.61569906376E+01  0.97925808992E+01 -0.39160940153E+02  0.40833594111E+02  0.00000000000E+00 0. -1.
          4    1    6    6  502    0 -0.53760514513E+02 -0.24893310189E+02  0.15844789087E+02  0.61326398509E+02  0.00000000000E+00 0. -1.
          3    1    5    5  503    0  0.12196896127E+03 -0.26536278960E+02  0.78964503945E+02  0.14770238487E+03  0.00000000000E+00 0. -1.
         -4    1    5    5    0  503  0.70307472109E+03 -0.27976954132E+02  0.28198113510E+03  0.75803043076E+03  0.00000000000E+00 0.  1.
         -3    1    6    6    0  502 -0.16965745080E+03 -0.34003735774E+02  0.22279426819E+03  0.28209429381E+03  0.00000000000E+00 0.  1.
<mgrwt>
<rscale>  0 0.23820125E+04</rscale>
<asrwt>0</asrwt>
<pdfrwt beam="1">  1        2 0.15591650E+00 0.23820125E+04</pdfrwt>
<pdfrwt beam="2">  1       -2 0.21533236E+00 0.23820125E+04</pdfrwt>
<totfact> 0.23529273E+00</totfact>
</mgrwt>
</event>
<event>
12    1  0.1489025E-007  0.1077377E+04  0.7818608E-02  0.9227527E-01
          4   -1    0    0  501    0  0.00000000000E+00  0.00000000000E+00  0.99200834270E+03  0.99200834270E+03  0.00000000000E+00 0. -1.
         -4   -1    0    0    0  501 -0.00000000000E+00 -0.00000000000E+00 -0.29252279264E+03  0.29252279264E+03  0.00000000000E+00 0.  1.
         23    2    1    2    0    0 -0.67305145039E+02 -0.55542841441E+02  0.26621986914E+03  0.29465047228E+03  0.91273721880E+02 0.  0.
        254    2    1    2    0    0  0.67305145039E+02  0.55542841441E+02  0.43326568092E+03  0.98988066307E+03  0.88573674817E+03 0.  0.
        -24    2    4    4    0    0 -0.16387584406E+03 -0.35732051749E+03  0.12968472371E+03  0.42180848916E+03  0.81061886714E+02 0.  0.
         24    2    4    4    0    0  0.23118098910E+03  0.41286335893E+03  0.30358095721E+03  0.56807217391E+03  0.81509473840E+02 0.  0.
         11    1    3    3    0    0 -0.87446914210E+02 -0.58186916347E+02  0.20855663080E+03  0.23351348631E+03  0.00000000000E+00 0. -1.
        -11    1    3    3    0    0  0.20141769171E+02  0.26440749062E+01  0.57663238337E+02  0.61136985965E+02  0.00000000000E+00 0.  1.
          4    1    6    6  502    0  0.45224611499E+02  0.35304485714E+02  0.53866127484E+02  0.78697089444E+02  0.00000000000E+00 0. -1.
          3    1    5    5  503    0 -0.18849418740E+02 -0.10947643218E+02 -0.58822291272E+01  0.22577690280E+02  0.00000000000E+00 0. -1.
         -4    1    5    5    0  503 -0.14502642532E+03 -0.34637287427E+03  0.13556695284E+03  0.39923079888E+03  0.00000000000E+00 0.  1.
         -3    1    6    6    0  502  0.18595637760E+03  0.37755887321E+03  0.24971482973E+03  0.48937508447E+03  0.00000000000E+00 0.  1.
<mgrwt>
<rscale>  0 0.10773765E+04</rscale>
<asrwt>0</asrwt>
<pdfrwt beam="1">  1        4 0.15261667E+00 0.10773765E+04</pdfrwt>
<pdfrwt beam="2">  1       -4 0.45003507E-01 0.10773765E+04</pdfrwt>
<totfact> 0.27020989E+00</totfact>
</mgrwt>
</event>
<event>
12    1  0.1489025E-007  0.1753265E+04  0.7818608E-02  0.8731555E-01
         -2   -1    0    0    0  501 -0.00000000000E+00  0.00000000000E+00  0.15030018990E+04  0.15030018990E+04  0.00000000000E+00 0.  1.
          2   -1    0    0  501    0  0.00000000000E+00 -0.00000000000E+00 -0.51130000842E+03  0.51130000842E+03  0.00000000000E+00 0. -1.
         23    2    1    2    0    0 -0.52204901230E+03  0.12579424435E+03  0.76011843157E+03  0.93511172144E+03  0.91074356501E+02 0.  0.
        254    2    1    2    0    0  0.52204901229E+03 -0.12579424435E+03  0.23158345899E+03  0.10791901860E+04  0.90700672316E+03 0.  0.
        -24    2    4    4    0    0 -0.75840371756E+02  0.61661475915E+02 -0.25317392855E+03  0.28293718408E+03  0.80015701198E+02 0.  0.
         24    2    4    4    0    0  0.59788938405E+03 -0.18745572027E+03  0.48475738755E+03  0.79625300188E+03  0.80110895667E+02 0.  0.
         11    1    3    3    0    0 -0.47334500360E+03  0.12315300853E+03  0.72677859109E+03  0.87603040838E+03  0.00000000000E+00 0. -1.
        -11    1    3    3    0    0 -0.48704008693E+02  0.26412358189E+01  0.33339840485E+02  0.59081313061E+02  0.00000000000E+00 0.  1.
          4    1    6    6  502    0  0.11147082765E+03 -0.86914907349E+01  0.64822508347E+02  0.12924103457E+03  0.00000000000E+00 0. -1.
          1    1    5    5  503    0 -0.64170236287E+01  0.71880851160E+01  0.44541346913E+01  0.10615369788E+02  0.00000000000E+00 0. -1.
         -2    1    5    5    0  503 -0.69423348127E+02  0.54473390799E+02 -0.25762806324E+03  0.27232181430E+03  0.00000000000E+00 0.  1.
         -3    1    6    6    0  502  0.48641855640E+03 -0.17876422953E+03  0.41993487920E+03  0.66701196732E+03  0.00000000000E+00 0.  1.
<mgrwt>
<rscale>  0 0.17532654E+04</rscale>
<asrwt>0</asrwt>
<pdfrwt beam="1">  1        2 0.78661540E-01 0.17532654E+04</pdfrwt>
<pdfrwt beam="2">  1       -2 0.23123106E+00 0.17532654E+04</pdfrwt>
<totfact> 0.47726668E+00</totfact>
</mgrwt>
</event>
<event>
12    1  0.1489025E-007  0.1928370E+04  0.7818608E-02  0.8640862E-01
         -2   -1    0    0    0  501 -0.00000000000E+00  0.00000000000E+00  0.35617232054E+03  0.35617232054E+03  0.00000000000E+00 0.  1.
          2   -1    0    0  501    0  0.00000000000E+00 -0.00000000000E+00 -0.26101213930E+04  0.26101213930E+04  0.00000000000E+00 0. -1.
         23    2    1    2    0    0  0.12897028898E+03  0.73846902886E+03 -0.89700031539E+03  0.11725955539E+04  0.91656561484E+02 0.  0.
        254    2    1    2    0    0 -0.12897028898E+03 -0.73846902886E+03 -0.13569487571E+04  0.17936981596E+04  0.90226011576E+03 0.  0.
        -24    2    4    4    0    0 -0.11353391516E+03 -0.93320082427E+03 -0.12146221121E+04  0.15380084738E+04  0.80059114588E+02 0.  0.
         24    2    4    4    0    0 -0.15436373822E+02  0.19473179541E+03 -0.14232664494E+03  0.25568968584E+03  0.83436130083E+02 0.  0.
         13    1    3    3    0    0  0.53652819321E+02  0.11452944393E+03 -0.13844172611E+03  0.18751461297E+03  0.00000000000E+00 0.  1.
        -13    1    3    3    0    0  0.75317469657E+02  0.62393958493E+03 -0.75855858928E+03  0.98508094096E+03  0.00000000000E+00 0. -1.
          4    1    6    6  502    0 -0.93325027218E+00  0.11288898063E+03 -0.31589505963E+02  0.11722921902E+03  0.00000000000E+00 0. -1.
          1    1    5    5  503    0 -0.46795816098E+02 -0.19544201411E+03 -0.29885249242E+03  0.36013919741E+03  0.00000000000E+00 0. -1.
         -2    1    5    5    0  503 -0.66738099058E+02 -0.73775881016E+03 -0.91576961972E+03  0.11778692764E+04  0.00000000000E+00 0.  1.
         -3    1    6    6    0  502 -0.14503123550E+02  0.81842814782E+02 -0.11073713898E+03  0.13846046682E+03  0.00000000000E+00 0.  1.
<mgrwt>
<rscale>  0 0.19283703E+04</rscale>
<asrwt>0</asrwt>
<pdfrwt beam="1">  1        2 0.40155713E+00 0.19283703E+04</pdfrwt>
<pdfrwt beam="2">  1       -2 0.54795742E-01 0.19283703E+04</pdfrwt>
<totfact> 0.87981286E+00</totfact>
</mgrwt>
</event>
<event>
12    1  0.1489025E-007  0.1157197E+04  0.7818608E-02  0.9151170E-01
          2   -1    0    0  501    0  0.00000000000E+00  0.00000000000E+00  0.19867884828E+04  0.19867884828E+04  0.00000000000E+00 0.  1.
         -2   -1    0    0    0  501 -0.00000000000E+00 -0.00000000000E+00 -0.16850109449E+03  0.16850109449E+03  0.00000000000E+00 0. -1.
         23    2    1    2    0    0 -0.84041981228E+02 -0.14721315148E+03  0.11388276440E+03  0.22376728085E+03  0.91475381256E+02 0.  0.
        254    2    1    2    0    0  0.84041981228E+02  0.14721315148E+03  0.17044046239E+04  0.19315222965E+04  0.89277572384E+03 0.  0.
        -24    2    4    4    0    0  0.10216362968E+03 -0.28163324561E+03  0.20957140425E+03  0.37422345808E+03  0.79801822266E+02 0.  0.
         24    2    4    4    0    0 -0.18121648454E+02  0.42884639709E+03  0.14948332197E+04  0.15572988384E+04  0.80098008289E+02 0.  0.
         13    1    3    3    0    0 -0.99805801651E+02 -0.10330130752E+03  0.10023872619E+03  0.17515753026E+03  0.00000000000E+00 0. -1.
        -13    1    3    3    0    0  0.15763820423E+02 -0.43911843952E+02  0.13644038207E+02  0.48609750587E+02  0.00000000000E+00 0.  1.
          2    1    6    6  502    0  0.45178704385E+01  0.16252679299E+03  0.43840078025E+03  0.46757952663E+03  0.00000000000E+00 0. -1.
          1    1    5    5  503    0  0.21118899647E+02 -0.29816584400E+02 -0.31092625672E+00  0.36539475951E+02  0.00000000000E+00 0. -1.
         -2    1    5    5    0  503  0.81044730035E+02 -0.25181666121E+03  0.20988233051E+03  0.33768398213E+03  0.00000000000E+00 0.  1.
         -1    1    6    6    0  502 -0.22639518892E+02  0.26631960409E+03  0.10564324394E+04  0.10897193117E+04  0.00000000000E+00 0.  1.
<mgrwt>
<rscale>  0 0.11571967E+04</rscale>
<asrwt>0</asrwt>
<pdfrwt beam="1">  1        2 0.30565975E+00 0.11571967E+04</pdfrwt>
<pdfrwt beam="2">  1       -2 0.25923247E-01 0.11571967E+04</pdfrwt>
<totfact> 0.90433004E+01</totfact>
</mgrwt>
</event>
<event>
12    1  0.1489025E-007  0.3675500E+04  0.7818608E-02  0.8073413E-01
          2   -1    0    0  501    0  0.00000000000E+00  0.00000000000E+00  0.14347997611E+04  0.14347997611E+04  0.00000000000E+00 0. -1.
         -2   -1    0    0    0  501 -0.00000000000E+00 -0.00000000000E+00 -0.23538652565E+04  0.23538652565E+04  0.00000000000E+00 0.  1.
         23    2    1    2    0    0  0.11264113093E+04 -0.50792967196E+03 -0.16698901330E+04  0.20794029447E+04  0.92674488213E+02 0.  0.
        254    2    1    2    0    0 -0.11264113093E+04  0.50792967196E+03  0.75082463755E+03  0.17092620729E+04  0.91161626137E+03 0.  0.
        -24    2    4    4    0    0 -0.55629547874E+03  0.68580683115E+03  0.64741190867E+03  0.10978863431E+04  0.80103517752E+02 0.  0.
         24    2    4    4    0    0 -0.57011583055E+03 -0.17787715919E+03  0.10341272888E+03  0.61137572976E+03  0.80085869152E+02 0.  0.
         13    1    3    3    0    0  0.14956583107E+03 -0.44813443018E+02 -0.25100562372E+03  0.29560447499E+03  0.00000000000E+00 0. -1.
        -13    1    3    3    0    0  0.97684547822E+03 -0.46311622894E+03 -0.14188845093E+04  0.17837984697E+04  0.00000000000E+00 0.  1.
          2    1    6    6  502    0 -0.36773899844E+03 -0.13111782952E+03  0.10257692791E+03  0.40366555752E+03  0.00000000000E+00 0. -1.
          3    1    5    5  503    0 -0.55018130019E+03  0.68141317854E+03  0.62981028388E+03  0.10787420343E+04  0.00000000000E+00 0. -1.
         -2    1    5    5    0  503 -0.61141785527E+01  0.43936526086E+01  0.17601624796E+02  0.19144308765E+02  0.00000000000E+00 0.  1.
         -1    1    6    6    0  502 -0.20237683211E+03 -0.46759329672E+02  0.83580096705E+00  0.20771017224E+03  0.00000000000E+00 0.  1.
<mgrwt>
<rscale>  0 0.36755001E+04</rscale>
<asrwt>0</asrwt>
<pdfrwt beam="1">  1        2 0.22073843E+00 0.36755001E+04</pdfrwt>
<pdfrwt beam="2">  1       -2 0.36213311E+00 0.36755001E+04</pdfrwt>
<totfact> 0.14586507E-01</totfact>
</mgrwt>
</event>
<event>
12    1  0.1489025E-007  0.1234447E+04  0.7818608E-02  0.9083228E-01
         -2   -1    0    0    0  501 -0.00000000000E+00  0.00000000000E+00  0.20242719168E+03  0.20242719168E+03  0.00000000000E+00 0.  1.
          2   -1    0    0  501    0  0.00000000000E+00 -0.00000000000E+00 -0.18819849915E+04  0.18819849915E+04  0.00000000000E+00 0. -1.
         23    2    1    2    0    0 -0.16165439825E+03  0.15704321592E+03 -0.78574762478E+03  0.82221952130E+03  0.88605277564E+02 0.  0.
        254    2    1    2    0    0  0.16165439825E+03 -0.15704321592E+03 -0.89381017508E+03  0.12621926619E+04  0.86222907083E+03 0.  0.
        -24    2    4    4    0    0 -0.65218670980E+02 -0.20381322734E+03  0.92694148506E+02  0.24557541325E+03  0.76953048933E+02 0.  0.
         24    2    4    4    0    0  0.22687306923E+03  0.46770011421E+02 -0.98650432359E+03  0.10166172487E+04  0.81615110892E+02 0.  0.
         13    1    3    3    0    0 -0.45195228062E+02  0.22152664493E+02 -0.31255768917E+03  0.31658436197E+03  0.00000000000E+00 0.  1.
        -13    1    3    3    0    0 -0.11645917019E+03  0.13489055143E+03 -0.47318993561E+03  0.50563515933E+03  0.00000000000E+00 0. -1.
          4    1    6    6  502    0  0.75402532403E+02 -0.84338166365E+01 -0.20339921962E+03  0.21708964439E+03  0.00000000000E+00 0. -1.
          3    1    5    5  503    0 -0.54166780351E+02 -0.11734470183E+03  0.17441072891E+02  0.13041476207E+03  0.00000000000E+00 0. -1.
         -4    1    5    5    0  503 -0.11051890629E+02 -0.86468525510E+02  0.75253075615E+02  0.11516065118E+03  0.00000000000E+00 0.  1.
         -3    1    6    6    0  502  0.15147053683E+03  0.55203828057E+02 -0.78310510396E+03  0.79952760429E+03  0.00000000000E+00 0.  1.
<mgrwt>
<rscale>  0 0.12344471E+04</rscale>
<asrwt>0</asrwt>
<pdfrwt beam="1">  1        2 0.28953616E+00 0.12344471E+04</pdfrwt>
<pdfrwt beam="2">  1       -2 0.31142645E-01 0.12344471E+04</pdfrwt>
<totfact> 0.73178733E+01</totfact>
</mgrwt>
</event>
<event>
12    1  0.1489025E-007  0.1488634E+04  0.7818608E-02  0.8892047E-01
         -1   -1    0    0    0  501 -0.00000000000E+00  0.00000000000E+00  0.49547456051E+03  0.49547456051E+03  0.00000000000E+00 0.  1.
          1   -1    0    0  501    0  0.00000000000E+00 -0.00000000000E+00 -0.11181352186E+04  0.11181352186E+04  0.00000000000E+00 0. -1.
         23    2    1    2    0    0 -0.34120713865E+03 -0.27370129488E+03 -0.29058280168E+02  0.44792878976E+03  0.91984274574E+02 0.  0.
        254    2    1    2    0    0  0.34120713865E+03  0.27370129488E+03 -0.59360237790E+03  0.11656809893E+04  0.90283646113E+03 0.  0.
        -24    2    4    4    0    0  0.53961865999E+03  0.44752430202E+03 -0.53094250658E+03  0.88309049239E+03  0.80514429423E+02 0.  0.
         24    2    4    4    0    0 -0.19841152134E+03 -0.17382300714E+03 -0.62659871318E+02  0.28259049694E+03  0.79684125600E+02 0.  0.
         11    1    3    3    0    0 -0.19187844821E+01 -0.11622243980E+02  0.12526782350E+02  0.17195306484E+02  0.00000000000E+00 0.  1.
        -11    1    3    3    0    0 -0.33928835417E+03 -0.26207905090E+03 -0.41585062518E+02  0.43073348328E+03  0.00000000000E+00 0. -1.
          4    1    6    6  502    0 -0.86639076376E+02 -0.12841204906E+03 -0.34416192624E+02  0.15868351588E+03  0.00000000000E+00 0. -1.
          3    1    5    5  503    0  0.13187928539E+03  0.14431202499E+03 -0.17825633200E+03  0.26456270782E+03  0.00000000000E+00 0. -1.
         -4    1    5    5    0  503  0.40773937460E+03  0.30321227703E+03 -0.35268617458E+03  0.61852778457E+03  0.00000000000E+00 0.  1.
         -3    1    6    6    0  502 -0.11177244496E+03 -0.45410958084E+02 -0.28243678694E+02  0.12390698105E+03  0.00000000000E+00 0.  1.
<mgrwt>
<rscale>  0 0.14886337E+04</rscale>
<asrwt>0</asrwt>
<pdfrwt beam="1">  1        1 0.17202080E+00 0.14886337E+04</pdfrwt>
<pdfrwt beam="2">  1       -1 0.76226856E-01 0.14886337E+04</pdfrwt>
<totfact> 0.20560173E+01</totfact>
</mgrwt>
</event>
<event>
12    1  0.1569348E-007  0.1458466E+04  0.7818608E-02  0.8912552E-01
          2   -1    0    0  501    0  0.00000000000E+00  0.00000000000E+00  0.82591804661E+03  0.82591804661E+03  0.00000000000E+00 0. -1.
         -2   -1    0    0    0  501 -0.00000000000E+00 -0.00000000000E+00 -0.64386662154E+03  0.64386662154E+03  0.00000000000E+00 0.  1.
         23    2    1    2    0    0  0.30772022543E+03  0.19724920867E+03 -0.20262388832E+03  0.42743618735E+03  0.89700984785E+02 0.  0.
        254    2    1    2    0    0 -0.30772022543E+03 -0.19724920867E+03  0.38467531338E+03  0.10423484808E+04  0.89717126082E+03 0.  0.
        -24    2    4    4    0    0  0.22943743777E+03  0.10098594693E+03  0.32761020857E+03  0.42026542398E+03  0.80342258550E+02 0.  0.
         24    2    4    4    0    0 -0.53715766320E+03 -0.29823515560E+03  0.57065104812E+02  0.62208305682E+03  0.79046443437E+02 0.  0.
         13    1    3    3    0    0  0.55283775160E+02  0.27630458481E+02 -0.76107254980E+02  0.98041074517E+02  0.00000000000E+00 0.  1.
        -13    1    3    3    0    0  0.25243645027E+03  0.16961875019E+03 -0.12651663334E+03  0.32939511283E+03  0.00000000000E+00 0. -1.
          2    1    6    6  502    0 -0.52052675204E+03 -0.30173196202E+03  0.60679420424E+02  0.60470841615E+03  0.00000000000E+00 0. -1.
          1    1    5    5  503    0  0.23361296045E+03  0.97749504850E+02  0.32863228576E+03  0.41488451433E+03  0.00000000000E+00 0. -1.
         -2    1    5    5    0  503 -0.41755226780E+01  0.32364420761E+01 -0.10220771855E+01  0.53809096553E+01  0.00000000000E+00 0.  1.
         -1    1    6    6    0  502 -0.16630911163E+02  0.34968064173E+01 -0.36143156119E+01  0.17374640675E+02  0.00000000000E+00 0.  1.
<mgrwt>
<rscale>  0 0.14584664E+04</rscale>
<asrwt>0</asrwt>
<pdfrwt beam="1">  1        2 0.12706432E+00 0.14584664E+04</pdfrwt>
<pdfrwt beam="2">  1       -2 0.99056403E-01 0.14584664E+04</pdfrwt>
<totfact> 0.27026400E+01</totfact>
</mgrwt>
</event>
<event>
12    1  0.1489025E-007  0.1104847E+04  0.7818608E-02  0.9200480E-01
          2   -1    0    0  501    0  0.00000000000E+00  0.00000000000E+00  0.17167677836E+04  0.17167677836E+04  0.00000000000E+00 0. -1.
         -2   -1    0    0    0  501 -0.00000000000E+00 -0.00000000000E+00 -0.17775954559E+03  0.17775954559E+03  0.00000000000E+00 0.  1.
         23    2    1    2    0    0 -0.11907179044E+03 -0.91728496010E+02  0.14342194519E+03  0.22621813062E+03  0.89513015800E+02 0.  0.
        254    2    1    2    0    0  0.11907179044E+03  0.91728496010E+02  0.13955862928E+04  0.16683091985E+04  0.90166638680E+03 0.  0.
        -24    2    4    4    0    0 -0.78015182464E+01 -0.12099396851E+03 -0.84229565198E+02  0.16590476676E+03  0.75692587995E+02 0.  0.
         24    2    4    4    0    0  0.12687330869E+03  0.21272246452E+03  0.14798158580E+04  0.15024044318E+04  0.77565583515E+02 0.  0.
         11    1    3    3    0    0 -0.19287378569E+02 -0.53892030332E+02  0.14863261503E+02  0.59137724406E+02  0.00000000000E+00 0. -1.
        -11    1    3    3    0    0 -0.99784411875E+02 -0.37836465678E+02  0.12855868369E+03  0.16708040621E+03  0.00000000000E+00 0.  1.
          4    1    6    6  502    0  0.23243232479E+02  0.77534641521E+02  0.31662886708E+03  0.32681142569E+03  0.00000000000E+00 0. -1.
          1    1    5    5  503    0 -0.27496887368E+01 -0.38627237162E+02  0.10646578766E+02  0.40161846052E+02  0.00000000000E+00 0. -1.
         -2    1    5    5    0  503 -0.50518295096E+01 -0.82366731345E+02 -0.94876143965E+02  0.12574292071E+03  0.00000000000E+00 0.  1.
         -3    1    6    6    0  502  0.10363007621E+03  0.13518782300E+03  0.11631869909E+04  0.11755930061E+04  0.00000000000E+00 0.  1.
<mgrwt>
<rscale>  0 0.11048472E+04</rscale>
<asrwt>0</asrwt>
<pdfrwt beam="1">  1        2 0.26411811E+00 0.11048472E+04</pdfrwt>
<pdfrwt beam="2">  1       -2 0.27347624E-01 0.11048472E+04</pdfrwt>
<totfact> 0.11600126E+02</totfact>
</mgrwt>
</event>
<event>
12    1  0.1489025E-007  0.1469193E+04  0.7818608E-02  0.8905202E-01
          1   -1    0    0  501    0  0.00000000000E+00  0.00000000000E+00  0.14714247022E+04  0.14714247022E+04  0.00000000000E+00 0. -1.
         -1   -1    0    0    0  501 -0.00000000000E+00 -0.00000000000E+00 -0.36674118247E+03  0.36674118247E+03  0.00000000000E+00 0.  1.
         23    2    1    2    0    0  0.32769754323E+02  0.80241617254E+02  0.90008985332E+03  0.91212984140E+03  0.11960990589E+03 0.  0.
        254    2    1    2    0    0 -0.32769754323E+02 -0.80241617254E+02  0.20459366645E+03  0.92603604331E+03  0.89898365459E+03 0.  0.
        -24    2    4    4    0    0  0.12179397000E+03 -0.16056592450E+03 -0.30921311835E+03  0.37765563569E+03  0.79973991819E+02 0.  0.
         24    2    4    4    0    0 -0.15456372432E+03  0.80324307244E+02  0.51380678480E+03  0.54838040762E+03  0.79885669226E+02 0.  0.
         13    1    3    3    0    0 -0.13532956176E+02  0.89390058011E+02  0.73123297471E+03  0.73680077815E+03  0.00000000000E+00 0. -1.
        -13    1    3    3    0    0  0.46302710499E+02 -0.91484407564E+01  0.16885687861E+03  0.17532906326E+03  0.00000000000E+00 0.  1.
          4    1    6    6  502    0 -0.11475597044E+03  0.93121556740E+02  0.36425903492E+03  0.39309693665E+03  0.00000000000E+00 0. -1.
          3    1    5    5  503    0  0.13311935526E+03 -0.14771366371E+03 -0.29275356304E+03  0.35389933295E+03  0.00000000000E+00 0. -1.
         -4    1    5    5    0  503 -0.11325385258E+02 -0.12852260790E+02 -0.16459555312E+02  0.23756302737E+02  0.00000000000E+00 0.  1.
         -3    1    6    6    0  502 -0.39807753880E+02 -0.12797249496E+02  0.14954774988E+03  0.15528347097E+03  0.00000000000E+00 0.  1.
<mgrwt>
<rscale>  0 0.14691930E+04</rscale>
<asrwt>0</asrwt>
<pdfrwt beam="1">  1        1 0.22637303E+00 0.14691930E+04</pdfrwt>
<pdfrwt beam="2">  1       -1 0.56421721E-01 0.14691930E+04</pdfrwt>
<totfact> 0.21109045E+01</totfact>
</mgrwt>
</event>
<event>
12    1  0.1489025E-007  0.1135696E+04  0.7818608E-02  0.9171082E-01
          1   -1    0    0  501    0  0.00000000000E+00  0.00000000000E+00  0.87861508504E+03  0.87861508504E+03  0.00000000000E+00 0. -1.
         -1   -1    0    0    0  501 -0.00000000000E+00 -0.00000000000E+00 -0.36699932383E+03  0.36699932383E+03  0.00000000000E+00 0.  1.
         23    2    1    2    0    0  0.60402034276E+02 -0.40431521076E+02 -0.91381018765E+02  0.15182558913E+03  0.97043316531E+02 0.  0.
        254    2    1    2    0    0 -0.60402034276E+02  0.40431521076E+02  0.60299677998E+03  0.10937888197E+04  0.90966243842E+03 0.  0.
        -24    2    4    4    0    0  0.38098811516E+03 -0.62494460027E+02  0.87127573039E+02  0.40271534096E+03  0.74370225476E+02 0.  0.
         24    2    4    4    0    0 -0.44139014943E+03  0.10292598110E+03  0.51586920694E+03  0.69107347877E+03  0.77733472802E+02 0.  0.
         13    1    3    3    0    0 -0.18199878363E+02 -0.18694277198E+02  0.39319233936E+01  0.26385063842E+02  0.00000000000E+00 0. -1.
        -13    1    3    3    0    0  0.78601912639E+02 -0.21737243878E+02 -0.95312942159E+02  0.12544052529E+03  0.00000000000E+00 0.  1.
          2    1    6    6  502    0 -0.77584028271E-01  0.63882591768E+01  0.16376605753E+01  0.65952867073E+01  0.00000000000E+00 0. -1.
          3    1    5    5  503    0  0.33219057092E+02  0.53652063358E+01  0.27388308052E+02  0.43386756171E+02  0.00000000000E+00 0. -1.
         -4    1    5    5    0  503  0.34776905806E+03 -0.67859666363E+02  0.59739264987E+02  0.35932858479E+03  0.00000000000E+00 0.  1.
         -1    1    6    6    0  502 -0.44131256540E+03  0.96537721926E+02  0.51423154636E+03  0.68447819206E+03  0.00000000000E+00 0.  1.
<mgrwt>
<rscale>  0 0.11356956E+04</rscale>
<asrwt>0</asrwt>
<pdfrwt beam="1">  1        1 0.13517155E+00 0.11356956E+04</pdfrwt>
<pdfrwt beam="2">  1       -1 0.56461435E-01 0.11356956E+04</pdfrwt>
<totfact> 0.59808265E+01</totfact>
</mgrwt>
</event>
<event>
12    1  0.1489025E-007  0.3400415E+04  0.7818608E-02  0.8137805E-01
         -2   -1    0    0    0  501 -0.00000000000E+00  0.00000000000E+00  0.19816067754E+04  0.19816067754E+04  0.00000000000E+00 0.  1.
          2   -1    0    0  501    0  0.00000000000E+00 -0.00000000000E+00 -0.14587682636E+04  0.14587682636E+04  0.00000000000E+00 0. -1.
         23    2    1    2    0    0 -0.31582761104E+03  0.15416000190E+04  0.40924031483E+03  0.16285461728E+04  0.91691348218E+02 0.  0.
        254    2    1    2    0    0  0.31582761104E+03 -0.15416000190E+04  0.11359819694E+03  0.18118288662E+04  0.89080951469E+03 0.  0.
        -24    2    4    4    0    0  0.18376339750E+03 -0.59850139996E+03 -0.37956765929E+03  0.73645952692E+03  0.79549448777E+02 0.  0.
         24    2    4    4    0    0  0.13206421354E+03 -0.94309861904E+03  0.49316585624E+03  0.10753693392E+04  0.79565647738E+02 0.  0.
         11    1    3    3    0    0 -0.36928372220E+02  0.35389420833E+03  0.10892848928E+03  0.37211588402E+03  0.00000000000E+00 0. -1.
        -11    1    3    3    0    0 -0.27889923882E+03  0.11877058107E+04  0.30031182555E+03  0.12564302888E+04  0.00000000000E+00 0.  1.
          4    1    6    6  502    0  0.13747963977E+03 -0.93286551776E+03  0.48085898462E+03  0.10584725262E+04  0.00000000000E+00 0. -1.
          3    1    5    5  503    0  0.15663849193E+03 -0.47722074877E+03 -0.33802825029E+03  0.60542411432E+03  0.00000000000E+00 0. -1.
         -4    1    5    5    0  503  0.27124905573E+02 -0.12128065119E+03 -0.41539409006E+02  0.13103541260E+03  0.00000000000E+00 0.  1.
         -3    1    6    6    0  502 -0.54154262284E+01 -0.10233101284E+02  0.12306871615E+02  0.16896813074E+02  0.00000000000E+00 0.  1.
<mgrwt>
<rscale>  0 0.34004147E+04</rscale>
<asrwt>0</asrwt>
<pdfrwt beam="1">  1        2 0.22442589E+00 0.34004147E+04</pdfrwt>
<pdfrwt beam="2">  1       -2 0.30486258E+00 0.34004147E+04</pdfrwt>
<totfact> 0.32926113E-01</totfact>
</mgrwt>
</event>
<event>
12    1  0.1489025E-007  0.2453649E+04  0.7818608E-02  0.8419687E-01
         -3   -1    0    0    0  501 -0.00000000000E+00  0.00000000000E+00  0.11222841496E+04  0.11222841496E+04  0.00000000000E+00 0.  1.
          3   -1    0    0  501    0  0.00000000000E+00 -0.00000000000E+00 -0.13411022426E+04  0.13411022426E+04  0.00000000000E+00 0. -1.
         23    2    1    2    0    0  0.96843052214E+02  0.16102349923E+03 -0.11316867567E+04  0.11507904413E+04  0.91085565559E+02 0.  0.
        254    2    1    2    0    0 -0.96843052214E+02 -0.16102349923E+03  0.91286866370E+03  0.13125959510E+04  0.92426824532E+03 0.  0.
        -24    2    4    4    0    0 -0.15017863832E+03  0.14217219676E+03  0.96509866204E+03  0.99016623101E+03  0.79039108211E+02 0.  0.
         24    2    4    4    0    0  0.53335586109E+02 -0.30319569599E+03 -0.52229998335E+02  0.32242971997E+03  0.80378086462E+02 0.  0.
         11    1    3    3    0    0  0.83283375857E+02  0.16699028763E+03 -0.11011524992E+04  0.11168521404E+04  0.00000000000E+00 0. -1.
        -11    1    3    3    0    0  0.13559676356E+02 -0.59667883992E+01 -0.30534257504E+02  0.33938300900E+02  0.00000000000E+00 0.  1.
          2    1    6    6  502    0  0.72338272806E+02 -0.19768851196E+03 -0.42765400236E+02  0.21480794429E+03  0.00000000000E+00 0. -1.
          1    1    5    5  503    0 -0.11606357472E+03  0.14573931208E+03  0.84291284523E+03  0.86325706780E+03  0.00000000000E+00 0. -1.
         -2    1    5    5    0  503 -0.34115063603E+02 -0.35671153227E+01  0.12218581681E+03  0.12690916321E+03  0.00000000000E+00 0.  1.
         -1    1    6    6    0  502 -0.19002686697E+02 -0.10550718403E+03 -0.94645980991E+01  0.10762177568E+03  0.00000000000E+00 0.  1.
<mgrwt>
<rscale>  0 0.24536485E+04</rscale>
<asrwt>0</asrwt>
<pdfrwt beam="1">  1        3 0.20632342E+00 0.24536485E+04</pdfrwt>
<pdfrwt beam="2">  1       -3 0.17265910E+00 0.24536485E+04</pdfrwt>
<totfact> 0.69536815E-02</totfact>
</mgrwt>
</event>
<event>
12    1  0.1489025E-007  0.1352588E+04  0.7818608E-02  0.8988871E-01
         -2   -1    0    0    0  501 -0.00000000000E+00  0.00000000000E+00  0.27109483101E+03  0.27109483101E+03  0.00000000000E+00 0. -1.
          2   -1    0    0  501    0  0.00000000000E+00 -0.00000000000E+00 -0.16871354804E+04  0.16871354804E+04  0.00000000000E+00 0.  1.
         23    2    1    2    0    0 -0.17866810828E+03 -0.23429297871E+02  0.66923431187E+02  0.21298240253E+03  0.91714411249E+02 0.  0.
        254    2    1    2    0    0  0.17866810828E+03  0.23429297871E+02 -0.14829640806E+04  0.17452479088E+04  0.90235058276E+03 0.  0.
        -24    2    4    4    0    0  0.51045743293E+03 -0.58268082433E+02 -0.11474915645E+04  0.12597518150E+04  0.79219848564E+02 0.  0.
         24    2    4    4    0    0 -0.33178932465E+03  0.81697380304E+02 -0.33547251604E+03  0.48549609388E+03  0.80037680268E+02 0.  0.
         11    1    3    3    0    0 -0.12783787357E+03 -0.54929266601E+02  0.63888421553E+02  0.15310609608E+03  0.00000000000E+00 0. -1.
        -11    1    3    3    0    0 -0.50830234705E+02  0.31499968731E+02  0.30350096342E+01  0.59876306446E+02  0.00000000000E+00 0.  1.
          2    1    6    6  502    0 -0.50917768267E+02  0.55795034693E+01 -0.95254553149E+02  0.10815350147E+03  0.00000000000E+00 0. -1.
          1    1    5    5  503    0  0.95512453185E+00  0.43443895342E+01 -0.25762469999E+02  0.26143657811E+02  0.00000000000E+00 0. -1.
         -2    1    5    5    0  503  0.50950230839E+03 -0.62612471967E+02 -0.11217290945E+04  0.12336081572E+04  0.00000000000E+00 0.  1.
         -1    1    6    6    0  502 -0.28087155638E+03  0.76117876835E+02 -0.24021796289E+03  0.37734259242E+03  0.00000000000E+00 0.  1.
<mgrwt>
<rscale>  0 0.13525882E+04</rscale>
<asrwt>0</asrwt>
<pdfrwt beam="1">  1        2 0.25955931E+00 0.13525882E+04</pdfrwt>
<pdfrwt beam="2">  1       -2 0.41706897E-01 0.13525882E+04</pdfrwt>
<totfact> 0.53031137E+01</totfact>
</mgrwt>
</event>
<event>
12    1  0.1489025E-007  0.2260977E+04  0.7818608E-02  0.8493468E-01
          2   -1    0    0  501    0  0.00000000000E+00  0.00000000000E+00  0.20968615209E+04  0.20968615209E+04  0.00000000000E+00 0. -1.
         -2   -1    0    0    0  501 -0.00000000000E+00 -0.00000000000E+00 -0.60948442487E+03  0.60948442487E+03  0.00000000000E+00 0.  1.
         23    2    1    2    0    0 -0.11817677098E+03  0.32919229249E+03  0.16759487569E+04  0.17144067633E+04  0.89738508207E+02 0.  0.
        254    2    1    2    0    0  0.11817677098E+03 -0.32919229249E+03 -0.18857166087E+03  0.99193918241E+03  0.90887334414E+03 0.  0.
        -24    2    4    4    0    0  0.11625900664E+03 -0.10935231287E+03 -0.54042590939E+03  0.56917685965E+03  0.80175115042E+02 0.  0.
         24    2    4    4    0    0  0.19177643365E+01 -0.21983997962E+03  0.35185424852E+03  0.42276232275E+03  0.81198983236E+02 0.  0.
         13    1    3    3    0    0 -0.81331237083E+02  0.23775817714E+03  0.98914043275E+03  0.10205599035E+04  0.00000000000E+00 0. -1.
        -13    1    3    3    0    0 -0.36845533895E+02  0.91434115350E+02  0.68680832413E+03  0.69384685984E+03  0.00000000000E+00 0.  1.
          2    1    6    6  502    0  0.11970106318E+02 -0.10320950019E+03  0.23695238334E+03  0.25873135941E+03  0.00000000000E+00 0. -1.
          3    1    5    5  503    0  0.44785285195E+02 -0.95575090126E+02 -0.33519994579E+03  0.35142470499E+03  0.00000000000E+00 0. -1.
         -4    1    5    5    0  503  0.71473721447E+02 -0.13777222741E+02 -0.20522596360E+03  0.21775215466E+03  0.00000000000E+00 0.  1.
         -1    1    6    6    0  502 -0.10052341982E+02 -0.11663047943E+03  0.11490186519E+03  0.16403096334E+03  0.00000000000E+00 0.  1.
<mgrwt>
<rscale>  0 0.22609772E+04</rscale>
<asrwt>0</asrwt>
<pdfrwt beam="1">  1        2 0.32259408E+00 0.22609772E+04</pdfrwt>
<pdfrwt beam="2">  1       -2 0.93766836E-01 0.22609772E+04</pdfrwt>
<totfact> 0.51553042E+00</totfact>
</mgrwt>
</event>
<event>
12    1  0.1489025E-007  0.1994049E+04  0.7818608E-02  0.8609408E-01
          1   -1    0    0  501    0  0.00000000000E+00  0.00000000000E+00  0.51411083247E+03  0.51411083247E+03  0.00000000000E+00 0. -1.
         -1   -1    0    0    0  501 -0.00000000000E+00 -0.00000000000E+00 -0.19335483107E+04  0.19335483107E+04  0.00000000000E+00 0.  1.
         23    2    1    2    0    0  0.61685829140E+02  0.74433973807E+03 -0.29371906550E+03  0.80928321742E+03  0.10402715687E+03 0.  0.
        254    2    1    2    0    0 -0.61685829140E+02 -0.74433973807E+03 -0.11257184127E+04  0.16383759257E+04  0.92692337445E+03 0.  0.
        -24    2    4    4    0    0 -0.71805806962E+02 -0.56549695369E+02  0.14546906382E+03  0.19024104118E+03  0.81709627725E+02 0.  0.
         24    2    4    4    0    0  0.10119977822E+02 -0.68779004270E+03 -0.12711874765E+04  0.14481348846E+04  0.89551585952E+02 0.  0.
         13    1    3    3    0    0  0.45235199313E+02  0.56743859514E+03 -0.27005563676E+03  0.63004986268E+03  0.00000000000E+00 0.  1.
        -13    1    3    3    0    0  0.16450629827E+02  0.17690114293E+03 -0.23663428734E+02  0.17923335474E+03  0.00000000000E+00 0. -1.
          4    1    6    6  502    0  0.78595089457E+01 -0.35028781936E+03 -0.74057352813E+03  0.81927558175E+03  0.00000000000E+00 0. -1.
          1    1    5    5  503    0 -0.62286986118E+02 -0.53267097799E+02  0.53839471783E+02  0.98059885119E+02  0.00000000000E+00 0. -1.
         -2    1    5    5    0  503 -0.95188208440E+01 -0.32825975701E+01  0.91629592036E+02  0.92181156066E+02  0.00000000000E+00 0.  1.
         -3    1    6    6    0  502  0.22604688765E+01 -0.33750222334E+03 -0.53061394841E+03  0.62885930281E+03  0.00000000000E+00 0.  1.
<mgrwt>
<rscale>  0 0.19940493E+04</rscale>
<asrwt>0</asrwt>
<pdfrwt beam="1">  1        1 0.79093974E-01 0.19940493E+04</pdfrwt>
<pdfrwt beam="2">  1       -1 0.29746897E+00 0.19940493E+04</pdfrwt>
<totfact> 0.13582872E+00</totfact>
</mgrwt>
</event>
<event>
12    1  0.1489025E-007  0.2308490E+04  0.7818608E-02  0.8474581E-01
         -1   -1    0    0    0  501 -0.00000000000E+00  0.00000000000E+00  0.51309818970E+03  0.51309818970E+03  0.00000000000E+00 0.  1.
          1   -1    0    0  501    0  0.00000000000E+00 -0.00000000000E+00 -0.25965439880E+04  0.25965439880E+04  0.00000000000E+00 0. -1.
         23    2    1    2    0    0  0.70773397655E+03 -0.54192553350E+03 -0.35560441237E+03  0.96406869169E+03  0.91669399386E+02 0.  0.
        254    2    1    2    0    0 -0.70773397655E+03  0.54192553350E+03 -0.17278413859E+04  0.21455734860E+04  0.90745747201E+03 0.  0.
        -24    2    4    4    0    0 -0.10238560835E+03  0.60020026823E+03 -0.11449051537E+04  0.12993121542E+04  0.81737924955E+02 0.  0.
         24    2    4    4    0    0 -0.60534836819E+03 -0.58274734731E+02 -0.58293623223E+03  0.84626133178E+03  0.80628774249E+02 0.  0.
         11    1    3    3    0    0  0.15805626834E+03 -0.14453496174E+03 -0.12316300206E+03  0.24706530352E+03  0.00000000000E+00 0.  1.
        -11    1    3    3    0    0  0.54967770821E+03 -0.39739057177E+03 -0.23244141032E+03  0.71700338818E+03  0.00000000000E+00 0. -1.
          4    1    6    6  502    0 -0.25407605331E+03 -0.12005160455E+02 -0.29648878172E+03  0.39064608334E+03  0.00000000000E+00 0. -1.
          1    1    5    5  503    0 -0.37472888883E+02  0.41042329902E+03 -0.72466050306E+03  0.83365721162E+03  0.00000000000E+00 0. -1.
         -2    1    5    5    0  503 -0.64912719472E+02  0.18977696921E+03 -0.42024465059E+03  0.46565494258E+03  0.00000000000E+00 0.  1.
         -3    1    6    6    0  502 -0.35127231488E+03 -0.46269574275E+02 -0.28644745051E+03  0.45561524844E+03  0.00000000000E+00 0.  1.
<mgrwt>
<rscale>  0 0.23084904E+04</rscale>
<asrwt>0</asrwt>
<pdfrwt beam="1">  1        1 0.39946830E+00 0.23084904E+04</pdfrwt>
<pdfrwt beam="2">  1       -1 0.78938185E-01 0.23084904E+04</pdfrwt>
<totfact> 0.16818657E+00</totfact>
</mgrwt>
</event>
<event>
12    1  0.1489025E-007  0.2322392E+04  0.7818608E-02  0.8469144E-01
          4   -1    0    0  501    0  0.00000000000E+00  0.00000000000E+00  0.94333874620E+03  0.94333874620E+03  0.00000000000E+00 0. -1.
         -4   -1    0    0    0  501 -0.00000000000E+00 -0.00000000000E+00 -0.14293656526E+04  0.14293656526E+04  0.00000000000E+00 0.  1.
         23    2    1    2    0    0  0.65296458197E+03  0.47723143662E+03  0.35341174227E+03  0.88725135133E+03  0.90567717480E+02 0.  0.
        254    2    1    2    0    0 -0.65296458197E+03 -0.47723143662E+03 -0.83943864872E+03  0.14854530475E+04  0.92076105585E+03 0.  0.
        -24    2    4    4    0    0  0.87871869109E+02 -0.46517834354E+03 -0.32951773411E+03  0.58240375219E+03  0.80621565310E+02 0.  0.
         24    2    4    4    0    0 -0.74083645108E+03 -0.12053093083E+02 -0.50992091461E+03  0.90304929532E+03  0.80590112972E+02 0.  0.
         13    1    3    3    0    0  0.29199740813E+02  0.34030600995E+02  0.40955663407E+02  0.60729507100E+02  0.00000000000E+00 0. -1.
        -13    1    3    3    0    0  0.62376484116E+03  0.44320083563E+03  0.31245607887E+03  0.82652184423E+03  0.00000000000E+00 0.  1.
          4    1    6    6  502    0 -0.59431781233E+00  0.20182505304E+01 -0.87452812292E+01  0.89948036468E+01  0.00000000000E+00 0. -1.
          3    1    5    5  503    0  0.42003142666E+01 -0.15231823991E+03 -0.14140262789E+03  0.20787782956E+03  0.00000000000E+00 0. -1.
         -4    1    5    5    0  503  0.83671554842E+02 -0.31286010363E+03 -0.18811510623E+03  0.37452592263E+03  0.00000000000E+00 0.  1.
         -3    1    6    6    0  502 -0.74024213327E+03 -0.14071343614E+02 -0.50117563338E+03  0.89405449167E+03  0.00000000000E+00 0.  1.
<mgrwt>
<rscale>  0 0.23223919E+04</rscale>
<asrwt>0</asrwt>
<pdfrwt beam="1">  1        4 0.14512904E+00 0.23223919E+04</pdfrwt>
<pdfrwt beam="2">  1       -4 0.21990241E+00 0.23223919E+04</pdfrwt>
<totfact> 0.57410247E-02</totfact>
</mgrwt>
</event>
<event>
12    1  0.1489025E-007  0.1097463E+04  0.7818608E-02  0.9207668E-01
         -2   -1    0    0    0  501 -0.00000000000E+00  0.00000000000E+00  0.13625707857E+03  0.13625707857E+03  0.00000000000E+00 0.  1.
          2   -1    0    0  501    0  0.00000000000E+00 -0.00000000000E+00 -0.22098408279E+04  0.22098408279E+04  0.00000000000E+00 0. -1.
         23    2    1    2    0    0 -0.44859896086E+02  0.71219184404E+02 -0.51799502440E+02  0.13467387245E+03  0.91483774326E+02 0.  0.
        254    2    1    2    0    0  0.44859896086E+02 -0.71219184404E+02 -0.20217842469E+04  0.22114240341E+04  0.89202025468E+03 0.  0.
        -24    2    4    4    0    0 -0.24094539046E+03  0.28954862702E+03 -0.58435717160E+03  0.69982911895E+03  0.79965012033E+02 0.  0.
         24    2    4    4    0    0  0.28580528654E+03 -0.36076781142E+03 -0.14374270753E+04  0.15115949151E+04  0.82972976855E+02 0.  0.
         13    1    3    3    0    0 -0.19475221501E+02 -0.20485769181E+02 -0.18860756281E+02  0.33980569726E+02  0.00000000000E+00 0.  1.
        -13    1    3    3    0    0 -0.25384674585E+02  0.91704953585E+02 -0.32938746160E+02  0.10069330273E+03  0.00000000000E+00 0. -1.
          2    1    6    6  502    0  0.20143595675E+03 -0.23090850721E+03 -0.83061250675E+03  0.88533175688E+03  0.00000000000E+00 0. -1.
          1    1    5    5  503    0 -0.15226959442E+03  0.15171653901E+03 -0.39245769264E+03  0.44746729278E+03  0.00000000000E+00 0. -1.
         -2    1    5    5    0  503 -0.88675796042E+02  0.13783208800E+03 -0.19189947895E+03  0.25236182617E+03  0.00000000000E+00 0.  1.
         -1    1    6    6    0  502  0.84369329799E+02 -0.12985930421E+03 -0.60681456859E+03  0.62626315822E+03  0.00000000000E+00 0.  1.
<mgrwt>
<rscale>  0 0.10974634E+04</rscale>
<asrwt>0</asrwt>
<pdfrwt beam="1">  1        2 0.33997548E+00 0.10974634E+04</pdfrwt>
<pdfrwt beam="2">  1       -2 0.20962630E-01 0.10974634E+04</pdfrwt>
<totfact> 0.10005556E+02</totfact>
</mgrwt>
</event>
<event>
12    1  0.1489025E-007  0.1084527E+04  0.7818608E-02  0.9220405E-01
          1   -1    0    0  501    0  0.00000000000E+00  0.00000000000E+00  0.15658544170E+04  0.15658544170E+04  0.00000000000E+00 0.  1.
         -1   -1    0    0    0  501 -0.00000000000E+00 -0.00000000000E+00 -0.18778873779E+03  0.18778873779E+03  0.00000000000E+00 0. -1.
         23    2    1    2    0    0  0.25339311545E+02 -0.72504981624E+02  0.44448502642E+03  0.46046802983E+03  0.92546284160E+02 0.  0.
        254    2    1    2    0    0 -0.25339311545E+02  0.72504981624E+02  0.93358065280E+03  0.12931751250E+04  0.89153239734E+03 0.  0.
        -24    2    4    4    0    0  0.13523133084E+03  0.40339942529E+03  0.21805819957E+03  0.48490243818E+03  0.81008561216E+02 0.  0.
         24    2    4    4    0    0 -0.16057064238E+03 -0.33089444366E+03  0.71552245323E+03  0.80827268680E+03  0.77835024928E+02 0.  0.
         11    1    3    3    0    0  0.81517351529E+01 -0.73597896593E+02  0.43407171882E+03  0.44034231940E+03  0.00000000000E+00 0.  1.
        -11    1    3    3    0    0  0.17187576392E+02  0.10929149691E+01  0.10413307601E+02  0.20125710436E+02  0.00000000000E+00 0. -1.
          4    1    6    6  502    0 -0.49035555198E+02 -0.42301889045E+02  0.96189528658E+02  0.11595844477E+03  0.00000000000E+00 0. -1.
          1    1    5    5  503    0  0.52264381091E+02  0.10549306551E+03  0.97965110621E+02  0.15315846467E+03  0.00000000000E+00 0. -1.
         -2    1    5    5    0  503  0.82966949748E+02  0.29790635977E+03  0.12009308895E+03  0.33174397351E+03  0.00000000000E+00 0.  1.
         -3    1    6    6    0  502 -0.11153508718E+03 -0.28859255462E+03  0.61933292457E+03  0.69231424203E+03  0.00000000000E+00 0.  1.
<mgrwt>
<rscale>  0 0.10845272E+04</rscale>
<asrwt>0</asrwt>
<pdfrwt beam="1">  1        1 0.24090067E+00 0.10845272E+04</pdfrwt>
<pdfrwt beam="2">  1       -1 0.28890576E-01 0.10845272E+04</pdfrwt>
<totfact> 0.64051014E+01</totfact>
</mgrwt>
</event>
<event>
12    1  0.1489025E-007  0.3283905E+04  0.7818608E-02  0.8167003E-01
         -1   -1    0    0    0  501 -0.00000000000E+00  0.00000000000E+00  0.96071235728E+03  0.96071235728E+03  0.00000000000E+00 0.  1.
          1   -1    0    0  501    0  0.00000000000E+00 -0.00000000000E+00 -0.28062588032E+04  0.28062588032E+04  0.00000000000E+00 0. -1.
         23    2    1    2    0    0 -0.29784545208E+03 -0.17979546104E+03 -0.25423700177E+04  0.25676918566E+04  0.91421236822E+02 0.  0.
        254    2    1    2    0    0  0.29784545208E+03  0.17979546104E+03  0.69682357176E+03  0.11992793039E+04  0.91195912046E+03 0.  0.
        -24    2    4    4    0    0 -0.22832298746E+03  0.30687699448E+03  0.13069297958E+03  0.41219319688E+03  0.80732275403E+02 0.  0.
         24    2    4    4    0    0  0.52616843954E+03 -0.12708153345E+03  0.56613059218E+03  0.78708610699E+03  0.77445138669E+02 0.  0.
         11    1    3    3    0    0 -0.17773921875E+02 -0.38951340695E+02 -0.20756802324E+03  0.21193773499E+03  0.00000000000E+00 0.  1.
        -11    1    3    3    0    0 -0.28007153021E+03 -0.14084412034E+03 -0.23348019944E+04  0.23557541216E+04  0.00000000000E+00 0. -1.
          4    1    6    6  502    0  0.46563178232E+03 -0.10211909030E+03  0.46045231592E+03  0.66276511718E+03  0.00000000000E+00 0. -1.
          3    1    5    5  503    0 -0.20004024714E+03  0.29136955008E+03  0.13748845083E+03  0.37922999525E+03  0.00000000000E+00 0. -1.
         -4    1    5    5    0  503 -0.28282740315E+02  0.15507444407E+02 -0.67954712408E+01  0.32963201622E+02  0.00000000000E+00 0.  1.
         -3    1    6    6    0  502  0.60536657225E+02 -0.24962443147E+02  0.10567827626E+03  0.12432098981E+03  0.00000000000E+00 0.  1.
<mgrwt>
<rscale>  0 0.32839047E+04</rscale>
<asrwt>0</asrwt>
<pdfrwt beam="1">  1        1 0.43173211E+00 0.32839047E+04</pdfrwt>
<pdfrwt beam="2">  1       -1 0.14780190E+00 0.32839047E+04</pdfrwt>
<totfact> 0.24862050E-01</totfact>
</mgrwt>
</event>
<event>
12    1  0.1489025E-007  0.2703636E+04  0.7818608E-02  0.8333826E-01
          2   -1    0    0  501    0  0.00000000000E+00  0.00000000000E+00  0.20374776522E+04  0.20374776522E+04  0.00000000000E+00 0. -1.
         -2   -1    0    0    0  501 -0.00000000000E+00 -0.00000000000E+00 -0.89689896155E+03  0.89689896155E+03  0.00000000000E+00 0.  1.
         23    2    1    2    0    0  0.11860470087E+04 -0.18255984436E+03  0.48039606316E+03  0.12961040289E+04  0.95234829867E+02 0.  0.
        254    2    1    2    0    0 -0.11860470087E+04  0.18255984436E+03  0.66018262750E+03  0.16382725848E+04  0.89892177469E+03 0.  0.
        -24    2    4    4    0    0 -0.21166593167E+03 -0.26480300943E+03  0.40322181263E+03  0.53293102646E+03  0.80650780201E+02 0.  0.
         24    2    4    4    0    0 -0.97438107699E+03  0.44736285380E+03  0.25696081487E+03  0.11053415584E+04  0.78734326239E+02 0.  0.
         13    1    3    3    0    0  0.66071118639E+03 -0.13849775343E+03  0.23718601593E+03  0.71552645351E+03  0.00000000000E+00 0.  1.
        -13    1    3    3    0    0  0.52533582227E+03 -0.44062090934E+02  0.24321004724E+03  0.58057757543E+03  0.00000000000E+00 0. -1.
          2    1    6    6  502    0 -0.96312866895E+03  0.43965592938E+03  0.26222411769E+03  0.10907225390E+04  0.00000000000E+00 0. -1.
          3    1    5    5  503    0 -0.17387972052E+03 -0.24058106712E+03  0.30852884940E+03  0.42813953097E+03  0.00000000000E+00 0. -1.
         -4    1    5    5    0  503 -0.37786211153E+02 -0.24221942315E+02  0.94692963222E+02  0.10479149549E+03  0.00000000000E+00 0.  1.
         -1    1    6    6    0  502 -0.11252408036E+02  0.77069244152E+01 -0.52633028195E+01  0.14619019363E+02  0.00000000000E+00 0.  1.
<mgrwt>
<rscale>  0 0.27036358E+04</rscale>
<asrwt>0</asrwt>
<pdfrwt beam="1">  1        2 0.31345810E+00 0.27036358E+04</pdfrwt>
<pdfrwt beam="2">  1       -2 0.13798446E+00 0.27036358E+04</pdfrwt>
<totfact> 0.20828021E+00</totfact>
</mgrwt>
</event>
<event>
12    1  0.1489025E-007  0.2137117E+04  0.7818608E-02  0.8545067E-01
          2   -1    0    0  501    0  0.00000000000E+00  0.00000000000E+00  0.17752049975E+04  0.17752049975E+04  0.00000000000E+00 0. -1.
         -2   -1    0    0    0  501 -0.00000000000E+00 -0.00000000000E+00 -0.64320315393E+03  0.64320315393E+03  0.00000000000E+00 0.  1.
         23    2    1    2    0    0 -0.36739965585E+02 -0.69730973800E+03 -0.13518547059E+03  0.71724785584E+03  0.92621161001E+02 0.  0.
        254    2    1    2    0    0  0.36739965585E+02  0.69730973800E+03  0.12671873142E+04  0.17011602956E+04  0.89475804905E+03 0.  0.
        -24    2    4    4    0    0 -0.72499159751E+02  0.89050153869E+03  0.97723669135E+03  0.13266681373E+04  0.82508648425E+02 0.  0.
         24    2    4    4    0    0  0.10923912534E+03 -0.19319180069E+03  0.28995062281E+03  0.37449215828E+03  0.83167028242E+02 0.  0.
         11    1    3    3    0    0 -0.37162890677E+02 -0.60867498292E+03 -0.85893366514E+02  0.61582788641E+03  0.00000000000E+00 0. -1.
        -11    1    3    3    0    0  0.42292509273E+00 -0.88634755082E+02 -0.49292104072E+02  0.10141996942E+03  0.00000000000E+00 0.  1.
          4    1    6    6  502    0  0.29218682660E+02 -0.87011023770E+02  0.62542908723E+02  0.11106874045E+03  0.00000000000E+00 0. -1.
          3    1    5    5  503    0 -0.54591613570E+02  0.44950577287E+03  0.54975798730E+03  0.71222856494E+03  0.00000000000E+00 0. -1.
         -4    1    5    5    0  503 -0.17907546180E+02  0.44099576582E+03  0.42747870405E+03  0.61443957237E+03  0.00000000000E+00 0.  1.
         -3    1    6    6    0  502  0.80020442675E+02 -0.10618077692E+03  0.22740771409E+03  0.26342341783E+03  0.00000000000E+00 0.  1.
<mgrwt>
<rscale>  0 0.21371172E+04</rscale>
<asrwt>0</asrwt>
<pdfrwt beam="1">  1        2 0.27310846E+00 0.21371172E+04</pdfrwt>
<pdfrwt beam="2">  1       -2 0.98954332E-01 0.21371172E+04</pdfrwt>
<totfact> 0.69297019E+00</totfact>
</mgrwt>
</event>
<event>
12    1  0.1489025E-007  0.1525683E+04  0.7818608E-02  0.8867551E-01
          2   -1    0    0  501    0  0.00000000000E+00  0.00000000000E+00  0.17882284555E+04  0.17882284555E+04  0.00000000000E+00 0. -1.
         -2   -1    0    0    0  501 -0.00000000000E+00 -0.00000000000E+00 -0.32542101754E+03  0.32542101754E+03  0.00000000000E+00 0.  1.
         23    2    1    2    0    0 -0.18717284004E+03  0.29570890530E+03  0.41984561037E+01  0.36178771158E+03  0.91625828729E+02 0.  0.
        254    2    1    2    0    0  0.18717284004E+03 -0.29570890530E+03  0.14586089818E+04  0.17518617614E+04  0.90498731513E+03 0.  0.
        -24    2    4    4    0    0 -0.23677942915E+03  0.13978172008E+03  0.81109626179E+03  0.86019778723E+03  0.80372009603E+02 0.  0.
         24    2    4    4    0    0  0.42395226920E+03 -0.43549062539E+03  0.64751272005E+03  0.89166397421E+03  0.80026926164E+02 0.  0.
         13    1    3    3    0    0 -0.12195839262E+03  0.26051852706E+03  0.23676841331E+01  0.28766188208E+03  0.00000000000E+00 0.  1.
        -13    1    3    3    0    0 -0.65214447421E+02  0.35190378245E+02  0.18307719706E+01  0.74125829503E+02  0.00000000000E+00 0. -1.
          4    1    6    6  502    0  0.41904457810E+02 -0.35777722665E+02  0.96098777202E+02  0.11077456388E+03  0.00000000000E+00 0. -1.
          3    1    5    5  503    0 -0.92959689404E+02  0.43957407861E+02  0.42374066714E+03  0.43603888651E+03  0.00000000000E+00 0. -1.
         -4    1    5    5    0  503 -0.14381973975E+03  0.95824312222E+02  0.38735559464E+03  0.42415890071E+03  0.00000000000E+00 0.  1.
         -3    1    6    6    0  502  0.38204781139E+03 -0.39971290272E+03  0.55141394285E+03  0.78088941032E+03  0.00000000000E+00 0.  1.
<mgrwt>
<rscale>  0 0.15256830E+04</rscale>
<asrwt>0</asrwt>
<pdfrwt beam="1">  1        2 0.27511206E+00 0.15256830E+04</pdfrwt>
<pdfrwt beam="2">  1       -2 0.50064773E-01 0.15256830E+04</pdfrwt>
<totfact> 0.31880110E+01</totfact>
</mgrwt>
</event>
<event>
12    1  0.1489025E-007  0.2181753E+04  0.7818608E-02  0.8526061E-01
         -2   -1    0    0    0  501 -0.00000000000E+00  0.00000000000E+00  0.53805100832E+03  0.53805100832E+03  0.00000000000E+00 0.  1.
          2   -1    0    0  501    0  0.00000000000E+00 -0.00000000000E+00 -0.22117078785E+04  0.22117078785E+04  0.00000000000E+00 0. -1.
         23    2    1    2    0    0 -0.25325046137E+03 -0.25403957534E+03 -0.17744131674E+04  0.18124981637E+04  0.89082000067E+02 0.  0.
        254    2    1    2    0    0  0.25325046137E+03  0.25403957534E+03  0.10075629721E+03  0.93726072315E+03  0.86001972635E+03 0.  0.
        -24    2    4    4    0    0 -0.31351980746E+03  0.76324976157E+02  0.52272677452E+02  0.33647265187E+03  0.79757388314E+02 0.  0.
         24    2    4    4    0    0  0.56677026883E+03  0.17771459918E+03  0.48483619754E+02  0.60078807128E+03  0.76056747319E+02 0.  0.
         13    1    3    3    0    0 -0.86110218842E+02 -0.14623572722E+03 -0.75064542096E+03  0.76958976456E+03  0.00000000000E+00 0.  1.
        -13    1    3    3    0    0 -0.16714024253E+03 -0.10780384812E+03 -0.10237677464E+04  0.10429083991E+04  0.00000000000E+00 0. -1.
          2    1    6    6  502    0  0.39683511574E+02  0.21203204826E+02 -0.14707828626E+02  0.47335792046E+02  0.00000000000E+00 0. -1.
          3    1    5    5  503    0 -0.46942936782E+02  0.41261248451E+02  0.20258847203E+02  0.65700462916E+02  0.00000000000E+00 0. -1.
         -4    1    5    5    0  503 -0.26657687068E+03  0.35063727706E+02  0.32013830248E+02  0.27077218895E+03  0.00000000000E+00 0.  1.
         -1    1    6    6    0  502  0.52708675726E+03  0.15651139435E+03  0.63191448380E+02  0.55345227923E+03  0.00000000000E+00 0.  1.
<mgrwt>
<rscale>  0 0.21817531E+04</rscale>
<asrwt>0</asrwt>
<pdfrwt beam="1">  1        2 0.34026275E+00 0.21817531E+04</pdfrwt>
<pdfrwt beam="2">  1       -2 0.82777078E-01 0.21817531E+04</pdfrwt>
<totfact> 0.59574623E+00</totfact>
</mgrwt>
</event>
<event>
12    1  0.1489025E-007  0.2185125E+04  0.7818608E-02  0.8524645E-01
          2   -1    0    0  501    0  0.00000000000E+00  0.00000000000E+00  0.53685626400E+04  0.53685626400E+04  0.00000000000E+00 0. -1.
         -2   -1    0    0    0  501 -0.00000000000E+00 -0.00000000000E+00 -0.22234870802E+03  0.22234870802E+03  0.00000000000E+00 0.  1.
         23    2    1    2    0    0  0.88119761763E+03  0.14675235953E+03  0.18344950595E+04  0.20424295647E+04  0.90005040755E+02 0.  0.
        254    2    1    2    0    0 -0.88119761763E+03 -0.14675235953E+03  0.33117188725E+04  0.35484817833E+04  0.90895301275E+03 0.  0.
        -24    2    4    4    0    0 -0.48115395808E+03  0.33826359782E+03  0.11270846609E+04  0.12738191638E+04  0.79774909521E+02 0.  0.
         24    2    4    4    0    0 -0.40004365954E+03 -0.48501595735E+03  0.21846342116E+04  0.22746626195E+04  0.78663750103E+02 0.  0.
         11    1    3    3    0    0  0.59174941096E+03  0.12892925879E+03  0.13062105340E+04  0.14397833442E+04  0.00000000000E+00 0. -1.
        -11    1    3    3    0    0  0.28944820667E+03  0.17823100745E+02  0.52828452548E+03  0.60264622053E+03  0.00000000000E+00 0.  1.
          4    1    6    6  502    0 -0.83314644324E+01  0.20389881030E+01  0.30665055799E+02  0.31842054255E+02  0.00000000000E+00 0. -1.
          1    1    5    5  503    0 -0.13430789494E+03  0.61094570577E+02  0.23770490459E+03  0.27977630147E+03  0.00000000000E+00 0. -1.
         -2    1    5    5    0  503 -0.34684606315E+03  0.27716902724E+03  0.88937975629E+03  0.99404286229E+03  0.00000000000E+00 0.  1.
         -3    1    6    6    0  502 -0.39171219511E+03 -0.48705494545E+03  0.21539691558E+04  0.22428205652E+04  0.00000000000E+00 0.  1.
<mgrwt>
<rscale>  0 0.21851251E+04</rscale>
<asrwt>0</asrwt>
<pdfrwt beam="1">  1        2 0.82593262E+00 0.21851251E+04</pdfrwt>
<pdfrwt beam="2">  1       -2 0.34207497E-01 0.21851251E+04</pdfrwt>
<totfact> 0.76156494E-02</totfact>
</mgrwt>
</event>
<event>
12    1  0.1489025E-007  0.1500027E+04  0.7818608E-02  0.8884435E-01
         -2   -1    0    0    0  501 -0.00000000000E+00  0.00000000000E+00  0.49326735089E+03  0.49326735089E+03  0.00000000000E+00 0.  1.
          2   -1    0    0  501    0  0.00000000000E+00 -0.00000000000E+00 -0.11403964310E+04  0.11403964310E+04  0.00000000000E+00 0. -1.
         23    2    1    2    0    0  0.25761808955E+03  0.47972332841E+02 -0.63560531975E+03  0.69338546934E+03  0.90115824472E+02 0.  0.
        254    2    1    2    0    0 -0.25761808955E+03 -0.47972332841E+02 -0.11523760346E+02  0.94027831253E+03  0.90295187202E+03 0.  0.
        -24    2    4    4    0    0 -0.24235147966E+03  0.39088370159E+03  0.10850287885E+03  0.47835546210E+03  0.74342219086E+02 0.  0.
         24    2    4    4    0    0 -0.15266609895E+02 -0.43885603443E+03 -0.12002663920E+03  0.46192285043E+03  0.78349456307E+02 0.  0.
         11    1    3    3    0    0  0.13893072618E+01  0.17081457950E+02 -0.63303469378E+02  0.65582281263E+02  0.00000000000E+00 0.  1.
        -11    1    3    3    0    0  0.25622878229E+03  0.30890874890E+02 -0.57230185037E+03  0.62780318808E+03  0.00000000000E+00 0. -1.
          2    1    6    6  502    0  0.30184417533E+02 -0.12104664831E+03 -0.26537859405E+02  0.12754469064E+03  0.00000000000E+00 0. -1.
          1    1    5    5  503    0 -0.12002904814E+01  0.39748861696E+02  0.58831361763E+01  0.40199800928E+02  0.00000000000E+00 0. -1.
         -2    1    5    5    0  503 -0.24115118917E+03  0.35113483989E+03  0.10261974268E+03  0.43815566117E+03  0.00000000000E+00 0.  1.
         -1    1    6    6    0  502 -0.45451027427E+02 -0.31780938612E+03 -0.93488779795E+02  0.33437815980E+03  0.00000000000E+00 0.  1.
<mgrwt>
<rscale>  0 0.15000271E+04</rscale>
<asrwt>0</asrwt>
<pdfrwt beam="1">  1        2 0.17544560E+00 0.15000271E+04</pdfrwt>
<pdfrwt beam="2">  1       -2 0.75887286E-01 0.15000271E+04</pdfrwt>
<totfact> 0.30933093E+01</totfact>
</mgrwt>
</event>
<event>
12    1  0.1489025E-007  0.1878450E+04  0.7818608E-02  0.8665658E-01
          1   -1    0    0  501    0  0.00000000000E+00  0.00000000000E+00  0.15790216052E+04  0.15790216052E+04  0.00000000000E+00 0. -1.
         -1   -1    0    0    0  501 -0.00000000000E+00 -0.00000000000E+00 -0.55866443473E+03  0.55866443473E+03  0.00000000000E+00 0.  1.
         23    2    1    2    0    0 -0.24803079535E+03 -0.51242410577E+03 -0.17857904918E+03  0.60352900023E+03  0.90879247880E+02 0.  0.
        254    2    1    2    0    0  0.24803079535E+03  0.51242410577E+03  0.11989362197E+04  0.15341570397E+04  0.76947516141E+03 0.  0.
        -24    2    4    4    0    0 -0.21986458593E+03 -0.19786044562E+02  0.21084244242E+03  0.31567178645E+03  0.80387919021E+02 0.  0.
         24    2    4    4    0    0  0.46789538128E+03  0.53221015033E+03  0.98809377724E+03  0.12184852533E+04  0.78760826815E+02 0.  0.
         13    1    3    3    0    0 -0.19418443033E+03 -0.30434960939E+03 -0.12468771067E+03  0.38194672784E+03  0.00000000000E+00 0.  1.
        -13    1    3    3    0    0 -0.53846365023E+02 -0.20807449638E+03 -0.53891338517E+02  0.22158227239E+03  0.00000000000E+00 0. -1.
          2    1    6    6  502    0  0.45143864787E+03  0.51432325955E+03  0.97403272532E+03  0.11904054007E+04  0.00000000000E+00 0. -1.
          3    1    5    5  503    0 -0.22295169973E+03 -0.29307409324E+02  0.20319706548E+03  0.30307661090E+03  0.00000000000E+00 0. -1.
         -4    1    5    5    0  503  0.30871137959E+01  0.95213647618E+01  0.76453769396E+01  0.12595175547E+02  0.00000000000E+00 0.  1.
         -1    1    6    6    0  502  0.16456733415E+02  0.17886890787E+02  0.14061051922E+02  0.28079852526E+02  0.00000000000E+00 0.  1.
<mgrwt>
<rscale>  0 0.18784496E+04</rscale>
<asrwt>0</asrwt>
<pdfrwt beam="1">  1        1 0.24292640E+00 0.18784496E+04</pdfrwt>
<pdfrwt beam="2">  1       -1 0.85948375E-01 0.18784496E+04</pdfrwt>
<totfact> 0.72258136E+00</totfact>
</mgrwt>
</event>
<event>
12    1  0.1489025E-007  0.1438787E+04  0.7818608E-02  0.8926212E-01
         -3   -1    0    0    0  501 -0.00000000000E+00  0.00000000000E+00  0.50640058996E+03  0.50640058996E+03  0.00000000000E+00 0.  1.
          3   -1    0    0  501    0  0.00000000000E+00 -0.00000000000E+00 -0.10219711488E+04  0.10219711488E+04  0.00000000000E+00 0. -1.
         23    2    1    2    0    0 -0.19711942142E+03 -0.40475747265E+02 -0.59858423510E+03  0.63843334920E+03  0.93806729196E+02 0.  0.
        254    2    1    2    0    0  0.19711942142E+03  0.40475747265E+02  0.83013676292E+02  0.88993838953E+03  0.86290481184E+03 0.  0.
        -24    2    4    4    0    0  0.73401719167E+02  0.25966468745E+03  0.39186084310E+03  0.48356539530E+03  0.86411856214E+02 0.  0.
         24    2    4    4    0    0  0.12371770225E+03 -0.21918894018E+03 -0.30884716681E+03  0.40637299423E+03  0.80016102394E+02 0.  0.
         11    1    3    3    0    0 -0.55650948025E+01 -0.74290734053E+01 -0.14058294754E+03  0.14088905760E+03  0.00000000000E+00 0.  1.
        -11    1    3    3    0    0 -0.19155432661E+03 -0.33046673860E+02 -0.45800128756E+03  0.49754429160E+03  0.00000000000E+00 0. -1.
          2    1    6    6  502    0  0.10087252404E+03 -0.13940696335E+03 -0.15510054582E+03  0.23165868611E+03  0.00000000000E+00 0. -1.
          3    1    5    5  503    0  0.52877207218E+02  0.22877851550E+03  0.37585833509E+03  0.44317614585E+03  0.00000000000E+00 0. -1.
         -4    1    5    5    0  503  0.20524511950E+02  0.30886171948E+02  0.16002508011E+02  0.40389249449E+02  0.00000000000E+00 0.  1.
         -1    1    6    6    0  502  0.22845178207E+02 -0.79781976832E+02 -0.15374662099E+03  0.17471430811E+03  0.00000000000E+00 0.  1.
<mgrwt>
<rscale>  0 0.14387867E+04</rscale>
<asrwt>0</asrwt>
<pdfrwt beam="1">  1        3 0.15722633E+00 0.14387867E+04</pdfrwt>
<pdfrwt beam="2">  1       -3 0.77907784E-01 0.14387867E+04</pdfrwt>
<totfact> 0.11223632E+00</totfact>
</mgrwt>
</event>
<event>
12    1  0.1489025E-007  0.2474489E+04  0.7818608E-02  0.8412131E-01
          2   -1    0    0  501    0  0.00000000000E+00  0.00000000000E+00  0.24143563620E+04  0.24143563620E+04  0.00000000000E+00 0. -1.
         -2   -1    0    0    0  501 -0.00000000000E+00 -0.00000000000E+00 -0.63402991395E+03  0.63402991395E+03  0.00000000000E+00 0.  1.
         23    2    1    2    0    0 -0.19224660060E+03  0.13185902275E+03 -0.51497542404E+03  0.57273182341E+03  0.92067892642E+02 0.  0.
        254    2    1    2    0    0  0.19224660060E+03 -0.13185902275E+03  0.22953018720E+04  0.24756544525E+04  0.89783557908E+03 0.  0.
        -24    2    4    4    0    0  0.20860104064E+03  0.17904000796E+03  0.18431981773E+03  0.34033049782E+03  0.79254866952E+02 0.  0.
         24    2    4    4    0    0 -0.16354440039E+02 -0.31089903071E+03  0.21109820543E+04  0.21353239547E+04  0.80233925341E+02 0.  0.
         13    1    3    3    0    0 -0.17138808390E+02  0.29098099142E+01 -0.12515763913E+03  0.12635917212E+03  0.00000000000E+00 0. -1.
        -13    1    3    3    0    0 -0.17510779221E+03  0.12894921283E+03 -0.38981778491E+03  0.44637265128E+03  0.00000000000E+00 0.  1.
          2    1    6    6  502    0 -0.46686186904E+02 -0.18345191153E+03  0.13366113763E+04  0.13499496935E+04  0.00000000000E+00 0. -1.
          1    1    5    5  503    0  0.19870598098E+03  0.13635264777E+03  0.14370559803E+03  0.28058405217E+03  0.00000000000E+00 0. -1.
         -2    1    5    5    0  503  0.98950596605E+01  0.42687360194E+02  0.40614219699E+02  0.59746445649E+02  0.00000000000E+00 0.  1.
         -1    1    6    6    0  502  0.30331746864E+02 -0.12744711918E+03  0.77437067802E+03  0.78537426113E+03  0.00000000000E+00 0.  1.
<mgrwt>
<rscale>  0 0.24744892E+04</rscale>
<asrwt>0</asrwt>
<pdfrwt beam="1">  1        2 0.37143943E+00 0.24744892E+04</pdfrwt>
<pdfrwt beam="2">  1       -2 0.97543065E-01 0.24744892E+04</pdfrwt>
<totfact> 0.30534776E+00</totfact>
</mgrwt>
</event>
<event>
12    1  0.1489025E-007  0.2832549E+04  0.7818608E-02  0.8293234E-01
          1   -1    0    0  501    0  0.00000000000E+00  0.00000000000E+00  0.30551321602E+04  0.30551321602E+04  0.00000000000E+00 0. -1.
         -1   -1    0    0    0  501 -0.00000000000E+00 -0.00000000000E+00 -0.65654546096E+03  0.65654546096E+03  0.00000000000E+00 0.  1.
         23    2    1    2    0    0 -0.95694610092E+03  0.77916049341E+03  0.13395710233E+04  0.18236695957E+04  0.92105120812E+02 0.  0.
        254    2    1    2    0    0  0.95694610092E+03 -0.77916049341E+03  0.10590156759E+04  0.18880080255E+04  0.95928264229E+03 0.  0.
        -24    2    4    4    0    0  0.10437616740E+04 -0.88946503269E+03  0.82208129543E+03  0.16009757616E+04  0.81971071269E+02 0.  0.
         24    2    4    4    0    0 -0.86815573121E+02  0.11030453927E+03  0.23693438051E+03  0.28703226382E+03  0.80904787796E+02 0.  0.
         13    1    3    3    0    0 -0.63748509748E+03  0.54615508589E+03  0.85436651233E+03  0.11977540502E+04  0.00000000000E+00 0. -1.
        -13    1    3    3    0    0 -0.31946100344E+03  0.23300540752E+03  0.48520451101E+03  0.62591554554E+03  0.00000000000E+00 0.  1.
          2    1    6    6  502    0 -0.12066449032E+01 -0.10327503880E+02  0.36320799540E+02  0.37779806875E+02  0.00000000000E+00 0. -1.
          1    1    5    5  503    0  0.70805282861E+03 -0.55823855497E+03  0.51835845827E+03  0.10400310494E+04  0.00000000000E+00 0. -1.
         -2    1    5    5    0  503  0.33570884542E+03 -0.33122647771E+03  0.30372283716E+03  0.56094471229E+03  0.00000000000E+00 0.  1.
         -1    1    6    6    0  502 -0.85608928218E+02  0.12063204315E+03  0.20061358097E+03  0.24925245695E+03  0.00000000000E+00 0.  1.
<mgrwt>
<rscale>  0 0.28325488E+04</rscale>
<asrwt>0</asrwt>
<pdfrwt beam="1">  1        1 0.47002032E+00 0.28325488E+04</pdfrwt>
<pdfrwt beam="2">  1       -1 0.10100700E+00 0.28325488E+04</pdfrwt>
<totfact> 0.43767728E-01</totfact>
</mgrwt>
</event>
<event>
12    1  0.1489025E-007  0.1894550E+04  0.7818608E-02  0.8657574E-01
         -3   -1    0    0    0  501 -0.00000000000E+00  0.00000000000E+00  0.89212584692E+03  0.89212584692E+03  0.00000000000E+00 0. -1.
          3   -1    0    0  501    0  0.00000000000E+00 -0.00000000000E+00 -0.10058334114E+04  0.10058334114E+04  0.00000000000E+00 0.  1.
         23    2    1    2    0    0  0.32712044850E+03 -0.38163805236E+03  0.49125147281E+03  0.70894686445E+03  0.92856104999E+02 0.  0.
        254    2    1    2    0    0 -0.32712044850E+03  0.38163805236E+03 -0.60495903732E+03  0.11890123939E+04  0.89169481615E+03 0.  0.
        -24    2    4    4    0    0 -0.80465505997E+02  0.25250375045E+03 -0.79567326104E+03  0.84247235158E+03  0.80192787710E+02 0.  0.
         24    2    4    4    0    0 -0.24665494251E+03  0.12913430191E+03  0.19071422372E+03  0.34654004231E+03  0.78763933378E+02 0.  0.
         13    1    3    3    0    0  0.57615090753E+02 -0.48783060656E+02  0.35122606835E+02  0.83263936973E+02  0.00000000000E+00 0. -1.
        -13    1    3    3    0    0  0.26950535775E+03 -0.33285499171E+03  0.45612886598E+03  0.62568292748E+03  0.00000000000E+00 0.  1.
          4    1    6    6  502    0 -0.58980565251E+02  0.24370861946E+02  0.77691255515E+01  0.64288453871E+02  0.00000000000E+00 0. -1.
          3    1    5    5  503    0  0.12873899345E+02  0.58271979086E+02 -0.13669689593E+03  0.14915563076E+03  0.00000000000E+00 0. -1.
         -4    1    5    5    0  503 -0.93339405342E+02  0.19423177136E+03 -0.65897636511E+03  0.69331672082E+03  0.00000000000E+00 0.  1.
         -3    1    6    6    0  502 -0.18767437726E+03  0.10476343997E+03  0.18294509817E+03  0.28225158844E+03  0.00000000000E+00 0.  1.
<mgrwt>
<rscale>  0 0.18945501E+04</rscale>
<asrwt>0</asrwt>
<pdfrwt beam="1">  1        3 0.15474360E+00 0.18945501E+04</pdfrwt>
<pdfrwt beam="2">  1       -3 0.13725013E+00 0.18945501E+04</pdfrwt>
<totfact> 0.29609674E-01</totfact>
</mgrwt>
</event>
<event>
12    1  0.1489025E-007  0.2059126E+04  0.7818608E-02  0.8579465E-01
          1   -1    0    0  501    0  0.00000000000E+00  0.00000000000E+00  0.32094345691E+04  0.32094345691E+04  0.00000000000E+00 0. -1.
         -1   -1    0    0    0  501 -0.00000000000E+00 -0.00000000000E+00 -0.33027638803E+03  0.33027638803E+03  0.00000000000E+00 0.  1.
         23    2    1    2    0    0 -0.82621891201E+03 -0.64513155503E+02  0.12402029361E+04  0.14942575957E+04  0.88897703679E+02 0.  0.
        254    2    1    2    0    0  0.82621891201E+03  0.64513155503E+02  0.16389552449E+04  0.20454533614E+04  0.90050292673E+03 0.  0.
        -24    2    4    4    0    0  0.74537698545E+03  0.13321596747E+03  0.17242599866E+04  0.18852641225E+04  0.88402294275E+02 0.  0.
         24    2    4    4    0    0  0.80841926563E+02 -0.68702811966E+02 -0.85304741733E+02  0.16018923890E+03  0.84428667137E+02 0.  0.
         11    1    3    3    0    0 -0.12532434148E+02 -0.10173787957E+02  0.40791506206E+02  0.43869292742E+02  0.00000000000E+00 0.  1.
        -11    1    3    3    0    0 -0.81368647786E+03 -0.54339367546E+02  0.11994114299E+04  0.14503883030E+04  0.00000000000E+00 0. -1.
          4    1    6    6  502    0  0.43618159226E+02 -0.80357762533E+02 -0.78679310700E+02  0.12062482226E+03  0.00000000000E+00 0. -1.
          3    1    5    5  503    0  0.63182016657E+03  0.13725610644E+03  0.15136591342E+04  0.16459647433E+04  0.00000000000E+00 0. -1.
         -4    1    5    5    0  503  0.11355681887E+03 -0.40401389743E+01  0.21060085242E+03  0.23929937918E+03  0.00000000000E+00 0.  1.
         -3    1    6    6    0  502  0.37223767337E+02  0.11654950566E+02 -0.66254310331E+01  0.39564416637E+02  0.00000000000E+00 0.  1.
<mgrwt>
<rscale>  0 0.20591265E+04</rscale>
<asrwt>0</asrwt>
<pdfrwt beam="1">  1        1 0.49375914E+00 0.20591265E+04</pdfrwt>
<pdfrwt beam="2">  1       -1 0.50811754E-01 0.20591265E+04</pdfrwt>
<totfact> 0.15059319E+00</totfact>
</mgrwt>
</event>
<event>
12    1  0.1489025E-007  0.2336312E+04  0.7818608E-02  0.8463740E-01
         -1   -1    0    0    0  501 -0.00000000000E+00  0.00000000000E+00  0.10913783094E+04  0.10913783094E+04  0.00000000000E+00 0.  1.
          1   -1    0    0  501    0  0.00000000000E+00 -0.00000000000E+00 -0.12503348854E+04  0.12503348854E+04  0.00000000000E+00 0. -1.
         23    2    1    2    0    0 -0.73256721439E+03 -0.47191903657E+03 -0.53760867201E+03  0.10282038313E+04  0.93902789237E+02 0.  0.
        254    2    1    2    0    0  0.73256721439E+03  0.47191903657E+03  0.37865209601E+03  0.13135093635E+04  0.90695487077E+03 0.  0.
        -24    2    4    4    0    0 -0.76202467104E+02  0.38279775836E+03 -0.29401965334E+02  0.39980093079E+03  0.81457773676E+02 0.  0.
         24    2    4    4    0    0  0.80876968150E+03  0.89121278205E+02  0.40805406134E+03  0.91370843275E+03  0.79397627010E+02 0.  0.
         11    1    3    3    0    0 -0.58034268518E+03 -0.34864560420E+03 -0.37705828853E+03  0.77493505697E+03  0.00000000000E+00 0.  1.
        -11    1    3    3    0    0 -0.15222452921E+03 -0.12327343236E+03 -0.16055038348E+03  0.25326877434E+03  0.00000000000E+00 0. -1.
          2    1    6    6  502    0  0.67562447107E+03  0.52517024687E+02  0.36104287510E+03  0.76784010149E+03  0.00000000000E+00 0. -1.
          1    1    5    5  503    0 -0.84692450766E+02  0.37714315982E+03 -0.21931532004E+02  0.38715728885E+03  0.00000000000E+00 0. -1.
         -2    1    5    5    0  503  0.84899836626E+01  0.56545985466E+01 -0.74704333296E+01  0.12643641938E+02  0.00000000000E+00 0.  1.
         -1    1    6    6    0  502  0.13314521043E+03  0.36604253519E+02  0.47011186236E+02  0.14586833127E+03  0.00000000000E+00 0.  1.
<mgrwt>
<rscale>  0 0.23363119E+04</rscale>
<asrwt>0</asrwt>
<pdfrwt beam="1">  1        1 0.19235921E+00 0.23363119E+04</pdfrwt>
<pdfrwt beam="2">  1       -1 0.16790435E+00 0.23363119E+04</pdfrwt>
<totfact> 0.22566847E+00</totfact>
</mgrwt>
</event>
<event>
12    1  0.1489025E-007  0.1931658E+04  0.7818608E-02  0.8639257E-01
         -2   -1    0    0    0  501 -0.00000000000E+00  0.00000000000E+00  0.71977690952E+03  0.71977690952E+03  0.00000000000E+00 0.  1.
          2   -1    0    0  501    0  0.00000000000E+00 -0.00000000000E+00 -0.12959922418E+04  0.12959922418E+04  0.00000000000E+00 0. -1.
         23    2    1    2    0    0 -0.39623761368E+03 -0.19757188068E+03  0.42527659414E+03  0.62068247692E+03  0.91365535646E+02 0.  0.
        254    2    1    2    0    0  0.39623761368E+03  0.19757188068E+03 -0.10014919264E+04  0.13950866744E+04  0.86443152182E+03 0.  0.
        -24    2    4    4    0    0 -0.18469377780E+03 -0.17516358219E+03 -0.37322509358E+03  0.45838714862E+03  0.77638492070E+02 0.  0.
         24    2    4    4    0    0  0.58093139148E+03  0.37273546288E+03 -0.62826683286E+03  0.93669952582E+03  0.79207206114E+02 0.  0.
         13    1    3    3    0    0 -0.67520938694E+02 -0.68375637434E+02  0.64087937417E+02  0.11550570843E+03  0.00000000000E+00 0. -1.
        -13    1    3    3    0    0 -0.32871667499E+03 -0.12919624325E+03  0.36118865672E+03  0.50517676849E+03  0.00000000000E+00 0.  1.
          2    1    6    6  502    0  0.41992532958E+03  0.27830149065E+03 -0.41019918061E+03  0.64965557790E+03  0.00000000000E+00 0. -1.
          3    1    5    5  503    0 -0.10264118605E+03 -0.97502076247E+02 -0.27226684513E+03  0.30687310554E+03  0.00000000000E+00 0. -1.
         -4    1    5    5    0  503 -0.82052591748E+02 -0.77661505946E+02 -0.10095824845E+03  0.15151404308E+03  0.00000000000E+00 0.  1.
         -1    1    6    6    0  502  0.16100606190E+03  0.94433972231E+02 -0.21806765225E+03  0.28704394792E+03  0.00000000000E+00 0.  1.
<mgrwt>
<rscale>  0 0.19316576E+04</rscale>
<asrwt>0</asrwt>
<pdfrwt beam="1">  1        2 0.19938342E+00 0.19316576E+04</pdfrwt>
<pdfrwt beam="2">  1       -2 0.11073491E+00 0.19316576E+04</pdfrwt>
<totfact> 0.10039862E+01</totfact>
</mgrwt>
</event>
<event>
12    1  0.1489025E-007  0.2151922E+04  0.7818608E-02  0.8538710E-01
         -2   -1    0    0    0  501 -0.00000000000E+00  0.00000000000E+00  0.43138581182E+03  0.43138581182E+03  0.00000000000E+00 0.  1.
          2   -1    0    0  501    0  0.00000000000E+00 -0.00000000000E+00 -0.26836577380E+04  0.26836577380E+04  0.00000000000E+00 0. -1.
         23    2    1    2    0    0 -0.11334303762E+03  0.39959293699E+03  0.19772236087E+03  0.46930752502E+03  0.92920727422E+02 0.  0.
        254    2    1    2    0    0  0.11334303762E+03 -0.39959293699E+03 -0.24499942870E+04  0.26457360248E+04  0.90825434039E+03 0.  0.
        -24    2    4    4    0    0  0.23350543498E+03 -0.64531825665E+03 -0.19702076821E+04  0.20878554768E+04  0.80384956227E+02 0.  0.
         24    2    4    4    0    0 -0.12016239735E+03  0.24572531966E+03 -0.47978660494E+03  0.55788054791E+03  0.78838981415E+02 0.  0.
         13    1    3    3    0    0 -0.30190004532E+02  0.20048695640E+02  0.89395575135E+01  0.37326964236E+02  0.00000000000E+00 0. -1.
        -13    1    3    3    0    0 -0.83153033090E+02  0.37954424135E+03  0.18878280336E+03  0.43198056079E+03  0.00000000000E+00 0.  1.
          4    1    6    6  502    0 -0.78738367891E+02  0.96842595506E+02 -0.16194631894E+03  0.20446229261E+03  0.00000000000E+00 0. -1.
          3    1    5    5  503    0  0.79514720358E+02 -0.13386132674E+03 -0.49625318926E+03  0.52010448315E+03  0.00000000000E+00 0. -1.
         -4    1    5    5    0  503  0.15399071462E+03 -0.51145692991E+03 -0.14739544928E+04  0.15677509937E+04  0.00000000000E+00 0.  1.
         -3    1    6    6    0  502 -0.41424029463E+02  0.14888272416E+03 -0.31784028600E+03  0.35341825529E+03  0.00000000000E+00 0.  1.
<mgrwt>
<rscale>  0 0.21519218E+04</rscale>
<asrwt>0</asrwt>
<pdfrwt beam="1">  1        2 0.41287042E+00 0.21519218E+04</pdfrwt>
<pdfrwt beam="2">  1       -2 0.66367048E-01 0.21519218E+04</pdfrwt>
<totfact> 0.52044711E+00</totfact>
</mgrwt>
</event>
<event>
12    1  0.1489025E-007  0.1531823E+04  0.7818608E-02  0.8863562E-01
          2   -1    0    0  501    0  0.00000000000E+00  0.00000000000E+00  0.11946016712E+04  0.11946016712E+04  0.00000000000E+00 0. -1.
         -2   -1    0    0    0  501 -0.00000000000E+00 -0.00000000000E+00 -0.49105942891E+03  0.49105942891E+03  0.00000000000E+00 0.  1.
         23    2    1    2    0    0 -0.47409420654E+02  0.11407241176E+03  0.75449878281E+03  0.77141683451E+03  0.10273923790E+03 0.  0.
        254    2    1    2    0    0  0.47409420654E+02 -0.11407241176E+03 -0.50956540487E+02  0.91424426563E+03  0.90442569619E+03 0.  0.
        -24    2    4    4    0    0 -0.16388951588E+03  0.33425549501E+03  0.93040754832E+02  0.39186350400E+03  0.79460143154E+02 0.  0.
         24    2    4    4    0    0  0.21129893653E+03 -0.44832790676E+03 -0.14399729532E+03  0.52238076163E+03  0.80630555636E+02 0.  0.
         13    1    3    3    0    0 -0.49923240403E+02  0.37553805431E+02  0.15603688865E+03  0.16807774646E+03  0.00000000000E+00 0.  1.
        -13    1    3    3    0    0  0.25138197493E+01  0.76518606327E+02  0.59846189416E+03  0.60333908805E+03  0.00000000000E+00 0. -1.
          2    1    6    6  502    0  0.15987092116E+03 -0.39126055725E+03 -0.14078254694E+03  0.44549215550E+03  0.00000000000E+00 0. -1.
          1    1    5    5  503    0 -0.17245367005E+03  0.32049199866E+03  0.84863634976E+02  0.37370740702E+03  0.00000000000E+00 0. -1.
         -2    1    5    5    0  503  0.85641541750E+01  0.13763496350E+02  0.81771198562E+01  0.18156096983E+02  0.00000000000E+00 0.  1.
         -1    1    6    6    0  502  0.51428015370E+02 -0.57067349514E+02 -0.32147483828E+01  0.76888606130E+02  0.00000000000E+00 0.  1.
<mgrwt>
<rscale>  0 0.15318230E+04</rscale>
<asrwt>0</asrwt>
<pdfrwt beam="1">  1        2 0.18378487E+00 0.15318230E+04</pdfrwt>
<pdfrwt beam="2">  1       -2 0.75547605E-01 0.15318230E+04</pdfrwt>
<totfact> 0.28903232E+01</totfact>
</mgrwt>
</event>
<event>
12    1  0.1489025E-007  0.1934314E+04  0.7818608E-02  0.8637962E-01
         -2   -1    0    0    0  501 -0.00000000000E+00  0.00000000000E+00  0.13423965375E+04  0.13423965375E+04  0.00000000000E+00 0.  1.
          2   -1    0    0  501    0  0.00000000000E+00 -0.00000000000E+00 -0.69680807965E+03  0.69680807965E+03  0.00000000000E+00 0. -1.
         23    2    1    2    0    0  0.13472633307E+03 -0.43918841640E+03 -0.35519338786E+03  0.58769978331E+03  0.90504378931E+02 0.  0.
        254    2    1    2    0    0 -0.13472633307E+03  0.43918841640E+03  0.10007818457E+04  0.14515048338E+04  0.94565550281E+03 0.  0.
        -24    2    4    4    0    0 -0.48104199151E+03  0.44805462127E+03  0.46601704508E+03  0.80965083727E+03  0.78792453669E+02 0.  0.
         24    2    4    4    0    0  0.34631565843E+03 -0.88662048709E+01  0.53476480061E+03  0.64185399654E+03  0.77395193911E+02 0.  0.
         11    1    3    3    0    0  0.41067405507E+02 -0.10775592853E+03 -0.14085837247E+03  0.18204107510E+03  0.00000000000E+00 0. -1.
        -11    1    3    3    0    0  0.93658927566E+02 -0.33143248787E+03 -0.21433501539E+03  0.40565870821E+03  0.00000000000E+00 0.  1.
          4    1    6    6  502    0  0.41552044704E+02  0.13760707489E+02  0.34941609092E+02  0.56007548917E+02  0.00000000000E+00 0. -1.
          3    1    5    5  503    0 -0.71055576842E+02  0.53231554953E+02  0.96017136998E+02  0.13077378958E+03  0.00000000000E+00 0. -1.
         -4    1    5    5    0  503 -0.40998641466E+03  0.39482306632E+03  0.36999990808E+03  0.67887704769E+03  0.00000000000E+00 0.  1.
         -3    1    6    6    0  502  0.30476361373E+03 -0.22626912360E+02  0.49982319152E+03  0.58584644763E+03  0.00000000000E+00 0.  1.
<mgrwt>
<rscale>  0 0.19343141E+04</rscale>
<asrwt>0</asrwt>
<pdfrwt beam="1">  1        2 0.10720124E+00 0.19343141E+04</pdfrwt>
<pdfrwt beam="2">  1       -2 0.20652254E+00 0.19343141E+04</pdfrwt>
<totfact> 0.46384132E+00</totfact>
</mgrwt>
</event>
<event>
12    1  0.1610177E-007  0.1701072E+04  0.7818608E-02  0.8760753E-01
         -1   -1    0    0    0  501 -0.00000000000E+00  0.00000000000E+00  0.54539129634E+03  0.54539129634E+03  0.00000000000E+00 0.  1.
          1   -1    0    0  501    0  0.00000000000E+00 -0.00000000000E+00 -0.13264079000E+04  0.13264079000E+04  0.00000000000E+00 0. -1.
         23    2    1    2    0    0 -0.28227638079E+03 -0.63838058911E+02  0.29163319318E+03  0.42854130449E+03  0.12182970646E+03 0.  0.
        254    2    1    2    0    0  0.28227638079E+03  0.63838058911E+02 -0.10726497969E+04  0.14432578919E+04  0.92122771498E+03 0.  0.
        -24    2    4    4    0    0  0.56860867463E+03 -0.83591369967E+02 -0.43840404366E+03  0.72756797484E+03  0.82787139837E+02 0.  0.
         24    2    4    4    0    0 -0.28633229384E+03  0.14742942888E+03 -0.63424575322E+03  0.71568991705E+03  0.78884490864E+02 0.  0.
         11    1    3    3    0    0 -0.77880330257E+02 -0.37608599181E+02  0.22113925103E+02  0.89268013626E+02  0.00000000000E+00 0. -1.
        -11    1    3    3    0    0 -0.20439605053E+03 -0.26229459729E+02  0.26951926808E+03  0.33927329087E+03  0.00000000000E+00 0.  1.
          2    1    6    6  502    0 -0.53451367990E+01 -0.25582429615E+01  0.37191058180E-01  0.59259157625E+01  0.00000000000E+00 0. -1.
          3    1    5    5  503    0  0.12898140613E+03  0.55652218479E+01 -0.68508169604E+02  0.14615246876E+03  0.00000000000E+00 0. -1.
         -4    1    5    5    0  503  0.43962726850E+03 -0.89156591815E+02 -0.36989587406E+03  0.58141550608E+03  0.00000000000E+00 0.  1.
         -1    1    6    6    0  502 -0.28098715704E+03  0.14998767184E+03 -0.63428294428E+03  0.70976400129E+03  0.00000000000E+00 0.  1.
<mgrwt>
<rscale>  0 0.17010718E+04</rscale>
<asrwt>0</asrwt>
<pdfrwt beam="1">  1        1 0.20406275E+00 0.17010718E+04</pdfrwt>
<pdfrwt beam="2">  1       -1 0.83906354E-01 0.17010718E+04</pdfrwt>
<totfact> 0.11604986E+01</totfact>
</mgrwt>
</event>
<event>
12    1  0.1489025E-007  0.2339552E+04  0.7818608E-02  0.8462488E-01
          1   -1    0    0  501    0  0.00000000000E+00  0.00000000000E+00  0.19966986003E+04  0.19966986003E+04  0.00000000000E+00 0. -1.
         -1   -1    0    0    0  501 -0.00000000000E+00 -0.00000000000E+00 -0.68531892202E+03  0.68531892202E+03  0.00000000000E+00 0.  1.
         23    2    1    2    0    0 -0.66230679300E+03  0.38327173096E+03 -0.16571332534E+03  0.78857787488E+03  0.94056635857E+02 0.  0.
        254    2    1    2    0    0  0.66230679300E+03 -0.38327173096E+03  0.14770930036E+04  0.18934396474E+04  0.90430218916E+03 0.  0.
        -24    2    4    4    0    0  0.72563077907E+02 -0.54931848617E+03  0.80731470316E+03  0.98241084439E+03  0.79736050325E+02 0.  0.
         24    2    4    4    0    0  0.58974371509E+03  0.16604675522E+03  0.66977830044E+03  0.91102880302E+03  0.77468275975E+02 0.  0.
         13    1    3    3    0    0 -0.93530731057E+02  0.24595830559E+02 -0.39212101390E+02  0.10435775691E+03  0.00000000000E+00 0. -1.
        -13    1    3    3    0    0 -0.56877606194E+03  0.35867590040E+03 -0.12650122395E+03  0.68422011796E+03  0.00000000000E+00 0.  1.
          4    1    6    6  502    0  0.39729835470E+03  0.85645589077E+02  0.48100235371E+03  0.62971772553E+03  0.00000000000E+00 0. -1.
          3    1    5    5  503    0  0.73172452552E+02 -0.53397761328E+03  0.80177345942E+03  0.96608849466E+03  0.00000000000E+00 0. -1.
         -4    1    5    5    0  503 -0.60937464491E+00 -0.15340872890E+02  0.55412437423E+01  0.16322349730E+02  0.00000000000E+00 0.  1.
         -3    1    6    6    0  502  0.19244536039E+03  0.80401166140E+02  0.18877594673E+03  0.28131107749E+03  0.00000000000E+00 0.  1.
<mgrwt>
<rscale>  0 0.23395515E+04</rscale>
<asrwt>0</asrwt>
<pdfrwt beam="1">  1        1 0.30718440E+00 0.23395515E+04</pdfrwt>
<pdfrwt beam="2">  1       -1 0.10543368E+00 0.23395515E+04</pdfrwt>
<totfact> 0.22747931E+00</totfact>
</mgrwt>
</event>
<event>
12    1  0.1489025E-007  0.1331431E+04  0.7818608E-02  0.9005005E-01
         -2   -1    0    0    0  501 -0.00000000000E+00  0.00000000000E+00  0.59560284000E+03  0.59560284000E+03  0.00000000000E+00 0.  1.
          2   -1    0    0  501    0  0.00000000000E+00 -0.00000000000E+00 -0.74408165256E+03  0.74408165256E+03  0.00000000000E+00 0. -1.
         23    2    1    2    0    0 -0.58437028800E+02  0.17518709635E+03 -0.33072045270E+03  0.39144077662E+03  0.98714024878E+02 0.  0.
        254    2    1    2    0    0  0.58437028800E+02 -0.17518709635E+03  0.18224164014E+03  0.94824371594E+03  0.91205741286E+03 0.  0.
        -24    2    4    4    0    0 -0.20693212545E+03 -0.14790889886E+03  0.47483327662E+03  0.54434465561E+03  0.78399723225E+02 0.  0.
         24    2    4    4    0    0  0.26536915425E+03 -0.27278197482E+02 -0.29259163648E+03  0.40389906033E+03  0.79747709160E+02 0.  0.
         11    1    3    3    0    0 -0.17960685970E+01  0.26027713140E+02 -0.21473235484E+01  0.26177828636E+02  0.00000000000E+00 0.  1.
        -11    1    3    3    0    0 -0.56640960203E+02  0.14915938321E+03 -0.32857312915E+03  0.36526294798E+03  0.00000000000E+00 0. -1.
          4    1    6    6  502    0  0.11430075352E+03  0.27681002855E+02 -0.12818228078E+03  0.17395860795E+03  0.00000000000E+00 0. -1.
          1    1    5    5  503    0 -0.46424933128E+02 -0.73700059712E+02  0.12494257409E+03  0.15230764931E+03  0.00000000000E+00 0. -1.
         -2    1    5    5    0  503 -0.16050719232E+03 -0.74208839152E+02  0.34989070253E+03  0.39203700630E+03  0.00000000000E+00 0.  1.
         -3    1    6    6    0  502  0.15106840073E+03 -0.54959200337E+02 -0.16440935570E+03  0.22994045238E+03  0.00000000000E+00 0.  1.
<mgrwt>
<rscale>  0 0.13314310E+04</rscale>
<asrwt>0</asrwt>
<pdfrwt beam="1">  1        2 0.11447410E+00 0.13314310E+04</pdfrwt>
<pdfrwt beam="2">  1       -2 0.91631206E-01 0.13314310E+04</pdfrwt>
<totfact> 0.37579360E+01</totfact>
</mgrwt>
</event>
<event>
12    1  0.1489025E-007  0.1613959E+04  0.7818608E-02  0.8812018E-01
          2   -1    0    0  501    0  0.00000000000E+00  0.00000000000E+00  0.22253710605E+04  0.22253710605E+04  0.00000000000E+00 0. -1.
         -2   -1    0    0    0  501 -0.00000000000E+00 -0.00000000000E+00 -0.29263267795E+03  0.29263267795E+03  0.00000000000E+00 0.  1.
         23    2    1    2    0    0 -0.33672718287E+03 -0.41642789042E+03  0.87671575224E+03  0.10313446336E+04  0.90795701574E+02 0.  0.
        254    2    1    2    0    0  0.33672718287E+03  0.41642789042E+03  0.10560226303E+04  0.14866591048E+04  0.89898504699E+03 0.  0.
        -24    2    4    4    0    0 -0.12496992429E+03  0.83388195976E+01  0.80212717903E+03  0.81547024334E+03  0.76789898734E+02 0.  0.
         24    2    4    4    0    0  0.46169710716E+03  0.40808907082E+03  0.25389545128E+03  0.67118886151E+03  0.79565565166E+02 0.  0.
         13    1    3    3    0    0 -0.29559454576E+03 -0.34663679141E+03  0.79502966096E+03  0.91629982127E+03  0.00000000000E+00 0.  1.
        -13    1    3    3    0    0 -0.41132637113E+02 -0.69791099005E+02  0.81686091275E+02  0.11504481233E+03  0.00000000000E+00 0. -1.
          4    1    6    6  502    0  0.42293788047E+02  0.22548273365E+02  0.11194442968E+01  0.47942072282E+02  0.00000000000E+00 0. -1.
          3    1    5    5  503    0 -0.24004968350E+02 -0.94479576871E+01  0.38746019405E+03  0.38831804540E+03  0.00000000000E+00 0. -1.
         -4    1    5    5    0  503 -0.10096495594E+03  0.17786777285E+02  0.41466698497E+03  0.42715219793E+03  0.00000000000E+00 0.  1.
         -1    1    6    6    0  502  0.41940331911E+03  0.38554079745E+03  0.25277600698E+03  0.62324678923E+03  0.00000000000E+00 0.  1.
<mgrwt>
<rscale>  0 0.16139595E+04</rscale>
<asrwt>0</asrwt>
<pdfrwt beam="1">  1        2 0.34236477E+00 0.16139595E+04</pdfrwt>
<pdfrwt beam="2">  1       -2 0.45020414E-01 0.16139595E+04</pdfrwt>
<totfact> 0.22413035E+01</totfact>
</mgrwt>
</event>
<event>
12    1  0.1489025E-007  0.1414830E+04  0.7818608E-02  0.8943154E-01
         -1   -1    0    0    0  501 -0.00000000000E+00  0.00000000000E+00  0.10121297836E+04  0.10121297836E+04  0.00000000000E+00 0.  1.
          1   -1    0    0  501    0  0.00000000000E+00 -0.00000000000E+00 -0.49443826779E+03  0.49443826779E+03  0.00000000000E+00 0. -1.
         23    2    1    2    0    0 -0.26581140148E+03  0.30051087565E+03  0.25071035427E+03  0.47962394546E+03  0.78873061167E+02 0.  0.
        254    2    1    2    0    0  0.26581140148E+03 -0.30051087565E+03  0.26698116155E+03  0.10269441059E+04  0.90684770968E+03 0.  0.
        -24    2    4    4    0    0 -0.10441944056E+03  0.26662821703E+03  0.15702133202E+03  0.33626365984E+03  0.80146893497E+02 0.  0.
         24    2    4    4    0    0  0.37023084204E+03 -0.56713909267E+03  0.10995982953E+03  0.69068044609E+03  0.78934705128E+02 0.  0.
         11    1    3    3    0    0 -0.14001062920E+03  0.99594342423E+02  0.10699519662E+03  0.20241042817E+03  0.00000000000E+00 0. -1.
        -11    1    3    3    0    0 -0.12580077228E+03  0.20091653322E+03  0.14371515765E+03  0.27721351729E+03  0.00000000000E+00 0.  1.
          4    1    6    6  502    0  0.70524687980E+02 -0.16708223680E+03  0.16040347999E+02  0.18206454414E+03  0.00000000000E+00 0. -1.
          3    1    5    5  503    0 -0.59757123326E+02  0.19026569246E+03  0.14590470869E+03  0.24710348345E+03  0.00000000000E+00 0. -1.
         -4    1    5    5    0  503 -0.44662317231E+02  0.76362524573E+02  0.11116623324E+02  0.89160176388E+02  0.00000000000E+00 0.  1.
         -3    1    6    6    0  502  0.29970615406E+03 -0.40005685587E+03  0.93919481529E+02  0.50861590195E+03  0.00000000000E+00 0.  1.
<mgrwt>
<rscale>  0 0.14148296E+04</rscale>
<asrwt>0</asrwt>
<pdfrwt beam="1">  1        1 0.76067426E-01 0.14148296E+04</pdfrwt>
<pdfrwt beam="2">  1       -1 0.15571227E+00 0.14148296E+04</pdfrwt>
<totfact> 0.13815103E+01</totfact>
</mgrwt>
</event>
<event>
12    1  0.1489025E-007  0.1201856E+04  0.7818608E-02  0.9111234E-01
         -1   -1    0    0    0  501 -0.00000000000E+00  0.00000000000E+00  0.44436639422E+03  0.44436639422E+03  0.00000000000E+00 0.  1.
          1   -1    0    0  501    0  0.00000000000E+00 -0.00000000000E+00 -0.81265024920E+03  0.81265024920E+03  0.00000000000E+00 0. -1.
         23    2    1    2    0    0  0.16076490813E+03 -0.75977667358E+02 -0.25334248214E+03  0.32272822902E+03  0.91395486360E+02 0.  0.
        254    2    1    2    0    0 -0.16076490813E+03  0.75977667358E+02 -0.11494137285E+03  0.93428841440E+03  0.90998096709E+03 0.  0.
        -24    2    4    4    0    0  0.18396707486E+03 -0.11772496799E+03  0.28409232504E+03  0.36730210389E+03  0.80618444892E+02 0.  0.
         24    2    4    4    0    0 -0.34473198298E+03  0.19370263534E+03 -0.39903369789E+03  0.56698631052E+03  0.76712014913E+02 0.  0.
         11    1    3    3    0    0 -0.43863198848E+01 -0.20473387645E+02 -0.93890473485E+01  0.22946756065E+02  0.00000000000E+00 0.  1.
        -11    1    3    3    0    0  0.16515122801E+03 -0.55504279713E+02 -0.24395343479E+03  0.29978147295E+03  0.00000000000E+00 0. -1.
          2    1    6    6  502    0 -0.33777572106E+03  0.19317242994E+03 -0.40193732181E+03  0.55942974187E+03  0.00000000000E+00 0. -1.
          1    1    5    5  503    0  0.19145869061E+03 -0.10904216233E+03  0.27648608686E+03  0.35354091645E+03  0.00000000000E+00 0. -1.
         -2    1    5    5    0  503 -0.74916157483E+01 -0.86828056560E+01  0.76062381705E+01  0.13761187437E+02  0.00000000000E+00 0.  1.
         -1    1    6    6    0  502 -0.69562619254E+01  0.53020540320E+00  0.29036239266E+01  0.75565686427E+01  0.00000000000E+00 0.  1.
<mgrwt>
<rscale>  0 0.12018560E+04</rscale>
<asrwt>0</asrwt>
<pdfrwt beam="1">  1        1 0.12502311E+00 0.12018560E+04</pdfrwt>
<pdfrwt beam="2">  1       -1 0.68364062E-01 0.12018560E+04</pdfrwt>
<totfact> 0.46213163E+01</totfact>
</mgrwt>
</event>
<event>
12    1  0.1489025E-007  0.4035414E+04  0.7818608E-02  0.7997440E-01
         -2   -1    0    0    0  501 -0.00000000000E+00  0.00000000000E+00  0.18943285345E+04  0.18943285345E+04  0.00000000000E+00 0.  1.
          2   -1    0    0  501    0  0.00000000000E+00 -0.00000000000E+00 -0.21491208830E+04  0.21491208830E+04  0.00000000000E+00 0. -1.
         23    2    1    2    0    0  0.54878047135E+03 -0.15021025838E+04 -0.11781916640E+04  0.19884297369E+04  0.90802221135E+02 0.  0.
        254    2    1    2    0    0 -0.54878047135E+03  0.15021025838E+04  0.92339931541E+03  0.20550196806E+04  0.90164705629E+03 0.  0.
        -24    2    4    4    0    0  0.90894715738E+02  0.86153232973E+03  0.70429814653E+03  0.11193146630E+04  0.79558978482E+02 0.  0.
         24    2    4    4    0    0 -0.63967518708E+03  0.64057025406E+03  0.21910116888E+03  0.93570501764E+03  0.89576573286E+02 0.  0.
         11    1    3    3    0    0  0.21012913481E+03 -0.56219904531E+03 -0.49694139063E+03  0.77921291415E+03  0.00000000000E+00 0.  1.
        -11    1    3    3    0    0  0.33865133653E+03 -0.93990353848E+03 -0.68125027335E+03  0.12092168227E+04  0.00000000000E+00 0. -1.
          2    1    6    6  502    0 -0.19090247750E+03  0.24166296620E+03  0.97929727176E+02  0.32316400884E+03  0.00000000000E+00 0. -1.
          1    1    5    5  503    0  0.20782619036E+02  0.90744395544E+02  0.49057275540E+02  0.10522869789E+03  0.00000000000E+00 0. -1.
         -2    1    5    5    0  503  0.70112096702E+02  0.77078793419E+03  0.65524087099E+03  0.10140859651E+04  0.00000000000E+00 0.  1.
         -1    1    6    6    0  502 -0.44877270959E+03  0.39890728786E+03  0.12117144171E+03  0.61254100880E+03  0.00000000000E+00 0.  1.
<mgrwt>
<rscale>  0 0.40354137E+04</rscale>
<asrwt>0</asrwt>
<pdfrwt beam="1">  1        2 0.33063398E+00 0.40354137E+04</pdfrwt>
<pdfrwt beam="2">  1       -2 0.29143516E+00 0.40354137E+04</pdfrwt>
<totfact> 0.15557696E-01</totfact>
</mgrwt>
</event>
<event>
12    1  0.1489025E-007  0.3172256E+04  0.7818608E-02  0.8196183E-01
          2   -1    0    0  501    0  0.00000000000E+00  0.00000000000E+00  0.83534462908E+03  0.83534462908E+03  0.00000000000E+00 0. -1.
         -2   -1    0    0    0  501 -0.00000000000E+00 -0.00000000000E+00 -0.30116930640E+04  0.30116930640E+04  0.00000000000E+00 0.  1.
         23    2    1    2    0    0 -0.30912960543E+03 -0.11946749098E+04 -0.65934414831E+02  0.12391695163E+04  0.91566860512E+02 0.  0.
        254    2    1    2    0    0  0.30912960543E+03  0.11946749098E+04 -0.21104140201E+04  0.26078681768E+04  0.90792061227E+03 0.  0.
        -24    2    4    4    0    0  0.52323513914E+03  0.63865203191E+03 -0.73788229031E+03  0.11095431263E+04  0.70457405579E+02 0.  0.
         24    2    4    4    0    0 -0.21410553370E+03  0.55602287792E+03 -0.13725317298E+04  0.14983250505E+04  0.78307007553E+02 0.  0.
         11    1    3    3    0    0 -0.20052861589E+03 -0.80991078245E+03 -0.86537546896E+02  0.83884202824E+03  0.00000000000E+00 0.  1.
        -11    1    3    3    0    0 -0.10860098954E+03 -0.38476412738E+03  0.20603132065E+02  0.40032748806E+03  0.00000000000E+00 0. -1.
          4    1    6    6  502    0  0.67156057296E+01  0.11025011168E+02 -0.29112606161E+02  0.31846413755E+02  0.00000000000E+00 0. -1.
          1    1    5    5  503    0  0.12512237652E+03  0.17355849080E+03 -0.22953166433E+03  0.31378805548E+03  0.00000000000E+00 0. -1.
         -2    1    5    5    0  503  0.39811276261E+03  0.46509354111E+03 -0.50835062598E+03  0.79575507079E+03  0.00000000000E+00 0.  1.
         -3    1    6    6    0  502 -0.22082113943E+03  0.54499786675E+03 -0.13434191236E+04  0.14664786368E+04  0.00000000000E+00 0.  1.
<mgrwt>
<rscale>  0 0.31722557E+04</rscale>
<asrwt>0</asrwt>
<pdfrwt beam="1">  1        2 0.12851456E+00 0.31722557E+04</pdfrwt>
<pdfrwt beam="2">  1       -2 0.46333740E+00 0.31722557E+04</pdfrwt>
<totfact> 0.77626387E-02</totfact>
</mgrwt>
</event>
<event>
12    1  0.1489025E-007  0.1598606E+04  0.7818608E-02  0.8821405E-01
         -1   -1    0    0    0  501 -0.00000000000E+00  0.00000000000E+00  0.70937163326E+03  0.70937163326E+03  0.00000000000E+00 0.  1.
          1   -1    0    0  501    0  0.00000000000E+00 -0.00000000000E+00 -0.90063528893E+03  0.90063528893E+03  0.00000000000E+00 0. -1.
         23    2    1    2    0    0  0.42520012963E+03 -0.17142818698E+03 -0.35518929466E+03  0.58683511479E+03  0.89628362566E+02 0.  0.
        254    2    1    2    0    0 -0.42520012963E+03  0.17142818698E+03  0.16392563899E+03  0.10231718074E+04  0.89990341638E+03 0.  0.
        -24    2    4    4    0    0 -0.36076366878E+02  0.14885383660E+03  0.48338481230E+03  0.51201516871E+03  0.70990755103E+02 0.  0.
         24    2    4    4    0    0 -0.38912376275E+03  0.22574350381E+02 -0.31945917331E+03  0.51115663869E+03  0.85440282248E+02 0.  0.
         13    1    3    3    0    0  0.21662611907E+03 -0.63782089226E+02 -0.12511825826E+03  0.25816585545E+03  0.00000000000E+00 0.  1.
        -13    1    3    3    0    0  0.20857401056E+03 -0.10764609775E+03 -0.23007103640E+03  0.32866925934E+03  0.00000000000E+00 0. -1.
          2    1    6    6  502    0 -0.72602904734E+01 -0.22593414358E+01  0.52891148045E+01  0.92623526653E+01  0.00000000000E+00 0. -1.
          1    1    5    5  503    0 -0.36640431263E+02  0.31086534333E+02  0.18737926308E+03  0.19344219305E+03  0.00000000000E+00 0. -1.
         -2    1    5    5    0  503  0.56406438578E+00  0.11776730227E+03  0.29600554923E+03  0.31857297567E+03  0.00000000000E+00 0.  1.
         -1    1    6    6    0  502 -0.38186347228E+03  0.24833691817E+02 -0.32474828811E+03  0.50189428603E+03  0.00000000000E+00 0.  1.
<mgrwt>
<rscale>  0 0.15986058E+04</rscale>
<asrwt>0</asrwt>
<pdfrwt beam="1">  1        1 0.13855928E+00 0.15986058E+04</pdfrwt>
<pdfrwt beam="2">  1       -1 0.10913410E+00 0.15986058E+04</pdfrwt>
<totfact> 0.13565687E+01</totfact>
</mgrwt>
</event>
<event>
12    1  0.1489025E-007  0.3044984E+04  0.7818608E-02  0.8231001E-01
          1   -1    0    0  501    0  0.00000000000E+00  0.00000000000E+00  0.16117975299E+04  0.16117975299E+04  0.00000000000E+00 0. -1.
         -1   -1    0    0    0  501 -0.00000000000E+00 -0.00000000000E+00 -0.14381350432E+04  0.14381350432E+04  0.00000000000E+00 0.  1.
         23    2    1    2    0    0 -0.45942787049E+03  0.19667344282E+03  0.13762594263E+04  0.14670349258E+04  0.91362212085E+02 0.  0.
        254    2    1    2    0    0  0.45942787049E+03 -0.19667344282E+03 -0.12025969395E+04  0.15828976473E+04  0.89976171930E+03 0.  0.
        -24    2    4    4    0    0 -0.12800233232E+03 -0.81321469435E+01  0.69349392278E+02  0.16715444456E+03  0.81734577955E+02 0.  0.
         24    2    4    4    0    0  0.58743020281E+03 -0.18854129588E+03 -0.12719463318E+04  0.14157432027E+04  0.76545944678E+02 0.  0.
         11    1    3    3    0    0 -0.31589595042E+03  0.91622160144E+02  0.94138697934E+03  0.99719321929E+03  0.00000000000E+00 0. -1.
        -11    1    3    3    0    0 -0.14353192008E+03  0.10505128268E+03  0.43487244693E+03  0.46984170651E+03  0.00000000000E+00 0.  1.
          4    1    6    6  502    0  0.37221039912E+03 -0.90807045239E+02 -0.84309801724E+03  0.92606736653E+03  0.00000000000E+00 0. -1.
          3    1    5    5  503    0 -0.55815984680E+02 -0.43860666612E+02  0.39643043580E+02  0.81306538025E+02  0.00000000000E+00 0. -1.
         -4    1    5    5    0  503 -0.72186347638E+02  0.35728519669E+02  0.29706348698E+02  0.85847906533E+02  0.00000000000E+00 0.  1.
         -3    1    6    6    0  502  0.21521980369E+03 -0.97734250637E+02 -0.42884831456E+03  0.48967583619E+03  0.00000000000E+00 0.  1.
<mgrwt>
<rscale>  0 0.30449844E+04</rscale>
<asrwt>0</asrwt>
<pdfrwt beam="1">  1        1 0.24796885E+00 0.30449844E+04</pdfrwt>
<pdfrwt beam="2">  1       -1 0.22125155E+00 0.30449844E+04</pdfrwt>
<totfact> 0.50125416E-01</totfact>
</mgrwt>
</event>
<event>
12    1  0.1489025E-007  0.2774556E+04  0.7818608E-02  0.8311212E-01
          1   -1    0    0  501    0  0.00000000000E+00  0.00000000000E+00  0.23871046584E+04  0.23871046584E+04  0.00000000000E+00 0. -1.
         -1   -1    0    0    0  501 -0.00000000000E+00 -0.00000000000E+00 -0.80622359382E+03  0.80622359382E+03  0.00000000000E+00 0.  1.
         23    2    1    2    0    0 -0.17073373248E+03  0.19535675000E+03  0.21741751332E+04  0.21915743454E+04  0.92985666956E+02 0.  0.
        254    2    1    2    0    0  0.17073373248E+03 -0.19535675000E+03 -0.59329406859E+03  0.10017539069E+04  0.76432896775E+03 0.  0.
        -24    2    4    4    0    0  0.27270750343E+03 -0.39202033670E+03 -0.16072282218E+03  0.50939439213E+03  0.74843131613E+02 0.  0.
         24    2    4    4    0    0 -0.10197377094E+03  0.19666358670E+03 -0.43257124641E+03  0.49235951475E+03  0.78897352622E+02 0.  0.
         11    1    3    3    0    0 -0.14138824072E+03  0.13731283784E+03  0.18795558904E+04  0.18898613164E+04  0.00000000000E+00 0. -1.
        -11    1    3    3    0    0 -0.29345491760E+02  0.58043912161E+02  0.29461924282E+03  0.30171302900E+03  0.00000000000E+00 0.  1.
          4    1    6    6  502    0 -0.69112265205E+02  0.51648646625E+02 -0.14942069187E+03  0.17254167919E+03  0.00000000000E+00 0. -1.
          1    1    5    5  503    0  0.63053804885E+01  0.25386243417E+01  0.35942300840E+00  0.68067335450E+01  0.00000000000E+00 0. -1.
         -2    1    5    5    0  503  0.26640212294E+03 -0.39455896104E+03 -0.16108224519E+03  0.50258765858E+03  0.00000000000E+00 0.  1.
         -3    1    6    6    0  502 -0.32861505739E+02  0.14501494007E+03 -0.28315055454E+03  0.31981783556E+03  0.00000000000E+00 0.  1.
<mgrwt>
<rscale>  0 0.27745559E+04</rscale>
<asrwt>0</asrwt>
<pdfrwt beam="1">  1        1 0.36724687E+00 0.27745559E+04</pdfrwt>
<pdfrwt beam="2">  1       -1 0.12403440E+00 0.27745559E+04</pdfrwt>
<totfact> 0.80237141E-01</totfact>
</mgrwt>
</event>
<event>
12    1  0.1489025E-007  0.2322160E+04  0.7818608E-02  0.8469235E-01
          1   -1    0    0  501    0  0.00000000000E+00  0.00000000000E+00  0.14416304356E+04  0.14416304356E+04  0.00000000000E+00 0. -1.
         -1   -1    0    0    0  501 -0.00000000000E+00 -0.00000000000E+00 -0.93512617136E+03  0.93512617136E+03  0.00000000000E+00 0.  1.
         23    2    1    2    0    0 -0.43033301148E+03  0.79951856730E+02  0.11141012042E+04  0.12002398443E+04  0.88178174355E+02 0.  0.
        254    2    1    2    0    0  0.43033301148E+03 -0.79951856730E+02 -0.60759693990E+03  0.11765167628E+04  0.90743531533E+03 0.  0.
        -24    2    4    4    0    0  0.45072716014E+02 -0.26359771202E+03  0.13988890494E+03  0.31202684994E+03  0.79224654290E+02 0.  0.
         24    2    4    4    0    0  0.38526029546E+03  0.18364585529E+03 -0.74748584484E+03  0.86448991281E+03  0.80351886750E+02 0.  0.
         11    1    3    3    0    0 -0.23636815198E+03  0.67197385361E+02  0.72056349162E+03  0.76131277234E+03  0.00000000000E+00 0. -1.
        -11    1    3    3    0    0 -0.19396485949E+03  0.12754471369E+02  0.39353771256E+03  0.43892707192E+03  0.00000000000E+00 0.  1.
          4    1    6    6  502    0  0.31524377911E+02  0.13175918501E+02 -0.25511276541E+02  0.42640549502E+02  0.00000000000E+00 0. -1.
          3    1    5    5  503    0  0.12737444403E+02 -0.51837782938E+01 -0.42201792494E+01  0.14384851762E+02  0.00000000000E+00 0. -1.
         -4    1    5    5    0  503  0.32335271611E+02 -0.25841393372E+03  0.14410908419E+03  0.29764199818E+03  0.00000000000E+00 0.  1.
         -3    1    6    6    0  502  0.35373591755E+03  0.17046993678E+03 -0.72197456829E+03  0.82184936331E+03  0.00000000000E+00 0.  1.
<mgrwt>
<rscale>  0 0.23221596E+04</rscale>
<asrwt>0</asrwt>
<pdfrwt beam="1">  1        1 0.22178930E+00 0.23221596E+04</pdfrwt>
<pdfrwt beam="2">  1       -1 0.14386557E+00 0.23221596E+04</pdfrwt>
<totfact> 0.25284430E+00</totfact>
</mgrwt>
</event>
<event>
12    1  0.1489025E-007  0.2784782E+04  0.7818608E-02  0.8308009E-01
          1   -1    0    0  501    0  0.00000000000E+00  0.00000000000E+00  0.13317309891E+04  0.13317309891E+04  0.00000000000E+00 0. -1.
         -1   -1    0    0    0  501 -0.00000000000E+00 -0.00000000000E+00 -0.14558138404E+04  0.14558138404E+04  0.00000000000E+00 0.  1.
         23    2    1    2    0    0  0.16012435979E+03  0.39608803230E+03  0.11151284227E+04  0.11977406004E+04  0.92442450377E+02 0.  0.
        254    2    1    2    0    0 -0.16012435979E+03 -0.39608803230E+03 -0.12392112740E+04  0.15898042292E+04  0.89961512082E+03 0.  0.
        -24    2    4    4    0    0  0.20624190358E+03 -0.52903637613E+03 -0.55221824827E+03  0.79607479376E+03  0.79842804788E+02 0.  0.
         24    2    4    4    0    0 -0.36636626336E+03  0.13294834383E+03 -0.68699302571E+03  0.79372943542E+03  0.78405983259E+02 0.  0.
         13    1    3    3    0    0  0.75225879477E+02  0.29289446637E+03  0.81124855967E+03  0.86577729639E+03  0.00000000000E+00 0. -1.
        -13    1    3    3    0    0  0.84898480309E+02  0.10319356593E+03  0.30387986307E+03  0.33196330397E+03  0.00000000000E+00 0.  1.
          4    1    6    6  502    0 -0.19274070725E+03  0.61242247489E+02 -0.27919759406E+03  0.34474757380E+03  0.00000000000E+00 0. -1.
          3    1    5    5  503    0  0.15943801161E+03 -0.45427185855E+03 -0.49732908031E+03  0.69218466838E+03  0.00000000000E+00 0. -1.
         -4    1    5    5    0  503  0.46803891971E+02 -0.74764517579E+02 -0.54889167965E+02  0.10389012538E+03  0.00000000000E+00 0.  1.
         -3    1    6    6    0  502 -0.17362555611E+03  0.71706096338E+02 -0.40779543165E+03  0.44898186162E+03  0.00000000000E+00 0.  1.
<mgrwt>
<rscale>  0 0.27847818E+04</rscale>
<asrwt>0</asrwt>
<pdfrwt beam="1">  1        1 0.20488169E+00 0.27847818E+04</pdfrwt>
<pdfrwt beam="2">  1       -1 0.22397136E+00 0.27847818E+04</pdfrwt>
<totfact> 0.77051543E-01</totfact>
</mgrwt>
</event>
<event>
12    1  0.1489025E-007  0.1970269E+04  0.7818608E-02  0.8620648E-01
         -2   -1    0    0    0  501 -0.00000000000E+00  0.00000000000E+00  0.14392541517E+04  0.14392541517E+04  0.00000000000E+00 0. -1.
          2   -1    0    0  501    0  0.00000000000E+00 -0.00000000000E+00 -0.67430057145E+03  0.67430057145E+03  0.00000000000E+00 0.  1.
         23    2    1    2    0    0 -0.38398701107E+03  0.54970957494E+03  0.72118005375E+03  0.98941622972E+03  0.96006063694E+02 0.  0.
        254    2    1    2    0    0  0.38398701107E+03 -0.54970957494E+03  0.43773526517E+02  0.11241384934E+04  0.90119065096E+03 0.  0.
        -24    2    4    4    0    0  0.12280707049E+03 -0.75291413565E+03  0.11539180995E+03  0.77567035678E+03  0.79924716867E+02 0.  0.
         24    2    4    4    0    0  0.26117994058E+03  0.20320456071E+03 -0.71618283432E+02  0.34846813666E+03  0.82424564876E+02 0.  0.
         11    1    3    3    0    0 -0.17515604716E+03  0.33226706457E+03  0.41442398880E+03  0.55931054482E+03  0.00000000000E+00 0.  1.
        -11    1    3    3    0    0 -0.20883096391E+03  0.21744251037E+03  0.30675606495E+03  0.43010568491E+03  0.00000000000E+00 0. -1.
          4    1    6    6  502    0  0.41248684804E+02  0.77029539913E+02 -0.21976773266E+02  0.90099847838E+02  0.00000000000E+00 0. -1.
          3    1    5    5  503    0  0.11176936428E+02 -0.32419428394E+02  0.21706701240E+02  0.40584776999E+02  0.00000000000E+00 0. -1.
         -4    1    5    5    0  503  0.11163013406E+03 -0.72049470725E+03  0.93685108709E+02  0.73508557978E+03  0.00000000000E+00 0.  1.
         -3    1    6    6    0  502  0.21993125577E+03  0.12617502080E+03 -0.49641510165E+02  0.25836828882E+03  0.00000000000E+00 0.  1.
<mgrwt>
<rscale>  0 0.19702689E+04</rscale>
<asrwt>0</asrwt>
<pdfrwt beam="1">  1        2 0.10373855E+00 0.19702689E+04</pdfrwt>
<pdfrwt beam="2">  1       -2 0.22142372E+00 0.19702689E+04</pdfrwt>
<totfact> 0.38701171E+00</totfact>
</mgrwt>
</event>
<event>
12    1  0.1830243E-007  0.1619795E+04  0.7818608E-02  0.8808479E-01
         -2   -1    0    0    0  501 -0.00000000000E+00  0.00000000000E+00  0.45404411706E+03  0.45404411706E+03  0.00000000000E+00 0.  1.
          2   -1    0    0  501    0  0.00000000000E+00 -0.00000000000E+00 -0.14446475404E+04  0.14446475404E+04  0.00000000000E+00 0. -1.
         23    2    1    2    0    0 -0.55077154314E+03  0.70258843651E+02 -0.41514064748E+03  0.69928323286E+03  0.91485980990E+02 0.  0.
        254    2    1    2    0    0  0.55077154314E+03 -0.70258843651E+02 -0.57546277588E+03  0.11994084246E+04  0.89394494506E+03 0.  0.
        -24    2    4    4    0    0  0.75953893578E+03  0.31643857081E+02 -0.56909741018E+03  0.95296618771E+03  0.79824582567E+02 0.  0.
         24    2    4    4    0    0 -0.20876739264E+03 -0.10190270073E+03 -0.63653657018E+01  0.24644223692E+03  0.82007765559E+02 0.  0.
         11    1    3    3    0    0 -0.64554488915E+02  0.16589610461E+02 -0.17577021482E+02  0.68930754373E+02  0.00000000000E+00 0. -1.
        -11    1    3    3    0    0 -0.48621705423E+03  0.53669233189E+02 -0.39756362600E+03  0.63035247849E+03  0.00000000000E+00 0.  1.
          2    1    6    6  502    0 -0.74096858060E+01  0.12914238668E+01  0.17381137080E+02  0.18938720800E+02  0.00000000000E+00 0. -1.
          1    1    5    5  503    0 -0.17642747381E+00 -0.44850749948E+00 -0.78770357420E+01  0.78917664507E+01  0.00000000000E+00 0. -1.
         -2    1    5    5    0  503  0.75971536326E+03  0.32092364580E+02 -0.56122037443E+03  0.94507442126E+03  0.00000000000E+00 0.  1.
         -1    1    6    6    0  502 -0.20135770683E+03 -0.10319412460E+03 -0.23746502782E+02  0.22750351612E+03  0.00000000000E+00 0.  1.
<mgrwt>
<rscale>  0 0.16197947E+04</rscale>
<asrwt>0</asrwt>
<pdfrwt beam="1">  1        2 0.22225347E+00 0.16197947E+04</pdfrwt>
<pdfrwt beam="2">  1       -2 0.69852941E-01 0.16197947E+04</pdfrwt>
<totfact> 0.24398043E+01</totfact>
</mgrwt>
</event>
<event>
12    1  0.1489025E-007  0.2867825E+04  0.7818608E-02  0.8282515E-01
          2   -1    0    0  501    0  0.00000000000E+00  0.00000000000E+00  0.12082041035E+04  0.12082041035E+04  0.00000000000E+00 0. -1.
         -2   -1    0    0    0  501 -0.00000000000E+00 -0.00000000000E+00 -0.17017857407E+04  0.17017857407E+04  0.00000000000E+00 0.  1.
         23    2    1    2    0    0 -0.80937721399E+03 -0.10032146643E+04 -0.21233993879E+03  0.13082116475E+04  0.69269963456E+02 0.  0.
        254    2    1    2    0    0  0.80937721399E+03  0.10032146643E+04 -0.28124169839E+03  0.16017781967E+04  0.90833108579E+03 0.  0.
        -24    2    4    4    0    0  0.94507924818E+03  0.93000893372E+03 -0.40423953534E+03  0.13884701067E+04  0.79675799987E+02 0.  0.
         24    2    4    4    0    0 -0.13570203419E+03  0.73205730598E+02  0.12299783695E+03  0.21330809005E+03  0.81226549292E+02 0.  0.
         13    1    3    3    0    0 -0.74531943174E+02 -0.88051755757E+02 -0.39156085814E+02  0.12182496173E+03  0.00000000000E+00 0.  1.
        -13    1    3    3    0    0 -0.73484527082E+03 -0.91516290856E+03 -0.17318385297E+03  0.11863866858E+04  0.00000000000E+00 0. -1.
          4    1    6    6  502    0 -0.73358314952E+01  0.16925992236E+02 -0.92215113528E+01  0.20623770473E+02  0.00000000000E+00 0. -1.
          1    1    5    5  503    0  0.41003752569E+02  0.64171612311E+02 -0.30796399807E+02  0.82144517726E+02  0.00000000000E+00 0. -1.
         -2    1    5    5    0  503  0.90407549561E+03  0.86583732141E+03 -0.37344313554E+03  0.13063255890E+04  0.00000000000E+00 0.  1.
         -3    1    6    6    0  502 -0.12836620269E+03  0.56279738362E+02  0.13221934830E+03  0.19268431957E+03  0.00000000000E+00 0.  1.
<mgrwt>
<rscale>  0 0.28678246E+04</rscale>
<asrwt>0</asrwt>
<pdfrwt beam="1">  1        2 0.18587756E+00 0.28678246E+04</pdfrwt>
<pdfrwt beam="2">  1       -2 0.26181319E+00 0.28678246E+04</pdfrwt>
<totfact> 0.88136833E-01</totfact>
</mgrwt>
</event>
<event>
12    1  0.1489025E-007  0.1516163E+04  0.7818608E-02  0.8873776E-01
          2   -1    0    0  501    0  0.00000000000E+00  0.00000000000E+00  0.19345277070E+04  0.19345277070E+04  0.00000000000E+00 0. -1.
         -2   -1    0    0    0  501 -0.00000000000E+00 -0.00000000000E+00 -0.29706853166E+03  0.29706853166E+03  0.00000000000E+00 0.  1.
         23    2    1    2    0    0  0.18918706589E+03 -0.22476312937E+03 -0.34917310783E+02  0.30977529408E+03  0.91822132447E+02 0.  0.
        254    2    1    2    0    0 -0.18918706589E+03  0.22476312937E+03  0.16723764861E+04  0.19218209446E+04  0.90013466849E+03 0.  0.
        -24    2    4    4    0    0 -0.31586191844E+03 -0.14442278508E+02  0.15954620358E+04  0.16284486753E+04  0.79803817739E+02 0.  0.
         24    2    4    4    0    0  0.12667485254E+03  0.23920540788E+03  0.76914450308E+02  0.29337226930E+03  0.82980180198E+02 0.  0.
         13    1    3    3    0    0  0.16016347716E+03 -0.22789833651E+03 -0.33375372398E+02  0.28054216560E+03  0.00000000000E+00 0.  1.
        -13    1    3    3    0    0  0.29023588733E+02  0.31352071382E+01 -0.15419383847E+01  0.29233128480E+02  0.00000000000E+00 0. -1.
          2    1    6    6  502    0  0.11942387294E+02  0.51638992252E+01 -0.12271661604E+02  0.17885193541E+02  0.00000000000E+00 0. -1.
          1    1    5    5  503    0 -0.62395428868E+02 -0.34383016354E+02  0.30949776025E+03  0.31759131751E+03  0.00000000000E+00 0. -1.
         -2    1    5    5    0  503 -0.25346648957E+03  0.19940737846E+02  0.12859642755E+04  0.13108573577E+04  0.00000000000E+00 0.  1.
         -1    1    6    6    0  502  0.11473246525E+03  0.23404150865E+03  0.89186111911E+02  0.27548707576E+03  0.00000000000E+00 0.  1.
<mgrwt>
<rscale>  0 0.15161627E+04</rscale>
<asrwt>0</asrwt>
<pdfrwt beam="1">  1        2 0.29761964E+00 0.15161627E+04</pdfrwt>
<pdfrwt beam="2">  1       -2 0.45702852E-01 0.15161627E+04</pdfrwt>
<totfact> 0.31836287E+01</totfact>
</mgrwt>
</event>
<event>
12    1  0.1489025E-007  0.3362636E+04  0.7818608E-02  0.8147138E-01
          1   -1    0    0  501    0  0.00000000000E+00  0.00000000000E+00  0.31856849138E+04  0.31856849138E+04  0.00000000000E+00 0. -1.
         -1   -1    0    0    0  501 -0.00000000000E+00 -0.00000000000E+00 -0.88735401238E+03  0.88735401238E+03  0.00000000000E+00 0.  1.
         23    2    1    2    0    0  0.57752353645E+03  0.14207790287E+04  0.13799035306E+04  0.20651431769E+04  0.92391037440E+02 0.  0.
        254    2    1    2    0    0 -0.57752353645E+03 -0.14207790287E+04  0.91842737091E+03  0.20078957494E+04  0.91432489914E+03 0.  0.
        -24    2    4    4    0    0 -0.79619340577E+03 -0.96030333978E+03  0.78104302658E+03  0.14739821719E+04  0.80553025725E+02 0.  0.
         24    2    4    4    0    0  0.21866986932E+03 -0.46047568890E+03  0.13738434433E+03  0.53391357746E+03  0.79591948741E+02 0.  0.
         13    1    3    3    0    0  0.45111930749E+03  0.11937601741E+04  0.11651160788E+04  0.17280241491E+04  0.00000000000E+00 0. -1.
        -13    1    3    3    0    0  0.12640422896E+03  0.22701885460E+03  0.21478745175E+03  0.33711902775E+03  0.00000000000E+00 0.  1.
          4    1    6    6  502    0  0.10741284115E+03 -0.15088725352E+03  0.70702484913E+02  0.19825065723E+03  0.00000000000E+00 0. -1.
          3    1    5    5  503    0 -0.68700871120E+03 -0.81676715728E+03  0.63482093688E+03  0.12418080288E+04  0.00000000000E+00 0. -1.
         -4    1    5    5    0  503 -0.10918469458E+03 -0.14353618249E+03  0.14622208970E+03  0.23217414311E+03  0.00000000000E+00 0.  1.
         -3    1    6    6    0  502  0.11125702818E+03 -0.30958843538E+03  0.66681859416E+02  0.33566292023E+03  0.00000000000E+00 0.  1.
<mgrwt>
<rscale>  0 0.33626360E+04</rscale>
<asrwt>0</asrwt>
<pdfrwt beam="1">  1        1 0.49010537E+00 0.33626360E+04</pdfrwt>
<pdfrwt beam="2">  1       -1 0.13651600E+00 0.33626360E+04</pdfrwt>
<totfact> 0.16078086E-01</totfact>
</mgrwt>
</event>
<event>
12    1  0.1489025E-007  0.1793132E+04  0.7818608E-02  0.8709960E-01
          1   -1    0    0  501    0  0.00000000000E+00  0.00000000000E+00  0.52010111936E+03  0.52010111936E+03  0.00000000000E+00 0. -1.
         -1   -1    0    0    0  501 -0.00000000000E+00 -0.00000000000E+00 -0.15455278735E+04  0.15455278735E+04  0.00000000000E+00 0.  1.
         23    2    1    2    0    0 -0.16835970715E+03 -0.43970412607E+03  0.16173352940E+03  0.50597815740E+03  0.90396082701E+02 0.  0.
        254    2    1    2    0    0  0.16835970715E+03  0.43970412607E+03 -0.11871602836E+04  0.15596508355E+04  0.89525218811E+03 0.  0.
        -24    2    4    4    0    0  0.56382909449E+02  0.52262766165E+03 -0.21299454105E+03  0.57231297104E+03  0.76529452558E+02 0.  0.
         24    2    4    4    0    0  0.11197679770E+03 -0.82923535584E+02 -0.97416574253E+03  0.98733786447E+03  0.80137685936E+02 0.  0.
         11    1    3    3    0    0 -0.17929860015E+03 -0.40557711397E+03  0.15297057163E+03  0.46908504472E+03  0.00000000000E+00 0. -1.
        -11    1    3    3    0    0  0.10938893006E+02 -0.34127012092E+02  0.87629577651E+01  0.36893112681E+02  0.00000000000E+00 0.  1.
          2    1    6    6  502    0  0.97270666405E+02 -0.52838763200E+02 -0.88834599379E+03  0.89521624322E+03  0.00000000000E+00 0. -1.
          3    1    5    5  503    0  0.67101787552E+02  0.38279437845E+03 -0.17972810576E+03  0.42817797475E+03  0.00000000000E+00 0. -1.
         -4    1    5    5    0  503 -0.10718878102E+02  0.13983328320E+03 -0.33266435289E+02  0.14413499629E+03  0.00000000000E+00 0.  1.
         -1    1    6    6    0  502  0.14706131291E+02 -0.30084772384E+02 -0.85819748744E+02  0.92121621249E+02  0.00000000000E+00 0.  1.
<mgrwt>
<rscale>  0 0.17931322E+04</rscale>
<asrwt>0</asrwt>
<pdfrwt beam="1">  1        1 0.80015559E-01 0.17931322E+04</pdfrwt>
<pdfrwt beam="2">  1       -1 0.23777351E+00 0.17931322E+04</pdfrwt>
<totfact> 0.33220638E+00</totfact>
</mgrwt>
</event>
<event>
12    1  0.1489025E-007  0.1058590E+04  0.7818608E-02  0.9246520E-01
         -1   -1    0    0    0  501 -0.00000000000E+00  0.00000000000E+00  0.48656273504E+03  0.48656273504E+03  0.00000000000E+00 0.  1.
          1   -1    0    0  501    0  0.00000000000E+00 -0.00000000000E+00 -0.57578032245E+03  0.57578032245E+03  0.00000000000E+00 0. -1.
         23    2    1    2    0    0 -0.27147444429E+02  0.62975529106E+02 -0.13468587319E+03  0.17688012992E+03  0.91887947634E+02 0.  0.
        254    2    1    2    0    0  0.27147444429E+02 -0.62975529106E+02  0.45468285782E+02  0.88546292757E+03  0.88163162947E+03 0.  0.
        -24    2    4    4    0    0  0.35688063782E+03  0.28148584981E+02  0.28136123124E+03  0.46247802619E+03  0.81028697264E+02 0.  0.
         24    2    4    4    0    0 -0.32973319339E+03 -0.91124114086E+02 -0.23589294546E+03  0.42298490137E+03  0.79013682877E+02 0.  0.
         11    1    3    3    0    0 -0.28240221174E+02  0.51658834443E+02 -0.14805449422E+03  0.15933072060E+03  0.00000000000E+00 0. -1.
        -11    1    3    3    0    0  0.10927767442E+01  0.11316694662E+02  0.13368621037E+02  0.17549409321E+02  0.00000000000E+00 0.  1.
          2    1    6    6  502    0 -0.25793373560E+03 -0.46282298705E+02 -0.14801102428E+03  0.30096366299E+03  0.00000000000E+00 0. -1.
          1    1    5    5  503    0  0.24772371090E+03 -0.34425986282E+00  0.15115991247E+03  0.29020074878E+03  0.00000000000E+00 0. -1.
         -2    1    5    5    0  503  0.10915692692E+03  0.28492844844E+02  0.13020131878E+03  0.17227727741E+03  0.00000000000E+00 0.  1.
         -1    1    6    6    0  502 -0.71799457792E+02 -0.44841815382E+02 -0.87881921185E+02  0.12202123839E+03  0.00000000000E+00 0.  1.
<mgrwt>
<rscale>  0 0.10585901E+04</rscale>
<asrwt>0</asrwt>
<pdfrwt beam="1">  1        1 0.88581587E-01 0.10585901E+04</pdfrwt>
<pdfrwt beam="2">  1       -1 0.74855806E-01 0.10585901E+04</pdfrwt>
<totfact> 0.65213819E+01</totfact>
</mgrwt>
</event>
<event>
12    1  0.1489025E-007  0.1479915E+04  0.7818608E-02  0.8897920E-01
         -2   -1    0    0    0  501 -0.00000000000E+00  0.00000000000E+00  0.44070171036E+03  0.44070171036E+03  0.00000000000E+00 0. -1.
          2   -1    0    0  501    0  0.00000000000E+00 -0.00000000000E+00 -0.12424216665E+04  0.12424216665E+04  0.00000000000E+00 0.  1.
         23    2    1    2    0    0  0.31426066986E+03 -0.24531553260E+03  0.99803975478E+01  0.40870769874E+03  0.89458904077E+02 0.  0.
        254    2    1    2    0    0 -0.31426066986E+03  0.24531553260E+03 -0.81170035366E+03  0.12744156781E+04  0.89796346101E+03 0.  0.
        -24    2    4    4    0    0 -0.16524181517E+03  0.46550579111E+03 -0.98895149523E+02  0.50943340543E+03  0.75773642717E+02 0.  0.
         24    2    4    4    0    0 -0.14901885468E+03 -0.22019025851E+03 -0.71280520413E+03  0.76498227267E+03  0.80101494747E+02 0.  0.
         13    1    3    3    0    0  0.32560960285E+02 -0.46569340370E+02  0.28274562191E+02  0.63469445123E+02  0.00000000000E+00 0.  1.
        -13    1    3    3    0    0  0.28169970957E+03 -0.19874619223E+03 -0.18294164643E+02  0.34523825361E+03  0.00000000000E+00 0. -1.
          4    1    6    6  502    0 -0.14187095884E+03 -0.20653438262E+03 -0.70393133887E+03  0.74719686162E+03  0.00000000000E+00 0. -1.
          3    1    5    5  503    0 -0.12899509422E+03  0.37042311586E+03 -0.46525292323E+02  0.39499066055E+03  0.00000000000E+00 0. -1.
         -4    1    5    5    0  503 -0.36246720949E+02  0.95082675251E+02 -0.52369857200E+02  0.11444274488E+03  0.00000000000E+00 0.  1.
         -3    1    6    6    0  502 -0.71478958412E+01 -0.13655875897E+02 -0.88738652575E+01  0.17785411046E+02  0.00000000000E+00 0.  1.
<mgrwt>
<rscale>  0 0.14799153E+04</rscale>
<asrwt>0</asrwt>
<pdfrwt beam="1">  1        2 0.19114179E+00 0.14799153E+04</pdfrwt>
<pdfrwt beam="2">  1       -2 0.67800264E-01 0.14799153E+04</pdfrwt>
<totfact> 0.34463771E+01</totfact>
</mgrwt>
</event>
<event>
12    1  0.1489025E-007  0.1741116E+04  0.7818608E-02  0.8738255E-01
          2   -1    0    0  501    0  0.00000000000E+00  0.00000000000E+00  0.25370196560E+04  0.25370196560E+04  0.00000000000E+00 0. -1.
         -2   -1    0    0    0  501 -0.00000000000E+00 -0.00000000000E+00 -0.29872515868E+03  0.29872515868E+03  0.00000000000E+00 0.  1.
         23    2    1    2    0    0  0.34989728841E+03 -0.34320617753E+03  0.16767758208E+03  0.52630071332E+03  0.93048786041E+02 0.  0.
        254    2    1    2    0    0 -0.34989728841E+03  0.34320617753E+03  0.20706169152E+04  0.23094441014E+04  0.89769652717E+03 0.  0.
        -24    2    4    4    0    0  0.91555571529E+02  0.31294537085E+03  0.16824861825E+04  0.17154292595E+04  0.74970408321E+02 0.  0.
         24    2    4    4    0    0 -0.44145285994E+03  0.30260806679E+02  0.38813073269E+03  0.59401484184E+03  0.80073857801E+02 0.  0.
         11    1    3    3    0    0  0.20324422143E+03 -0.14879667250E+03  0.11619183284E+03  0.27739719773E+03  0.00000000000E+00 0. -1.
        -11    1    3    3    0    0  0.14665306698E+03 -0.19440950502E+03  0.51485749246E+02  0.24890351559E+03  0.00000000000E+00 0.  1.
          4    1    6    6  502    0 -0.13181171105E+03  0.37501597388E+02  0.15115552315E+03  0.20403109850E+03  0.00000000000E+00 0. -1.
          1    1    5    5  503    0  0.27892558632E+01 -0.40359969880E+01  0.15676023655E+02  0.16425800972E+02  0.00000000000E+00 0. -1.
         -2    1    5    5    0  503  0.88766315666E+02  0.31698136784E+03  0.16668101589E+04  0.16990034585E+04  0.00000000000E+00 0.  1.
         -3    1    6    6    0  502 -0.30964114888E+03 -0.72407907088E+01  0.23697520954E+03  0.38998374334E+03  0.00000000000E+00 0.  1.
<mgrwt>
<rscale>  0 0.17411164E+04</rscale>
<asrwt>0</asrwt>
<pdfrwt beam="1">  1        2 0.39031070E+00 0.17411164E+04</pdfrwt>
<pdfrwt beam="2">  1       -2 0.45957718E-01 0.17411164E+04</pdfrwt>
<totfact> 0.14128856E+01</totfact>
</mgrwt>
</event>
<event>
12    1  0.1489025E-007  0.2083489E+04  0.7818608E-02  0.8568552E-01
         -2   -1    0    0    0  501 -0.00000000000E+00  0.00000000000E+00  0.10822352057E+04  0.10822352057E+04  0.00000000000E+00 0.  1.
          2   -1    0    0  501    0  0.00000000000E+00 -0.00000000000E+00 -0.10027690499E+04  0.10027690499E+04  0.00000000000E+00 0. -1.
         23    2    1    2    0    0  0.53948399610E+03  0.31078749306E+03 -0.56144486070E+03  0.84377455636E+03  0.95411332963E+02 0.  0.
        254    2    1    2    0    0 -0.53948399610E+03 -0.31078749306E+03  0.64091101651E+03  0.12412296992E+04  0.86154070548E+03 0.  0.
        -24    2    4    4    0    0  0.12087916091E+03 -0.22669042541E+03  0.48326312382E+03  0.55232440891E+03  0.74287854461E+02 0.  0.
         24    2    4    4    0    0 -0.66036315702E+03 -0.84097067649E+02  0.15764789269E+03  0.68890529029E+03  0.81153095970E+02 0.  0.
         13    1    3    3    0    0  0.29810542615E+03  0.22574437053E+03 -0.33592196811E+03  0.50266383855E+03  0.00000000000E+00 0. -1.
        -13    1    3    3    0    0  0.24137856995E+03  0.85043122527E+02 -0.22552289259E+03  0.34111071781E+03  0.00000000000E+00 0.  1.
          4    1    6    6  502    0 -0.13754116693E+03 -0.77330411538E+00  0.38459492574E+01  0.13759709999E+03  0.00000000000E+00 0. -1.
          1    1    5    5  503    0  0.86618291985E+02 -0.84807292901E+02  0.20750021908E+03  0.24031509805E+03  0.00000000000E+00 0. -1.
         -2    1    5    5    0  503  0.34260868929E+02 -0.14188313251E+03  0.27576290474E+03  0.31200931086E+03  0.00000000000E+00 0.  1.
         -3    1    6    6    0  502 -0.52282199009E+03 -0.83323763534E+02  0.15380194343E+03  0.55130819030E+03  0.00000000000E+00 0.  1.
<mgrwt>
<rscale>  0 0.20834894E+04</rscale>
<asrwt>0</asrwt>
<pdfrwt beam="1">  1        2 0.15427216E+00 0.20834894E+04</pdfrwt>
<pdfrwt beam="2">  1       -2 0.16649772E+00 0.20834894E+04</pdfrwt>
<totfact> 0.52263603E+00</totfact>
</mgrwt>
</event>
<event>
12    1  0.1489025E-007  0.1262587E+04  0.7818608E-02  0.9059772E-01
         -3   -1    0    0    0  501 -0.00000000000E+00  0.00000000000E+00  0.15811081692E+04  0.15811081692E+04  0.00000000000E+00 0.  1.
          3   -1    0    0  501    0  0.00000000000E+00 -0.00000000000E+00 -0.25205819404E+03  0.25205819404E+03  0.00000000000E+00 0. -1.
         23    2    1    2    0    0  0.18392544968E+03  0.13199864260E+03  0.39960253249E+02  0.24835115933E+03  0.93964162390E+02 0.  0.
        254    2    1    2    0    0 -0.18392544968E+03 -0.13199864260E+03  0.12890897219E+04  0.15848152039E+04  0.89366364293E+03 0.  0.
        -24    2    4    4    0    0 -0.45919673246E+03 -0.29499732544E+03  0.10185612659E+04  0.11583741389E+04  0.80489329543E+02 0.  0.
         24    2    4    4    0    0  0.27527128278E+03  0.16299868284E+03  0.27052845594E+03  0.42644106494E+03  0.79520353753E+02 0.  0.
         11    1    3    3    0    0  0.17344996207E+03  0.83017375562E+02  0.46503467684E+02  0.19783666620E+03  0.00000000000E+00 0. -1.
        -11    1    3    3    0    0  0.10475487612E+02  0.48981267034E+02 -0.65432144356E+01  0.50514493129E+02  0.00000000000E+00 0.  1.
          4    1    6    6  502    0  0.51818861441E+02  0.59932566520E+02  0.97448166567E+02  0.12559160839E+03  0.00000000000E+00 0. -1.
          1    1    5    5  503    0 -0.10782727336E+03 -0.62425645049E+02  0.16797762189E+03  0.20914149157E+03  0.00000000000E+00 0. -1.
         -2    1    5    5    0  503 -0.35136945911E+03 -0.23257168039E+03  0.85058364405E+03  0.94923264738E+03  0.00000000000E+00 0.  1.
         -3    1    6    6    0  502  0.22345242134E+03  0.10306611632E+03  0.17308028937E+03  0.30084945655E+03  0.00000000000E+00 0.  1.
<mgrwt>
<rscale>  0 0.12625867E+04</rscale>
<asrwt>0</asrwt>
<pdfrwt beam="1">  1        3 0.38778185E-01 0.12625867E+04</pdfrwt>
<pdfrwt beam="2">  1       -3 0.24324740E+00 0.12625867E+04</pdfrwt>
<totfact> 0.13669473E+00</totfact>
</mgrwt>
</event>
<event>
12    1  0.1489025E-007  0.1491433E+04  0.7818608E-02  0.8890170E-01
          1   -1    0    0  501    0  0.00000000000E+00  0.00000000000E+00  0.67965828589E+03  0.67965828589E+03  0.00000000000E+00 0. -1.
         -1   -1    0    0    0  501 -0.00000000000E+00 -0.00000000000E+00 -0.81819548480E+03  0.81819548480E+03  0.00000000000E+00 0.  1.
         23    2    1    2    0    0 -0.21061729537E+03  0.90748123860E+02  0.37031600080E+03  0.44516116534E+03  0.91867598131E+02 0.  0.
        254    2    1    2    0    0  0.21061729537E+03 -0.90748123860E+02 -0.50885319971E+03  0.10526926053E+04  0.89254427083E+03 0.  0.
        -24    2    4    4    0    0  0.10982401655E+03 -0.87998605943E+02  0.24183444126E+03  0.29080207580E+03  0.79226769787E+02 0.  0.
         24    2    4    4    0    0  0.10079327882E+03 -0.27495179169E+01 -0.75068764097E+03  0.76189052955E+03  0.82331037922E+02 0.  0.
         11    1    3    3    0    0 -0.18486216576E+03  0.64915037408E+02  0.23991190984E+03  0.30975104018E+03  0.00000000000E+00 0.  1.
        -11    1    3    3    0    0 -0.25755129615E+02  0.25833086452E+02  0.13040409096E+03  0.13541012516E+03  0.00000000000E+00 0. -1.
          4    1    6    6  502    0  0.40679632806E+02 -0.27548793039E+02 -0.15345031404E+03  0.16112345392E+03  0.00000000000E+00 0. -1.
          3    1    5    5  503    0  0.50675613641E+01 -0.98718358890E+01 -0.44808746159E+01  0.11967103213E+02  0.00000000000E+00 0. -1.
         -4    1    5    5    0  503  0.10475645518E+03 -0.78126770054E+02  0.24631531588E+03  0.27883497258E+03  0.00000000000E+00 0.  1.
         -3    1    6    6    0  502  0.60113646018E+02  0.24799275122E+02 -0.59723732693E+03  0.60076707563E+03  0.00000000000E+00 0.  1.
<mgrwt>
<rscale>  0 0.14914333E+04</rscale>
<asrwt>0</asrwt>
<pdfrwt beam="1">  1        1 0.10456281E+00 0.14914333E+04</pdfrwt>
<pdfrwt beam="2">  1       -1 0.12587623E+00 0.14914333E+04</pdfrwt>
<totfact> 0.15171184E+01</totfact>
</mgrwt>
</event>
<event>
12    1  0.1489025E-007  0.2354873E+04  0.7818608E-02  0.8456594E-01
          1   -1    0    0  501    0  0.00000000000E+00  0.00000000000E+00  0.69814597939E+03  0.69814597939E+03  0.00000000000E+00 0. -1.
         -1   -1    0    0    0  501 -0.00000000000E+00 -0.00000000000E+00 -0.19857682719E+04  0.19857682719E+04  0.00000000000E+00 0.  1.
         23    2    1    2    0    0 -0.14537450395E+03  0.32970797362E+03  0.51685208728E+03  0.63659821569E+03  0.90995130751E+02 0.  0.
        254    2    1    2    0    0  0.14537450395E+03 -0.32970797362E+03 -0.18044743798E+04  0.20473160356E+04  0.89751549736E+03 0.  0.
        -24    2    4    4    0    0 -0.32508413073E+03  0.70387399368E+02 -0.57001523626E+03  0.66458159823E+03  0.78212870360E+02 0.  0.
         24    2    4    4    0    0  0.47045863467E+03 -0.40009537299E+03 -0.12344591436E+04  0.13827344374E+04  0.81593583118E+02 0.  0.
         11    1    3    3    0    0  0.11927054069E+02  0.42411212617E+02  0.57985067679E+02  0.72823304294E+02  0.00000000000E+00 0.  1.
        -11    1    3    3    0    0 -0.15730155801E+03  0.28729676101E+03  0.45886701960E+03  0.56377491140E+03  0.00000000000E+00 0. -1.
          2    1    6    6  502    0  0.13159729861E+03 -0.16226284515E+03 -0.40707188191E+03  0.45755283516E+03  0.00000000000E+00 0. -1.
          1    1    5    5  503    0 -0.27617003446E+02  0.29962251717E+02 -0.83276456229E+02  0.92711399350E+02  0.00000000000E+00 0. -1.
         -2    1    5    5    0  503 -0.29746712728E+03  0.40425147651E+02 -0.48673878004E+03  0.57187019888E+03  0.00000000000E+00 0.  1.
         -1    1    6    6    0  502  0.33886133606E+03 -0.23783252784E+03 -0.82738726166E+03  0.92518160224E+03  0.00000000000E+00 0.  1.
<mgrwt>
<rscale>  0 0.23548725E+04</rscale>
<asrwt>0</asrwt>
<pdfrwt beam="1">  1        1 0.10740707E+00 0.23548725E+04</pdfrwt>
<pdfrwt beam="2">  1       -1 0.30550281E+00 0.23548725E+04</pdfrwt>
<totfact> 0.74870939E-01</totfact>
</mgrwt>
</event>
<event>
12    1  0.1489025E-007  0.2500863E+04  0.7818608E-02  0.8402678E-01
          1   -1    0    0  501    0  0.00000000000E+00  0.00000000000E+00  0.14653147063E+04  0.14653147063E+04  0.00000000000E+00 0. -1.
         -1   -1    0    0    0  501 -0.00000000000E+00 -0.00000000000E+00 -0.10670598666E+04  0.10670598666E+04  0.00000000000E+00 0.  1.
         23    2    1    2    0    0  0.84479734358E+03 -0.60744148943E+03 -0.11191824905E+03  0.10504423703E+04  0.90751110756E+02 0.  0.
        254    2    1    2    0    0 -0.84479734358E+03  0.60744148943E+03  0.51017308880E+03  0.14819322026E+04  0.92367676042E+03 0.  0.
        -24    2    4    4    0    0 -0.10276749291E+04  0.41630717660E+03  0.45128546052E+03  0.11997293403E+04  0.79148581014E+02 0.  0.
         24    2    4    4    0    0  0.18287758554E+03  0.19113431283E+03  0.58887628278E+02  0.28220286229E+03  0.78703023346E+02 0.  0.
         13    1    3    3    0    0  0.84538600664E+03 -0.60792514527E+03 -0.11468735718E+03  0.10475703663E+04  0.00000000000E+00 0. -1.
        -13    1    3    3    0    0 -0.58866306529E+00  0.48365584869E+00  0.27691081283E+01  0.28720040060E+01  0.00000000000E+00 0.  1.
          2    1    6    6  502    0  0.42238021313E+01  0.43685265367E+02  0.15406169561E+02  0.46514438352E+02  0.00000000000E+00 0. -1.
          1    1    5    5  503    0 -0.36018659768E+03  0.18689186323E+03  0.16155515530E+03  0.43676426352E+03  0.00000000000E+00 0. -1.
         -2    1    5    5    0  503 -0.66748833144E+03  0.22941531337E+03  0.28973030522E+03  0.76296507678E+03  0.00000000000E+00 0.  1.
         -1    1    6    6    0  502  0.17865378341E+03  0.14744904746E+03  0.43481458717E+02  0.23568842393E+03  0.00000000000E+00 0.  1.
<mgrwt>
<rscale>  0 0.25008627E+04</rscale>
<asrwt>0</asrwt>
<pdfrwt beam="1">  1        1 0.22543303E+00 0.25008627E+04</pdfrwt>
<pdfrwt beam="2">  1       -1 0.16416306E+00 0.25008627E+04</pdfrwt>
<totfact> 0.16702441E+00</totfact>
</mgrwt>
</event>
<event>
12    1  0.1489025E-007  0.1761165E+04  0.7818608E-02  0.8727228E-01
         -1   -1    0    0    0  501 -0.00000000000E+00  0.00000000000E+00  0.51332024420E+03  0.51332024420E+03  0.00000000000E+00 0.  1.
          1   -1    0    0  501    0  0.00000000000E+00 -0.00000000000E+00 -0.15106083896E+04  0.15106083896E+04  0.00000000000E+00 0. -1.
         23    2    1    2    0    0  0.43587410241E+03 -0.79341627026E+02 -0.93336682041E+03  0.10373190818E+04  0.92606312334E+02 0.  0.
        254    2    1    2    0    0 -0.43587410241E+03  0.79341627026E+02 -0.63921324979E+02  0.98660955200E+03  0.87922189769E+03 0.  0.
        -24    2    4    4    0    0 -0.53636556359E+02 -0.23414860531E+03 -0.33271244919E+03  0.41822946937E+03  0.80720912174E+02 0.  0.
         24    2    4    4    0    0 -0.38223754605E+03  0.31349023233E+03  0.26879112421E+03  0.56838008262E+03  0.80159731108E+02 0.  0.
         13    1    3    3    0    0  0.22085192421E+03 -0.24624084780E+02 -0.56717156635E+03  0.60915146200E+03  0.00000000000E+00 0.  1.
        -13    1    3    3    0    0  0.21502217819E+03 -0.54717542246E+02 -0.36619525405E+03  0.42816761979E+03  0.00000000000E+00 0. -1.
          4    1    6    6  502    0 -0.13679155615E+03  0.14623866906E+03  0.14174926245E+03  0.24533758694E+03  0.00000000000E+00 0. -1.
          3    1    5    5  503    0 -0.73945662216E+02 -0.16021545020E+03 -0.22267639888E+03  0.28411569838E+03  0.00000000000E+00 0. -1.
         -4    1    5    5    0  503  0.20309105857E+02 -0.73933155104E+02 -0.11003605030E+03  0.13411377099E+03  0.00000000000E+00 0.  1.
         -3    1    6    6    0  502 -0.24544598990E+03  0.16725156328E+03  0.12704186176E+03  0.32304249568E+03  0.00000000000E+00 0.  1.
<mgrwt>
<rscale>  0 0.17611654E+04</rscale>
<asrwt>0</asrwt>
<pdfrwt beam="1">  1        1 0.23240129E+00 0.17611654E+04</pdfrwt>
<pdfrwt beam="2">  1       -1 0.78972346E-01 0.17611654E+04</pdfrwt>
<totfact> 0.97630627E+00</totfact>
</mgrwt>
</event>
<event>
12    1  0.1489025E-007  0.1681368E+04  0.7818608E-02  0.8772063E-01
         -1   -1    0    0    0  501 -0.00000000000E+00  0.00000000000E+00  0.83405119044E+03  0.83405119044E+03  0.00000000000E+00 0.  1.
          1   -1    0    0  501    0  0.00000000000E+00 -0.00000000000E+00 -0.84737003424E+03  0.84737003424E+03  0.00000000000E+00 0. -1.
         23    2    1    2    0    0  0.32064602344E+03  0.90695180803E+02 -0.51041544448E+03  0.61640238460E+03  0.91588676214E+02 0.  0.
        254    2    1    2    0    0 -0.32064602344E+03 -0.90695180803E+02  0.49709660068E+03  0.10650188401E+04  0.88097707754E+03 0.  0.
        -24    2    4    4    0    0 -0.41367902157E+03 -0.41670658916E+03  0.27429296032E+03  0.65329125308E+03  0.82329332127E+02 0.  0.
         24    2    4    4    0    0  0.93032998135E+02  0.32601140836E+03  0.22280364036E+03  0.41172758700E+03  0.70282050468E+02 0.  0.
         11    1    3    3    0    0  0.29955763925E+03  0.89908034573E+02 -0.42059304053E+03  0.52413427636E+03  0.00000000000E+00 0. -1.
        -11    1    3    3    0    0  0.21088384185E+02  0.78714623068E+00 -0.89822403946E+02  0.92268108235E+02  0.00000000000E+00 0.  1.
          2    1    6    6  502    0  0.80674432585E+02  0.15814816724E+03  0.10472363206E+03  0.20612192020E+03  0.00000000000E+00 0. -1.
          3    1    5    5  503    0 -0.36510640137E+03 -0.33618174646E+03  0.25211553590E+03  0.55667144207E+03  0.00000000000E+00 0. -1.
         -4    1    5    5    0  503 -0.48572620200E+02 -0.80524842701E+02  0.22177424419E+02  0.96619811007E+02  0.00000000000E+00 0.  1.
         -1    1    6    6    0  502  0.12358565550E+02  0.16786324112E+03  0.11808000830E+03  0.20560566680E+03  0.00000000000E+00 0.  1.
<mgrwt>
<rscale>  0 0.16813685E+04</rscale>
<asrwt>0</asrwt>
<pdfrwt beam="1">  1        1 0.13036462E+00 0.16813685E+04</pdfrwt>
<pdfrwt beam="2">  1       -1 0.12831557E+00 0.16813685E+04</pdfrwt>
<totfact> 0.10057846E+01</totfact>
</mgrwt>
</event>
<event>
12    1  0.1489025E-007  0.1805209E+04  0.7818608E-02  0.8703534E-01
         -1   -1    0    0    0  501 -0.00000000000E+00  0.00000000000E+00  0.96403359181E+03  0.96403359181E+03  0.00000000000E+00 0.  1.
          1   -1    0    0  501    0  0.00000000000E+00 -0.00000000000E+00 -0.84508959935E+03  0.84508959935E+03  0.00000000000E+00 0. -1.
         23    2    1    2    0    0  0.46094027478E+03  0.85759341272E+02  0.52778775611E+03  0.71114330811E+03  0.85698819411E+02 0.  0.
        254    2    1    2    0    0 -0.46094027478E+03 -0.85759341272E+02 -0.40884376365E+03  0.10979798831E+04  0.90475742549E+03 0.  0.
        -24    2    4    4    0    0 -0.37920970961E+03 -0.47206043399E+03 -0.19008765330E+03  0.63960951397E+03  0.79535886433E+02 0.  0.
         24    2    4    4    0    0 -0.81730565172E+02  0.38630109272E+03 -0.21875611035E+03  0.45837036908E+03  0.79628763113E+02 0.  0.
         11    1    3    3    0    0  0.42605045962E+03  0.10206385121E+03  0.48564752737E+03  0.65405622442E+03  0.00000000000E+00 0.  1.
        -11    1    3    3    0    0  0.34889815159E+02 -0.16304509938E+02  0.42140228741E+02  0.57087083693E+02  0.00000000000E+00 0. -1.
          2    1    6    6  502    0 -0.60655214804E+01  0.18521612108E+03 -0.12752002172E+03  0.22495145699E+03  0.00000000000E+00 0. -1.
          1    1    5    5  503    0 -0.22660767435E+03 -0.23184167446E+03 -0.75870369375E+02  0.33295331961E+03  0.00000000000E+00 0. -1.
         -2    1    5    5    0  503 -0.15260203526E+03 -0.24021875953E+03 -0.11421728392E+03  0.30665619437E+03  0.00000000000E+00 0.  1.
         -1    1    6    6    0  502 -0.75665043691E+02  0.20108497163E+03 -0.91236088627E+02  0.23341891209E+03  0.00000000000E+00 0.  1.
<mgrwt>
<rscale>  0 0.18052089E+04</rscale>
<asrwt>0</asrwt>
<pdfrwt beam="1">  1        1 0.13001378E+00 0.18052089E+04</pdfrwt>
<pdfrwt beam="2">  1       -1 0.14831286E+00 0.18052089E+04</pdfrwt>
<totfact> 0.68605684E+00</totfact>
</mgrwt>
</event>
<event>
12    1  0.1489025E-007  0.1197599E+04  0.7818608E-02  0.9114961E-01
          1   -1    0    0  501    0  0.00000000000E+00  0.00000000000E+00  0.69142782756E+03  0.69142782756E+03  0.00000000000E+00 0. -1.
         -1   -1    0    0    0  501 -0.00000000000E+00 -0.00000000000E+00 -0.51858047580E+03  0.51858047580E+03  0.00000000000E+00 0.  1.
         23    2    1    2    0    0 -0.14492575056E+01  0.24443215475E+03 -0.22306824364E+02  0.26190649183E+03  0.91368689529E+02 0.  0.
        254    2    1    2    0    0  0.14492575056E+01 -0.24443215475E+03  0.19515417612E+03  0.94810181153E+03  0.89502106899E+03 0.  0.
        -24    2    4    4    0    0 -0.26092141320E+03 -0.13814520744E+02 -0.25437735153E+03  0.37337206688E+03  0.80175049168E+02 0.  0.
         24    2    4    4    0    0  0.26237067070E+03 -0.23061763400E+03  0.44953152765E+03  0.57472974464E+03  0.78821463256E+02 0.  0.
         13    1    3    3    0    0  0.17956204608E+01  0.20357666736E+03  0.18056134250E+02  0.20438372667E+03  0.00000000000E+00 0. -1.
        -13    1    3    3    0    0 -0.32448779664E+01  0.40855487393E+02 -0.40362958613E+02  0.57522765156E+02  0.00000000000E+00 0.  1.
          4    1    6    6  502    0  0.91035334873E+02 -0.49161811707E+02  0.90350241429E+02  0.13735895330E+03  0.00000000000E+00 0. -1.
          3    1    5    5  503    0 -0.14872651274E+03  0.98986262522E+01 -0.94018521948E+02  0.17623007934E+03  0.00000000000E+00 0. -1.
         -4    1    5    5    0  503 -0.11219490045E+03 -0.23713146997E+02 -0.16035882958E+03  0.19714198754E+03  0.00000000000E+00 0.  1.
         -3    1    6    6    0  502  0.17133533583E+03 -0.18145582230E+03  0.35918128622E+03  0.43737079134E+03  0.00000000000E+00 0.  1.
<mgrwt>
<rscale>  0 0.11975992E+04</rscale>
<asrwt>0</asrwt>
<pdfrwt beam="1">  1        1 0.10637351E+00 0.11975992E+04</pdfrwt>
<pdfrwt beam="2">  1       -1 0.79781612E-01 0.11975992E+04</pdfrwt>
<totfact> 0.43135431E+01</totfact>
</mgrwt>
</event>
<event>
12    1  0.1489025E-007  0.2596837E+04  0.7818608E-02  0.8369277E-01
         -1   -1    0    0    0  501 -0.00000000000E+00  0.00000000000E+00  0.23268874830E+04  0.23268874830E+04  0.00000000000E+00 0. -1.
          1   -1    0    0  501    0  0.00000000000E+00 -0.00000000000E+00 -0.72452581592E+03  0.72452581592E+03  0.00000000000E+00 0.  1.
         23    2    1    2    0    0 -0.66101211242E+03  0.46357468759E+03 -0.24461919180E+03  0.84856215956E+03  0.91546086206E+02 0.  0.
        254    2    1    2    0    0  0.66101211242E+03 -0.46357468759E+03  0.18469808588E+04  0.22028511393E+04  0.88846853932E+03 0.  0.
        -24    2    4    4    0    0 -0.11272602755E+03  0.16803562033E+02 -0.44940457040E+01  0.13798462352E+03  0.77653350841E+02 0.  0.
         24    2    4    4    0    0  0.77373813997E+03 -0.48037824963E+03  0.18514749045E+04  0.20648665158E+04  0.79249189293E+02 0.  0.
         13    1    3    3    0    0 -0.66348977033E+03  0.46041086216E+03 -0.24614226286E+03  0.84426468059E+03  0.00000000000E+00 0.  1.
        -13    1    3    3    0    0  0.24776579062E+01  0.31638254321E+01  0.15230710607E+01  0.42974789727E+01  0.00000000000E+00 0. -1.
          4    1    6    6  502    0  0.71703022329E+03 -0.46389899904E+03  0.17548808562E+04  0.19516509529E+04  0.00000000000E+00 0. -1.
          3    1    5    5  503    0 -0.58057607746E+02  0.27497275866E+02  0.31617367946E+02  0.71599189612E+02  0.00000000000E+00 0. -1.
         -4    1    5    5    0  503 -0.54668419800E+02 -0.10693713832E+02 -0.36111413650E+02  0.66385433905E+02  0.00000000000E+00 0.  1.
         -3    1    6    6    0  502  0.56707916673E+02 -0.16479250586E+02  0.96594048308E+02  0.11321556290E+03  0.00000000000E+00 0.  1.
<mgrwt>
<rscale>  0 0.25968366E+04</rscale>
<asrwt>0</asrwt>
<pdfrwt beam="1">  1        1 0.11146551E+00 0.25968366E+04</pdfrwt>
<pdfrwt beam="2">  1       -1 0.35798269E+00 0.25968366E+04</pdfrwt>
<totfact> 0.31309671E-01</totfact>
</mgrwt>
</event>
<event>
12    1  0.2327076E-007  0.2166117E+04  0.7818608E-02  0.8532665E-01
          1   -1    0    0  501    0  0.00000000000E+00  0.00000000000E+00  0.24402247637E+04  0.24402247637E+04  0.00000000000E+00 0. -1.
         -1   -1    0    0    0  501 -0.00000000000E+00 -0.00000000000E+00 -0.48069971787E+03  0.48069971787E+03  0.00000000000E+00 0.  1.
         23    2    1    2    0    0 -0.50646962148E+03  0.26855238099E+02 -0.17798714713E+03  0.54523812965E+03  0.91501432647E+02 0.  0.
        254    2    1    2    0    0  0.50646962148E+03 -0.26855238099E+02  0.21375121929E+04  0.23756863519E+04  0.90426466607E+03 0.  0.
        -24    2    4    4    0    0  0.60732839424E+03  0.19401053199E+03  0.19648571135E+04  0.20672814103E+04  0.80629324506E+02 0.  0.
         24    2    4    4    0    0 -0.10085877275E+03 -0.22086577009E+03  0.17265507939E+03  0.30840494154E+03  0.79684697960E+02 0.  0.
         11    1    3    3    0    0 -0.24230171425E+01 -0.87999870097E+01  0.96913665746E+00  0.91787803821E+01  0.00000000000E+00 0. -1.
        -11    1    3    3    0    0 -0.50404660434E+03  0.35655225109E+02 -0.17895628379E+03  0.53605934927E+03  0.00000000000E+00 0.  1.
          2    1    6    6  502    0 -0.11331195787E+03 -0.18226482742E+03  0.13896758626E+03  0.25567959860E+03  0.00000000000E+00 0. -1.
          3    1    5    5  503    0  0.53756752887E+03  0.19772790091E+03  0.17490220463E+04  0.18404220411E+04  0.00000000000E+00 0. -1.
         -4    1    5    5    0  503  0.69760865372E+02 -0.37173689214E+01  0.21583506728E+03  0.22685936929E+03  0.00000000000E+00 0.  1.
         -3    1    6    6    0  502  0.12453185116E+02 -0.38600942663E+02  0.33687493134E+02  0.52725342935E+02  0.00000000000E+00 0.  1.
<mgrwt>
<rscale>  0 0.21661167E+04</rscale>
<asrwt>0</asrwt>
<pdfrwt beam="1">  1        1 0.37541919E+00 0.21661167E+04</pdfrwt>
<pdfrwt beam="2">  1       -1 0.73953804E-01 0.21661167E+04</pdfrwt>
<totfact> 0.25091728E+00</totfact>
</mgrwt>
</event>
<event>
12    1  0.1489025E-007  0.1370289E+04  0.7818608E-02  0.8975610E-01
          2   -1    0    0  501    0  0.00000000000E+00  0.00000000000E+00  0.36141192617E+04  0.36141192617E+04  0.00000000000E+00 0. -1.
         -2   -1    0    0    0  501 -0.00000000000E+00 -0.00000000000E+00 -0.12988581456E+03  0.12988581456E+03  0.00000000000E+00 0.  1.
         23    2    1    2    0    0  0.20095936779E+03  0.25306169707E+03  0.44902169268E+03  0.56071808313E+03  0.91429744728E+02 0.  0.
        254    2    1    2    0    0 -0.20095936779E+03 -0.25306169707E+03  0.30352117544E+04  0.31832869931E+04  0.90353793291E+03 0.  0.
        -24    2    4    4    0    0 -0.10327024997E+03 -0.47869455833E+02  0.29071215134E+04  0.29103776091E+04  0.77369920908E+02 0.  0.
         24    2    4    4    0    0 -0.97689117818E+02 -0.20519224124E+03  0.12809024104E+03  0.27290938399E+03  0.80158607872E+02 0.  0.
         13    1    3    3    0    0  0.76659939362E+02  0.83607874660E+02  0.23404920893E+03  0.26008855263E+03  0.00000000000E+00 0. -1.
        -13    1    3    3    0    0  0.12429942843E+03  0.16945382241E+03  0.21497248375E+03  0.30062953050E+03  0.00000000000E+00 0.  1.
          4    1    6    6  502    0 -0.72483764650E+02 -0.84819025203E+02  0.92361938536E+02  0.14484091571E+03  0.00000000000E+00 0. -1.
          1    1    5    5  503    0 -0.51442590406E+02 -0.57929243041E+02  0.21622227945E+04  0.21636103046E+04  0.00000000000E+00 0. -1.
         -2    1    5    5    0  503 -0.51827659568E+02  0.10059787208E+02  0.74489871891E+03  0.74676730449E+03  0.00000000000E+00 0.  1.
         -3    1    6    6    0  502 -0.25205353168E+02 -0.12037321604E+03  0.35728302501E+02  0.12806846828E+03  0.00000000000E+00 0.  1.
<mgrwt>
<rscale>  0 0.13702888E+04</rscale>
<asrwt>0</asrwt>
<pdfrwt beam="1">  1        2 0.55601827E+00 0.13702888E+04</pdfrwt>
<pdfrwt beam="2">  1       -2 0.19982436E-01 0.13702888E+04</pdfrwt>
<totfact> 0.14375187E+01</totfact>
</mgrwt>
</event>
<event>
12    1  0.1803353E-007  0.1331529E+04  0.7818608E-02  0.9004930E-01
          1   -1    0    0  501    0  0.00000000000E+00  0.00000000000E+00  0.71469140680E+03  0.71469140680E+03  0.00000000000E+00 0. -1.
         -1   -1    0    0    0  501 -0.00000000000E+00 -0.00000000000E+00 -0.62018687081E+03  0.62018687081E+03  0.00000000000E+00 0.  1.
         23    2    1    2    0    0 -0.34195987126E+03 -0.75949320988E+02 -0.20372740044E+03  0.41544411510E+03  0.91564764906E+02 0.  0.
        254    2    1    2    0    0  0.34195987126E+03  0.75949320988E+02  0.29823193642E+03  0.91943416250E+03  0.79606032332E+03 0.  0.
        -24    2    4    4    0    0  0.11222612526E+03 -0.22461228564E+03  0.43569695964E+03  0.50908953938E+03  0.79340635348E+02 0.  0.
         24    2    4    4    0    0  0.22973374600E+03  0.30056160663E+03 -0.13746502322E+03  0.41034462312E+03  0.79819820135E+02 0.  0.
         11    1    3    3    0    0 -0.26796122322E+02 -0.22532489743E+02  0.23936754166E+01  0.35092377342E+02  0.00000000000E+00 0. -1.
        -11    1    3    3    0    0 -0.31516374894E+03 -0.53416831245E+02 -0.20612107585E+03  0.38035173776E+03  0.00000000000E+00 0.  1.
          4    1    6    6  502    0 -0.44816118873E+01  0.31137395443E+01 -0.90473334069E+01  0.10565721028E+02  0.00000000000E+00 0. -1.
          3    1    5    5  503    0 -0.60322995166E+01 -0.74459963278E+00  0.11806061519E+01  0.61916796555E+01  0.00000000000E+00 0. -1.
         -4    1    5    5    0  503  0.11825842478E+03 -0.22386768601E+03  0.43451635349E+03  0.50289785973E+03  0.00000000000E+00 0.  1.
         -3    1    6    6    0  502  0.23421535789E+03  0.29744786708E+03 -0.12841768981E+03  0.39977890209E+03  0.00000000000E+00 0.  1.
<mgrwt>
<rscale>  0 0.13315288E+04</rscale>
<asrwt>0</asrwt>
<pdfrwt beam="1">  1        1 0.10995252E+00 0.13315288E+04</pdfrwt>
<pdfrwt beam="2">  1       -1 0.95413365E-01 0.13315288E+04</pdfrwt>
<totfact> 0.27444245E+01</totfact>
</mgrwt>
</event>
<event>
12    1  0.1489025E-007  0.1376477E+04  0.7818608E-02  0.8971024E-01
         -2   -1    0    0    0  501 -0.00000000000E+00  0.00000000000E+00  0.46232372908E+03  0.46232372908E+03  0.00000000000E+00 0.  1.
          2   -1    0    0  501    0  0.00000000000E+00 -0.00000000000E+00 -0.10245460707E+04  0.10245460707E+04  0.00000000000E+00 0. -1.
         23    2    1    2    0    0  0.95600101388E+02 -0.92142901837E+02  0.23642412221E+03  0.28473377018E+03  0.86874970926E+02 0.  0.
        254    2    1    2    0    0 -0.95600101388E+02  0.92142901837E+02 -0.79864646384E+03  0.12021360296E+04  0.88863106280E+03 0.  0.
        -24    2    4    4    0    0  0.28790112876E+02 -0.23549763035E+03 -0.80445379803E+03  0.84251516151E+03  0.79986747036E+02 0.  0.
         24    2    4    4    0    0 -0.12439021426E+03  0.32764053219E+03  0.58073341968E+01  0.35962086811E+03  0.80449983934E+02 0.  0.
         13    1    3    3    0    0  0.54985567721E+02 -0.10271573366E+03  0.16741280554E+03  0.20396318799E+03  0.00000000000E+00 0.  1.
        -13    1    3    3    0    0  0.40614533667E+02  0.10572831822E+02  0.69011316670E+02  0.80770582183E+02  0.00000000000E+00 0. -1.
          4    1    6    6  502    0 -0.20231505355E+02  0.18137655957E+02 -0.17354984354E+02  0.32241027504E+02  0.00000000000E+00 0. -1.
          3    1    5    5  503    0  0.38627984411E+02 -0.43720477143E+02 -0.18879731244E+03  0.19760573496E+03  0.00000000000E+00 0. -1.
         -4    1    5    5    0  503 -0.98378715350E+01 -0.19177715321E+03 -0.61565648559E+03  0.64490942655E+03  0.00000000000E+00 0.  1.
         -3    1    6    6    0  502 -0.10415870891E+03  0.30950287623E+03  0.23162318551E+02  0.32737984061E+03  0.00000000000E+00 0.  1.
<mgrwt>
<rscale>  0 0.13764766E+04</rscale>
<asrwt>0</asrwt>
<pdfrwt beam="1">  1        2 0.15762247E+00 0.13764766E+04</pdfrwt>
<pdfrwt beam="2">  1       -2 0.71126728E-01 0.13764766E+04</pdfrwt>
<totfact> 0.42524415E+01</totfact>
</mgrwt>
</event>
<event>
12    1  0.1537630E-007  0.1940166E+04  0.7818608E-02  0.8635117E-01
          2   -1    0    0  501    0  0.00000000000E+00  0.00000000000E+00  0.22531820730E+04  0.22531820730E+04  0.00000000000E+00 0. -1.
         -2   -1    0    0    0  501 -0.00000000000E+00 -0.00000000000E+00 -0.41765870985E+03  0.41765870985E+03  0.00000000000E+00 0.  1.
         23    2    1    2    0    0  0.66936331096E+03  0.34089073977E+03  0.58495927204E+03  0.95631379623E+03  0.90027708999E+02 0.  0.
        254    2    1    2    0    0 -0.66936331096E+03 -0.34089073977E+03  0.12505640911E+04  0.17145269867E+04  0.90079881406E+03 0.  0.
        -24    2    4    4    0    0 -0.56110870208E+03  0.84653296328E+02  0.11055555552E+04  0.12452702899E+04  0.80223768596E+02 0.  0.
         24    2    4    4    0    0 -0.10825460888E+03 -0.42554403609E+03  0.14500853590E+03  0.46925669676E+03  0.79797148896E+02 0.  0.
         13    1    3    3    0    0  0.51269241813E+02  0.34614115522E+01  0.52572811495E+02  0.73514740253E+02  0.00000000000E+00 0. -1.
        -13    1    3    3    0    0  0.61809406914E+03  0.33742932821E+03  0.53238646055E+03  0.88279905597E+03  0.00000000000E+00 0.  1.
          4    1    6    6  502    0 -0.75329748199E+02 -0.33895753048E+03  0.80682961527E+02  0.35647793580E+03  0.00000000000E+00 0. -1.
          3    1    5    5  503    0 -0.44742609430E+03  0.94934868027E+02  0.91979611312E+03  0.10272427312E+04  0.00000000000E+00 0. -1.
         -4    1    5    5    0  503 -0.11368260778E+03 -0.10281571699E+02  0.18575944213E+03  0.21802755874E+03  0.00000000000E+00 0.  1.
         -3    1    6    6    0  502 -0.32924860681E+02 -0.86586505617E+02  0.64325574369E+02  0.11277876096E+03  0.00000000000E+00 0.  1.
<mgrwt>
<rscale>  0 0.19401661E+04</rscale>
<asrwt>0</asrwt>
<pdfrwt beam="1">  1        2 0.34664339E+00 0.19401661E+04</pdfrwt>
<pdfrwt beam="2">  1       -2 0.64255188E-01 0.19401661E+04</pdfrwt>
<totfact> 0.10069858E+01</totfact>
</mgrwt>
</event>
<event>
12    1  0.1489025E-007  0.2186986E+04  0.7818608E-02  0.8523864E-01
         -1   -1    0    0    0  501 -0.00000000000E+00  0.00000000000E+00  0.11361246136E+04  0.11361246136E+04  0.00000000000E+00 0.  1.
          1   -1    0    0  501    0  0.00000000000E+00 -0.00000000000E+00 -0.10524611169E+04  0.10524611169E+04  0.00000000000E+00 0. -1.
         23    2    1    2    0    0  0.35652765046E+03  0.55828838724E+03  0.64895651070E+03  0.93180930376E+03  0.91247668107E+02 0.  0.
        254    2    1    2    0    0 -0.35652765046E+03 -0.55828838724E+03 -0.56529301403E+03  0.12567764268E+04  0.90616384078E+03 0.  0.
        -24    2    4    4    0    0 -0.16899063431E+03  0.22731896659E+03 -0.59157801196E+02  0.30030819943E+03  0.80334439370E+02 0.  0.
         24    2    4    4    0    0 -0.18753701615E+03 -0.78560735383E+03 -0.50613521284E+03  0.95646822735E+03  0.79432798282E+02 0.  0.
         13    1    3    3    0    0  0.53799101415E+02  0.15008844097E+03  0.13344739279E+03  0.20791606496E+03  0.00000000000E+00 0. -1.
        -13    1    3    3    0    0  0.30272854905E+03  0.40819994627E+03  0.51550911791E+03  0.72389323881E+03  0.00000000000E+00 0.  1.
          4    1    6    6  502    0 -0.22811402756E+02 -0.14455265754E+03 -0.12653051793E+03  0.19345749627E+03  0.00000000000E+00 0. -1.
          1    1    5    5  503    0  0.53558993367E+01  0.18062285787E+02  0.68642943363E+01  0.20051193538E+02  0.00000000000E+00 0. -1.
         -2    1    5    5    0  503 -0.17434653365E+03  0.20925668080E+03 -0.66022095532E+02  0.28025700589E+03  0.00000000000E+00 0.  1.
         -3    1    6    6    0  502 -0.16472561339E+03 -0.64105469629E+03 -0.37960469491E+03  0.76301073108E+03  0.00000000000E+00 0.  1.
<mgrwt>
<rscale>  0 0.21869860E+04</rscale>
<asrwt>0</asrwt>
<pdfrwt beam="1">  1        1 0.16191709E+00 0.21869860E+04</pdfrwt>
<pdfrwt beam="2">  1       -1 0.17478840E+00 0.21869860E+04</pdfrwt>
<totfact> 0.28549869E+00</totfact>
</mgrwt>
</event>
<event>
12    1  0.1489025E-007  0.1714865E+04  0.7818608E-02  0.8752931E-01
         -2   -1    0    0    0  501 -0.00000000000E+00  0.00000000000E+00  0.19890563305E+03  0.19890563305E+03  0.00000000000E+00 0.  1.
          2   -1    0    0  501    0  0.00000000000E+00 -0.00000000000E+00 -0.36961770057E+04  0.36961770057E+04  0.00000000000E+00 0. -1.
         23    2    1    2    0    0  0.42064881288E+02 -0.30766162289E+03 -0.68391459837E+02  0.33552064794E+03  0.10710548528E+03 0.  0.
        254    2    1    2    0    0 -0.42064881288E+02  0.30766162289E+03 -0.34288799128E+04  0.35595619908E+04  0.90379144804E+03 0.  0.
        -24    2    4    4    0    0 -0.31367251845E+03 -0.18826931608E+03 -0.11171498160E+04  0.11783663262E+04  0.81778377609E+02 0.  0.
         24    2    4    4    0    0  0.27160763716E+03  0.49593093896E+03 -0.23117300968E+04  0.23811956646E+04  0.79237289613E+02 0.  0.
         13    1    3    3    0    0 -0.31009945276E+02 -0.55532641229E+02 -0.29637356548E+02  0.70170249045E+02  0.00000000000E+00 0. -1.
        -13    1    3    3    0    0  0.73074826564E+02 -0.25212898166E+03 -0.38754103289E+02  0.26535039889E+03  0.00000000000E+00 0.  1.
          4    1    6    6  502    0  0.17387091450E+03  0.27129084064E+03 -0.11761629149E+04  0.12195035947E+04  0.00000000000E+00 0. -1.
          1    1    5    5  503    0 -0.20164111335E+03 -0.15757626123E+03 -0.83190474651E+03  0.87037631170E+03  0.00000000000E+00 0. -1.
         -2    1    5    5    0  503 -0.11203140510E+03 -0.30693054852E+02 -0.28524506948E+03  0.30799001446E+03  0.00000000000E+00 0.  1.
         -3    1    6    6    0  502  0.97736722662E+02  0.22464009833E+03 -0.11355671819E+04  0.11616920699E+04  0.00000000000E+00 0.  1.
<mgrwt>
<rscale>  0 0.17148649E+04</rscale>
<asrwt>0</asrwt>
<pdfrwt beam="1">  1        2 0.56864256E+00 0.17148649E+04</pdfrwt>
<pdfrwt beam="2">  1       -2 0.30600870E-01 0.17148649E+04</pdfrwt>
<totfact> 0.55853292E+00</totfact>
</mgrwt>
</event>
<event>
12    1  0.1489025E-007  0.1809431E+04  0.7818608E-02  0.8701300E-01
         -1   -1    0    0    0  501 -0.00000000000E+00  0.00000000000E+00  0.47055885541E+03  0.47055885541E+03  0.00000000000E+00 0.  1.
          1   -1    0    0  501    0  0.00000000000E+00 -0.00000000000E+00 -0.17394427843E+04  0.17394427843E+04  0.00000000000E+00 0. -1.
         23    2    1    2    0    0  0.17337552406E+03 -0.19244791706E+03  0.26880015162E+03  0.38473497875E+03  0.93124697274E+02 0.  0.
        254    2    1    2    0    0 -0.17337552406E+03  0.19244791706E+03 -0.15376840805E+04  0.18252666609E+04  0.94869951987E+03 0.  0.
        -24    2    4    4    0    0 -0.11988877340E+03 -0.11753168914E+03 -0.14849327979E+04  0.14965417459E+04  0.80154643145E+02 0.  0.
         24    2    4    4    0    0 -0.53486750657E+02  0.30997960621E+03 -0.52751282575E+02  0.32872491508E+03  0.79556163950E+02 0.  0.
         13    1    3    3    0    0  0.88071722158E+02 -0.85154962798E+02  0.19160471678E+03  0.22742111473E+03  0.00000000000E+00 0.  1.
        -13    1    3    3    0    0  0.85303801904E+02 -0.10729295426E+03  0.77195434834E+02  0.15731386402E+03  0.00000000000E+00 0. -1.
          4    1    6    6  502    0 -0.32960530999E+02  0.63118445677E+02 -0.37661658458E+02  0.80552686524E+02  0.00000000000E+00 0. -1.
          3    1    5    5  503    0  0.38347750660E+01  0.27521045179E+01 -0.62883059733E+01  0.78627203370E+01  0.00000000000E+00 0. -1.
         -4    1    5    5    0  503 -0.12372354847E+03 -0.12028379366E+03 -0.14786444920E+04  0.14886790255E+04  0.00000000000E+00 0.  1.
         -3    1    6    6    0  502 -0.20526219658E+02  0.24686116053E+03 -0.15089624117E+02  0.24817222856E+03  0.00000000000E+00 0.  1.
<mgrwt>
<rscale>  0 0.18094311E+04</rscale>
<asrwt>0</asrwt>
<pdfrwt beam="1">  1        1 0.26760658E+00 0.18094311E+04</pdfrwt>
<pdfrwt beam="2">  1       -1 0.72393670E-01 0.18094311E+04</pdfrwt>
<totfact> 0.81289903E+00</totfact>
</mgrwt>
</event>
<event>
12    1  0.1489025E-007  0.1720357E+04  0.7818608E-02  0.8749839E-01
          2   -1    0    0  501    0  0.00000000000E+00  0.00000000000E+00  0.28961458141E+04  0.28961458141E+04  0.00000000000E+00 0. -1.
         -2   -1    0    0    0  501 -0.00000000000E+00 -0.00000000000E+00 -0.25547975486E+03  0.25547975486E+03  0.00000000000E+00 0.  1.
         23    2    1    2    0    0 -0.52578367554E+02 -0.38295105698E+03  0.79344340044E+02  0.40509041776E+03  0.91579066892E+02 0.  0.
        254    2    1    2    0    0  0.52578367554E+02  0.38295105698E+03  0.25613217192E+04  0.27465351512E+04  0.91305552446E+03 0.  0.
        -24    2    4    4    0    0 -0.19699756915E+03  0.21659533169E+03  0.23548699419E+04  0.23744497002E+04  0.82929823742E+02 0.  0.
         24    2    4    4    0    0  0.24957593671E+03  0.16635572529E+03  0.20645177729E+03  0.37208545097E+03  0.76569386534E+02 0.  0.
         13    1    3    3    0    0 -0.44982957191E+02 -0.34026343111E+03  0.99386974221E+02  0.35732399812E+03  0.00000000000E+00 0.  1.
        -13    1    3    3    0    0 -0.75954103627E+01 -0.42687625866E+02 -0.20042634177E+02  0.47766419642E+02  0.00000000000E+00 0. -1.
          4    1    6    6  502    0  0.27221977330E+01  0.15333277666E+02  0.28175549713E+02  0.32192877569E+02  0.00000000000E+00 0. -1.
          1    1    5    5  503    0 -0.16264643343E+02  0.23349886041E+02  0.49931379070E+03  0.50012400201E+03  0.00000000000E+00 0. -1.
         -2    1    5    5    0  503 -0.18073292581E+03  0.19324544564E+03  0.18555561512E+04  0.18743256982E+04  0.00000000000E+00 0.  1.
         -3    1    6    6    0  502  0.24685373897E+03  0.15102244762E+03  0.17827622758E+03  0.33989257340E+03  0.00000000000E+00 0.  1.
<mgrwt>
<rscale>  0 0.17203565E+04</rscale>
<asrwt>0</asrwt>
<pdfrwt beam="1">  1        2 0.44556087E+00 0.17203565E+04</pdfrwt>
<pdfrwt beam="2">  1       -2 0.39304580E-01 0.17203565E+04</pdfrwt>
<totfact> 0.11792048E+01</totfact>
</mgrwt>
</event>
<event>
12    1  0.1489025E-007  0.1622656E+04  0.7818608E-02  0.8806749E-01
          2   -1    0    0  501    0  0.00000000000E+00  0.00000000000E+00  0.13505559357E+04  0.13505559357E+04  0.00000000000E+00 0. -1.
         -2   -1    0    0    0  501 -0.00000000000E+00 -0.00000000000E+00 -0.48739394876E+03  0.48739394876E+03  0.00000000000E+00 0.  1.
         23    2    1    2    0    0  0.25763678002E+01 -0.14927422517E+03 -0.30734937147E+03  0.35399768593E+03  0.92527258296E+02 0.  0.
        254    2    1    2    0    0 -0.25763678002E+01  0.14927422517E+03  0.11705113585E+04  0.14839521986E+04  0.89984879587E+03 0.  0.
        -24    2    4    4    0    0  0.18791468697E+03  0.47658928458E+03  0.57924463002E+03  0.77745656914E+03  0.80405843937E+02 0.  0.
         24    2    4    4    0    0 -0.19049105477E+03 -0.32731505940E+03  0.59126672844E+03  0.70649562944E+03  0.78215984307E+02 0.  0.
         11    1    3    3    0    0 -0.23005679289E+02 -0.88566182740E+02 -0.96022802945E+02  0.13264090127E+03  0.00000000000E+00 0. -1.
        -11    1    3    3    0    0  0.25582047089E+02 -0.60708042435E+02 -0.21132656853E+03  0.22135678466E+03  0.00000000000E+00 0.  1.
          4    1    6    6  502    0 -0.70420261728E+02 -0.17521333292E+03  0.34309778100E+03  0.39163096484E+03  0.00000000000E+00 0. -1.
          1    1    5    5  503    0  0.25531988868E+02  0.40048374354E+02  0.25608551239E+02  0.53958805032E+02  0.00000000000E+00 0. -1.
         -4    1    5    5    0  503  0.16238269811E+03  0.43654091022E+03  0.55363607878E+03  0.72349776410E+03  0.00000000000E+00 0.  1.
         -3    1    6    6    0  502 -0.12007079305E+03 -0.15210172648E+03  0.24816894744E+03  0.31486466460E+03  0.00000000000E+00 0.  1.
<mgrwt>
<rscale>  0 0.16226556E+04</rscale>
<asrwt>0</asrwt>
<pdfrwt beam="1">  1        2 0.20777784E+00 0.16226556E+04</pdfrwt>
<pdfrwt beam="2">  1       -2 0.74983685E-01 0.16226556E+04</pdfrwt>
<totfact> 0.23629255E+01</totfact>
</mgrwt>
</event>
<event>
12    1  0.1489025E-007  0.1351759E+04  0.7818608E-02  0.8989497E-01
          2   -1    0    0  501    0  0.00000000000E+00  0.00000000000E+00  0.90790432580E+03  0.90790432580E+03  0.00000000000E+00 0. -1.
         -2   -1    0    0    0  501 -0.00000000000E+00 -0.00000000000E+00 -0.50315136793E+03  0.50315136793E+03  0.00000000000E+00 0.  1.
         23    2    1    2    0    0 -0.48582343363E+02 -0.34291738097E+03  0.14379108189E+02  0.35905091374E+03  0.93585392285E+02 0.  0.
        254    2    1    2    0    0  0.48582343363E+02  0.34291738097E+03  0.39037384968E+03  0.10520047800E+04  0.91343841628E+03 0.  0.
        -24    2    4    4    0    0 -0.10854280329E+03  0.58380098651E+03  0.50206522652E+02  0.60102338413E+03  0.78123500681E+02 0.  0.
         24    2    4    4    0    0  0.15712514665E+03 -0.24088360554E+03  0.34016732703E+03  0.45098139585E+03  0.70407285873E+02 0.  0.
         13    1    3    3    0    0 -0.23464240636E+02 -0.11512128924E+03  0.48957071032E+02  0.12728030731E+03  0.00000000000E+00 0. -1.
        -13    1    3    3    0    0 -0.25118102728E+02 -0.22779609172E+03 -0.34577962842E+02  0.23177060643E+03  0.00000000000E+00 0.  1.
          4    1    6    6  502    0  0.13148675188E+03 -0.17560798785E+03  0.21307150410E+03  0.30582085798E+03  0.00000000000E+00 0. -1.
          3    1    5    5  503    0 -0.10303888019E+03  0.42630429642E+03  0.62228684759E+02  0.44297265512E+03  0.00000000000E+00 0. -1.
         -4    1    5    5    0  503 -0.55039230932E+01  0.15749669008E+03 -0.12022162107E+02  0.15805072900E+03  0.00000000000E+00 0.  1.
         -3    1    6    6    0  502  0.25638394774E+02 -0.65275617692E+02  0.12709582293E+03  0.14516053788E+03  0.00000000000E+00 0.  1.
<mgrwt>
<rscale>  0 0.13517593E+04</rscale>
<asrwt>0</asrwt>
<pdfrwt beam="1">  1        2 0.13967759E+00 0.13517593E+04</pdfrwt>
<pdfrwt beam="2">  1       -2 0.77407903E-01 0.13517593E+04</pdfrwt>
<totfact> 0.42112891E+01</totfact>
</mgrwt>
</event>
<event>
12    1  0.1489025E-007  0.1257148E+04  0.7818608E-02  0.9064255E-01
          1   -1    0    0  501    0  0.00000000000E+00  0.00000000000E+00  0.14778847743E+04  0.14778847743E+04  0.00000000000E+00 0. -1.
         -1   -1    0    0    0  501 -0.00000000000E+00 -0.00000000000E+00 -0.26734522644E+03  0.26734522644E+03  0.00000000000E+00 0.  1.
         23    2    1    2    0    0  0.17117508665E+03 -0.11295511359E+02 -0.29261517770E+02  0.19817776684E+03  0.94813986211E+02 0.  0.
        254    2    1    2    0    0 -0.17117508665E+03  0.11295511359E+02  0.12398010657E+04  0.15470522339E+04  0.90930491763E+03 0.  0.
        -24    2    4    4    0    0 -0.50815914036E+03 -0.13146648311E+03  0.87781859783E+03  0.10261832350E+04  0.83530791006E+02 0.  0.
         24    2    4    4    0    0  0.33698405371E+03  0.14276199447E+03  0.36198246784E+03  0.52086899891E+03  0.79586226681E+02 0.  0.
         11    1    3    3    0    0  0.48258499559E+02 -0.81092169233E+01  0.34303713928E+02  0.59761082387E+02  0.00000000000E+00 0. -1.
        -11    1    3    3    0    0  0.12291658709E+03 -0.31862944353E+01 -0.63565231698E+02  0.13841668445E+03  0.00000000000E+00 0.  1.
          4    1    6    6  502    0  0.12592119096E+02  0.20379484587E+02  0.45563260140E+02  0.51477135992E+02  0.00000000000E+00 0. -1.
          3    1    5    5  503    0 -0.23877745416E+03 -0.96794608325E+02  0.47447785281E+03  0.53991953255E+03  0.00000000000E+00 0. -1.
         -4    1    5    5    0  503 -0.26938168620E+03 -0.34671874790E+02  0.40334074502E+03  0.48626370248E+03  0.00000000000E+00 0.  1.
         -1    1    6    6    0  502  0.32439193462E+03  0.12238250989E+03  0.31641920770E+03  0.46939186292E+03  0.00000000000E+00 0.  1.
<mgrwt>
<rscale>  0 0.12571483E+04</rscale>
<asrwt>0</asrwt>
<pdfrwt beam="1">  1        1 0.22736688E+00 0.12571483E+04</pdfrwt>
<pdfrwt beam="2">  1       -1 0.41130036E-01 0.12571483E+04</pdfrwt>
<totfact> 0.38648104E+01</totfact>
</mgrwt>
</event>
<event>
12    1  0.1489025E-007  0.2994435E+04  0.7818608E-02  0.8245322E-01
          2   -1    0    0  501    0  0.00000000000E+00  0.00000000000E+00  0.41308247535E+04  0.41308247535E+04  0.00000000000E+00 0. -1.
         -2   -1    0    0    0  501 -0.00000000000E+00 -0.00000000000E+00 -0.54266643940E+03  0.54266643940E+03  0.00000000000E+00 0.  1.
         23    2    1    2    0    0 -0.10603683076E+04  0.67192400263E+03  0.23637240049E+04  0.26778847308E+04  0.89513388047E+02 0.  0.
        254    2    1    2    0    0  0.10603683076E+04 -0.67192400263E+03  0.12244343092E+04  0.19956064622E+04  0.95254551671E+03 0.  0.
        -24    2    4    4    0    0  0.28255832303E+03 -0.60475159859E+03  0.95163552775E+03  0.11646599626E+04  0.72518610911E+02 0.  0.
         24    2    4    4    0    0  0.77780998453E+03 -0.67172404042E+02  0.27279878144E+03  0.83094649957E+03  0.80946933795E+02 0.  0.
         13    1    3    3    0    0 -0.10175428488E+04  0.66163868074E+03  0.22627180777E+04  0.25676939639E+04  0.00000000000E+00 0. -1.
        -13    1    3    3    0    0 -0.42825458768E+02  0.10285321888E+02  0.10100592727E+03  0.11019076689E+03  0.00000000000E+00 0.  1.
          2    1    6    6  502    0  0.36422412860E+03 -0.45501036759E+02  0.88129846582E+02  0.37748699324E+03  0.00000000000E+00 0. -1.
          1    1    5    5  503    0  0.78158057349E+02 -0.24424000638E+03  0.34068959141E+03  0.42641676836E+03  0.00000000000E+00 0. -1.
         -2    1    5    5    0  503  0.20440026568E+03 -0.36051159221E+03  0.61094593634E+03  0.73824319425E+03  0.00000000000E+00 0.  1.
         -1    1    6    6    0  502  0.41358585593E+03 -0.21671367283E+02  0.18466893486E+03  0.45345950633E+03  0.00000000000E+00 0.  1.
<mgrwt>
<rscale>  0 0.29944348E+04</rscale>
<asrwt>0</asrwt>
<pdfrwt beam="1">  1        2 0.63551148E+00 0.29944348E+04</pdfrwt>
<pdfrwt beam="2">  1       -2 0.83487147E-01 0.29944348E+04</pdfrwt>
<totfact> 0.28638829E-01</totfact>
</mgrwt>
</event>
<event>
12    1  0.1489025E-007  0.1132841E+04  0.7818608E-02  0.9173761E-01
          1   -1    0    0  501    0  0.00000000000E+00  0.00000000000E+00  0.34320738729E+03  0.34320738729E+03  0.00000000000E+00 0. -1.
         -1   -1    0    0    0  501 -0.00000000000E+00 -0.00000000000E+00 -0.93480620174E+03  0.93480620174E+03  0.00000000000E+00 0.  1.
         23    2    1    2    0    0 -0.89194660566E+02 -0.13691589088E+03 -0.19182047179E+03  0.26823185780E+03  0.91932515981E+02 0.  0.
        254    2    1    2    0    0  0.89194660566E+02  0.13691589088E+03 -0.39977834266E+03  0.10097817312E+04  0.91276216662E+03 0.  0.
        -24    2    4    4    0    0  0.37561743718E+03  0.33469928343E+02 -0.54124510606E+03  0.66463048225E+03  0.81109295904E+02 0.  0.
         24    2    4    4    0    0 -0.28642277662E+03  0.10344596253E+03  0.14146676340E+03  0.34515124898E+03  0.79859034518E+02 0.  0.
         11    1    3    3    0    0 -0.59598673634E+02 -0.11370531570E+03 -0.82448636702E+02  0.15257351806E+03  0.00000000000E+00 0. -1.
        -11    1    3    3    0    0 -0.29595986933E+02 -0.23210575175E+02 -0.10937183509E+03  0.11565833975E+03  0.00000000000E+00 0.  1.
          2    1    6    6  502    0 -0.20018398146E+03  0.33157196320E+02  0.80585267915E+02  0.21832776165E+03  0.00000000000E+00 0. -1.
          3    1    5    5  503    0  0.18464331868E+03  0.92647631617E+01 -0.19662180911E+03  0.26988724829E+03  0.00000000000E+00 0. -1.
         -2    1    5    5    0  503  0.19097411850E+03  0.24205165181E+02 -0.34462329695E+03  0.39474323396E+03  0.00000000000E+00 0.  1.
         -1    1    6    6    0  502 -0.86238795156E+02  0.70288766214E+02  0.60881495485E+02  0.12682348733E+03  0.00000000000E+00 0.  1.
<mgrwt>
<rscale>  0 0.11328414E+04</rscale>
<asrwt>0</asrwt>
<pdfrwt beam="1">  1        1 0.52801138E-01 0.11328414E+04</pdfrwt>
<pdfrwt beam="2">  1       -1 0.14381634E+00 0.11328414E+04</pdfrwt>
<totfact> 0.28538782E+01</totfact>
</mgrwt>
</event>
<event>
12    1  0.1489025E-007  0.1734754E+04  0.7818608E-02  0.8741787E-01
          2   -1    0    0  501    0  0.00000000000E+00  0.00000000000E+00  0.96097795613E+03  0.96097795613E+03  0.00000000000E+00 0. -1.
         -2   -1    0    0    0  501 -0.00000000000E+00 -0.00000000000E+00 -0.78289321399E+03  0.78289321399E+03  0.00000000000E+00 0.  1.
         23    2    1    2    0    0  0.22351252726E+03  0.41791629335E+03  0.47640319246E+03  0.67747699872E+03  0.86041873087E+02 0.  0.
        254    2    1    2    0    0 -0.22351252726E+03 -0.41791629335E+03 -0.29831845031E+03  0.10663941714E+04  0.90751900967E+03 0.  0.
        -24    2    4    4    0    0 -0.41699241642E+02  0.22804516535E+03  0.11874468179E+03  0.27221633957E+03  0.79107596864E+02 0.  0.
         24    2    4    4    0    0 -0.18181328562E+03 -0.64596145870E+03 -0.41706313211E+03  0.79417783183E+03  0.80339874572E+02 0.  0.
         13    1    3    3    0    0  0.13481684996E+03  0.32944071327E+03  0.36490119973E+03  0.50976431040E+03  0.00000000000E+00 0. -1.
        -13    1    3    3    0    0  0.88695677297E+02  0.88475580074E+02  0.11150199273E+03  0.16771268832E+03  0.00000000000E+00 0.  1.
          2    1    6    6  502    0 -0.11588473439E+03 -0.46634928060E+03 -0.25829178242E+03  0.54555070163E+03  0.00000000000E+00 0. -1.
          1    1    5    5  503    0 -0.51188367097E+02  0.16042548218E+03  0.50801794364E+02  0.17589032540E+03  0.00000000000E+00 0. -1.
         -2    1    5    5    0  503  0.94891254555E+01  0.67619683178E+02  0.67942887427E+02  0.96326014176E+02  0.00000000000E+00 0.  1.
         -1    1    6    6    0  502 -0.65928551226E+02 -0.17961217810E+03 -0.15877134968E+03  0.24862713019E+03  0.00000000000E+00 0.  1.
<mgrwt>
<rscale>  0 0.17347543E+04</rscale>
<asrwt>0</asrwt>
<pdfrwt beam="1">  1        2 0.14784276E+00 0.17347543E+04</pdfrwt>
<pdfrwt beam="2">  1       -2 0.12044511E+00 0.17347543E+04</pdfrwt>
<totfact> 0.13332370E+01</totfact>
</mgrwt>
</event>
<event>
12    1  0.1489025E-007  0.2584313E+04  0.7818608E-02  0.8373549E-01
         -1   -1    0    0    0  501 -0.00000000000E+00  0.00000000000E+00  0.16305740999E+04  0.16305740999E+04  0.00000000000E+00 0.  1.
          1   -1    0    0  501    0  0.00000000000E+00 -0.00000000000E+00 -0.10239760449E+04  0.10239760449E+04  0.00000000000E+00 0. -1.
         23    2    1    2    0    0  0.50524491853E+03 -0.90835045889E+03 -0.19017839348E+03  0.10606391503E+04  0.91731139280E+02 0.  0.
        254    2    1    2    0    0 -0.50524491853E+03  0.90835045889E+03  0.79677644855E+03  0.15939109945E+04  0.90847485690E+03 0.  0.
        -24    2    4    4    0    0 -0.58463916800E+03  0.99707360782E+03  0.49426870063E+03  0.12595836737E+04  0.79314225762E+02 0.  0.
         24    2    4    4    0    0  0.79394249473E+02 -0.88723148930E+02  0.30250774791E+03  0.33432732084E+03  0.78029327202E+02 0.  0.
         13    1    3    3    0    0  0.58457855861E+02 -0.56771749273E+02 -0.81441530981E+01  0.81894320054E+02  0.00000000000E+00 0.  1.
        -13    1    3    3    0    0  0.44678706267E+03 -0.85157870961E+03 -0.18203424038E+03  0.97874483023E+03  0.00000000000E+00 0. -1.
          2    1    6    6  502    0  0.18415411024E+02 -0.69383376430E+02  0.20938031486E+03  0.22134429411E+03  0.00000000000E+00 0. -1.
          3    1    5    5  503    0 -0.55902926247E+03  0.92385930260E+03  0.47486165519E+03  0.11796284665E+04  0.00000000000E+00 0. -1.
         -4    1    5    5    0  503 -0.25609905531E+02  0.73214305216E+02  0.19407045445E+02  0.79955207226E+02  0.00000000000E+00 0.  1.
         -1    1    6    6    0  502  0.60978838449E+02 -0.19339772499E+02  0.93127433058E+02  0.11298302672E+03  0.00000000000E+00 0.  1.
<mgrwt>
<rscale>  0 0.25843133E+04</rscale>
<asrwt>0</asrwt>
<pdfrwt beam="1">  1        1 0.15753478E+00 0.25843133E+04</pdfrwt>
<pdfrwt beam="2">  1       -1 0.25085755E+00 0.25843133E+04</pdfrwt>
<totfact> 0.87973572E-01</totfact>
</mgrwt>
</event>
<event>
12    1  0.1489025E-007  0.2027474E+04  0.7818608E-02  0.8593883E-01
         -2   -1    0    0    0  501 -0.00000000000E+00  0.00000000000E+00  0.76555597970E+03  0.76555597970E+03  0.00000000000E+00 0.  1.
          2   -1    0    0  501    0  0.00000000000E+00 -0.00000000000E+00 -0.13423737395E+04  0.13423737395E+04  0.00000000000E+00 0. -1.
         23    2    1    2    0    0 -0.45695016057E+03 -0.66757298351E+03 -0.31827748816E+03  0.87405880607E+03  0.90670278733E+02 0.  0.
        254    2    1    2    0    0  0.45695016057E+03  0.66757298351E+03 -0.25854027163E+03  0.12338709131E+04  0.89506269089E+03 0.  0.
        -24    2    4    4    0    0  0.26324554587E+03  0.68607635628E+03  0.16731178496E+03  0.75828904448E+03  0.83726086317E+02 0.  0.
         24    2    4    4    0    0  0.19370461470E+03 -0.18503372764E+02 -0.42585205659E+03  0.47558186864E+03  0.83452304439E+02 0.  0.
         13    1    3    3    0    0 -0.12263206922E+03 -0.11783760971E+03 -0.79951206897E+02  0.18792690640E+03  0.00000000000E+00 0. -1.
        -13    1    3    3    0    0 -0.33431809134E+03 -0.54973537380E+03 -0.23832628126E+03  0.68613189967E+03  0.00000000000E+00 0.  1.
          4    1    6    6  502    0  0.53597663833E+02 -0.27841270200E+02 -0.20636248152E+03  0.21501934721E+03  0.00000000000E+00 0. -1.
          1    1    5    5  503    0  0.22591395100E+03  0.48664012508E+03  0.12881851019E+03  0.55176981900E+03  0.00000000000E+00 0. -1.
         -2    1    5    5    0  503  0.37331594868E+02  0.19943623119E+03  0.38493274774E+02  0.20651922547E+03  0.00000000000E+00 0.  1.
         -3    1    6    6    0  502  0.14010695087E+03  0.93378974357E+01 -0.21948957507E+03  0.26056252143E+03  0.00000000000E+00 0.  1.
<mgrwt>
<rscale>  0 0.20274735E+04</rscale>
<asrwt>0</asrwt>
<pdfrwt beam="1">  1        2 0.20651903E+00 0.20274735E+04</pdfrwt>
<pdfrwt beam="2">  1       -2 0.11777784E+00 0.20274735E+04</pdfrwt>
<totfact> 0.80543737E+00</totfact>
</mgrwt>
</event>
<event>
12    1  0.1489025E-007  0.1365213E+04  0.7818608E-02  0.8979391E-01
         -2   -1    0    0    0  501 -0.00000000000E+00  0.00000000000E+00  0.23280752832E+03  0.23280752832E+03  0.00000000000E+00 0. -1.
          2   -1    0    0  501    0  0.00000000000E+00 -0.00000000000E+00 -0.20014471233E+04  0.20014471233E+04  0.00000000000E+00 0.  1.
         23    2    1    2    0    0 -0.86998905321E+02  0.20449181767E+03 -0.11773722181E+02  0.24374811315E+03  0.99442491467E+02 0.  0.
        254    2    1    2    0    0  0.86998905321E+02 -0.20449181767E+03 -0.17568658728E+04  0.19905065385E+04  0.90892951965E+03 0.  0.
        -24    2    4    4    0    0 -0.22624567026E+03 -0.41283111376E+03 -0.57581101635E+03  0.74831550205E+03  0.82468977541E+02 0.  0.
         24    2    4    4    0    0  0.31324457558E+03  0.20833929609E+03 -0.11810548564E+04  0.12421910364E+04  0.81366889002E+02 0.  0.
         13    1    3    3    0    0 -0.34436828731E+02  0.18248952000E+03 -0.17220649987E+02  0.18650702633E+03  0.00000000000E+00 0. -1.
        -13    1    3    3    0    0 -0.52562076590E+02  0.22002297668E+02  0.54469278051E+01  0.57241086823E+02  0.00000000000E+00 0.  1.
          4    1    6    6  502    0  0.58340040043E+02  0.66744738703E+02 -0.36481862200E+03  0.37543447814E+03  0.00000000000E+00 0. -1.
          1    1    5    5  503    0 -0.16271660895E+03 -0.35736599731E+03 -0.45546347027E+03  0.60136022783E+03  0.00000000000E+00 0. -1.
         -2    1    5    5    0  503 -0.63529061311E+02 -0.55465116445E+02 -0.12034754608E+03  0.14695527422E+03  0.00000000000E+00 0.  1.
         -3    1    6    6    0  502  0.25490453554E+03  0.14159455738E+03 -0.81623623444E+03  0.86675655829E+03  0.00000000000E+00 0.  1.
<mgrwt>
<rscale>  0 0.13652135E+04</rscale>
<asrwt>0</asrwt>
<pdfrwt beam="1">  1        2 0.30791495E+00 0.13652135E+04</pdfrwt>
<pdfrwt beam="2">  1       -2 0.35816542E-01 0.13652135E+04</pdfrwt>
<totfact> 0.47723898E+01</totfact>
</mgrwt>
</event>
<event>
12    1  0.1489025E-007  0.2248753E+04  0.7818608E-02  0.8498406E-01
          1   -1    0    0  501    0  0.00000000000E+00  0.00000000000E+00  0.23051958529E+04  0.23051958529E+04  0.00000000000E+00 0. -1.
         -1   -1    0    0    0  501 -0.00000000000E+00 -0.00000000000E+00 -0.54842295860E+03  0.54842295860E+03  0.00000000000E+00 0.  1.
         23    2    1    2    0    0  0.52075492428E+03 -0.70744104079E+03  0.11605176269E+04  0.14583548038E+04  0.91318420486E+02 0.  0.
        254    2    1    2    0    0 -0.52075492428E+03  0.70744104079E+03  0.59625526737E+03  0.13952640077E+04  0.90530811882E+03 0.  0.
        -24    2    4    4    0    0  0.17843820823E+03 -0.58029633107E+02  0.19061511112E+03  0.27912764590E+03  0.79815347179E+02 0.  0.
         24    2    4    4    0    0 -0.69919313251E+03  0.76547067389E+03  0.40564015626E+03  0.11161363618E+04  0.80000329120E+02 0.  0.
         13    1    3    3    0    0  0.23621021857E+02 -0.60835582517E+02  0.60854616756E+02  0.89231189358E+02  0.00000000000E+00 0. -1.
        -13    1    3    3    0    0  0.49713390243E+03 -0.64660545827E+03  0.10996630102E+04  0.13691236144E+04  0.00000000000E+00 0.  1.
          4    1    6    6  502    0 -0.59966726409E+03  0.61662807190E+03  0.35025931859E+03  0.92871556299E+03  0.00000000000E+00 0. -1.
          1    1    5    5  503    0  0.16643392551E+03 -0.35272453279E+02  0.13272847690E+03  0.21578055079E+03  0.00000000000E+00 0. -1.
         -2    1    5    5    0  503  0.12004282718E+02 -0.22757179829E+02  0.57886634217E+02  0.63347095105E+02  0.00000000000E+00 0.  1.
         -3    1    6    6    0  502 -0.99525868428E+02  0.14884260199E+03  0.55380837665E+02  0.18742079883E+03  0.00000000000E+00 0.  1.
<mgrwt>
<rscale>  0 0.22487528E+04</rscale>
<asrwt>0</asrwt>
<pdfrwt beam="1">  1        1 0.35464551E+00 0.22487528E+04</pdfrwt>
<pdfrwt beam="2">  1       -1 0.84372764E-01 0.22487528E+04</pdfrwt>
<totfact> 0.23312638E+00</totfact>
</mgrwt>
</event>
<event>
12    1  0.1489025E-007  0.1399669E+04  0.7818608E-02  0.8954058E-01
          2   -1    0    0  501    0  0.00000000000E+00  0.00000000000E+00  0.20032114826E+04  0.20032114826E+04  0.00000000000E+00 0. -1.
         -2   -1    0    0    0  501 -0.00000000000E+00 -0.00000000000E+00 -0.24449146736E+03  0.24449146736E+03  0.00000000000E+00 0.  1.
         23    2    1    2    0    0 -0.12685763517E+03  0.46122054988E+02 -0.91235421197E+02  0.18704249738E+03  0.91874317342E+02 0.  0.
        254    2    1    2    0    0  0.12685763517E+03 -0.46122054988E+02  0.18499554365E+04  0.20606604526E+04  0.89764485208E+03 0.  0.
        -24    2    4    4    0    0 -0.21429566683E+03  0.32475294933E+03  0.80249935533E+03  0.89558789616E+03  0.81764011236E+02 0.  0.
         24    2    4    4    0    0  0.34115330200E+03 -0.37087500431E+03  0.10474560811E+04  0.11650725564E+04  0.79347183767E+02 0.  0.
         13    1    3    3    0    0 -0.27734144686E+02 -0.26594343449E+02 -0.34526388669E+02  0.51657655768E+02  0.00000000000E+00 0. -1.
        -13    1    3    3    0    0 -0.99123490483E+02  0.72716398437E+02 -0.56709032528E+02  0.13538484161E+03  0.00000000000E+00 0.  1.
          2    1    6    6  502    0  0.14493155299E+03 -0.21478374798E+03  0.55178585265E+03  0.60959399655E+03  0.00000000000E+00 0. -1.
          1    1    5    5  503    0 -0.83703575029E+02  0.19606152815E+03  0.46379748518E+03  0.51044541192E+03  0.00000000000E+00 0. -1.
         -2    1    5    5    0  503 -0.13059209180E+03  0.12869142117E+03  0.33870187015E+03  0.38514248424E+03  0.00000000000E+00 0.  1.
         -1    1    6    6    0  502  0.19622174901E+03 -0.15609125634E+03  0.49567022847E+03  0.55547855988E+03  0.00000000000E+00 0.  1.
<mgrwt>
<rscale>  0 0.13996687E+04</rscale>
<asrwt>0</asrwt>
<pdfrwt beam="1">  1        2 0.30818637E+00 0.13996687E+04</pdfrwt>
<pdfrwt beam="2">  1       -2 0.37614073E-01 0.13996687E+04</pdfrwt>
<totfact> 0.43209451E+01</totfact>
</mgrwt>
</event>
<event>
12    1  0.1489025E-007  0.1577135E+04  0.7818608E-02  0.8834719E-01
          2   -1    0    0  501    0  0.00000000000E+00  0.00000000000E+00  0.17132073091E+04  0.17132073091E+04  0.00000000000E+00 0. -1.
         -2   -1    0    0    0  501 -0.00000000000E+00 -0.00000000000E+00 -0.36296753281E+03  0.36296753281E+03  0.00000000000E+00 0.  1.
         23    2    1    2    0    0 -0.99420548145E+02 -0.20750898673E+02 -0.22910907696E+03  0.26632007850E+03  0.90113094938E+02 0.  0.
        254    2    1    2    0    0  0.99420548145E+02  0.20750898673E+02  0.15793488533E+04  0.18098547634E+04  0.87801846177E+03 0.  0.
        -24    2    4    4    0    0  0.43088500123E+03 -0.15034558826E+03  0.59746525566E+03  0.75644390249E+03  0.83528232884E+02 0.  0.
         24    2    4    4    0    0 -0.33146445309E+03  0.17109648693E+03  0.98188359759E+03  0.10534108609E+04  0.80226873402E+02 0.  0.
         11    1    3    3    0    0 -0.50754107485E+02 -0.14571293891E+02 -0.20493784758E+03  0.21163133842E+03  0.00000000000E+00 0.  1.
        -11    1    3    3    0    0 -0.48666440660E+02 -0.61796047822E+01 -0.24171229379E+02  0.54688740079E+02  0.00000000000E+00 0. -1.
          4    1    6    6  502    0 -0.31206200978E+03  0.17900967676E+03  0.94194278418E+03  0.10083071809E+04  0.00000000000E+00 0. -1.
          3    1    5    5  503    0  0.40154553147E+03 -0.12258650450E+03  0.51363408771E+03  0.66338996148E+03  0.00000000000E+00 0. -1.
         -2    1    5    5    0  503  0.29339469760E+02 -0.27759083760E+02  0.83831167955E+02  0.93053941011E+02  0.00000000000E+00 0.  1.
         -3    1    6    6    0  502 -0.19402443307E+02 -0.79131898294E+01  0.39940813407E+02  0.45103680062E+02  0.00000000000E+00 0.  1.
<mgrwt>
<rscale>  0 0.15771349E+04</rscale>
<asrwt>0</asrwt>
<pdfrwt beam="1">  1        2 0.26357035E+00 0.15771349E+04</pdfrwt>
<pdfrwt beam="2">  1       -2 0.55841160E-01 0.15771349E+04</pdfrwt>
<totfact> 0.27896533E+01</totfact>
</mgrwt>
</event>
<event>
12    1  0.1489025E-007  0.1720458E+04  0.7818608E-02  0.8749782E-01
          3   -1    0    0  501    0  0.00000000000E+00  0.00000000000E+00  0.89894280892E+03  0.89894280892E+03  0.00000000000E+00 0. -1.
         -3   -1    0    0    0  501 -0.00000000000E+00 -0.00000000000E+00 -0.82318266868E+03  0.82318266868E+03  0.00000000000E+00 0.  1.
         23    2    1    2    0    0  0.49462206254E+03 -0.18009039991E+03  0.37608861799E+03  0.65328006197E+03  0.90822100282E+02 0.  0.
        254    2    1    2    0    0 -0.49462206254E+03  0.18009039991E+03 -0.30032847775E+03  0.10688454156E+04  0.88042591459E+03 0.  0.
        -24    2    4    4    0    0 -0.23823407916E+03  0.51742826636E+03 -0.72349105055E+02  0.57976118797E+03  0.80007216967E+02 0.  0.
         24    2    4    4    0    0 -0.25638798337E+03 -0.33733786645E+03 -0.22797937269E+03  0.48908422766E+03  0.87733421303E+02 0.  0.
         13    1    3    3    0    0  0.22699040353E+03 -0.50109282873E+02  0.20581208380E+03  0.31047414927E+03  0.00000000000E+00 0. -1.
        -13    1    3    3    0    0  0.26763165901E+03 -0.12998111704E+03  0.17027653418E+03  0.34280591270E+03  0.00000000000E+00 0.  1.
          4    1    6    6  502    0 -0.16042653644E+03 -0.25665092880E+03 -0.12754625998E+03  0.32844241700E+03  0.00000000000E+00 0. -1.
          1    1    5    5  503    0 -0.16695982446E+03  0.36242448488E+03 -0.87403448552E+02  0.40849290452E+03  0.00000000000E+00 0. -1.
         -2    1    5    5    0  503 -0.71274254702E+02  0.15500378148E+03  0.15054343497E+02  0.17126828345E+03  0.00000000000E+00 0.  1.
         -3    1    6    6    0  502 -0.95961446933E+02 -0.80686937657E+02 -0.10043311271E+03  0.16064181067E+03  0.00000000000E+00 0.  1.
<mgrwt>
<rscale>  0 0.17204582E+04</rscale>
<asrwt>0</asrwt>
<pdfrwt beam="1">  1        3 0.13829889E+00 0.17204582E+04</pdfrwt>
<pdfrwt beam="2">  1       -3 0.12664349E+00 0.17204582E+04</pdfrwt>
<totfact> 0.49043049E-01</totfact>
</mgrwt>
</event>
<event>
12    1  0.1489025E-007  0.1264242E+04  0.7818608E-02  0.9058412E-01
         -2   -1    0    0    0  501 -0.00000000000E+00  0.00000000000E+00  0.49976536622E+03  0.49976536622E+03  0.00000000000E+00 0.  1.
          2   -1    0    0  501    0  0.00000000000E+00 -0.00000000000E+00 -0.79952898308E+03  0.79952898308E+03  0.00000000000E+00 0. -1.
         23    2    1    2    0    0 -0.44981871244E+02 -0.10098335971E+03  0.21316146271E+03  0.25754032033E+03  0.93103167124E+02 0.  0.
        254    2    1    2    0    0  0.44981871244E+02  0.10098335971E+03 -0.51292507957E+03  0.10417540290E+04  0.89996572821E+03 0.  0.
        -24    2    4    4    0    0 -0.20089963195E+03  0.21433073613E+03 -0.65764115731E+03  0.72480246197E+03  0.80922126308E+02 0.  0.
         24    2    4    4    0    0  0.24588150320E+03 -0.11334737642E+03  0.14471607774E+03  0.31695156700E+03  0.78804893955E+02 0.  0.
         13    1    3    3    0    0 -0.17761495774E+02  0.13975069332E+02  0.15985795766E+02  0.27682466676E+02  0.00000000000E+00 0. -1.
        -13    1    3    3    0    0 -0.27220375470E+02 -0.11495842904E+03  0.19717566695E+03  0.22985785365E+03  0.00000000000E+00 0.  1.
          2    1    6    6  502    0  0.31649143933E+02  0.26126818487E+01 -0.32648894311E+01  0.31924190219E+02  0.00000000000E+00 0. -1.
          3    1    5    5  503    0 -0.87995435768E+02  0.48168403929E+02 -0.16983312497E+03  0.19724776853E+03  0.00000000000E+00 0. -1.
         -4    1    5    5    0  503 -0.11290419618E+03  0.16616233220E+03 -0.48780803234E+03  0.52755469344E+03  0.00000000000E+00 0.  1.
         -1    1    6    6    0  502  0.21423235926E+03 -0.11596005827E+03  0.14798096717E+03  0.28502737678E+03  0.00000000000E+00 0.  1.
<mgrwt>
<rscale>  0 0.12642419E+04</rscale>
<asrwt>0</asrwt>
<pdfrwt beam="1">  1        2 0.12300446E+00 0.12642419E+04</pdfrwt>
<pdfrwt beam="2">  1       -2 0.76886981E-01 0.12642419E+04</pdfrwt>
<totfact> 0.51199622E+01</totfact>
</mgrwt>
</event>
<event>
12    1  0.1489025E-007  0.1493598E+04  0.7818608E-02  0.8888721E-01
          2   -1    0    0  501    0  0.00000000000E+00  0.00000000000E+00  0.12897210974E+04  0.12897210974E+04  0.00000000000E+00 0. -1.
         -2   -1    0    0    0  501 -0.00000000000E+00 -0.00000000000E+00 -0.43242579895E+03  0.43242579895E+03  0.00000000000E+00 0.  1.
         23    2    1    2    0    0  0.36524505777E+03  0.17065870632E+03  0.57433264614E+03  0.70762379407E+03  0.91351514709E+02 0.  0.
        254    2    1    2    0    0 -0.36524505777E+03 -0.17065870632E+03  0.28296265231E+03  0.10145231023E+04  0.88693907131E+03 0.  0.
        -24    2    4    4    0    0  0.16509909407E+03  0.14062259442E+03  0.31809572147E+03  0.39349908497E+03  0.81389292480E+02 0.  0.
         24    2    4    4    0    0 -0.53034415183E+03 -0.31128130074E+03 -0.35133069162E+02  0.62102401732E+03  0.79218242640E+02 0.  0.
         11    1    3    3    0    0  0.34615228243E+03  0.16308111904E+03  0.49487711118E+03  0.62555592011E+03  0.00000000000E+00 0. -1.
        -11    1    3    3    0    0  0.19092775335E+02  0.75775872811E+01  0.79455534965E+02  0.82067873955E+02  0.00000000000E+00 0.  1.
          4    1    6    6  502    0 -0.54590581604E+02 -0.90458747924E+01  0.71859948968E+01  0.55799623415E+02  0.00000000000E+00 0. -1.
          1    1    5    5  503    0  0.29240006947E+02  0.25624212594E+02  0.14350311597E+02  0.41442848844E+02  0.00000000000E+00 0. -1.
         -2    1    5    5    0  503  0.13585908712E+03  0.11499838183E+03  0.30374540988E+03  0.35205623613E+03  0.00000000000E+00 0.  1.
         -3    1    6    6    0  502 -0.47575357023E+03 -0.30223542595E+03 -0.42319064059E+02  0.56522439391E+03  0.00000000000E+00 0.  1.
<mgrwt>
<rscale>  0 0.14935979E+04</rscale>
<asrwt>0</asrwt>
<pdfrwt beam="1">  1        2 0.19841863E+00 0.14935979E+04</pdfrwt>
<pdfrwt beam="2">  1       -2 0.66527047E-01 0.14935979E+04</pdfrwt>
<totfact> 0.33644567E+01</totfact>
</mgrwt>
</event>
<event>
12    1  0.1489025E-007  0.1060578E+04  0.7818608E-02  0.9244491E-01
         -2   -1    0    0    0  501 -0.00000000000E+00  0.00000000000E+00  0.20715729169E+03  0.20715729169E+03  0.00000000000E+00 0. -1.
          2   -1    0    0  501    0  0.00000000000E+00 -0.00000000000E+00 -0.13574533637E+04  0.13574533637E+04  0.00000000000E+00 0.  1.
         23    2    1    2    0    0  0.10579726925E+03  0.62185320764E+02 -0.17084402141E+03  0.22884451992E+03  0.90122463054E+02 0.  0.
        254    2    1    2    0    0 -0.10579726925E+03 -0.62185320764E+02 -0.97945205057E+03  0.13357661354E+04  0.89993598268E+03 0.  0.
        -24    2    4    4    0    0 -0.34321447075E+03  0.17850030585E+03 -0.89322448306E+03  0.97721662129E+03  0.86277550247E+02 0.  0.
         24    2    4    4    0    0  0.23741720150E+03 -0.24068562661E+03 -0.86227567505E+02  0.35854951414E+03  0.82619987092E+02 0.  0.
         13    1    3    3    0    0  0.45743447008E+01  0.16673601106E+02  0.74527249351E+01  0.18827551945E+02  0.00000000000E+00 0. -1.
        -13    1    3    3    0    0  0.10122292455E+03  0.45511719658E+02 -0.17829674634E+03  0.21001696797E+03  0.00000000000E+00 0.  1.
          4    1    6    6  502    0  0.16008971030E+02 -0.12116517196E+02  0.14500087404E+02  0.24765897463E+02  0.00000000000E+00 0. -1.
          3    1    5    5  503    0 -0.11954483867E+03  0.73579299234E+02 -0.42844975096E+03  0.45085925834E+03  0.00000000000E+00 0. -1.
         -4    1    5    5    0  503 -0.22366963208E+03  0.10492100662E+03 -0.46477473210E+03  0.52635736296E+03  0.00000000000E+00 0.  1.
         -3    1    6    6    0  502  0.22140823047E+03 -0.22856910942E+03 -0.10072765491E+03  0.33378361668E+03  0.00000000000E+00 0.  1.
<mgrwt>
<rscale>  0 0.10605779E+04</rscale>
<asrwt>0</asrwt>
<pdfrwt beam="1">  1        2 0.20883898E+00 0.10605779E+04</pdfrwt>
<pdfrwt beam="2">  1       -2 0.31870352E-01 0.10605779E+04</pdfrwt>
<totfact> 0.13930319E+02</totfact>
</mgrwt>
</event>
<event>
12    1  0.1489025E-007  0.1926732E+04  0.7818608E-02  0.8641663E-01
         -2   -1    0    0    0  501 -0.00000000000E+00  0.00000000000E+00  0.10044096273E+04  0.10044096273E+04  0.00000000000E+00 0.  1.
          2   -1    0    0  501    0  0.00000000000E+00 -0.00000000000E+00 -0.92399953742E+03  0.92399953742E+03  0.00000000000E+00 0. -1.
         23    2    1    2    0    0 -0.18919696810E+03  0.62283069492E+03  0.40721462849E+03  0.77325778407E+03  0.91598469953E+02 0.  0.
        254    2    1    2    0    0  0.18919696810E+03 -0.62283069492E+03 -0.32680453864E+03  0.11551513806E+04  0.89658236566E+03 0.  0.
        -24    2    4    4    0    0  0.13299698700E+03  0.87744905423E+02 -0.39598595044E+03  0.43351771073E+03  0.75798189888E+02 0.  0.
         24    2    4    4    0    0  0.56199981098E+02 -0.71057560034E+03  0.69181411802E+02  0.72163366990E+03  0.88842355428E+02 0.  0.
         13    1    3    3    0    0 -0.12105574237E+03  0.51630231259E+03  0.34144310610E+03  0.63071861036E+03  0.00000000000E+00 0.  1.
        -13    1    3    3    0    0 -0.68141225728E+02  0.10652838233E+03  0.65771522384E+02  0.14253917371E+03  0.00000000000E+00 0. -1.
          4    1    6    6  502    0 -0.14094041929E+02 -0.12142313539E+03 -0.11778331574E+02  0.12280451507E+03  0.00000000000E+00 0. -1.
          3    1    5    5  503    0  0.85348672721E+01  0.62042402688E+01 -0.11574499083E+03  0.11622495197E+03  0.00000000000E+00 0. -1.
         -4    1    5    5    0  503  0.12446211973E+03  0.81540665154E+02 -0.28024095960E+03  0.31729275876E+03  0.00000000000E+00 0.  1.
         -3    1    6    6    0  502  0.70294023027E+02 -0.58915246495E+03  0.80959743376E+02  0.59882915483E+03  0.00000000000E+00 0.  1.
<mgrwt>
<rscale>  0 0.19267320E+04</rscale>
<asrwt>0</asrwt>
<pdfrwt beam="1">  1        2 0.14215377E+00 0.19267320E+04</pdfrwt>
<pdfrwt beam="2">  1       -2 0.15452456E+00 0.19267320E+04</pdfrwt>
<totfact> 0.73062876E+00</totfact>
</mgrwt>
</event>
<event>
12    1  0.1489025E-007  0.1303051E+04  0.7818608E-02  0.9027149E-01
          1   -1    0    0  501    0  0.00000000000E+00  0.00000000000E+00  0.10640444152E+04  0.10640444152E+04  0.00000000000E+00 0. -1.
         -1   -1    0    0    0  501 -0.00000000000E+00 -0.00000000000E+00 -0.39893579548E+03  0.39893579548E+03  0.00000000000E+00 0.  1.
         23    2    1    2    0    0 -0.22316204815E+02  0.17697056472E+03  0.49204605079E+03  0.53145094187E+03  0.92272388823E+02 0.  0.
        254    2    1    2    0    0  0.22316204815E+02 -0.17697056472E+03  0.17306256896E+03  0.93152926885E+03  0.89776362823E+03 0.  0.
        -24    2    4    4    0    0 -0.33295438693E+02  0.69125953049E+02  0.49888957108E+03  0.51113249543E+03  0.80490000194E+02 0.  0.
         24    2    4    4    0    0  0.55611643508E+02 -0.24609651776E+03 -0.32582700212E+03  0.42039677342E+03  0.83150831865E+02 0.  0.
         13    1    3    3    0    0 -0.36211466904E+02  0.15987014986E+03  0.33595218521E+03  0.37380958508E+03  0.00000000000E+00 0. -1.
        -13    1    3    3    0    0  0.13895262089E+02  0.17100414854E+02  0.15609386559E+03  0.15764135679E+03  0.00000000000E+00 0.  1.
          2    1    6    6  502    0  0.43342300395E+02 -0.68296677393E+02 -0.14781928930E+03  0.16850380837E+03  0.00000000000E+00 0. -1.
          3    1    5    5  503    0 -0.44840156274E+02  0.30550370176E+02  0.40966934304E+03  0.41324682136E+03  0.00000000000E+00 0. -1.
         -4    1    5    5    0  503  0.11544717581E+02  0.38575582874E+02  0.89220228036E+02  0.97885674073E+02  0.00000000000E+00 0.  1.
         -1    1    6    6    0  502  0.12269343113E+02 -0.17779984037E+03 -0.17800771282E+03  0.25189296505E+03  0.00000000000E+00 0.  1.
<mgrwt>
<rscale>  0 0.13030509E+04</rscale>
<asrwt>0</asrwt>
<pdfrwt beam="1">  1        1 0.16369914E+00 0.13030509E+04</pdfrwt>
<pdfrwt beam="2">  1       -1 0.61374738E-01 0.13030509E+04</pdfrwt>
<totfact> 0.35708251E+01</totfact>
</mgrwt>
</event>
<event>
12    1  0.1489025E-007  0.1601387E+04  0.7818608E-02  0.8819696E-01
          1   -1    0    0  501    0  0.00000000000E+00  0.00000000000E+00  0.13377573360E+04  0.13377573360E+04  0.00000000000E+00 0. -1.
         -1   -1    0    0    0  501 -0.00000000000E+00 -0.00000000000E+00 -0.47924258599E+03  0.47924258599E+03  0.00000000000E+00 0.  1.
         23    2    1    2    0    0  0.33363238841E+03 -0.37743000311E+03  0.96097038619E+02  0.52038951183E+03  0.88355109347E+02 0.  0.
        254    2    1    2    0    0 -0.33363238841E+03  0.37743000311E+03  0.76241771135E+03  0.12966104101E+04  0.91986619202E+03 0.  0.
        -24    2    4    4    0    0  0.24424901500E+03  0.28072141037E+03  0.54812668157E+03  0.66767775923E+03  0.82997828648E+02 0.  0.
         24    2    4    4    0    0 -0.57788140341E+03  0.96708592745E+02  0.21429102978E+03  0.62893265089E+03  0.79600035142E+02 0.  0.
         11    1    3    3    0    0  0.15630934448E+03 -0.21807323738E+03  0.86060257465E+02  0.28177103461E+03  0.00000000000E+00 0. -1.
        -11    1    3    3    0    0  0.17732304393E+03 -0.15935676573E+03  0.10036781154E+02  0.23861847722E+03  0.00000000000E+00 0.  1.
          4    1    6    6  502    0 -0.52276767801E+03  0.80888692364E+02  0.16734752622E+03  0.55482809974E+03  0.00000000000E+00 0. -1.
          1    1    5    5  503    0  0.23172235541E+03  0.25163522981E+03  0.45453975107E+03  0.56887777613E+03  0.00000000000E+00 0. -1.
         -2    1    5    5    0  503  0.12526659591E+02  0.29086180558E+02  0.93586930502E+02  0.98799983101E+02  0.00000000000E+00 0.  1.
         -3    1    6    6    0  502 -0.55113725400E+02  0.15819900380E+02  0.46943503558E+02  0.74104551154E+02  0.00000000000E+00 0.  1.
<mgrwt>
<rscale>  0 0.16013873E+04</rscale>
<asrwt>0</asrwt>
<pdfrwt beam="1">  1        1 0.20580882E+00 0.16013873E+04</pdfrwt>
<pdfrwt beam="2">  1       -1 0.73729630E-01 0.16013873E+04</pdfrwt>
<totfact> 0.15113973E+01</totfact>
</mgrwt>
</event>
<event>
12    1  0.1489025E-007  0.3410653E+04  0.7818608E-02  0.8135297E-01
          1   -1    0    0  501    0  0.00000000000E+00  0.00000000000E+00  0.20038480249E+04  0.20038480249E+04  0.00000000000E+00 0. -1.
         -1   -1    0    0    0  501 -0.00000000000E+00 -0.00000000000E+00 -0.14512768190E+04  0.14512768190E+04  0.00000000000E+00 0.  1.
         23    2    1    2    0    0  0.20726488459E+03  0.34032122250E+03 -0.12950032581E+04  0.13580507419E+04  0.92147230707E+02 0.  0.
        254    2    1    2    0    0 -0.20726488459E+03 -0.34032122250E+03  0.18475744639E+04  0.20970741020E+04  0.90852139358E+03 0.  0.
        -24    2    4    4    0    0  0.30780225405E+03 -0.34092369754E+03  0.96755066002E+03  0.10740723574E+04  0.80659494444E+02 0.  0.
         24    2    4    4    0    0 -0.51506713864E+03  0.60247503471E+00  0.88002380393E+03  0.10230017446E+04  0.82438787817E+02 0.  0.
         13    1    3    3    0    0  0.87083712329E+02  0.66859801666E+02 -0.31930605782E+03  0.33765391245E+03  0.00000000000E+00 0. -1.
        -13    1    3    3    0    0  0.12018117226E+03  0.27346142084E+03 -0.97569720028E+03  0.10203968294E+04  0.00000000000E+00 0.  1.
          4    1    6    6  502    0 -0.17952361226E+03  0.39074263535E+02  0.29823747002E+03  0.35028718782E+03  0.00000000000E+00 0. -1.
          3    1    5    5  503    0  0.25173395521E+03 -0.29887058402E+03  0.75281801085E+03  0.84819135085E+03  0.00000000000E+00 0. -1.
         -4    1    5    5    0  503  0.56068298847E+02 -0.42053113515E+02  0.21473264917E+03  0.22588100653E+03  0.00000000000E+00 0.  1.
         -3    1    6    6    0  502 -0.33554352638E+03 -0.38471788500E+02  0.58178633391E+03  0.67271455680E+03  0.00000000000E+00 0.  1.
<mgrwt>
<rscale>  0 0.34106528E+04</rscale>
<asrwt>0</asrwt>
<pdfrwt beam="1">  1        1 0.30828431E+00 0.34106528E+04</pdfrwt>
<pdfrwt beam="2">  1       -1 0.22327336E+00 0.34106528E+04</pdfrwt>
<totfact> 0.25478750E-01</totfact>
</mgrwt>
</event>
<event>
12    1  0.1489025E-007  0.2568339E+04  0.7818608E-02  0.8379036E-01
          1   -1    0    0  501    0  0.00000000000E+00  0.00000000000E+00  0.15120114077E+04  0.15120114077E+04  0.00000000000E+00 0. -1.
         -1   -1    0    0    0  501 -0.00000000000E+00 -0.00000000000E+00 -0.10906604323E+04  0.10906604323E+04  0.00000000000E+00 0.  1.
         23    2    1    2    0    0 -0.25662706732E+03  0.19183778072E+03  0.12674090787E+04  0.13104369867E+04  0.90885298927E+02 0.  0.
        254    2    1    2    0    0  0.25662706732E+03 -0.19183778072E+03 -0.84605810326E+03  0.12922348533E+04  0.92271198983E+03 0.  0.
        -24    2    4    4    0    0  0.53283740887E+03  0.11986716521E+03 -0.49831029084E+03  0.74355973640E+03  0.79272277912E+02 0.  0.
         24    2    4    4    0    0 -0.27621034155E+03 -0.31170494593E+03 -0.34774781242E+03  0.54867511690E+03  0.81631591683E+02 0.  0.
         13    1    3    3    0    0  0.14136996124E+01  0.17645586194E+02  0.12956737202E+03  0.13077105624E+03  0.00000000000E+00 0.  1.
        -13    1    3    3    0    0 -0.25804076694E+03  0.17419219453E+03  0.11378417067E+04  0.11796659305E+04  0.00000000000E+00 0. -1.
          2    1    6    6  502    0 -0.78519204408E+02 -0.41052003241E+02 -0.60814771317E+02  0.10746612881E+03  0.00000000000E+00 0. -1.
          1    1    5    5  503    0  0.25921103030E+01 -0.63133169632E+01 -0.61157303213E+01  0.91640146368E+01  0.00000000000E+00 0. -1.
         -2    1    5    5    0  503  0.53024529857E+03  0.12618048217E+03 -0.49219456052E+03  0.73439572176E+03  0.00000000000E+00 0.  1.
         -1    1    6    6    0  502 -0.19769113714E+03 -0.27065294269E+03 -0.28693304110E+03  0.44120898809E+03  0.00000000000E+00 0.  1.
<mgrwt>
<rscale>  0 0.25683388E+04</rscale>
<asrwt>0</asrwt>
<pdfrwt beam="1">  1        1 0.23261714E+00 0.25683388E+04</pdfrwt>
<pdfrwt beam="2">  1       -1 0.16779391E+00 0.25683388E+04</pdfrwt>
<totfact> 0.14479547E+00</totfact>
</mgrwt>
</event>
<event>
12    1  0.1489025E-007  0.1588396E+04  0.7818608E-02  0.8827709E-01
          2   -1    0    0  501    0  0.00000000000E+00  0.00000000000E+00  0.47695036609E+03  0.47695036609E+03  0.00000000000E+00 0. -1.
         -2   -1    0    0    0  501 -0.00000000000E+00 -0.00000000000E+00 -0.13224653781E+04  0.13224653781E+04  0.00000000000E+00 0.  1.
         23    2    1    2    0    0 -0.23355743308E+03  0.17090712304E+02  0.25708114377E+03  0.35961731256E+03  0.91611844306E+02 0.  0.
        254    2    1    2    0    0  0.23355743308E+03 -0.17090712304E+02 -0.11025961558E+04  0.14397984316E+04  0.89580135854E+03 0.  0.
        -24    2    4    4    0    0  0.34652333348E+03 -0.30685175970E+03 -0.99600436500E+03  0.11012212286E+04  0.80169047935E+02 0.  0.
         24    2    4    4    0    0 -0.11296590040E+03  0.28976104740E+03 -0.10659179077E+03  0.33857720296E+03  0.80931781551E+02 0.  0.
         11    1    3    3    0    0 -0.23255146750E+03  0.17548564649E+02  0.21399006487E+03  0.31651206141E+03  0.00000000000E+00 0. -1.
        -11    1    3    3    0    0 -0.10059655801E+01 -0.45785234531E+00  0.43091078903E+02  0.43105251148E+02  0.00000000000E+00 0.  1.
          2    1    6    6  502    0 -0.99982337172E+02  0.23319015553E+03 -0.52203778424E+02  0.25903542396E+03  0.00000000000E+00 0. -1.
          1    1    5    5  503    0  0.21555809459E+03 -0.23226850090E+03 -0.72261188565E+03  0.78903858330E+03  0.00000000000E+00 0. -1.
         -2    1    5    5    0  503  0.13096523889E+03 -0.74583258807E+02 -0.27339247935E+03  0.31218264535E+03  0.00000000000E+00 0.  1.
         -1    1    6    6    0  502 -0.12983563230E+02  0.56570891869E+02 -0.54388012346E+02  0.79541779009E+02  0.00000000000E+00 0.  1.
<mgrwt>
<rscale>  0 0.15883959E+04</rscale>
<asrwt>0</asrwt>
<pdfrwt beam="1">  1        2 0.73376980E-01 0.15883959E+04</pdfrwt>
<pdfrwt beam="2">  1       -2 0.20345621E+00 0.15883959E+04</pdfrwt>
<totfact> 0.78741053E+00</totfact>
</mgrwt>
</event>
<event>
12    1  0.1489025E-007  0.1298497E+04  0.7818608E-02  0.9030758E-01
          2   -1    0    0  501    0  0.00000000000E+00  0.00000000000E+00  0.16040546119E+04  0.16040546119E+04  0.00000000000E+00 0. -1.
         -2   -1    0    0    0  501 -0.00000000000E+00 -0.00000000000E+00 -0.26278649181E+03  0.26278649181E+03  0.00000000000E+00 0.  1.
         23    2    1    2    0    0  0.14306038536E+03 -0.13092441078E+03  0.10140537861E+03  0.23764863713E+03  0.92662552956E+02 0.  0.
        254    2    1    2    0    0 -0.14306038536E+03  0.13092441078E+03  0.12398627415E+04  0.16291924666E+04  0.10389422507E+04 0.  0.
        -24    2    4    4    0    0 -0.27821859257E+03 -0.52451129614E+02  0.13367013215E+04  0.13686970278E+04  0.80027651319E+02 0.  0.
         24    2    4    4    0    0  0.13515820721E+03  0.18337554040E+03 -0.96838580012E+02  0.26049543872E+03  0.81153146725E+02 0.  0.
         11    1    3    3    0    0  0.13358107175E+03 -0.94227564419E+02  0.44751555617E+02  0.16948580577E+03  0.00000000000E+00 0.  1.
        -11    1    3    3    0    0  0.94793136119E+01 -0.36696846363E+02  0.56653822998E+02  0.68162831366E+02  0.00000000000E+00 0. -1.
          2    1    6    6  502    0  0.14604480569E+03  0.17480339066E+03 -0.88832316405E+02  0.24449231295E+03  0.00000000000E+00 0. -1.
          3    1    5    5  503    0 -0.77269194183E+02 -0.49948517717E+02  0.36357258903E+03  0.37503387885E+03  0.00000000000E+00 0. -1.
         -4    1    5    5    0  503 -0.20094939839E+03 -0.25026118968E+01  0.97312873244E+03  0.99366314900E+03  0.00000000000E+00 0.  1.
         -1    1    6    6    0  502 -0.10886598476E+02  0.85721497391E+01 -0.80062636067E+01  0.16003125771E+02  0.00000000000E+00 0.  1.
<mgrwt>
<rscale>  0 0.12984974E+04</rscale>
<asrwt>0</asrwt>
<pdfrwt beam="1">  1        2 0.24677763E+00 0.12984974E+04</pdfrwt>
<pdfrwt beam="2">  1       -2 0.40428692E-01 0.12984974E+04</pdfrwt>
<totfact> 0.62966354E+01</totfact>
</mgrwt>
</event>
<event>
12    1  0.1489025E-007  0.1319685E+04  0.7818608E-02  0.9014099E-01
          1   -1    0    0  501    0  0.00000000000E+00  0.00000000000E+00  0.12055739916E+04  0.12055739916E+04  0.00000000000E+00 0. -1.
         -1   -1    0    0    0  501 -0.00000000000E+00 -0.00000000000E+00 -0.36114914301E+03  0.36114914301E+03  0.00000000000E+00 0.  1.
         23    2    1    2    0    0  0.37906981151E+02 -0.13661526890E+02  0.61835235474E+03  0.62606708631E+03  0.89312851317E+02 0.  0.
        254    2    1    2    0    0 -0.37906981151E+02  0.13661526890E+02  0.22607249383E+03  0.94065604829E+03  0.91219595054E+03 0.  0.
        -24    2    4    4    0    0 -0.22184766270E+03 -0.15275402617E+03  0.49326100527E+03  0.56749870268E+03  0.78728522519E+02 0.  0.
         24    2    4    4    0    0  0.18394068155E+03  0.16641555306E+03 -0.26718851144E+03  0.37315734561E+03  0.79551199282E+02 0.  0.
         13    1    3    3    0    0  0.19280122190E+02 -0.41644789199E+02  0.52210941891E+03  0.52412236825E+03  0.00000000000E+00 0. -1.
        -13    1    3    3    0    0  0.18626858961E+02  0.27983262309E+02  0.96242935826E+02  0.10194471806E+03  0.00000000000E+00 0.  1.
          2    1    6    6  502    0  0.25693195692E+01  0.38097310646E+02 -0.43546155316E+02  0.57916095555E+02  0.00000000000E+00 0. -1.
          1    1    5    5  503    0 -0.13409251618E+02 -0.37184700760E+02  0.10163871194E+03  0.10905474664E+03  0.00000000000E+00 0. -1.
         -2    1    5    5    0  503 -0.20843841109E+03 -0.11556932541E+03  0.39162229333E+03  0.45844395603E+03  0.00000000000E+00 0.  1.
         -1    1    6    6    0  502  0.18137136198E+03  0.12831824242E+03 -0.22364235612E+03  0.31524125006E+03  0.00000000000E+00 0.  1.
<mgrwt>
<rscale>  0 0.13196848E+04</rscale>
<asrwt>0</asrwt>
<pdfrwt beam="1">  1        1 0.18547292E+00 0.13196848E+04</pdfrwt>
<pdfrwt beam="2">  1       -1 0.55561407E-01 0.13196848E+04</pdfrwt>
<totfact> 0.34015847E+01</totfact>
</mgrwt>
</event>
<event>
12    1  0.1489025E-007  0.1124759E+04  0.7818608E-02  0.9181391E-01
          1   -1    0    0  501    0  0.00000000000E+00  0.00000000000E+00  0.86744910316E+03  0.86744910316E+03  0.00000000000E+00 0. -1.
         -1   -1    0    0    0  501 -0.00000000000E+00 -0.00000000000E+00 -0.36459832577E+03  0.36459832577E+03  0.00000000000E+00 0.  1.
         23    2    1    2    0    0 -0.11493048182E+02 -0.17104288615E+03  0.40988270178E+02  0.20459751583E+03  0.10388621724E+03 0.  0.
        254    2    1    2    0    0  0.11493048182E+02  0.17104288615E+03  0.46186250721E+03  0.10274499131E+04  0.90163661710E+03 0.  0.
        -24    2    4    4    0    0  0.24337521091E+03 -0.12204355992E+02 -0.18183363158E+03  0.31447020551E+03  0.80296955063E+02 0.  0.
         24    2    4    4    0    0 -0.23188216272E+03  0.18324724214E+03  0.64369613879E+03  0.71297970759E+03  0.81525794695E+02 0.  0.
         11    1    3    3    0    0  0.22526135007E+02 -0.16416675412E+03  0.32385216885E+02  0.16884001952E+03  0.00000000000E+00 0.  1.
        -11    1    3    3    0    0 -0.34019183189E+02 -0.68761320223E+01  0.86030532930E+01  0.35757496311E+02  0.00000000000E+00 0. -1.
          2    1    6    6  502    0 -0.16783645357E+03  0.93202980657E+02  0.46232038934E+03  0.50059565834E+03  0.00000000000E+00 0. -1.
          3    1    5    5  503    0  0.15335060818E+03 -0.22454274783E+02 -0.15679930223E+03  0.22046910138E+03  0.00000000000E+00 0. -1.
         -4    1    5    5    0  503  0.90024602728E+02  0.10249918791E+02 -0.25034329349E+02  0.94001104129E+02  0.00000000000E+00 0.  1.
         -1    1    6    6    0  502 -0.64045709159E+02  0.90044261481E+02  0.18137574945E+03  0.21238404925E+03  0.00000000000E+00 0.  1.
<mgrwt>
<rscale>  0 0.11247586E+04</rscale>
<asrwt>0</asrwt>
<pdfrwt beam="1">  1        1 0.13345371E+00 0.11247586E+04</pdfrwt>
<pdfrwt beam="2">  1       -1 0.56092051E-01 0.11247586E+04</pdfrwt>
<totfact> 0.61936855E+01</totfact>
</mgrwt>
</event>
<event>
12    1  0.1489025E-007  0.2941259E+04  0.7818608E-02  0.8260707E-01
          2   -1    0    0  501    0  0.00000000000E+00  0.00000000000E+00  0.31595330862E+04  0.31595330862E+04  0.00000000000E+00 0.  1.
         -2   -1    0    0    0  501 -0.00000000000E+00 -0.00000000000E+00 -0.68451587160E+03  0.68451587160E+03  0.00000000000E+00 0. -1.
         23    2    1    2    0    0 -0.13293327801E+04  0.94925537402E+01  0.12515129498E+04  0.18280295689E+04  0.90507967469E+02 0.  0.
        254    2    1    2    0    0  0.13293327801E+04 -0.94925537402E+01  0.12235042648E+04  0.20160193889E+04  0.89451424899E+03 0.  0.
        -24    2    4    4    0    0  0.97693869830E+03 -0.39100124900E+02  0.30326011751E+03  0.10267397472E+04  0.79308067424E+02 0.  0.
         24    2    4    4    0    0  0.35239408184E+03  0.29607571160E+02  0.92024414725E+03  0.98927964173E+03  0.82260086377E+02 0.  0.
         13    1    3    3    0    0 -0.74948545026E+03  0.48395260780E+02  0.68807569609E+03  0.10185866212E+04  0.00000000000E+00 0. -1.
        -13    1    3    3    0    0 -0.57984732988E+03 -0.38902707040E+02  0.56343725370E+03  0.80944294762E+03  0.00000000000E+00 0.  1.
          2    1    6    6  502    0  0.33902008483E+03  0.40239325583E+02  0.90118000572E+03  0.96368004231E+03  0.00000000000E+00 0. -1.
          1    1    5    5  503    0  0.80571024612E+03 -0.46283918116E+02  0.27761473709E+03  0.85345248493E+03  0.00000000000E+00 0. -1.
         -2    1    5    5    0  503  0.17122845218E+03  0.71837932159E+01  0.25645380413E+02  0.17328726225E+03  0.00000000000E+00 0.  1.
         -1    1    6    6    0  502  0.13373997011E+02 -0.10631754423E+02  0.19064141530E+02  0.25599599420E+02  0.00000000000E+00 0.  1.
<mgrwt>
<rscale>  0 0.29412586E+04</rscale>
<asrwt>0</asrwt>
<pdfrwt beam="1">  1        2 0.48608200E+00 0.29412586E+04</pdfrwt>
<pdfrwt beam="2">  1       -2 0.10531014E+00 0.29412586E+04</pdfrwt>
<totfact> 0.86444988E-01</totfact>
</mgrwt>
</event>
<event>
12    1  0.1489025E-007  0.2215383E+04  0.7818608E-02  0.8512052E-01
          1   -1    0    0  501    0  0.00000000000E+00  0.00000000000E+00  0.42487929006E+04  0.42487929006E+04  0.00000000000E+00 0. -1.
         -1   -1    0    0    0  501 -0.00000000000E+00 -0.00000000000E+00 -0.28878340662E+03  0.28878340662E+03  0.00000000000E+00 0.  1.
         23    2    1    2    0    0 -0.74120448810E+03 -0.74878600923E+02  0.54439332226E+03  0.92724221418E+03  0.91777646352E+02 0.  0.
        254    2    1    2    0    0  0.74120448810E+03  0.74878600923E+02  0.34156161717E+04  0.36103340930E+04  0.90171366453E+03 0.  0.
        -24    2    4    4    0    0 -0.20405131239E+03  0.11266733970E+02  0.71382406920E+03  0.74619069155E+03  0.74107145462E+02 0.  0.
         24    2    4    4    0    0  0.94525580049E+03  0.63611866953E+02  0.27017921025E+04  0.28641434015E+04  0.77986287717E+02 0.  0.
         13    1    3    3    0    0 -0.41364747348E+03 -0.93813424064E+01  0.34087641241E+03  0.53608671914E+03  0.00000000000E+00 0. -1.
        -13    1    3    3    0    0 -0.32755701462E+03 -0.65497258517E+02  0.20351690985E+03  0.39115549504E+03  0.00000000000E+00 0.  1.
          2    1    6    6  502    0  0.18053457756E+03 -0.14477081880E+02  0.56234468823E+03  0.59079088346E+03  0.00000000000E+00 0. -1.
          3    1    5    5  503    0 -0.74820664568E+02  0.33069241039E+02  0.20397535377E+03  0.21976726666E+03  0.00000000000E+00 0. -1.
         -4    1    5    5    0  503 -0.12923064782E+03 -0.21802507068E+02  0.50984871543E+03  0.52642342490E+03  0.00000000000E+00 0.  1.
         -1    1    6    6    0  502  0.76472122293E+03  0.78088948833E+02  0.21394474143E+04  0.22733525180E+04  0.00000000000E+00 0.  1.
<mgrwt>
<rscale>  0 0.22153834E+04</rscale>
<asrwt>0</asrwt>
<pdfrwt beam="1">  1        1 0.65366040E+00 0.22153834E+04</pdfrwt>
<pdfrwt beam="2">  1       -1 0.44428219E-01 0.22153834E+04</pdfrwt>
<totfact> 0.26184056E-01</totfact>
</mgrwt>
</event>
<event>
12    1  0.1489025E-007  0.1377567E+04  0.7818608E-02  0.8970219E-01
          2   -1    0    0  501    0  0.00000000000E+00  0.00000000000E+00  0.38886257015E+03  0.38886257015E+03  0.00000000000E+00 0. -1.
         -2   -1    0    0    0  501 -0.00000000000E+00 -0.00000000000E+00 -0.12200268657E+04  0.12200268657E+04  0.00000000000E+00 0.  1.
         23    2    1    2    0    0  0.33346850482E+03  0.90467532418E+02 -0.44606680576E+02  0.36058112713E+03  0.92969754003E+02 0.  0.
        254    2    1    2    0    0 -0.33346850482E+03 -0.90467532418E+02 -0.78655761500E+03  0.12483083087E+04  0.90565729382E+03 0.  0.
        -24    2    4    4    0    0 -0.34659618548E+03 -0.46452536074E+03 -0.44938819179E+03  0.73788022052E+03  0.81269590614E+02 0.  0.
         24    2    4    4    0    0  0.13127680653E+02  0.37405782833E+03 -0.33716942321E+03  0.51042808823E+03  0.82231492565E+02 0.  0.
         11    1    3    3    0    0  0.59658889627E+02  0.23891073541E+02 -0.45587480035E+02  0.78792035400E+02  0.00000000000E+00 0.  1.
        -11    1    3    3    0    0  0.27380961520E+03  0.66576458877E+02  0.98079945912E+00  0.28178909173E+03  0.00000000000E+00 0. -1.
          4    1    6    6  502    0  0.21009220493E+02  0.28248194398E+03 -0.20594477549E+03  0.35021520038E+03  0.00000000000E+00 0. -1.
          1    1    5    5  503    0 -0.32465262497E+03 -0.41954624136E+03 -0.38097523644E+03  0.65311599760E+03  0.00000000000E+00 0. -1.
         -2    1    5    5    0  503 -0.21943560502E+02 -0.44979119384E+02 -0.68412955346E+02  0.84764222920E+02  0.00000000000E+00 0.  1.
         -3    1    6    6    0  502 -0.78815398401E+01  0.91575884341E+02 -0.13122464772E+03  0.16021288785E+03  0.00000000000E+00 0.  1.
<mgrwt>
<rscale>  0 0.13775671E+04</rscale>
<asrwt>0</asrwt>
<pdfrwt beam="1">  1        2 0.59825012E-01 0.13775671E+04</pdfrwt>
<pdfrwt beam="2">  1       -2 0.18769644E+00 0.13775671E+04</pdfrwt>
<totfact> 0.12841782E+01</totfact>
</mgrwt>
</event>
<event>
12    1  0.1489025E-007  0.1362963E+04  0.7818608E-02  0.8981073E-01
          1   -1    0    0  501    0  0.00000000000E+00  0.00000000000E+00  0.11339442857E+04  0.11339442857E+04  0.00000000000E+00 0. -1.
         -1   -1    0    0    0  501 -0.00000000000E+00 -0.00000000000E+00 -0.40955900172E+03  0.40955900172E+03  0.00000000000E+00 0.  1.
         23    2    1    2    0    0 -0.29214181997E+03 -0.47446431540E+02  0.46343751033E+03  0.55718678261E+03  0.89915392997E+02 0.  0.
        254    2    1    2    0    0  0.29214181997E+03  0.47446431540E+02  0.26094777366E+03  0.98631650481E+03  0.90395160282E+03 0.  0.
        -24    2    4    4    0    0 -0.77465618216E+02 -0.98217582706E+02  0.49559149278E+03  0.51811656811E+03  0.84771663155E+02 0.  0.
         24    2    4    4    0    0  0.36960743819E+03  0.14566401425E+03 -0.23464371912E+03  0.46819993670E+03  0.79535164501E+02 0.  0.
         13    1    3    3    0    0 -0.10303534515E+03 -0.62761015161E+01  0.91646007260E+02  0.13803862665E+03  0.00000000000E+00 0.  1.
        -13    1    3    3    0    0 -0.18910647482E+03 -0.41170330024E+02  0.37179150307E+03  0.41914815596E+03  0.00000000000E+00 0. -1.
          2    1    6    6  502    0  0.12981351826E+03  0.22299681928E+02 -0.47760872476E+02  0.14010683880E+03  0.00000000000E+00 0. -1.
          1    1    5    5  503    0 -0.53633366483E+02 -0.19404419096E+02  0.11084385196E+03  0.12465724607E+03  0.00000000000E+00 0. -1.
         -2    1    5    5    0  503 -0.23832251733E+02 -0.78813163609E+02  0.38474764082E+03  0.39345932204E+03  0.00000000000E+00 0.  1.
         -1    1    6    6    0  502  0.23979391993E+03  0.12336433232E+03 -0.18688284665E+03  0.32809309791E+03  0.00000000000E+00 0.  1.
<mgrwt>
<rscale>  0 0.13629631E+04</rscale>
<asrwt>0</asrwt>
<pdfrwt beam="1">  1        1 0.17445297E+00 0.13629631E+04</pdfrwt>
<pdfrwt beam="2">  1       -1 0.63009078E-01 0.13629631E+04</pdfrwt>
<totfact> 0.29870480E+01</totfact>
</mgrwt>
</event>
<event>
12    1  0.1489025E-007  0.1947566E+04  0.7818608E-02  0.8631535E-01
          2   -1    0    0  501    0  0.00000000000E+00  0.00000000000E+00  0.26393017670E+04  0.26393017670E+04  0.00000000000E+00 0.  1.
         -2   -1    0    0    0  501 -0.00000000000E+00 -0.00000000000E+00 -0.35928182455E+03  0.35928182455E+03  0.00000000000E+00 0. -1.
         23    2    1    2    0    0  0.46857928461E+03  0.28287168062E+03  0.17192091705E+04  0.18068006440E+04  0.96257266646E+02 0.  0.
        254    2    1    2    0    0 -0.46857928461E+03 -0.28287168062E+03  0.56081077196E+03  0.11917829476E+04  0.89791699985E+03 0.  0.
        -24    2    4    4    0    0 -0.71474966515E+03 -0.15678178062E+03  0.51827543457E+03  0.90012125011E+03  0.78493491812E+02 0.  0.
         24    2    4    4    0    0  0.24617038054E+03 -0.12608990000E+03  0.42535337385E+02  0.29166169750E+03  0.82211749329E+02 0.  0.
         13    1    3    3    0    0  0.41893901717E+03  0.23285775931E+03  0.15746434955E+04  0.16459753261E+04  0.00000000000E+00 0.  1.
        -13    1    3    3    0    0  0.49640267440E+02  0.50013921301E+02  0.14456567498E+03  0.16082531784E+03  0.00000000000E+00 0. -1.
          2    1    6    6  502    0  0.18113211812E+03 -0.12957077603E+03  0.41401705117E+02  0.22652048782E+03  0.00000000000E+00 0. -1.
          3    1    5    5  503    0 -0.58727137310E+03 -0.99496795176E+02  0.43310841926E+03  0.73645786081E+03  0.00000000000E+00 0. -1.
         -4    1    5    5    0  503 -0.12747829204E+03 -0.57284985443E+02  0.85167015313E+02  0.16366338930E+03  0.00000000000E+00 0.  1.
         -1    1    6    6    0  502  0.65038262418E+02  0.34808760378E+01  0.11336322685E+01  0.65141209679E+02  0.00000000000E+00 0.  1.
<mgrwt>
<rscale>  0 0.19475658E+04</rscale>
<asrwt>0</asrwt>
<pdfrwt beam="1">  1        2 0.40604641E+00 0.19475658E+04</pdfrwt>
<pdfrwt beam="2">  1       -2 0.55274128E-01 0.19475658E+04</pdfrwt>
<totfact> 0.82921370E+00</totfact>
</mgrwt>
</event>
<event>
12    1  0.1489025E-007  0.1136953E+04  0.7818608E-02  0.9169905E-01
          2   -1    0    0  501    0  0.00000000000E+00  0.00000000000E+00  0.21433528378E+04  0.21433528378E+04  0.00000000000E+00 0.  1.
         -2   -1    0    0    0  501 -0.00000000000E+00 -0.00000000000E+00 -0.15077577003E+03  0.15077577003E+03  0.00000000000E+00 0. -1.
         23    2    1    2    0    0 -0.16131834294E+03  0.35050934786E+02  0.15979880209E+03  0.24578039400E+03  0.87293580094E+02 0.  0.
        254    2    1    2    0    0  0.16131834294E+03 -0.35050934786E+02  0.18327782657E+04  0.20483482139E+04  0.89966774879E+03 0.  0.
        -24    2    4    4    0    0  0.18034672716E+03  0.22992687801E+03  0.14132003086E+03  0.33446365021E+03  0.80642860603E+02 0.  0.
         24    2    4    4    0    0 -0.19028384216E+02 -0.26497781279E+03  0.16914582349E+04  0.17138845637E+04  0.76118438161E+02 0.  0.
         11    1    3    3    0    0 -0.71981598097E+02 -0.23501579460E+02  0.41324110002E+02  0.86263299086E+02  0.00000000000E+00 0. -1.
        -11    1    3    3    0    0 -0.89336744844E+02  0.58552514246E+02  0.11847469208E+03  0.15951709491E+03  0.00000000000E+00 0.  1.
          4    1    6    6  502    0  0.43394911559E+01 -0.31421288870E+02  0.92444172380E+02  0.97734607918E+02  0.00000000000E+00 0. -1.
          1    1    5    5  503    0  0.50373225960E+02  0.12521964866E+03  0.78430617559E+02  0.15610504180E+03  0.00000000000E+00 0. -1.
         -2    1    5    5    0  503  0.12997350120E+03  0.10470722935E+03  0.62889413305E+02  0.17835860842E+03  0.00000000000E+00 0.  1.
         -3    1    6    6    0  502 -0.23367875372E+02 -0.23355652392E+03  0.15990140625E+04  0.16161499557E+04  0.00000000000E+00 0.  1.
<mgrwt>
<rscale>  0 0.11369533E+04</rscale>
<asrwt>0</asrwt>
<pdfrwt beam="1">  1        2 0.32974657E+00 0.11369533E+04</pdfrwt>
<pdfrwt beam="2">  1       -2 0.23196274E-01 0.11369533E+04</pdfrwt>
<totfact> 0.90692243E+01</totfact>
</mgrwt>
</event>
<event>
12    1  0.1489025E-007  0.2592745E+04  0.7818608E-02  0.8370670E-01
          2   -1    0    0  501    0  0.00000000000E+00  0.00000000000E+00  0.14594587087E+04  0.14594587087E+04  0.00000000000E+00 0. -1.
         -2   -1    0    0    0  501 -0.00000000000E+00 -0.00000000000E+00 -0.11515105512E+04  0.11515105512E+04  0.00000000000E+00 0.  1.
         23    2    1    2    0    0 -0.58294654890E+02 -0.10903209231E+04 -0.18464050862E+03  0.11101219477E+04  0.77978453842E+02 0.  0.
        254    2    1    2    0    0  0.58294654890E+02  0.10903209231E+04  0.49258866611E+03  0.15008473122E+04  0.90426825574E+03 0.  0.
        -24    2    4    4    0    0  0.41402557862E+03  0.34952822742E+03  0.38187159138E+03  0.66778453526E+03  0.80765783104E+02 0.  0.
         24    2    4    4    0    0 -0.35573092373E+03  0.74079269570E+03  0.11071707474E+03  0.83306277693E+03  0.80106251747E+02 0.  0.
         13    1    3    3    0    0 -0.53339152326E+02 -0.90270516556E+03 -0.18205025101E+03  0.92242288296E+03  0.00000000000E+00 0. -1.
        -13    1    3    3    0    0 -0.49555025639E+01 -0.18761575755E+03 -0.25902576076E+01  0.18769906479E+03  0.00000000000E+00 0.  1.
          4    1    6    6  502    0 -0.31296087713E+03  0.63174078080E+03  0.12159201521E+03  0.71541983681E+03  0.00000000000E+00 0. -1.
          3    1    5    5  503    0  0.30436329691E+03  0.23480813398E+03  0.30873383240E+03  0.49304001415E+03  0.00000000000E+00 0. -1.
         -4    1    5    5    0  503  0.10966228171E+03  0.11472009344E+03  0.73137758973E+02  0.17474452110E+03  0.00000000000E+00 0.  1.
         -3    1    6    6    0  502 -0.42770046596E+02  0.10905191490E+03 -0.10874940476E+02  0.11764294012E+03  0.00000000000E+00 0.  1.
<mgrwt>
<rscale>  0 0.25927453E+04</rscale>
<asrwt>0</asrwt>
<pdfrwt beam="1">  1        2 0.22453211E+00 0.25927453E+04</pdfrwt>
<pdfrwt beam="2">  1       -2 0.17715547E+00 0.25927453E+04</pdfrwt>
<totfact> 0.22482020E+00</totfact>
</mgrwt>
</event>
<event>
12    1  0.1489025E-007  0.2164708E+04  0.7818608E-02  0.8533263E-01
          1   -1    0    0  501    0  0.00000000000E+00  0.00000000000E+00  0.51508372037E+03  0.51508372037E+03  0.00000000000E+00 0. -1.
         -1   -1    0    0    0  501 -0.00000000000E+00 -0.00000000000E+00 -0.22743683549E+04  0.22743683549E+04  0.00000000000E+00 0.  1.
         23    2    1    2    0    0 -0.34081991964E+03  0.50511589169E+03 -0.15681399587E+04  0.16848954905E+04  0.92247504816E+02 0.  0.
        254    2    1    2    0    0  0.34081991964E+03 -0.50511589169E+03 -0.19114467577E+03  0.11045565847E+04  0.90122620918E+03 0.  0.
        -24    2    4    4    0    0  0.48774102011E+03  0.60383340492E+02 -0.79434153952E+02  0.50435408480E+03  0.80782470469E+02 0.  0.
         24    2    4    4    0    0 -0.14692110048E+03 -0.56549923218E+03 -0.11171052182E+03  0.60020249992E+03  0.79928773679E+02 0.  0.
         13    1    3    3    0    0 -0.31021031776E+03  0.42919481889E+03 -0.12765796043E+04  0.13820615471E+04  0.00000000000E+00 0.  1.
        -13    1    3    3    0    0 -0.30609601876E+02  0.75921072798E+02 -0.29156035443E+03  0.30283394343E+03  0.00000000000E+00 0. -1.
          2    1    6    6  502    0 -0.15669056390E+03 -0.51981631365E+03 -0.10552240485E+03  0.55307857550E+03  0.00000000000E+00 0. -1.
          1    1    5    5  503    0  0.32202808884E+03  0.27724395370E+02 -0.88794926877E+02  0.33519437814E+03  0.00000000000E+00 0. -1.
         -2    1    5    5    0  503  0.16571293127E+03  0.32658945122E+02  0.93607729251E+01  0.16915970666E+03  0.00000000000E+00 0.  1.
         -1    1    6    6    0  502  0.97694634223E+01 -0.45682918532E+02 -0.61881169682E+01  0.47123924420E+02  0.00000000000E+00 0.  1.
<mgrwt>
<rscale>  0 0.21647079E+04</rscale>
<asrwt>0</asrwt>
<pdfrwt beam="1">  1        1 0.79243649E-01 0.21647079E+04</pdfrwt>
<pdfrwt beam="2">  1       -1 0.34990282E+00 0.21647079E+04</pdfrwt>
<totfact> 0.60586019E-01</totfact>
</mgrwt>
</event>
<event>
12    1  0.1489025E-007  0.1895124E+04  0.7818608E-02  0.8657287E-01
          1   -1    0    0  501    0  0.00000000000E+00  0.00000000000E+00  0.14260371374E+04  0.14260371374E+04  0.00000000000E+00 0. -1.
         -1   -1    0    0    0  501 -0.00000000000E+00 -0.00000000000E+00 -0.62962870578E+03  0.62962870578E+03  0.00000000000E+00 0.  1.
         23    2    1    2    0    0  0.22472890430E+03  0.40358568188E+03 -0.29339925393E+03  0.55519801453E+03  0.93686872502E+02 0.  0.
        254    2    1    2    0    0 -0.22472890430E+03 -0.40358568188E+03  0.10898076855E+04  0.15004678286E+04  0.92213796705E+03 0.  0.
        -24    2    4    4    0    0 -0.10304663034E+03 -0.43126060502E+03  0.12215511153E+04  0.13020257400E+04  0.80495855869E+02 0.  0.
         24    2    4    4    0    0 -0.12168227397E+03  0.27674923133E+02 -0.13174342982E+03  0.19844208862E+03  0.80314718870E+02 0.  0.
         11    1    3    3    0    0  0.18655560144E+03  0.27001191506E+03 -0.17110407225E+03  0.37011623883E+03  0.00000000000E+00 0.  1.
        -11    1    3    3    0    0  0.38173302861E+02  0.13357376682E+03 -0.12229518167E+03  0.18508177569E+03  0.00000000000E+00 0. -1.
          4    1    6    6  502    0 -0.13241868995E+03  0.21440382560E+02 -0.11031694265E+03  0.17367851706E+03  0.00000000000E+00 0. -1.
          3    1    5    5  503    0 -0.23034111448E+02 -0.26401792585E+03  0.73911940956E+03  0.78519649582E+03  0.00000000000E+00 0. -1.
         -4    1    5    5    0  503 -0.80012518888E+02 -0.16724267917E+03  0.48243170576E+03  0.51682924417E+03  0.00000000000E+00 0.  1.
         -3    1    6    6    0  502  0.10736415979E+02  0.62345405735E+01 -0.21426487163E+02  0.24763571559E+02  0.00000000000E+00 0.  1.
<mgrwt>
<rscale>  0 0.18951242E+04</rscale>
<asrwt>0</asrwt>
<pdfrwt beam="1">  1        1 0.21939033E+00 0.18951242E+04</pdfrwt>
<pdfrwt beam="2">  1       -1 0.96865956E-01 0.18951242E+04</pdfrwt>
<totfact> 0.70656545E+00</totfact>
</mgrwt>
</event>
<event>
12    1  0.1489025E-007  0.2137599E+04  0.7818608E-02  0.8544859E-01
         -1   -1    0    0    0  501 -0.00000000000E+00  0.00000000000E+00  0.10247819346E+04  0.10247819346E+04  0.00000000000E+00 0.  1.
          1   -1    0    0  501    0  0.00000000000E+00 -0.00000000000E+00 -0.11147076950E+04  0.11147076950E+04  0.00000000000E+00 0. -1.
         23    2    1    2    0    0  0.14048575713E+03  0.17978866263E+02 -0.90623171300E+03  0.92162536442E+03  0.89877177898E+02 0.  0.
        254    2    1    2    0    0 -0.14048575713E+03 -0.17978866263E+02  0.81630595255E+03  0.12178642652E+04  0.89262448577E+03 0.  0.
        -24    2    4    4    0    0 -0.38512212363E+03  0.47206357034E+02  0.86121168962E+03  0.94800240207E+03  0.80470427833E+02 0.  0.
         24    2    4    4    0    0  0.24463636649E+03 -0.65185223297E+02 -0.44905737063E+02  0.26986186309E+03  0.81931891117E+02 0.  0.
         11    1    3    3    0    0  0.91889795120E+02  0.12104568442E+02 -0.79122406219E+03  0.79663402615E+03  0.00000000000E+00 0. -1.
        -11    1    3    3    0    0  0.48595962013E+02  0.58742978217E+01 -0.11500765080E+03  0.12499133827E+03  0.00000000000E+00 0.  1.
          4    1    6    6  502    0  0.20711344253E+03 -0.84731816448E+02 -0.36712469582E+02  0.22676698220E+03  0.00000000000E+00 0. -1.
          3    1    5    5  503    0 -0.31810611028E+03  0.80004744749E+01  0.70893593803E+03  0.77707507309E+03  0.00000000000E+00 0. -1.
         -4    1    5    5    0  503 -0.67016013347E+02  0.39205882559E+02  0.15227575159E+03  0.17092732898E+03  0.00000000000E+00 0.  1.
         -3    1    6    6    0  502  0.37522923968E+02  0.19546593151E+02 -0.81932674805E+01  0.43094880890E+02  0.00000000000E+00 0.  1.
<mgrwt>
<rscale>  0 0.21375989E+04</rscale>
<asrwt>0</asrwt>
<pdfrwt beam="1">  1        1 0.17149349E+00 0.21375989E+04</pdfrwt>
<pdfrwt beam="2">  1       -1 0.15765876E+00 0.21375989E+04</pdfrwt>
<totfact> 0.34500475E+00</totfact>
</mgrwt>
</event>
<event>
12    1  0.1489025E-007  0.1442431E+04  0.7818608E-02  0.8923665E-01
         -2   -1    0    0    0  501 -0.00000000000E+00  0.00000000000E+00  0.48837426863E+03  0.48837426863E+03  0.00000000000E+00 0.  1.
          2   -1    0    0  501    0  0.00000000000E+00 -0.00000000000E+00 -0.10650673155E+04  0.10650673155E+04  0.00000000000E+00 0. -1.
         23    2    1    2    0    0 -0.13677530692E+00  0.44064881535E+03 -0.23206083758E+03  0.50377311596E+03  0.75919186309E+02 0.  0.
        254    2    1    2    0    0  0.13677530692E+00 -0.44064881535E+03 -0.34463220933E+03  0.10496684682E+04  0.88817854977E+03 0.  0.
        -24    2    4    4    0    0 -0.17076218298E+03  0.21887086881E+03 -0.19375491155E+03  0.34722121775E+03  0.77184376381E+02 0.  0.
         24    2    4    4    0    0  0.17089895829E+03 -0.65951968416E+03 -0.15087729778E+03  0.70244725046E+03  0.80594745169E+02 0.  0.
         11    1    3    3    0    0  0.48329448574E+01  0.43122347937E+03 -0.21084973597E+03  0.48003610039E+03  0.00000000000E+00 0. -1.
        -11    1    3    3    0    0 -0.49697201644E+01  0.94253359726E+01 -0.21211101602E+02  0.23737015564E+02  0.00000000000E+00 0.  1.
          2    1    6    6  502    0  0.32532491614E+02 -0.20343323012E+03 -0.78025084778E+02  0.22029833405E+03  0.00000000000E+00 0. -1.
          1    1    5    5  503    0 -0.74623033105E+02  0.13561742632E+03 -0.70404998352E+02  0.17005160153E+03  0.00000000000E+00 0. -1.
         -2    1    5    5    0  503 -0.96139149874E+02  0.83253442496E+02 -0.12334991320E+03  0.17716961622E+03  0.00000000000E+00 0.  1.
         -1    1    6    6    0  502  0.13836646667E+03 -0.45608645404E+03 -0.72852213006E+02  0.48214891641E+03  0.00000000000E+00 0.  1.
<mgrwt>
<rscale>  0 0.14424305E+04</rscale>
<asrwt>0</asrwt>
<pdfrwt beam="1">  1        2 0.16385651E+00 0.14424305E+04</pdfrwt>
<pdfrwt beam="2">  1       -2 0.75134502E-01 0.14424305E+04</pdfrwt>
<totfact> 0.35353803E+01</totfact>
</mgrwt>
</event>
<event>
12    1  0.1489025E-007  0.1560662E+04  0.7818608E-02  0.8845086E-01
         -1   -1    0    0    0  501 -0.00000000000E+00  0.00000000000E+00  0.19080304650E+03  0.19080304650E+03  0.00000000000E+00 0.  1.
          1   -1    0    0  501    0  0.00000000000E+00 -0.00000000000E+00 -0.31913339526E+04  0.31913339526E+04  0.00000000000E+00 0. -1.
         23    2    1    2    0    0  0.10725063585E+03 -0.39129353835E+03 -0.18035471883E+04  0.18508546534E+04  0.90923900047E+02 0.  0.
        254    2    1    2    0    0 -0.10725063585E+03  0.39129353835E+03 -0.11969837178E+04  0.15312823457E+04  0.86454743623E+03 0.  0.
        -24    2    4    4    0    0 -0.42167927093E+03  0.43569069512E+03 -0.90907527573E+03  0.10953854928E+04  0.76234714177E+02 0.  0.
         24    2    4    4    0    0  0.31442863507E+03 -0.44397156776E+02 -0.28790844209E+03  0.43589685285E+03  0.79235858147E+02 0.  0.
         13    1    3    3    0    0  0.88518947141E+02 -0.37161756471E+03 -0.15734974507E+04  0.16192064246E+04  0.00000000000E+00 0. -1.
        -13    1    3    3    0    0  0.18731688713E+02 -0.19675973639E+02 -0.23004973762E+03  0.23164822874E+03  0.00000000000E+00 0.  1.
          2    1    6    6  502    0  0.19497089872E+03 -0.49718391438E+02 -0.22099480907E+03  0.29887167050E+03  0.00000000000E+00 0. -1.
          1    1    5    5  503    0 -0.92406221165E+02  0.69845372536E+02 -0.13279850673E+03  0.17621784576E+03  0.00000000000E+00 0. -1.
         -2    1    5    5    0  503 -0.32927304976E+03  0.36584532259E+03 -0.77627676900E+03  0.91916764708E+03  0.00000000000E+00 0.  1.
         -1    1    6    6    0  502  0.11945773636E+03  0.53212346618E+01 -0.66913633016E+02  0.13702518235E+03  0.00000000000E+00 0.  1.
<mgrwt>
<rscale>  0 0.15606617E+04</rscale>
<asrwt>0</asrwt>
<pdfrwt beam="1">  1        1 0.49097442E+00 0.15606617E+04</pdfrwt>
<pdfrwt beam="2">  1       -1 0.29354317E-01 0.15606617E+04</pdfrwt>
<totfact> 0.44346860E+00</totfact>
</mgrwt>
</event>
<event>
12    1  0.1489025E-007  0.1132178E+04  0.7818608E-02  0.9174385E-01
         -2   -1    0    0    0  501 -0.00000000000E+00  0.00000000000E+00  0.81286389228E+02  0.81286389228E+02  0.00000000000E+00 0.  1.
          2   -1    0    0  501    0  0.00000000000E+00 -0.00000000000E+00 -0.39423155564E+04  0.39423155564E+04  0.00000000000E+00 0. -1.
         23    2    1    2    0    0 -0.15536882825E+03  0.65194513434E+02 -0.13030730982E+04  0.13170715300E+04  0.91039103758E+02 0.  0.
        254    2    1    2    0    0  0.15536882825E+03 -0.65194513434E+02 -0.25579560689E+04  0.27065304156E+04  0.86820380254E+03 0.  0.
        -24    2    4    4    0    0 -0.83850387143E+02  0.36319721823E+03 -0.12813360370E+04  0.13368043899E+04  0.79251690424E+02 0.  0.
         24    2    4    4    0    0  0.23921921539E+03 -0.42839173167E+03 -0.12766200319E+04  0.13697260257E+04  0.75135682536E+02 0.  0.
         11    1    3    3    0    0 -0.60879495761E+02 -0.70588680108E+01 -0.25460022452E+03  0.26187289845E+03  0.00000000000E+00 0.  1.
        -11    1    3    3    0    0 -0.94489332487E+02  0.72253381445E+02 -0.10484728737E+04  0.10551986316E+04  0.00000000000E+00 0. -1.
          2    1    6    6  502    0  0.23748638282E+03 -0.38670602318E+03 -0.11450094350E+04  0.12316606419E+04  0.00000000000E+00 0. -1.
          3    1    5    5  503    0 -0.37681326048E+02  0.30048749819E+03 -0.10422627257E+04  0.10853682362E+04  0.00000000000E+00 0. -1.
         -4    1    5    5    0  503 -0.46169061095E+02  0.62709720040E+02 -0.23907331133E+03  0.25143615368E+03  0.00000000000E+00 0.  1.
         -1    1    6    6    0  502  0.17328325704E+01 -0.41685708490E+02 -0.13161059686E+03  0.13806538381E+03  0.00000000000E+00 0.  1.
<mgrwt>
<rscale>  0 0.11321777E+04</rscale>
<asrwt>0</asrwt>
<pdfrwt beam="1">  1        2 0.60651013E+00 0.11321777E+04</pdfrwt>
<pdfrwt beam="2">  1       -2 0.12505597E-01 0.11321777E+04</pdfrwt>
<totfact> 0.18767896E+01</totfact>
</mgrwt>
</event>
<event>
12    1  0.1489025E-007  0.1454849E+04  0.7818608E-02  0.8915045E-01
         -1   -1    0    0    0  501 -0.00000000000E+00  0.00000000000E+00  0.23976562770E+03  0.23976562770E+03  0.00000000000E+00 0.  1.
          1   -1    0    0  501    0  0.00000000000E+00 -0.00000000000E+00 -0.22069332291E+04  0.22069332291E+04  0.00000000000E+00 0. -1.
         23    2    1    2    0    0  0.16858513170E+03  0.32077519920E+03 -0.18017270187E+03  0.41487464245E+03  0.91329575696E+02 0.  0.
        254    2    1    2    0    0 -0.16858513170E+03 -0.32077519920E+03 -0.17869948996E+04  0.20318242144E+04  0.89646036836E+03 0.  0.
        -24    2    4    4    0    0  0.80057962002E+02 -0.58982397988E+02  0.64906333433E+02  0.14335398910E+03  0.80307742587E+02 0.  0.
         24    2    4    4    0    0 -0.24864309370E+03 -0.26179280121E+03 -0.18519012330E+04  0.18884702253E+04  0.80142099965E+02 0.  0.
         13    1    3    3    0    0  0.89868705137E+02  0.17521450501E+03 -0.46966689905E+02  0.20244104546E+03  0.00000000000E+00 0.  1.
        -13    1    3    3    0    0  0.78716426566E+02  0.14556069419E+03 -0.13320601197E+03  0.21243359699E+03  0.00000000000E+00 0. -1.
          4    1    6    6  502    0 -0.18265777094E+03 -0.21811239930E+03 -0.12881306750E+04  0.13191730424E+04  0.00000000000E+00 0. -1.
          3    1    5    5  503    0  0.24361300610E+02  0.60958655006E+01  0.50628177339E+02  0.56514112258E+02  0.00000000000E+00 0. -1.
         -4    1    5    5    0  503  0.55696661392E+02 -0.65078263489E+02  0.14278156094E+02  0.86839876845E+02  0.00000000000E+00 0.  1.
         -3    1    6    6    0  502 -0.65985322760E+02 -0.43680401912E+02 -0.56377055804E+03  0.56929718289E+03  0.00000000000E+00 0.  1.
<mgrwt>
<rscale>  0 0.14548495E+04</rscale>
<asrwt>0</asrwt>
<pdfrwt beam="1">  1        1 0.33952817E+00 0.14548495E+04</pdfrwt>
<pdfrwt beam="2">  1       -1 0.36887022E-01 0.14548495E+04</pdfrwt>
<totfact> 0.14790840E+01</totfact>
</mgrwt>
</event>
<event>
12    1  0.1489025E-007  0.1284741E+04  0.7818608E-02  0.9041754E-01
          1   -1    0    0  501    0  0.00000000000E+00  0.00000000000E+00  0.20988577720E+04  0.20988577720E+04  0.00000000000E+00 0. -1.
         -1   -1    0    0    0  501 -0.00000000000E+00 -0.00000000000E+00 -0.19660211425E+03  0.19660211425E+03  0.00000000000E+00 0.  1.
         23    2    1    2    0    0 -0.69390776329E+02 -0.10757903386E+03 -0.36103670376E+02  0.15860096781E+03  0.86385552091E+02 0.  0.
        254    2    1    2    0    0  0.69390776329E+02  0.10757903386E+03  0.19383593281E+04  0.21368589184E+04  0.89024761947E+03 0.  0.
        -24    2    4    4    0    0  0.21429079515E+01  0.31224900739E+03  0.19432210057E+03  0.37774912372E+03  0.86193311993E+02 0.  0.
         24    2    4    4    0    0  0.67247868378E+02 -0.20466997353E+03  0.17440372276E+04  0.17591097947E+04  0.79933377614E+02 0.  0.
         11    1    3    3    0    0  0.11121936969E+02 -0.28919858523E+02 -0.34029905208E+02  0.46022713386E+02  0.00000000000E+00 0.  1.
        -11    1    3    3    0    0 -0.80512713298E+02 -0.78659175340E+02 -0.20737651684E+01  0.11257825443E+03  0.00000000000E+00 0. -1.
          4    1    6    6  502    0  0.26992855279E+02 -0.18102745242E+03  0.14070365941E+04  0.14188909507E+04  0.00000000000E+00 0. -1.
          1    1    5    5  503    0  0.22594251043E+02  0.29639857075E+03  0.18560703265E+03  0.35044626334E+03  0.00000000000E+00 0. -1.
         -2    1    5    5    0  503 -0.20451343091E+02  0.15850436637E+02  0.87150679189E+01  0.27302860375E+02  0.00000000000E+00 0.  1.
         -3    1    6    6    0  502  0.40255013098E+02 -0.23642521108E+02  0.33700063349E+03  0.34021884407E+03  0.00000000000E+00 0.  1.
<mgrwt>
<rscale>  0 0.12847410E+04</rscale>
<asrwt>0</asrwt>
<pdfrwt beam="1">  1        1 0.32290118E+00 0.12847410E+04</pdfrwt>
<pdfrwt beam="2">  1       -1 0.30246481E-01 0.12847410E+04</pdfrwt>
<totfact> 0.25306077E+01</totfact>
</mgrwt>
</event>
<event>
12    1  0.1489025E-007  0.1517341E+04  0.7818608E-02  0.8873003E-01
          1   -1    0    0  501    0  0.00000000000E+00  0.00000000000E+00  0.11015529312E+04  0.11015529312E+04  0.00000000000E+00 0. -1.
         -1   -1    0    0    0  501 -0.00000000000E+00 -0.00000000000E+00 -0.52251769386E+03  0.52251769386E+03  0.00000000000E+00 0.  1.
         23    2    1    2    0    0 -0.24309562595E+03  0.33460204723E+03  0.46117232032E+03  0.62611813967E+03  0.91049450447E+02 0.  0.
        254    2    1    2    0    0  0.24309562595E+03 -0.33460204723E+03  0.11786291707E+03  0.99795248544E+03  0.90053510904E+03 0.  0.
        -24    2    4    4    0    0 -0.33426096768E+03 -0.78933252120E+02  0.70618920433E+02  0.36021678101E+03  0.82512087534E+02 0.  0.
         24    2    4    4    0    0  0.57735659364E+03 -0.25566879511E+03  0.47243996637E+02  0.63773570443E+03  0.75945141254E+02 0.  0.
         11    1    3    3    0    0 -0.15009990413E+03  0.19208396602E+03  0.33482702172E+03  0.41416828185E+03  0.00000000000E+00 0.  1.
        -11    1    3    3    0    0 -0.92995721822E+02  0.14251808121E+03  0.12634529860E+03  0.21194985782E+03  0.00000000000E+00 0. -1.
          4    1    6    6  502    0  0.11089582947E+03 -0.82309549498E+02  0.17584997103E+02  0.13921917632E+03  0.00000000000E+00 0. -1.
          3    1    5    5  503    0 -0.32369086455E+03 -0.58479622385E+02  0.73414573935E+02  0.33702424497E+03  0.00000000000E+00 0. -1.
         -4    1    5    5    0  503 -0.10570103132E+02 -0.20453629735E+02 -0.27956535015E+01  0.23192536042E+02  0.00000000000E+00 0.  1.
         -3    1    6    6    0  502  0.46646076416E+03 -0.17335924561E+03  0.29658999534E+02  0.49851652811E+03  0.00000000000E+00 0.  1.
<mgrwt>
<rscale>  0 0.15173410E+04</rscale>
<asrwt>0</asrwt>
<pdfrwt beam="1">  1        1 0.16946968E+00 0.15173410E+04</pdfrwt>
<pdfrwt beam="2">  1       -1 0.80387338E-01 0.15173410E+04</pdfrwt>
<totfact> 0.18861057E+01</totfact>
</mgrwt>
</event>
<event>
12    1  0.1489025E-007  0.1551262E+04  0.7818608E-02  0.8851062E-01
         -1   -1    0    0    0  501 -0.00000000000E+00  0.00000000000E+00  0.29173750291E+03  0.29173750291E+03  0.00000000000E+00 0.  1.
          1   -1    0    0  501    0  0.00000000000E+00 -0.00000000000E+00 -0.20621397063E+04  0.20621397063E+04  0.00000000000E+00 0. -1.
         23    2    1    2    0    0  0.32542318380E+02 -0.32847553517E+03 -0.10176281901E+04  0.10737966602E+04  0.92287347425E+02 0.  0.
        254    2    1    2    0    0 -0.32542318380E+02  0.32847553517E+03 -0.75277401329E+03  0.12800805490E+04  0.98131662431E+03 0.  0.
        -24    2    4    4    0    0 -0.36435562531E+03  0.19114165907E+03  0.25372121574E+02  0.41939261951E+03  0.77176869726E+02 0.  0.
         24    2    4    4    0    0  0.33181330693E+03  0.13733387610E+03 -0.77814613486E+03  0.86068792949E+03  0.79445834298E+02 0.  0.
         13    1    3    3    0    0  0.15295207052E+02 -0.22246324077E+03 -0.80866620944E+03  0.83884734913E+03  0.00000000000E+00 0. -1.
        -13    1    3    3    0    0  0.17247111328E+02 -0.10601229440E+03 -0.20896198063E+03  0.23494931105E+03  0.00000000000E+00 0.  1.
          2    1    6    6  502    0  0.20305963507E+03  0.42255482515E+02 -0.42105328296E+03  0.46936617718E+03  0.00000000000E+00 0. -1.
          3    1    5    5  503    0 -0.21233768385E+03  0.74228640756E+02  0.33632415072E+02  0.22743861246E+03  0.00000000000E+00 0. -1.
         -4    1    5    5    0  503 -0.15201794145E+03  0.11691301831E+03 -0.82602934977E+01  0.19195400705E+03  0.00000000000E+00 0.  1.
         -1    1    6    6    0  502  0.12875367186E+03  0.95078393587E+02 -0.35709285190E+03  0.39132175230E+03  0.00000000000E+00 0.  1.
<mgrwt>
<rscale>  0 0.15512621E+04</rscale>
<asrwt>0</asrwt>
<pdfrwt beam="1">  1        1 0.31725224E+00 0.15512621E+04</pdfrwt>
<pdfrwt beam="2">  1       -1 0.44882696E-01 0.15512621E+04</pdfrwt>
<totfact> 0.12828439E+01</totfact>
</mgrwt>
</event>
<event>
12    1  0.1489025E-007  0.1919734E+04  0.7818608E-02  0.8645095E-01
         -1   -1    0    0    0  501 -0.00000000000E+00  0.00000000000E+00  0.77149013301E+03  0.77149013301E+03  0.00000000000E+00 0.  1.
          1   -1    0    0  501    0  0.00000000000E+00 -0.00000000000E+00 -0.11942402114E+04  0.11942402114E+04  0.00000000000E+00 0. -1.
         23    2    1    2    0    0 -0.28876661500E+03 -0.69949542951E+03 -0.10449805197E+03  0.76976799730E+03  0.94566976004E+02 0.  0.
        254    2    1    2    0    0  0.28876661500E+03  0.69949542951E+03 -0.31825202644E+03  0.11959623471E+04  0.86969050219E+03 0.  0.
        -24    2    4    4    0    0  0.38676465957E+03 -0.38806401626E+02 -0.17473231462E+03  0.43312876998E+03  0.77306603274E+02 0.  0.
         24    2    4    4    0    0 -0.97998044565E+02  0.73830183113E+03 -0.14351971182E+03  0.76283357716E+03  0.81387641413E+02 0.  0.
         13    1    3    3    0    0 -0.18146828855E+03 -0.39946363380E+03 -0.10494503414E+03  0.45112680554E+03  0.00000000000E+00 0. -1.
        -13    1    3    3    0    0 -0.10729832645E+03 -0.30003179571E+03  0.44698216866E+00  0.31864119176E+03  0.00000000000E+00 0.  1.
          2    1    6    6  502    0 -0.53220951357E+02  0.20955927988E+03 -0.14258647411E+02  0.21668149545E+03  0.00000000000E+00 0. -1.
          1    1    5    5  503    0  0.38884919999E+03 -0.35367317050E+02 -0.16752515074E+03  0.42487553893E+03  0.00000000000E+00 0. -1.
         -2    1    5    5    0  503 -0.20845404248E+01 -0.34390845762E+01 -0.72071638787E+01  0.82532310448E+01  0.00000000000E+00 0.  1.
         -1    1    6    6    0  502 -0.44777093208E+02  0.52874255126E+03 -0.12926106440E+03  0.54615208171E+03  0.00000000000E+00 0.  1.
<mgrwt>
<rscale>  0 0.19197339E+04</rscale>
<asrwt>0</asrwt>
<pdfrwt beam="1">  1        1 0.18372926E+00 0.19197339E+04</pdfrwt>
<pdfrwt beam="2">  1       -1 0.11869079E+00 0.19197339E+04</pdfrwt>
<totfact> 0.64099034E+00</totfact>
</mgrwt>
</event>
<event>
12    1  0.1489025E-007  0.2334691E+04  0.7818608E-02  0.8464367E-01
         -2   -1    0    0    0  501 -0.00000000000E+00  0.00000000000E+00  0.72197027992E+03  0.72197027992E+03  0.00000000000E+00 0. -1.
          2   -1    0    0  501    0  0.00000000000E+00 -0.00000000000E+00 -0.18874682729E+04  0.18874682729E+04  0.00000000000E+00 0.  1.
         23    2    1    2    0    0 -0.88534212047E+03 -0.12993141143E+03 -0.18527044400E+02  0.90256011131E+03  0.11644166431E+03 0.  0.
        254    2    1    2    0    0  0.88534212047E+03  0.12993141143E+03 -0.11469709486E+04  0.17068784415E+04  0.89284870793E+03 0.  0.
        -24    2    4    4    0    0  0.52506704927E+03 -0.33374639947E+03 -0.81182457100E+03  0.10259606401E+04  0.80337012835E+02 0.  0.
         24    2    4    4    0    0  0.36027507120E+03  0.46367781090E+03 -0.33514637755E+03  0.68091780136E+03  0.80812861426E+02 0.  0.
         11    1    3    3    0    0 -0.70700376803E+02 -0.43612019892E+02 -0.55578808178E+01  0.83255279703E+02  0.00000000000E+00 0.  1.
        -11    1    3    3    0    0 -0.81464174367E+03 -0.86319391542E+02 -0.12969163583E+02  0.81930483160E+03  0.00000000000E+00 0. -1.
          4    1    6    6  502    0  0.21099755556E+03  0.23055589345E+03 -0.21382847412E+03  0.37868008240E+03  0.00000000000E+00 0. -1.
          1    1    5    5  503    0  0.25981045790E+03 -0.21237172672E+03 -0.42759254068E+03  0.54354264340E+03  0.00000000000E+00 0. -1.
         -2    1    5    5    0  503  0.26525659137E+03 -0.12137467275E+03 -0.38423203032E+03  0.48241799673E+03  0.00000000000E+00 0.  1.
         -3    1    6    6    0  502  0.14927751564E+03  0.23312191746E+03 -0.12131790343E+03  0.30223771896E+03  0.00000000000E+00 0.  1.
<mgrwt>
<rscale>  0 0.23346914E+04</rscale>
<asrwt>0</asrwt>
<pdfrwt beam="1">  1        2 0.29037973E+00 0.23346914E+04</pdfrwt>
<pdfrwt beam="2">  1       -2 0.11107235E+00 0.23346914E+04</pdfrwt>
<totfact> 0.44766258E+00</totfact>
</mgrwt>
</event>
<event>
12    1  0.1489025E-007  0.1252638E+04  0.7818608E-02  0.9067991E-01
         -3   -1    0    0    0  501 -0.00000000000E+00  0.00000000000E+00  0.11402155170E+04  0.11402155170E+04  0.00000000000E+00 0.  1.
          3   -1    0    0  501    0  0.00000000000E+00 -0.00000000000E+00 -0.34403618850E+03  0.34403618850E+03  0.00000000000E+00 0. -1.
         23    2    1    2    0    0 -0.25684327543E+03 -0.12632311159E+03  0.25563907366E+03  0.39470126588E+03  0.92259181923E+02 0.  0.
        254    2    1    2    0    0  0.25684327543E+03  0.12632311159E+03  0.54054025480E+03  0.10895504396E+04  0.90167089157E+03 0.  0.
        -24    2    4    4    0    0 -0.76394758617E+02 -0.33941340475E+03  0.12591335523E+03  0.37807320728E+03  0.77766050250E+02 0.  0.
         24    2    4    4    0    0  0.33323803405E+03  0.46573651634E+03  0.41462689957E+03  0.71147723231E+03  0.79538017705E+02 0.  0.
         13    1    3    3    0    0 -0.94532498174E+02 -0.48729122506E+02  0.39415944303E+02  0.11342194345E+03  0.00000000000E+00 0. -1.
        -13    1    3    3    0    0 -0.16231077725E+03 -0.77593989080E+02  0.21622312936E+03  0.28127932243E+03  0.00000000000E+00 0.  1.
          4    1    6    6  502    0  0.20730525242E+03  0.34514562950E+03  0.26797625773E+03  0.48364475388E+03  0.00000000000E+00 0. -1.
          1    1    5    5  503    0 -0.17879309290E+02 -0.19762865309E+03  0.10105941832E+03  0.22268758442E+03  0.00000000000E+00 0. -1.
         -2    1    5    5    0  503 -0.58515449327E+02 -0.14178475166E+03  0.24853936914E+02  0.15538562286E+03  0.00000000000E+00 0.  1.
         -3    1    6    6    0  502  0.12593278163E+03  0.12059088683E+03  0.14665064184E+03  0.22783247843E+03  0.00000000000E+00 0.  1.
<mgrwt>
<rscale>  0 0.12526379E+04</rscale>
<asrwt>0</asrwt>
<pdfrwt beam="1">  1        3 0.52928645E-01 0.12526379E+04</pdfrwt>
<pdfrwt beam="2">  1       -3 0.17541777E+00 0.12526379E+04</pdfrwt>
<totfact> 0.19312203E+00</totfact>
</mgrwt>
</event>
<event>
12    1  0.1489025E-007  0.2207618E+04  0.7818608E-02  0.8515264E-01
          1   -1    0    0  501    0  0.00000000000E+00  0.00000000000E+00  0.45183764976E+03  0.45183764976E+03  0.00000000000E+00 0. -1.
         -1   -1    0    0    0  501 -0.00000000000E+00 -0.00000000000E+00 -0.26965302197E+04  0.26965302197E+04  0.00000000000E+00 0.  1.
         23    2    1    2    0    0  0.22991223586E+03 -0.19204952344E+03 -0.21826649587E+04  0.22050153711E+04  0.91234913082E+02 0.  0.
        254    2    1    2    0    0 -0.22991223586E+03  0.19204952344E+03 -0.62027611281E+02  0.94335249837E+03  0.89236979777E+03 0.  0.
        -24    2    4    4    0    0 -0.30490438292E+03 -0.12865577247E+03 -0.35721248269E+03  0.49388213252E+03  0.82460975743E+02 0.  0.
         24    2    4    4    0    0  0.74992147068E+02  0.32070529591E+03  0.29518487141E+03  0.44947036585E+03  0.80086156870E+02 0.  0.
         11    1    3    3    0    0  0.18832753345E+03 -0.15007852040E+03 -0.19563377204E+04  0.19711032694E+04  0.00000000000E+00 0.  1.
        -11    1    3    3    0    0  0.41584702404E+02 -0.41971003041E+02 -0.22632723824E+03  0.23391210174E+03  0.00000000000E+00 0. -1.
          2    1    6    6  502    0  0.76532043268E+01  0.10933988973E+03  0.55407459317E+02  0.12281599883E+03  0.00000000000E+00 0. -1.
          3    1    5    5  503    0 -0.20639338729E+03 -0.12509455684E+03 -0.27141358020E+03  0.36319720536E+03  0.00000000000E+00 0. -1.
         -4    1    5    5    0  503 -0.98510995637E+02 -0.35612156263E+01 -0.85798902491E+02  0.13068492716E+03  0.00000000000E+00 0.  1.
         -1    1    6    6    0  502  0.67338942741E+02  0.21136540618E+03  0.23977741209E+03  0.32665436701E+03  0.00000000000E+00 0.  1.
<mgrwt>
<rscale>  0 0.22076176E+04</rscale>
<asrwt>0</asrwt>
<pdfrwt beam="1">  1        1 0.69513484E-01 0.22076176E+04</pdfrwt>
<pdfrwt beam="2">  1       -1 0.41485081E+00 0.22076176E+04</pdfrwt>
<totfact> 0.26267260E-01</totfact>
</mgrwt>
</event>
<event>
12    1  0.1489025E-007  0.1412243E+04  0.7818608E-02  0.8945004E-01
         -1   -1    0    0    0  501 -0.00000000000E+00  0.00000000000E+00  0.25777692721E+03  0.25777692721E+03  0.00000000000E+00 0.  1.
          1   -1    0    0  501    0  0.00000000000E+00 -0.00000000000E+00 -0.19342607467E+04  0.19342607467E+04  0.00000000000E+00 0. -1.
         23    2    1    2    0    0  0.38482725505E+03 -0.10817949129E+03 -0.66918011028E+03  0.78543875341E+03  0.96525627664E+02 0.  0.
        254    2    1    2    0    0 -0.38482725505E+03  0.10817949129E+03 -0.10073037093E+04  0.14065989205E+04  0.89669668341E+03 0.  0.
        -24    2    4    4    0    0  0.20184797828E+03 -0.18873173841E+03 -0.47708310265E+03  0.55726841404E+03  0.81101929930E+02 0.  0.
         24    2    4    4    0    0 -0.58667523334E+03  0.29691122970E+03 -0.53022060661E+03  0.84933050651E+03  0.88793636499E+02 0.  0.
         11    1    3    3    0    0  0.16797832837E+03 -0.61222204093E+02 -0.21245264019E+03  0.27767067076E+03  0.00000000000E+00 0.  1.
        -11    1    3    3    0    0  0.21684892669E+03 -0.46957287200E+02 -0.45672747009E+03  0.50776808265E+03  0.00000000000E+00 0. -1.
          4    1    6    6  502    0 -0.16619495155E+03  0.52482968914E+02 -0.17564415380E+03  0.24743906869E+03  0.00000000000E+00 0. -1.
          3    1    5    5  503    0  0.47570805919E+02 -0.12634549483E+02 -0.12611486052E+03  0.13537936128E+03  0.00000000000E+00 0. -1.
         -4    1    5    5    0  503  0.15427717236E+03 -0.17609718892E+03 -0.35096824213E+03  0.42188905277E+03  0.00000000000E+00 0.  1.
         -3    1    6    6    0  502 -0.42048028178E+03  0.24442826079E+03 -0.35457645281E+03  0.60189143782E+03  0.00000000000E+00 0.  1.
<mgrwt>
<rscale>  0 0.14122433E+04</rscale>
<asrwt>0</asrwt>
<pdfrwt beam="1">  1        1 0.29757858E+00 0.14122433E+04</pdfrwt>
<pdfrwt beam="2">  1       -1 0.39657989E-01 0.14122433E+04</pdfrwt>
<totfact> 0.19918640E+01</totfact>
</mgrwt>
</event>
<event>
12    1  0.1489025E-007  0.1880363E+04  0.7818608E-02  0.8664693E-01
         -2   -1    0    0    0  501 -0.00000000000E+00  0.00000000000E+00  0.27710091537E+03  0.27710091537E+03  0.00000000000E+00 0.  1.
          2   -1    0    0  501    0  0.00000000000E+00 -0.00000000000E+00 -0.31899631744E+04  0.31899631744E+04  0.00000000000E+00 0. -1.
         23    2    1    2    0    0  0.39279953320E+03  0.57888101947E+03 -0.14065480986E+04  0.15734722578E+04  0.89681015654E+02 0.  0.
        254    2    1    2    0    0 -0.39279953320E+03 -0.57888101947E+03 -0.15063141605E+04  0.18935918320E+04  0.90956746207E+03 0.  0.
        -24    2    4    4    0    0  0.14901748870E+03 -0.57483581772E+03 -0.76689775033E+03  0.97331059226E+03  0.80987161166E+02 0.  0.
         24    2    4    4    0    0 -0.54181702190E+03 -0.40452017566E+01 -0.73941641016E+03  0.92028123972E+03  0.81233513323E+02 0.  0.
         11    1    3    3    0    0  0.32900493792E+03  0.43605247578E+03 -0.10341052120E+04  0.11695125482E+04  0.00000000000E+00 0. -1.
        -11    1    3    3    0    0  0.63794595284E+02  0.14282854370E+03 -0.37244288656E+03  0.40395970966E+03  0.00000000000E+00 0.  1.
          4    1    6    6  502    0 -0.41850004871E+03 -0.31578077385E+02 -0.59884690436E+03  0.73127086678E+03  0.00000000000E+00 0. -1.
          3    1    5    5  503    0  0.56736460434E+02 -0.11150823882E+03 -0.13124308164E+03  0.18132252962E+03  0.00000000000E+00 0. -1.
         -4    1    5    5    0  503  0.92281028266E+02 -0.46332757889E+03 -0.63565466869E+03  0.79198806264E+03  0.00000000000E+00 0.  1.
         -3    1    6    6    0  502 -0.12331697319E+03  0.27532875628E+02 -0.14056950580E+03  0.18901037294E+03  0.00000000000E+00 0.  1.
<mgrwt>
<rscale>  0 0.18803635E+04</rscale>
<asrwt>0</asrwt>
<pdfrwt beam="1">  1        2 0.49076354E+00 0.18803635E+04</pdfrwt>
<pdfrwt beam="2">  1       -2 0.42630912E-01 0.18803635E+04</pdfrwt>
<totfact> 0.64703304E+00</totfact>
</mgrwt>
</event>
<event>
12    1  0.1489025E-007  0.1426338E+04  0.7818608E-02  0.8934971E-01
         -1   -1    0    0    0  501 -0.00000000000E+00  0.00000000000E+00  0.70478870754E+03  0.70478870754E+03  0.00000000000E+00 0.  1.
          1   -1    0    0  501    0  0.00000000000E+00 -0.00000000000E+00 -0.72164915276E+03  0.72164915276E+03  0.00000000000E+00 0. -1.
         23    2    1    2    0    0  0.30307715289E+03  0.30343107394E+03 -0.70721763458E+01  0.43881103317E+03  0.92622513017E+02 0.  0.
        254    2    1    2    0    0 -0.30307715289E+03 -0.30343107394E+03 -0.97882688752E+01  0.98762682714E+03  0.88959809028E+03 0.  0.
        -24    2    4    4    0    0 -0.39100098455E+03 -0.53315201299E+03  0.15168168207E+03  0.68309942220E+03  0.80527318803E+02 0.  0.
         24    2    4    4    0    0  0.87923831653E+02  0.22972093905E+03 -0.16146995094E+03  0.30452740493E+03  0.78498950869E+02 0.  0.
         13    1    3    3    0    0  0.43336794263E+02  0.62943490477E+02 -0.34350737849E+02  0.83785045928E+02  0.00000000000E+00 0. -1.
        -13    1    3    3    0    0  0.25974035863E+03  0.24048758346E+03  0.27278561503E+02  0.35502598724E+03  0.00000000000E+00 0.  1.
          2    1    6    6  502    0 -0.12992117631E+02  0.11540908819E+02 -0.15535635433E+02  0.23309733272E+02  0.00000000000E+00 0. -1.
          1    1    5    5  503    0 -0.20483321022E+03 -0.34326413717E+03  0.79648108234E+02  0.40759137996E+03  0.00000000000E+00 0. -1.
         -2    1    5    5    0  503 -0.18616777433E+03 -0.18988787582E+03  0.72033573834E+02  0.27550804225E+03  0.00000000000E+00 0.  1.
         -3    1    6    6    0  502  0.10091594928E+03  0.21818003023E+03 -0.14593431551E+03  0.28121767166E+03  0.00000000000E+00 0.  1.
<mgrwt>
<rscale>  0 0.14263382E+04</rscale>
<asrwt>0</asrwt>
<pdfrwt beam="1">  1        1 0.11102295E+00 0.14263382E+04</pdfrwt>
<pdfrwt beam="2">  1       -1 0.10842903E+00 0.14263382E+04</pdfrwt>
<totfact> 0.19985148E+01</totfact>
</mgrwt>
</event>
<event>
12    1  0.1489025E-007  0.1589817E+04  0.7818608E-02  0.8826828E-01
          2   -1    0    0  501    0  0.00000000000E+00  0.00000000000E+00  0.14088056195E+04  0.14088056195E+04  0.00000000000E+00 0. -1.
         -2   -1    0    0    0  501 -0.00000000000E+00 -0.00000000000E+00 -0.44852141886E+03  0.44852141886E+03  0.00000000000E+00 0.  1.
         23    2    1    2    0    0  0.36587243793E+03  0.33315064784E+03  0.47873570812E+03  0.69442338339E+03  0.90465253959E+02 0.  0.
        254    2    1    2    0    0 -0.36587243793E+03 -0.33315064784E+03  0.48154849248E+03  0.11629036549E+04  0.93573712391E+03 0.  0.
        -24    2    4    4    0    0 -0.54836844716E+03 -0.45358619701E+03  0.10984352401E+03  0.72421828197E+03  0.77318356289E+02 0.  0.
         24    2    4    4    0    0  0.18249600923E+03  0.12043554917E+03  0.37170496846E+03  0.43868537296E+03  0.80441021762E+02 0.  0.
         11    1    3    3    0    0  0.15646916960E+03  0.11959562050E+03  0.13493586986E+03  0.23873291029E+03  0.00000000000E+00 0.  1.
        -11    1    3    3    0    0  0.20940326833E+03  0.21355502734E+03  0.34379983826E+03  0.45569047310E+03  0.00000000000E+00 0. -1.
          2    1    6    6  502    0  0.28793590369E+02  0.59912170319E+02  0.12866858112E+03  0.14482452405E+03  0.00000000000E+00 0. -1.
          3    1    5    5  503    0 -0.72829536307E+02 -0.45873811328E+02 -0.93759486405E+01  0.86582078615E+02  0.00000000000E+00 0. -1.
         -4    1    5    5    0  503 -0.47553891085E+03 -0.40771238568E+03  0.11921947265E+03  0.63763620336E+03  0.00000000000E+00 0.  1.
         -1    1    6    6    0  502  0.15370241886E+03  0.60523378852E+02  0.24303638734E+03  0.29386084891E+03  0.00000000000E+00 0.  1.
<mgrwt>
<rscale>  0 0.15898170E+04</rscale>
<asrwt>0</asrwt>
<pdfrwt beam="1">  1        2 0.21673932E+00 0.15898170E+04</pdfrwt>
<pdfrwt beam="2">  1       -2 0.69003296E-01 0.15898170E+04</pdfrwt>
<totfact> 0.26327607E+01</totfact>
</mgrwt>
</event>
<event>
12    1  0.1489025E-007  0.1854323E+04  0.7818608E-02  0.8677933E-01
         -1   -1    0    0    0  501 -0.00000000000E+00  0.00000000000E+00  0.85814344729E+03  0.85814344729E+03  0.00000000000E+00 0.  1.
          1   -1    0    0  501    0  0.00000000000E+00 -0.00000000000E+00 -0.10017300856E+04  0.10017300856E+04  0.00000000000E+00 0. -1.
         23    2    1    2    0    0  0.21448247485E+03 -0.35541694140E+03  0.51821364136E+03  0.67017366623E+03  0.90903413398E+02 0.  0.
        254    2    1    2    0    0 -0.21448247485E+03  0.35541694140E+03 -0.66180027964E+03  0.11896998666E+04  0.89726374509E+03 0.  0.
        -24    2    4    4    0    0 -0.31702584464E+03  0.21800399139E+03  0.99019065686E+02  0.40547500876E+03  0.81080706265E+02 0.  0.
         24    2    4    4    0    0  0.10254336979E+03  0.13741295000E+03 -0.76081934533E+03  0.78422485786E+03  0.82250166843E+02 0.  0.
         13    1    3    3    0    0  0.47455810266E+02 -0.34548382600E+02  0.42136895095E+02  0.72257612724E+02  0.00000000000E+00 0. -1.
        -13    1    3    3    0    0  0.16702666458E+03 -0.32086855880E+03  0.47607674627E+03  0.59791605351E+03  0.00000000000E+00 0.  1.
          4    1    6    6  502    0  0.95993434673E+02  0.14794749665E+03 -0.73002826535E+03  0.75102894050E+03  0.00000000000E+00 0. -1.
          1    1    5    5  503    0 -0.28967470514E+03  0.19989137121E+03  0.64419099833E+02  0.35779577346E+03  0.00000000000E+00 0. -1.
         -2    1    5    5    0  503 -0.27351139493E+02  0.18112620182E+02  0.34599965853E+02  0.47679235296E+02  0.00000000000E+00 0.  1.
         -3    1    6    6    0  502  0.65499351158E+01 -0.10534546643E+02 -0.30791079976E+02  0.33195917355E+02  0.00000000000E+00 0.  1.
<mgrwt>
<rscale>  0 0.18543226E+04</rscale>
<asrwt>0</asrwt>
<pdfrwt beam="1">  1        1 0.15411232E+00 0.18543226E+04</pdfrwt>
<pdfrwt beam="2">  1       -1 0.13202207E+00 0.18543226E+04</pdfrwt>
<totfact> 0.69100371E+00</totfact>
</mgrwt>
</event>
<event>
12    1  0.1489025E-007  0.1185153E+04  0.7818608E-02  0.9125952E-01
         -1   -1    0    0    0  501 -0.00000000000E+00  0.00000000000E+00  0.16578514601E+04  0.16578514601E+04  0.00000000000E+00 0.  1.
          1   -1    0    0  501    0  0.00000000000E+00 -0.00000000000E+00 -0.21180843151E+03  0.21180843151E+03  0.00000000000E+00 0. -1.
         23    2    1    2    0    0  0.70063459203E+02  0.13184795956E+03  0.22338819506E+02  0.17738351364E+03  0.93129561900E+02 0.  0.
        254    2    1    2    0    0 -0.70063459203E+02 -0.13184795956E+03  0.14237042090E+04  0.16922763779E+04  0.90253691986E+03 0.  0.
        -24    2    4    4    0    0 -0.14393666043E+03 -0.30272832199E+03  0.10810051883E+03  0.36116053381E+03  0.79931282123E+02 0.  0.
         24    2    4    4    0    0  0.73873201231E+02  0.17088036243E+03  0.13156036902E+04  0.13311158441E+04  0.79993578769E+02 0.  0.
         13    1    3    3    0    0 -0.72703241938E+01  0.24792998123E+02 -0.26090182369E+02  0.36718496508E+02  0.00000000000E+00 0.  1.
        -13    1    3    3    0    0  0.77333783397E+02  0.10705496144E+03  0.48429001874E+02  0.14066501713E+03  0.00000000000E+00 0. -1.
          2    1    6    6  502    0  0.35048494377E+02  0.15630439884E+03  0.10939985057E+04  0.11056636887E+04  0.00000000000E+00 0. -1.
          1    1    5    5  503    0 -0.12866185151E+03 -0.18456813965E+03  0.79623333387E+02  0.23866115190E+03  0.00000000000E+00 0. -1.
         -2    1    5    5    0  503 -0.15274808926E+02 -0.11816018234E+03  0.28477185441E+02  0.12249938191E+03  0.00000000000E+00 0.  1.
         -1    1    6    6    0  502  0.38824706853E+02  0.14575963584E+02  0.22160518446E+03  0.22545215536E+03  0.00000000000E+00 0.  1.
<mgrwt>
<rscale>  0 0.11851530E+04</rscale>
<asrwt>0</asrwt>
<pdfrwt beam="1">  1        1 0.32585914E-01 0.11851530E+04</pdfrwt>
<pdfrwt beam="2">  1       -1 0.25505406E+00 0.11851530E+04</pdfrwt>
<totfact> 0.88643908E+00</totfact>
</mgrwt>
</event>
<event>
12    1  0.1489025E-007  0.1882317E+04  0.7818608E-02  0.8663709E-01
         -1   -1    0    0    0  501 -0.00000000000E+00  0.00000000000E+00  0.95092616986E+03  0.95092616986E+03  0.00000000000E+00 0.  1.
          1   -1    0    0  501    0  0.00000000000E+00 -0.00000000000E+00 -0.93149135783E+03  0.93149135783E+03  0.00000000000E+00 0. -1.
         23    2    1    2    0    0 -0.42516132870E+03 -0.56348895337E+03  0.19670583758E+03  0.74082444598E+03  0.10883803208E+03 0.  0.
        254    2    1    2    0    0  0.42516132870E+03  0.56348895337E+03 -0.17727102555E+03  0.11415930817E+04  0.87950428749E+03 0.  0.
        -24    2    4    4    0    0  0.57705210533E+03  0.55864479837E+03  0.10233631610E+03  0.81341795850E+03  0.78121127839E+02 0.  0.
         24    2    4    4    0    0 -0.15189077662E+03  0.48441549994E+01 -0.27960734165E+03  0.32817512321E+03  0.80152181048E+02 0.  0.
         13    1    3    3    0    0 -0.71389858630E+02 -0.13044849044E+03  0.82664391486E+02  0.17013736272E+03  0.00000000000E+00 0.  1.
        -13    1    3    3    0    0 -0.35377147007E+03 -0.43304046292E+03  0.11404144609E+03  0.57068708326E+03  0.00000000000E+00 0. -1.
          2    1    6    6  502    0 -0.47776841074E+02  0.38867795493E+02 -0.11503173823E+03  0.13048230864E+03  0.00000000000E+00 0. -1.
          1    1    5    5  503    0  0.26845048443E+03  0.20623823410E+03  0.43200202676E+02  0.34127134264E+03  0.00000000000E+00 0. -1.
         -2    1    5    5    0  503  0.30860162089E+03  0.35240656427E+03  0.59136113423E+02  0.47214661586E+03  0.00000000000E+00 0.  1.
         -1    1    6    6    0  502 -0.10411393555E+03 -0.34023640493E+02 -0.16457560342E+03  0.19769281456E+03  0.00000000000E+00 0.  1.
<mgrwt>
<rscale>  0 0.18823172E+04</rscale>
<asrwt>0</asrwt>
<pdfrwt beam="1">  1        1 0.14330636E+00 0.18823172E+04</pdfrwt>
<pdfrwt beam="2">  1       -1 0.14629633E+00 0.18823172E+04</pdfrwt>
<totfact> 0.59976710E+00</totfact>
</mgrwt>
</event>
<event>
12    1  0.1489025E-007  0.2181325E+04  0.7818608E-02  0.8526241E-01
         -2   -1    0    0    0  501 -0.00000000000E+00  0.00000000000E+00  0.44915815206E+03  0.44915815206E+03  0.00000000000E+00 0.  1.
          2   -1    0    0  501    0  0.00000000000E+00 -0.00000000000E+00 -0.26483883751E+04  0.26483883751E+04  0.00000000000E+00 0. -1.
         23    2    1    2    0    0  0.51319449608E+03  0.16762524882E+02  0.13784732046E+03  0.53926498453E+03  0.90306515450E+02 0.  0.
        254    2    1    2    0    0 -0.51319449608E+03 -0.16762524882E+02 -0.23370775435E+04  0.25582815427E+04  0.90510962543E+03 0.  0.
        -24    2    4    4    0    0 -0.65127845049E+03  0.20093451792E+02 -0.22958781593E+04  0.23881545765E+04  0.87512239091E+02 0.  0.
         24    2    4    4    0    0  0.13808395441E+03 -0.36855976674E+02 -0.41199384215E+02  0.17012696616E+03  0.82584828352E+02 0.  0.
         11    1    3    3    0    0  0.23132864707E+03  0.47886110733E+02  0.42078674494E+02  0.23995132299E+03  0.00000000000E+00 0. -1.
        -11    1    3    3    0    0  0.28186584901E+03 -0.31123585851E+02  0.95768645967E+02  0.29931366154E+03  0.00000000000E+00 0.  1.
          4    1    6    6  502    0  0.14585724594E+02  0.34872973859E+01 -0.37239634168E+02  0.40145920814E+02  0.00000000000E+00 0. -1.
          1    1    5    5  503    0 -0.39315010255E+03  0.29882375620E+01 -0.15327353547E+04  0.15823569762E+04  0.00000000000E+00 0. -1.
         -2    1    5    5    0  503 -0.25812834795E+03  0.17105214230E+02 -0.76314280464E+03  0.80579760030E+03  0.00000000000E+00 0.  1.
         -3    1    6    6    0  502  0.12349822982E+03 -0.40343274060E+02 -0.39597500465E+01  0.12998104535E+03  0.00000000000E+00 0.  1.
<mgrwt>
<rscale>  0 0.21813255E+04</rscale>
<asrwt>0</asrwt>
<pdfrwt beam="1">  1        2 0.40744436E+00 0.21813255E+04</pdfrwt>
<pdfrwt beam="2">  1       -2 0.69101256E-01 0.21813255E+04</pdfrwt>
<totfact> 0.49901478E+00</totfact>
</mgrwt>
</event>
<event>
12    1  0.1489025E-007  0.1742060E+04  0.7818608E-02  0.8737733E-01
         -2   -1    0    0    0  501 -0.00000000000E+00  0.00000000000E+00  0.99373963168E+03  0.99373963168E+03  0.00000000000E+00 0.  1.
          2   -1    0    0  501    0  0.00000000000E+00 -0.00000000000E+00 -0.76347298564E+03  0.76347298564E+03  0.00000000000E+00 0. -1.
         23    2    1    2    0    0 -0.21478890104E+03 -0.31574343177E+03  0.59493879801E+03  0.71296512040E+03  0.92406183896E+02 0.  0.
        254    2    1    2    0    0  0.21478890104E+03  0.31574343177E+03 -0.36467215196E+03  0.10442474969E+04  0.90091002309E+03 0.  0.
        -24    2    4    4    0    0  0.66394240406E+02  0.57969385778E+03 -0.42098284489E+03  0.72385366710E+03  0.79274282005E+02 0.  0.
         24    2    4    4    0    0  0.14839466063E+03 -0.26395042601E+03  0.56310692924E+02  0.32039382983E+03  0.88263862133E+02 0.  0.
         11    1    3    3    0    0 -0.15693899450E+03 -0.19884067545E+03  0.31569079771E+03  0.40475689243E+03  0.00000000000E+00 0. -1.
        -11    1    3    3    0    0 -0.57849906536E+02 -0.11690275631E+03  0.27924800030E+03  0.30820822797E+03  0.00000000000E+00 0.  1.
          4    1    6    6  502    0 -0.11442179222E+02 -0.14735656603E+02 -0.15679886321E+01  0.18722222871E+02  0.00000000000E+00 0. -1.
          1    1    5    5  503    0  0.34410273069E+01  0.22520974441E+03 -0.12382220959E+03  0.25702764294E+03  0.00000000000E+00 0. -1.
         -2    1    5    5    0  503  0.62953213099E+02  0.35448411336E+03 -0.29716063530E+03  0.46682602416E+03  0.00000000000E+00 0.  1.
         -3    1    6    6    0  502  0.15983683985E+03 -0.24921476940E+03  0.57878681556E+02  0.30167160695E+03  0.00000000000E+00 0.  1.
<mgrwt>
<rscale>  0 0.17420601E+04</rscale>
<asrwt>0</asrwt>
<pdfrwt beam="1">  1        2 0.11745738E+00 0.17420601E+04</pdfrwt>
<pdfrwt beam="2">  1       -2 0.15288302E+00 0.17420601E+04</pdfrwt>
<totfact> 0.98923720E+00</totfact>
</mgrwt>
</event>
<event>
12    1  0.1569537E-007  0.3030732E+04  0.7818608E-02  0.8235009E-01
         -1   -1    0    0    0  501 -0.00000000000E+00  0.00000000000E+00  0.16469967456E+04  0.16469967456E+04  0.00000000000E+00 0.  1.
          1   -1    0    0  501    0  0.00000000000E+00 -0.00000000000E+00 -0.13942557446E+04  0.13942557446E+04  0.00000000000E+00 0. -1.
         23    2    1    2    0    0  0.34758941731E+03 -0.70806725613E+03 -0.96384960899E+03  0.12498523240E+04  0.10462848908E+03 0.  0.
        254    2    1    2    0    0 -0.34758941731E+03  0.70806725613E+03  0.12165906100E+04  0.17914001663E+04  0.10520666335E+04 0.  0.
        -24    2    4    4    0    0 -0.25779628161E+03 -0.10042947055E+03  0.84668734858E+03  0.89436874923E+03  0.80442476256E+02 0.  0.
         24    2    4    4    0    0 -0.89793135697E+02  0.80849672668E+03  0.36990326142E+03  0.89703141708E+03  0.78148423883E+02 0.  0.
         11    1    3    3    0    0  0.81434329223E+02 -0.83211128022E+02 -0.14753949530E+03  0.18794558914E+03  0.00000000000E+00 0.  1.
        -11    1    3    3    0    0  0.26615508809E+03 -0.62485612810E+03 -0.81631011369E+03  0.10619067348E+04  0.00000000000E+00 0. -1.
          2    1    6    6  502    0 -0.18879310821E+02  0.38762153461E+02  0.95088190624E+01  0.44151450237E+02  0.00000000000E+00 0. -1.
          1    1    5    5  503    0 -0.90655914419E+02  0.90131628445E+00  0.31951198841E+03  0.33212530456E+03  0.00000000000E+00 0. -1.
         -2    1    5    5    0  503 -0.16714036719E+03 -0.10133078684E+03  0.52717536017E+03  0.56224344467E+03  0.00000000000E+00 0.  1.
         -1    1    6    6    0  502 -0.70913824876E+02  0.76973457322E+03  0.36039444236E+03  0.85287996685E+03  0.00000000000E+00 0.  1.
<mgrwt>
<rscale>  0 0.30307324E+04</rscale>
<asrwt>0</asrwt>
<pdfrwt beam="1">  1        1 0.21450088E+00 0.30307324E+04</pdfrwt>
<pdfrwt beam="2">  1       -1 0.25338411E+00 0.30307324E+04</pdfrwt>
<totfact> 0.43613918E-01</totfact>
</mgrwt>
</event>
<event>
12    1  0.1489025E-007  0.1532180E+04  0.7818608E-02  0.8863331E-01
          1   -1    0    0  501    0  0.00000000000E+00  0.00000000000E+00  0.12008692398E+04  0.12008692398E+04  0.00000000000E+00 0. -1.
         -1   -1    0    0    0  501 -0.00000000000E+00 -0.00000000000E+00 -0.48872414725E+03  0.48872414725E+03  0.00000000000E+00 0.  1.
         23    2    1    2    0    0  0.64903421506E+02 -0.19653357702E+03  0.72217569958E+03  0.75652205044E+03  0.89162608325E+02 0.  0.
        254    2    1    2    0    0 -0.64903421506E+02  0.19653357702E+03 -0.10030607024E+02  0.93307133661E+03  0.90977118283E+03 0.  0.
        -24    2    4    4    0    0 -0.18732675016E+03  0.20192559168E+02 -0.41825390124E+03  0.46576264844E+03  0.80619278111E+02 0.  0.
         24    2    4    4    0    0  0.12242332865E+03  0.17634101786E+03  0.40822329422E+03  0.46730868817E+03  0.75150024090E+02 0.  0.
         13    1    3    3    0    0  0.55372913239E+02 -0.12970369125E+03  0.60566556127E+03  0.62186813647E+03  0.00000000000E+00 0. -1.
        -13    1    3    3    0    0  0.95305082668E+01 -0.66829885772E+02  0.11651013831E+03  0.13465391397E+03  0.00000000000E+00 0.  1.
          2    1    6    6  502    0  0.96996492094E+02  0.17008154467E+03  0.38658009948E+03  0.43333615661E+03  0.00000000000E+00 0. -1.
          3    1    5    5  503    0 -0.17523938684E+03  0.32840343809E+02 -0.32322231326E+03  0.36913411474E+03  0.00000000000E+00 0. -1.
         -4    1    5    5    0  503 -0.12087363320E+02 -0.12647784642E+02 -0.95031587987E+02  0.96628533693E+02  0.00000000000E+00 0.  1.
         -1    1    6    6    0  502  0.25426836558E+02  0.62594731879E+01  0.21643194741E+02  0.33972531559E+02  0.00000000000E+00 0.  1.
<mgrwt>
<rscale>  0 0.15321799E+04</rscale>
<asrwt>0</asrwt>
<pdfrwt beam="1">  1        1 0.18474911E+00 0.15321799E+04</pdfrwt>
<pdfrwt beam="2">  1       -1 0.75188331E-01 0.15321799E+04</pdfrwt>
<totfact> 0.18310969E+01</totfact>
</mgrwt>
</event>
<event>
12    1  0.1489025E-007  0.1265574E+04  0.7818608E-02  0.9057320E-01
          1   -1    0    0  501    0  0.00000000000E+00  0.00000000000E+00  0.76274181524E+03  0.76274181524E+03  0.00000000000E+00 0. -1.
         -1   -1    0    0    0  501 -0.00000000000E+00 -0.00000000000E+00 -0.52497372566E+03  0.52497372566E+03  0.00000000000E+00 0.  1.
         23    2    1    2    0    0  0.12572044993E+02  0.24490863431E+03 -0.12061533508E+03  0.28799730763E+03  0.90863054472E+02 0.  0.
        254    2    1    2    0    0 -0.12572044993E+02 -0.24490863431E+03  0.35838342466E+03  0.99971823328E+03  0.90047741304E+03 0.  0.
        -24    2    4    4    0    0  0.93865711810E+01  0.29373349650E+03 -0.61722755673E+02  0.31160507333E+03  0.83189833956E+02 0.  0.
         24    2    4    4    0    0 -0.21958616174E+02 -0.53864213081E+03  0.42010618034E+03  0.68811315994E+03  0.79956189380E+02 0.  0.
         11    1    3    3    0    0  0.80313933593E+01  0.90293355077E+02  0.19065381910E+01  0.90669885509E+02  0.00000000000E+00 0.  1.
        -11    1    3    3    0    0  0.45406516341E+01  0.15461527924E+03 -0.12252187327E+03  0.19732742212E+03  0.00000000000E+00 0. -1.
          4    1    6    6  502    0 -0.17904482682E+02 -0.12178583308E+03  0.58638212717E+02  0.13634808260E+03  0.00000000000E+00 0. -1.
          1    1    5    5  503    0 -0.25593105398E+02  0.14196947271E+03 -0.49449326589E+00  0.14425873543E+03  0.00000000000E+00 0. -1.
         -2    1    5    5    0  503  0.34979676579E+02  0.15176402380E+03 -0.61228262407E+02  0.16734633790E+03  0.00000000000E+00 0.  1.
         -3    1    6    6    0  502 -0.40541334925E+01 -0.41685629774E+03  0.36146796762E+03  0.55176507734E+03  0.00000000000E+00 0.  1.
<mgrwt>
<rscale>  0 0.12655740E+04</rscale>
<asrwt>0</asrwt>
<pdfrwt beam="1">  1        1 0.11734490E+00 0.12655740E+04</pdfrwt>
<pdfrwt beam="2">  1       -1 0.80765188E-01 0.12655740E+04</pdfrwt>
<totfact> 0.35930254E+01</totfact>
</mgrwt>
</event>
<event>
12    1  0.1601094E-007  0.2107378E+04  0.7818608E-02  0.8558000E-01
          1   -1    0    0  501    0  0.00000000000E+00  0.00000000000E+00  0.17167288150E+04  0.17167288150E+04  0.00000000000E+00 0. -1.
         -1   -1    0    0    0  501 -0.00000000000E+00 -0.00000000000E+00 -0.64673043278E+03  0.64673043278E+03  0.00000000000E+00 0.  1.
         23    2    1    2    0    0 -0.63032227134E+03  0.24846207785E+03 -0.14603271890E+03  0.69918171353E+03  0.92140890384E+02 0.  0.
        254    2    1    2    0    0  0.63032227134E+03 -0.24846207785E+03  0.12160311011E+04  0.16642775342E+04  0.91216692673E+03 0.  0.
        -24    2    4    4    0    0  0.24577534862E+03  0.18029543993E+03  0.99208005076E+03  0.10410573931E+04  0.81643744227E+02 0.  0.
         24    2    4    4    0    0  0.38454692272E+03 -0.42875751778E+03  0.22395105037E+03  0.62322014115E+03  0.80869812350E+02 0.  0.
         13    1    3    3    0    0 -0.19641798964E+02  0.10151378678E+02  0.11592741926E+02  0.24964823672E+02  0.00000000000E+00 0. -1.
        -13    1    3    3    0    0 -0.61068047237E+03  0.23831069917E+03 -0.15762546083E+03  0.67421688986E+03  0.00000000000E+00 0.  1.
          2    1    6    6  502    0  0.34475950318E+03 -0.34888644952E+03  0.17091273349E+03  0.51941508658E+03  0.00000000000E+00 0. -1.
          3    1    5    5  503    0  0.24722355829E+03  0.18539956094E+03  0.98407790316E+03  0.10314561573E+04  0.00000000000E+00 0. -1.
         -4    1    5    5    0  503 -0.14482096670E+01 -0.51041210088E+01  0.80021475945E+01  0.96012357869E+01  0.00000000000E+00 0.  1.
         -1    1    6    6    0  502  0.39787419540E+02 -0.79871068252E+02  0.53038316882E+02  0.10380505457E+03  0.00000000000E+00 0.  1.
<mgrwt>
<rscale>  0 0.21073782E+04</rscale>
<asrwt>0</asrwt>
<pdfrwt beam="1">  1        1 0.26411212E+00 0.21073782E+04</pdfrwt>
<pdfrwt beam="2">  1       -1 0.99496990E-01 0.21073782E+04</pdfrwt>
<totfact> 0.41134711E+00</totfact>
</mgrwt>
</event>
<event>
12    1  0.1489025E-007  0.1522186E+04  0.7818608E-02  0.8869832E-01
          1   -1    0    0  501    0  0.00000000000E+00  0.00000000000E+00  0.11819478897E+04  0.11819478897E+04  0.00000000000E+00 0. -1.
         -1   -1    0    0    0  501 -0.00000000000E+00 -0.00000000000E+00 -0.49009151453E+03  0.49009151453E+03  0.00000000000E+00 0.  1.
         23    2    1    2    0    0  0.96230619920E+02 -0.28113581121E+03 -0.20359275794E+03  0.37139986904E+03  0.90499586065E+02 0.  0.
        254    2    1    2    0    0 -0.96230619920E+02  0.28113581121E+03  0.89544913316E+03  0.13006395352E+04  0.89528563822E+03 0.  0.
        -24    2    4    4    0    0 -0.36235862793E+03  0.43599752060E+03  0.76808706548E+03  0.95805655835E+03  0.80728035029E+02 0.  0.
         24    2    4    4    0    0  0.26612800801E+03 -0.15486170939E+03  0.12736206768E+03  0.34258297689E+03  0.79597324655E+02 0.  0.
         11    1    3    3    0    0  0.28981325340E+02 -0.30874233391E+02 -0.81622603393E+00  0.42353296577E+02  0.00000000000E+00 0. -1.
        -11    1    3    3    0    0  0.67249294580E+02 -0.25026157782E+03 -0.20277653191E+03  0.32904657246E+03  0.00000000000E+00 0.  1.
          4    1    6    6  502    0  0.11881054359E+02 -0.34364191771E+02  0.98333361844E+01  0.37666319561E+02  0.00000000000E+00 0. -1.
          1    1    5    5  503    0 -0.63786084650E+02  0.12241459191E+03  0.21758192049E+03  0.25767399758E+03  0.00000000000E+00 0. -1.
         -2    1    5    5    0  503 -0.29857254328E+03  0.31358292868E+03  0.55050514499E+03  0.70038256077E+03  0.00000000000E+00 0.  1.
         -3    1    6    6    0  502  0.25424695365E+03 -0.12049751762E+03  0.11752873149E+03  0.30491665733E+03  0.00000000000E+00 0.  1.
<mgrwt>
<rscale>  0 0.15221861E+04</rscale>
<asrwt>0</asrwt>
<pdfrwt beam="1">  1        1 0.18183814E+00 0.15221861E+04</pdfrwt>
<pdfrwt beam="2">  1       -1 0.75398695E-01 0.15221861E+04</pdfrwt>
<totfact> 0.18810934E+01</totfact>
</mgrwt>
</event>
<event>
12    1  0.1489025E-007  0.1298862E+04  0.7818608E-02  0.9030468E-01
          2   -1    0    0  501    0  0.00000000000E+00  0.00000000000E+00  0.29116463137E+04  0.29116463137E+04  0.00000000000E+00 0. -1.
         -2   -1    0    0    0  501 -0.00000000000E+00 -0.00000000000E+00 -0.14485298664E+03  0.14485298664E+03  0.00000000000E+00 0.  1.
         23    2    1    2    0    0 -0.10384433312E+03 -0.29516928382E+03  0.50299464036E+03  0.60023837657E+03  0.96819155354E+02 0.  0.
        254    2    1    2    0    0  0.10384433312E+03  0.29516928382E+03  0.22637986867E+04  0.24562609237E+04  0.90029144174E+03 0.  0.
        -24    2    4    4    0    0  0.28159389300E+03  0.36844974254E+03  0.21784259191E+04  0.22286471764E+04  0.79236470055E+02 0.  0.
         24    2    4    4    0    0 -0.17774955988E+03 -0.73280458725E+02  0.85372767534E+02  0.22761374737E+03  0.86917069024E+02 0.  0.
         11    1    3    3    0    0  0.23872936058E+01 -0.32546001054E+01 -0.39749694693E+01  0.56649779248E+01  0.00000000000E+00 0.  1.
        -11    1    3    3    0    0 -0.10623162672E+03 -0.29191468371E+03  0.50696960983E+03  0.59457339864E+03  0.00000000000E+00 0. -1.
          2    1    6    6  502    0 -0.14786417530E+03 -0.93470531169E+02  0.70845474172E+02  0.18873165009E+03  0.00000000000E+00 0. -1.
          3    1    5    5  503    0  0.22125447419E+03  0.33487223197E+03  0.18483438682E+04  0.18914195751E+04  0.00000000000E+00 0. -1.
         -4    1    5    5    0  503  0.60339418813E+02  0.33577510575E+02  0.33008205093E+03  0.33722760122E+03  0.00000000000E+00 0.  1.
         -1    1    6    6    0  502 -0.29885384580E+02  0.20190072444E+02  0.14527293362E+02  0.38882097284E+02  0.00000000000E+00 0.  1.
<mgrwt>
<rscale>  0 0.12988621E+04</rscale>
<asrwt>0</asrwt>
<pdfrwt beam="1">  1        2 0.44794554E+00 0.12988621E+04</pdfrwt>
<pdfrwt beam="2">  1       -2 0.22285077E-01 0.12988621E+04</pdfrwt>
<totfact> 0.34527010E+01</totfact>
</mgrwt>
</event>
<event>
12    1  0.1489025E-007  0.1046305E+04  0.7818608E-02  0.9259167E-01
          4   -1    0    0  501    0  0.00000000000E+00  0.00000000000E+00  0.54370245405E+03  0.54370245405E+03  0.00000000000E+00 0. -1.
         -4   -1    0    0    0  501 -0.00000000000E+00 -0.00000000000E+00 -0.50337967817E+03  0.50337967817E+03  0.00000000000E+00 0.  1.
         23    2    1    2    0    0  0.92633063684E+02 -0.29524086836E+02 -0.11001930052E+02  0.13765132630E+03  0.96820911870E+02 0.  0.
        254    2    1    2    0    0 -0.92633063684E+02  0.29524086836E+02  0.51324705936E+02  0.90943080592E+03  0.90276110302E+03 0.  0.
        -24    2    4    4    0    0 -0.87443597588E+02 -0.25869585439E+03 -0.32302278460E+03  0.42996149051E+03  0.77157216850E+02 0.  0.
         24    2    4    4    0    0 -0.51894660962E+01  0.28821994123E+03  0.37434749054E+03  0.47946931541E+03  0.81591149428E+02 0.  0.
         13    1    3    3    0    0  0.10671823965E+03 -0.26688461721E+02  0.11867516229E+02  0.11064309561E+03  0.00000000000E+00 0. -1.
        -13    1    3    3    0    0 -0.14085175969E+02 -0.28356251148E+01 -0.22869446281E+02  0.27008230691E+02  0.00000000000E+00 0.  1.
          4    1    6    6  502    0 -0.42678915235E+02  0.13028752194E+03  0.16337144263E+03  0.21327577557E+03  0.00000000000E+00 0. -1.
          3    1    5    5  503    0  0.13868226854E+02 -0.40683247451E+02 -0.57296161250E+02  0.71626143504E+02  0.00000000000E+00 0. -1.
         -4    1    5    5    0  503 -0.10131182444E+03 -0.21801260694E+03 -0.26572662335E+03  0.35833534701E+03  0.00000000000E+00 0.  1.
         -3    1    6    6    0  502  0.37489449139E+02  0.15793241929E+03  0.21097604791E+03  0.26619353984E+03  0.00000000000E+00 0.  1.
<mgrwt>
<rscale>  0 0.10463054E+04</rscale>
<asrwt>0</asrwt>
<pdfrwt beam="1">  1        4 0.83646531E-01 0.10463054E+04</pdfrwt>
<pdfrwt beam="2">  1       -4 0.77443028E-01 0.10463054E+04</pdfrwt>
<totfact> 0.37085874E+00</totfact>
</mgrwt>
</event>
<event>
12    1  0.1489025E-007  0.1887928E+04  0.7818608E-02  0.8660889E-01
         -2   -1    0    0    0  501 -0.00000000000E+00  0.00000000000E+00  0.21234953145E+03  0.21234953145E+03  0.00000000000E+00 0.  1.
          2   -1    0    0  501    0  0.00000000000E+00 -0.00000000000E+00 -0.41962321757E+04  0.41962321757E+04  0.00000000000E+00 0. -1.
         23    2    1    2    0    0  0.30032901689E+03 -0.61081142198E+03 -0.22487209359E+04  0.23513005177E+04  0.92629182664E+02 0.  0.
        254    2    1    2    0    0 -0.30032901689E+03  0.61081142198E+03 -0.17351617084E+04  0.20572811894E+04  0.87082238523E+03 0.  0.
        -24    2    4    4    0    0 -0.15939233661E+03 -0.73301685625E+02 -0.10755541381E+04  0.10927287522E+04  0.80376413309E+02 0.  0.
         24    2    4    4    0    0 -0.14093668028E+03  0.68411310761E+03 -0.65960757032E+03  0.96455243729E+03  0.86054433963E+02 0.  0.
         13    1    3    3    0    0  0.25864313593E+03 -0.45296519121E+03 -0.17867999325E+04  0.18613779130E+04  0.00000000000E+00 0. -1.
        -13    1    3    3    0    0  0.41685880964E+02 -0.15784623077E+03 -0.46192100341E+03  0.48992260474E+03  0.00000000000E+00 0.  1.
          4    1    6    6  502    0 -0.80961129518E+02  0.31848739995E+03 -0.25515586787E+03  0.41604500397E+03  0.00000000000E+00 0. -1.
          1    1    5    5  503    0 -0.78405751707E+02 -0.53389895140E+02 -0.35835567076E+03  0.37069762552E+03  0.00000000000E+00 0. -1.
         -2    1    5    5    0  503 -0.80986584908E+02 -0.19911790485E+02 -0.71719846731E+03  0.72203112664E+03  0.00000000000E+00 0.  1.
         -3    1    6    6    0  502 -0.59975550760E+02  0.36562570766E+03 -0.40445170245E+03  0.54850743332E+03  0.00000000000E+00 0.  1.
<mgrwt>
<rscale>  0 0.18879279E+04</rscale>
<asrwt>0</asrwt>
<pdfrwt beam="1">  1        2 0.64557417E+00 0.18879279E+04</pdfrwt>
<pdfrwt beam="2">  1       -2 0.32669159E-01 0.18879279E+04</pdfrwt>
<totfact> 0.19482327E+00</totfact>
</mgrwt>
</event>
<event>
12    1  0.1489025E-007  0.1452475E+04  0.7818608E-02  0.8916686E-01
         -2   -1    0    0    0  501 -0.00000000000E+00  0.00000000000E+00  0.24548226007E+03  0.24548226007E+03  0.00000000000E+00 0.  1.
          2   -1    0    0  501    0  0.00000000000E+00 -0.00000000000E+00 -0.21485099768E+04  0.21485099768E+04  0.00000000000E+00 0. -1.
         23    2    1    2    0    0  0.19038486299E+03  0.29903420690E+03 -0.10658392047E+04  0.11269016625E+04  0.90698917047E+02 0.  0.
        254    2    1    2    0    0 -0.19038486299E+03 -0.29903420690E+03 -0.83718851197E+03  0.12670905744E+04  0.88259054277E+03 0.  0.
        -24    2    4    4    0    0 -0.17961892484E+03  0.22222610666E+03 -0.24872783562E+02  0.29858472654E+03  0.82986643028E+02 0.  0.
         24    2    4    4    0    0 -0.10765938151E+02 -0.52126031356E+03 -0.81231572840E+03  0.96850584784E+03  0.79489085883E+02 0.  0.
         13    1    3    3    0    0  0.16699943948E+03  0.28317592022E+03 -0.10304211485E+04  0.10815938045E+04  0.00000000000E+00 0. -1.
        -13    1    3    3    0    0  0.23385423502E+02  0.15858286673E+02 -0.35418056244E+02  0.45307858001E+02  0.00000000000E+00 0.  1.
          2    1    6    6  502    0 -0.33626826869E+02 -0.41364834625E+03 -0.60257885378E+03  0.73166726923E+03  0.00000000000E+00 0. -1.
          1    1    5    5  503    0 -0.28389413588E+02  0.85437159698E+02 -0.29126850239E+02  0.94624734959E+02  0.00000000000E+00 0. -1.
         -2    1    5    5    0  503 -0.15122951125E+03  0.13678894697E+03  0.42540666777E+01  0.20395999159E+03  0.00000000000E+00 0.  1.
         -1    1    6    6    0  502  0.22860888718E+02 -0.10761196731E+03 -0.20973687463E+03  0.23683857861E+03  0.00000000000E+00 0.  1.
<mgrwt>
<rscale>  0 0.14524752E+04</rscale>
<asrwt>0</asrwt>
<pdfrwt beam="1">  1        2 0.33054000E+00 0.14524752E+04</pdfrwt>
<pdfrwt beam="2">  1       -2 0.37766501E-01 0.14524752E+04</pdfrwt>
<totfact> 0.35442675E+01</totfact>
</mgrwt>
</event>
<event>
12    1  0.1489025E-007  0.2108117E+04  0.7818608E-02  0.8557676E-01
          2   -1    0    0  501    0  0.00000000000E+00  0.00000000000E+00  0.35196450867E+04  0.35196450867E+04  0.00000000000E+00 0. -1.
         -2   -1    0    0    0  501 -0.00000000000E+00 -0.00000000000E+00 -0.31566801695E+03  0.31566801695E+03  0.00000000000E+00 0.  1.
         23    2    1    2    0    0 -0.62426627981E+03 -0.29659075606E+03  0.22450299299E+04  0.23508770509E+04  0.93749973256E+02 0.  0.
        254    2    1    2    0    0  0.62426627981E+03  0.29659075606E+03  0.95894713987E+03  0.14844360528E+04  0.89794003871E+03 0.  0.
        -24    2    4    4    0    0  0.40010338393E+02  0.27471822235E+03  0.83220997234E+03  0.88082295839E+03  0.78770026642E+02 0.  0.
         24    2    4    4    0    0  0.58425594142E+03  0.21872533717E+02  0.12673716753E+03  0.60361309442E+03  0.80330849024E+02 0.  0.
         11    1    3    3    0    0 -0.38097676932E+03 -0.22860130847E+03  0.14760128951E+04  0.15414330746E+04  0.00000000000E+00 0. -1.
        -11    1    3    3    0    0 -0.24328951050E+03 -0.67989447596E+02  0.76901703481E+03  0.80944397628E+03  0.00000000000E+00 0.  1.
          2    1    6    6  502    0  0.23132671207E+03 -0.19937039815E+02  0.22645430053E+02  0.23328598067E+03  0.00000000000E+00 0. -1.
          3    1    5    5  503    0  0.33768933316E+02  0.13829498115E+03  0.31125435112E+03  0.34226468377E+03  0.00000000000E+00 0. -1.
         -4    1    5    5    0  503  0.62414050771E+01  0.13642324120E+03  0.52095562122E+03  0.53855827462E+03  0.00000000000E+00 0.  1.
         -1    1    6    6    0  502  0.35292922935E+03  0.41809573532E+02  0.10409173748E+03  0.37032711375E+03  0.00000000000E+00 0.  1.
<mgrwt>
<rscale>  0 0.21081171E+04</rscale>
<asrwt>0</asrwt>
<pdfrwt beam="1">  1        2 0.54148383E+00 0.21081171E+04</pdfrwt>
<pdfrwt beam="2">  1       -2 0.48564313E-01 0.21081171E+04</pdfrwt>
<totfact> 0.29259264E+00</totfact>
</mgrwt>
</event>
<event>
12    1  0.1489025E-007  0.2338486E+04  0.7818608E-02  0.8462899E-01
          2   -1    0    0  501    0  0.00000000000E+00  0.00000000000E+00  0.10746870087E+04  0.10746870087E+04  0.00000000000E+00 0. -1.
         -2   -1    0    0    0  501 -0.00000000000E+00 -0.00000000000E+00 -0.12721180911E+04  0.12721180911E+04  0.00000000000E+00 0.  1.
         23    2    1    2    0    0 -0.35131614260E+02 -0.93416940509E+03 -0.40015745966E+03  0.10210694108E+04  0.92466434546E+02 0.  0.
        254    2    1    2    0    0  0.35131614260E+02  0.93416940509E+03  0.20272637728E+03  0.13257356890E+04  0.91791634978E+03 0.  0.
        -24    2    4    4    0    0 -0.74097177239E+02 -0.16201095803E+03 -0.27659481501E+02  0.19727274082E+03  0.80084612496E+02 0.  0.
         24    2    4    4    0    0  0.10922879150E+03  0.10961803631E+04  0.23038585879E+03  0.11284629481E+04  0.82514628947E+02 0.  0.
         11    1    3    3    0    0 -0.20529908954E+02 -0.45527342759E+03 -0.24522353151E+03  0.51752289943E+03  0.00000000000E+00 0. -1.
        -11    1    3    3    0    0 -0.14601705306E+02 -0.47889597750E+03 -0.15493392814E+03  0.50354651141E+03  0.00000000000E+00 0.  1.
          2    1    6    6  502    0  0.11534327832E+03  0.81961051706E+03  0.18530281644E+03  0.84817604618E+03  0.00000000000E+00 0. -1.
          3    1    5    5  503    0 -0.75315102321E+02 -0.16106688224E+03 -0.42123083148E+02  0.18272728129E+03  0.00000000000E+00 0. -1.
         -4    1    5    5    0  503  0.12179250815E+01 -0.94407579000E+00  0.14463601646E+02  0.14545459539E+02  0.00000000000E+00 0.  1.
         -1    1    6    6    0  502 -0.61144868186E+01  0.27656984606E+03  0.45083042345E+02  0.28028690195E+03  0.00000000000E+00 0.  1.
<mgrwt>
<rscale>  0 0.23384857E+04</rscale>
<asrwt>0</asrwt>
<pdfrwt beam="1">  1        2 0.16533646E+00 0.23384857E+04</pdfrwt>
<pdfrwt beam="2">  1       -2 0.19571047E+00 0.23384857E+04</pdfrwt>
<totfact> 0.28978658E+00</totfact>
</mgrwt>
</event>
<event>
12    1  0.1489025E-007  0.1825669E+04  0.7818608E-02  0.8692767E-01
         -1   -1    0    0    0  501 -0.00000000000E+00  0.00000000000E+00  0.41127029590E+03  0.41127029590E+03  0.00000000000E+00 0.  1.
          1   -1    0    0  501    0  0.00000000000E+00 -0.00000000000E+00 -0.20260811001E+04  0.20260811001E+04  0.00000000000E+00 0. -1.
         23    2    1    2    0    0  0.46889221121E+03 -0.44076278736E+03 -0.26708551991E+03  0.70285019722E+03  0.92368741055E+02 0.  0.
        254    2    1    2    0    0 -0.46889221121E+03  0.44076278736E+03 -0.13477252843E+04  0.17345011988E+04  0.88204264421E+03 0.  0.
        -24    2    4    4    0    0  0.23652080675E+03  0.11272605689E+03 -0.56538930570E+03  0.62832943380E+03  0.80520521906E+02 0.  0.
         24    2    4    4    0    0 -0.70541301797E+03  0.32803673047E+03 -0.78233597857E+03  0.11061717650E+04  0.79691704624E+02 0.  0.
         11    1    3    3    0    0  0.38642360017E+03 -0.39515076024E+03 -0.25191606656E+03  0.60739528042E+03  0.00000000000E+00 0. -1.
        -11    1    3    3    0    0  0.82468611046E+02 -0.45612027120E+02 -0.15169453349E+02  0.95454916797E+02  0.00000000000E+00 0.  1.
          2    1    6    6  502    0 -0.18896651412E+03  0.12094518580E+03 -0.19704100470E+03  0.29859879263E+03  0.00000000000E+00 0. -1.
          3    1    5    5  503    0  0.29979001764E+02  0.13906524534E+02 -0.15408937472E+03  0.15759336082E+03  0.00000000000E+00 0. -1.
         -4    1    5    5    0  503  0.20654180499E+03  0.98819532352E+02 -0.41129993098E+03  0.47073607298E+03  0.00000000000E+00 0.  1.
         -1    1    6    6    0  502 -0.51644650385E+03  0.20709154468E+03 -0.58529497387E+03  0.80757297234E+03  0.00000000000E+00 0.  1.
<mgrwt>
<rscale>  0 0.18256692E+04</rscale>
<asrwt>0</asrwt>
<pdfrwt beam="1">  1        1 0.31170479E+00 0.18256692E+04</pdfrwt>
<pdfrwt beam="2">  1       -1 0.63272352E-01 0.18256692E+04</pdfrwt>
<totfact> 0.68250227E+00</totfact>
</mgrwt>
</event>
<event>
12    1  0.1489025E-007  0.1236994E+04  0.7818608E-02  0.9081078E-01
          2   -1    0    0  501    0  0.00000000000E+00  0.00000000000E+00  0.40485515296E+03  0.40485515296E+03  0.00000000000E+00 0. -1.
         -2   -1    0    0    0  501 -0.00000000000E+00 -0.00000000000E+00 -0.94487723492E+03  0.94487723492E+03  0.00000000000E+00 0.  1.
         23    2    1    2    0    0  0.15018309066E+03 -0.27406615771E+03 -0.21776117784E+03  0.39176264811E+03  0.91601432084E+02 0.  0.
        254    2    1    2    0    0 -0.15018309066E+03  0.27406615771E+03 -0.32226090411E+03  0.95796973976E+03  0.84627815313E+03 0.  0.
        -24    2    4    4    0    0  0.88652917693E+01 -0.24842283790E+03  0.82581926154E+02  0.27420640759E+03  0.81097963283E+02 0.  0.
         24    2    4    4    0    0 -0.15904838243E+03  0.52248899561E+03 -0.40484283027E+03  0.68376333217E+03  0.73098828378E+02 0.  0.
         11    1    3    3    0    0  0.78929352374E+02 -0.13053717423E+03 -0.51883264839E+02  0.16112625389E+03  0.00000000000E+00 0.  1.
        -11    1    3    3    0    0  0.71253738282E+02 -0.14352898348E+03 -0.16587791300E+03  0.23063639422E+03  0.00000000000E+00 0. -1.
          2    1    6    6  502    0 -0.48979722603E+02  0.98603350960E+02 -0.54057981143E+02  0.12265357464E+03  0.00000000000E+00 0. -1.
          1    1    5    5  503    0  0.34144228744E+02 -0.22305521192E+03  0.70468845755E+02  0.23640074903E+03  0.00000000000E+00 0. -1.
         -2    1    5    5    0  503 -0.25278936975E+02 -0.25367625985E+02  0.12113080399E+02  0.37805658564E+02  0.00000000000E+00 0.  1.
         -1    1    6    6    0  502 -0.11006865982E+03  0.42388564465E+03 -0.35078484913E+03  0.56110975753E+03  0.00000000000E+00 0.  1.
<mgrwt>
<rscale>  0 0.12369938E+04</rscale>
<asrwt>0</asrwt>
<pdfrwt beam="1">  1        2 0.62285409E-01 0.12369938E+04</pdfrwt>
<pdfrwt beam="2">  1       -2 0.14536573E+00 0.12369938E+04</pdfrwt>
<totfact> 0.25110143E+01</totfact>
</mgrwt>
</event>
<event>
12    1  0.1489025E-007  0.1420773E+04  0.7818608E-02  0.8938918E-01
          1   -1    0    0  501    0  0.00000000000E+00  0.00000000000E+00  0.87685125322E+03  0.87685125322E+03  0.00000000000E+00 0. -1.
         -1   -1    0    0    0  501 -0.00000000000E+00 -0.00000000000E+00 -0.57552410790E+03  0.57552410790E+03  0.00000000000E+00 0.  1.
         23    2    1    2    0    0  0.58325066572E+02  0.37583315460E+03  0.22925653389E+03  0.45469760280E+03  0.97667692582E+02 0.  0.
        254    2    1    2    0    0 -0.58325066572E+02 -0.37583315460E+03  0.72070611426E+02  0.99767775832E+03  0.91951854954E+03 0.  0.
        -24    2    4    4    0    0  0.21365052466E+03 -0.54228017327E+03  0.23139345558E+03  0.63225093278E+03  0.80523150171E+02 0.  0.
         24    2    4    4    0    0 -0.27197559124E+03  0.16644701867E+03 -0.15932284415E+03  0.36542682554E+03  0.80483935674E+02 0.  0.
         13    1    3    3    0    0  0.73567013519E+02  0.23827880303E+03  0.18096159279E+03  0.30811684718E+03  0.00000000000E+00 0. -1.
        -13    1    3    3    0    0 -0.15241946948E+02  0.13755435156E+03  0.48294941103E+02  0.14658075562E+03  0.00000000000E+00 0.  1.
          2    1    6    6  502    0 -0.98177767114E+02  0.20020784771E+02 -0.33428797696E+02  0.10562760195E+03  0.00000000000E+00 0. -1.
          3    1    5    5  503    0  0.64695399280E+02 -0.25076941033E+03  0.12844273455E+03  0.28908187059E+03  0.00000000000E+00 0. -1.
         -4    1    5    5    0  503  0.14895512538E+03 -0.29151076294E+03  0.10295072103E+03  0.34316906220E+03  0.00000000000E+00 0.  1.
         -1    1    6    6    0  502 -0.17379782412E+03  0.14642623390E+03 -0.12589404646E+03  0.25979922359E+03  0.00000000000E+00 0.  1.
<mgrwt>
<rscale>  0 0.14207731E+04</rscale>
<asrwt>0</asrwt>
<pdfrwt beam="1">  1        1 0.13490019E+00 0.14207731E+04</pdfrwt>
<pdfrwt beam="2">  1       -1 0.88542171E-01 0.14207731E+04</pdfrwt>
<totfact> 0.23189157E+01</totfact>
</mgrwt>
</event>
<event>
12    1  0.1489025E-007  0.1441786E+04  0.7818608E-02  0.8924115E-01
          2   -1    0    0  501    0  0.00000000000E+00  0.00000000000E+00  0.36936632305E+03  0.36936632305E+03  0.00000000000E+00 0.  1.
         -2   -1    0    0    0  501 -0.00000000000E+00 -0.00000000000E+00 -0.14069675476E+04  0.14069675476E+04  0.00000000000E+00 0. -1.
         23    2    1    2    0    0 -0.21980640263E+03  0.14190648816E+03 -0.74523045059E+03  0.79484286903E+03  0.89187756694E+02 0.  0.
        254    2    1    2    0    0  0.21980640263E+03 -0.14190648816E+03 -0.29237077394E+03  0.98149100161E+03  0.89966194249E+03 0.  0.
        -24    2    4    4    0    0  0.46396660983E+03 -0.26900712395E+03  0.38648393550E+02  0.54355449816E+03  0.79548390123E+02 0.  0.
         24    2    4    4    0    0 -0.24416020720E+03  0.12710063579E+03 -0.33101916749E+03  0.43793650345E+03  0.80286446002E+02 0.  0.
         13    1    3    3    0    0 -0.52474297478E+02  0.27647063722E+02 -0.80989467779E+02  0.10038528737E+03  0.00000000000E+00 0.  1.
        -13    1    3    3    0    0 -0.16733210515E+03  0.11425942444E+03 -0.66424098281E+03  0.69445758167E+03  0.00000000000E+00 0. -1.
          4    1    6    6  502    0 -0.16168119104E+03  0.42436427185E+02 -0.17252894696E+03  0.24022467697E+03  0.00000000000E+00 0. -1.
          3    1    5    5  503    0  0.14471402108E+03 -0.85861812911E+02 -0.24749839790E+02  0.17007925618E+03  0.00000000000E+00 0. -1.
         -4    1    5    5    0  503  0.31925258875E+03 -0.18314531104E+03  0.63398233341E+02  0.37347524197E+03  0.00000000000E+00 0.  1.
         -3    1    6    6    0  502 -0.82479016163E+02  0.84664208608E+02 -0.15849022054E+03  0.19771182648E+03  0.00000000000E+00 0.  1.
<mgrwt>
<rscale>  0 0.14417856E+04</rscale>
<asrwt>0</asrwt>
<pdfrwt beam="1">  1        2 0.56825589E-01 0.14417856E+04</pdfrwt>
<pdfrwt beam="2">  1       -2 0.21645654E+00 0.14417856E+04</pdfrwt>
<totfact> 0.87815215E+00</totfact>
</mgrwt>
</event>
<event>
12    1  0.1489025E-007  0.1282842E+04  0.7818608E-02  0.9043284E-01
         -2   -1    0    0    0  501 -0.00000000000E+00  0.00000000000E+00  0.24944085347E+03  0.24944085347E+03  0.00000000000E+00 0.  1.
          2   -1    0    0  501    0  0.00000000000E+00 -0.00000000000E+00 -0.16493715150E+04  0.16493715150E+04  0.00000000000E+00 0. -1.
         23    2    1    2    0    0 -0.96633654585E+01  0.30980562236E+03 -0.24798911529E+03  0.40723854071E+03  0.90949015694E+02 0.  0.
        254    2    1    2    0    0  0.96633654585E+01 -0.30980562236E+03 -0.11519415462E+04  0.14915738277E+04  0.89540507783E+03 0.  0.
        -24    2    4    4    0    0  0.26560437019E+03  0.67967068493E+02 -0.93928620462E+03  0.98170056611E+03  0.79449502596E+02 0.  0.
         24    2    4    4    0    0 -0.25594100473E+03 -0.37777269086E+03 -0.21265534158E+03  0.50987326161E+03  0.80811167175E+02 0.  0.
         13    1    3    3    0    0  0.29616277666E+02  0.65291524675E+02 -0.31518842288E+02  0.78316949100E+02  0.00000000000E+00 0.  1.
        -13    1    3    3    0    0 -0.39279643124E+02  0.24451409769E+03 -0.21647027300E+03  0.32892159161E+03  0.00000000000E+00 0. -1.
          4    1    6    6  502    0 -0.14371349260E+03 -0.27487933247E+03 -0.12697067088E+03  0.33516229895E+03  0.00000000000E+00 0. -1.
          1    1    5    5  503    0  0.87852191897E+02  0.60157932075E+02 -0.39311765513E+03  0.40728181298E+03  0.00000000000E+00 0. -1.
         -2    1    5    5    0  503  0.17775217829E+03  0.78091364178E+01 -0.54616854949E+03  0.57441875313E+03  0.00000000000E+00 0.  1.
         -3    1    6    6    0  502 -0.11222751213E+03 -0.10289335839E+03 -0.85684670702E+02  0.17471096266E+03  0.00000000000E+00 0.  1.
<mgrwt>
<rscale>  0 0.12828416E+04</rscale>
<asrwt>0</asrwt>
<pdfrwt beam="1">  1        2 0.25374946E+00 0.12828416E+04</pdfrwt>
<pdfrwt beam="2">  1       -2 0.38375516E-01 0.12828416E+04</pdfrwt>
<totfact> 0.65844634E+01</totfact>
</mgrwt>
</event>
<event>
12    1  0.1489025E-007  0.1987197E+04  0.7818608E-02  0.8612630E-01
         -2   -1    0    0    0  501 -0.00000000000E+00  0.00000000000E+00  0.68272242338E+03  0.68272242338E+03  0.00000000000E+00 0.  1.
          2   -1    0    0  501    0  0.00000000000E+00 -0.00000000000E+00 -0.14460311792E+04  0.14460311792E+04  0.00000000000E+00 0. -1.
         23    2    1    2    0    0  0.18323763339E+03 -0.75420899641E+03 -0.17903708424E+03  0.80091076966E+03  0.83645339821E+02 0.  0.
        254    2    1    2    0    0 -0.18323763339E+03  0.75420899641E+03 -0.58427167153E+03  0.13278428329E+04  0.90519940460E+03 0.  0.
        -24    2    4    4    0    0 -0.36617615698E+00  0.78928271674E+03 -0.73001762197E+03  0.10781823854E+04  0.81143001383E+02 0.  0.
         24    2    4    4    0    0 -0.18287145724E+03 -0.35073720329E+02  0.14574595044E+03  0.24966044752E+03  0.80101942901E+02 0.  0.
         11    1    3    3    0    0  0.48390596528E+02 -0.23214798125E+03 -0.16321829583E+02  0.23769883709E+03  0.00000000000E+00 0.  1.
        -11    1    3    3    0    0  0.13484703687E+03 -0.52206101516E+03 -0.16271525466E+03  0.56321193258E+03  0.00000000000E+00 0. -1.
          2    1    6    6  502    0 -0.18196681168E+03 -0.22550519379E+02  0.11497090352E+03  0.21642263083E+03  0.00000000000E+00 0. -1.
          3    1    5    5  503    0  0.19090796752E+01  0.72368222564E+03 -0.63551095238E+03  0.96311670056E+03  0.00000000000E+00 0. -1.
         -4    1    5    5    0  503 -0.22752558322E+01  0.65600491101E+02 -0.94506669588E+02  0.11506568480E+03  0.00000000000E+00 0.  1.
         -1    1    6    6    0  502 -0.90464555531E+00 -0.12523200951E+02  0.30775046918E+02  0.33237816692E+02  0.00000000000E+00 0.  1.
<mgrwt>
<rscale>  0 0.19871969E+04</rscale>
<asrwt>0</asrwt>
<pdfrwt beam="1">  1        2 0.22246633E+00 0.19871969E+04</pdfrwt>
<pdfrwt beam="2">  1       -2 0.10503422E+00 0.19871969E+04</pdfrwt>
<totfact> 0.93057743E+00</totfact>
</mgrwt>
</event>
<event>
12    1  0.1489025E-007  0.2517957E+04  0.7818608E-02  0.8396616E-01
         -1   -1    0    0    0  501 -0.00000000000E+00  0.00000000000E+00  0.45405284304E+03  0.45405284304E+03  0.00000000000E+00 0.  1.
          1   -1    0    0  501    0  0.00000000000E+00 -0.00000000000E+00 -0.34908426408E+04  0.34908426408E+04  0.00000000000E+00 0. -1.
         23    2    1    2    0    0 -0.10046844054E+04  0.15998809013E+03 -0.68922101885E+03  0.12320416037E+04  0.88960423116E+02 0.  0.
        254    2    1    2    0    0  0.10046844054E+04 -0.15998809013E+03 -0.23475687789E+04  0.27128538802E+04  0.90194792529E+03 0.  0.
        -24    2    4    4    0    0  0.98454074155E+03 -0.29519818775E+03 -0.23354569435E+04  0.25529564772E+04  0.82250821264E+02 0.  0.
         24    2    4    4    0    0  0.20143663865E+02  0.13521009762E+03 -0.12111835424E+02  0.15989740300E+03  0.82054525986E+02 0.  0.
         11    1    3    3    0    0 -0.50457953128E+02  0.30551560227E+01 -0.13549299837E+02  0.52334716377E+02  0.00000000000E+00 0.  1.
        -11    1    3    3    0    0 -0.95422645229E+03  0.15693293411E+03 -0.67567171901E+03  0.11797068873E+04  0.00000000000E+00 0. -1.
          4    1    6    6  502    0 -0.11167382190E+02 -0.72327343665E+01 -0.37075157464E+01  0.13811898653E+02  0.00000000000E+00 0. -1.
          3    1    5    5  503    0  0.54273551974E+02 -0.37029554053E+02 -0.14943989647E+03  0.16324548684E+03  0.00000000000E+00 0. -1.
         -4    1    5    5    0  503  0.93026718958E+03 -0.25816863370E+03 -0.21860170470E+04  0.23897109903E+04  0.00000000000E+00 0.  1.
         -1    1    6    6    0  502  0.31311046055E+02  0.14244283199E+03 -0.84043196775E+01  0.14608550434E+03  0.00000000000E+00 0.  1.
<mgrwt>
<rscale>  0 0.25179571E+04</rscale>
<asrwt>0</asrwt>
<pdfrwt beam="1">  1        1 0.53705271E+00 0.25179571E+04</pdfrwt>
<pdfrwt beam="2">  1       -1 0.69854284E-01 0.25179571E+04</pdfrwt>
<totfact> 0.46738402E-01</totfact>
</mgrwt>
</event>
<event>
12    1  0.1489025E-007  0.1079979E+04  0.7818608E-02  0.9224928E-01
         -4   -1    0    0    0  501 -0.00000000000E+00  0.00000000000E+00  0.51193800917E+03  0.51193800917E+03  0.00000000000E+00 0.  1.
          4   -1    0    0  501    0  0.00000000000E+00 -0.00000000000E+00 -0.56957804487E+03  0.56957804487E+03  0.00000000000E+00 0. -1.
         23    2    1    2    0    0 -0.54407719062E+02 -0.12174267256E+03  0.72364434713E+02  0.17488173411E+03  0.86980062647E+02 0.  0.
        254    2    1    2    0    0  0.54407719062E+02  0.12174267256E+03 -0.13000447041E+03  0.90663431993E+03  0.88730104786E+03 0.  0.
        -24    2    4    4    0    0 -0.21274161267E+03  0.42617770023E+03 -0.46395038648E+02  0.48494634718E+03  0.78320074661E+02 0.  0.
         24    2    4    4    0    0  0.26714933174E+03 -0.30443502767E+03 -0.83609431762E+02  0.42168797275E+03  0.82345356654E+02 0.  0.
         11    1    3    3    0    0 -0.25791403125E+02 -0.10987896187E+03  0.85135807724E+02  0.14137428512E+03  0.00000000000E+00 0.  1.
        -11    1    3    3    0    0 -0.28616315937E+02 -0.11863710691E+02 -0.12771373010E+02  0.33507448988E+02  0.00000000000E+00 0. -1.
          2    1    6    6  502    0  0.16798470161E+03 -0.13330312509E+03 -0.28269404477E+02  0.21630474420E+03  0.00000000000E+00 0. -1.
          1    1    5    5  503    0 -0.15961544836E+03  0.29860205686E+03 -0.67211065046E+02  0.34519213053E+03  0.00000000000E+00 0. -1.
         -2    1    5    5    0  503 -0.53126164318E+02  0.12757564337E+03  0.20816026398E+02  0.13975421665E+03  0.00000000000E+00 0.  1.
         -1    1    6    6    0  502  0.99164630120E+02 -0.17113190258E+03 -0.55340027285E+02  0.20538322855E+03  0.00000000000E+00 0.  1.
<mgrwt>
<rscale>  0 0.10799790E+04</rscale>
<asrwt>0</asrwt>
<pdfrwt beam="1">  1        4 0.87627391E-01 0.10799790E+04</pdfrwt>
<pdfrwt beam="2">  1       -4 0.78759694E-01 0.10799790E+04</pdfrwt>
<totfact> 0.32029952E+00</totfact>
</mgrwt>
</event>
<event>
12    1  0.1489025E-007  0.1260372E+04  0.7818608E-02  0.9061594E-01
          2   -1    0    0  501    0  0.00000000000E+00  0.00000000000E+00  0.34167852050E+03  0.34167852050E+03  0.00000000000E+00 0. -1.
         -2   -1    0    0    0  501 -0.00000000000E+00 -0.00000000000E+00 -0.11623050717E+04  0.11623050717E+04  0.00000000000E+00 0.  1.
         23    2    1    2    0    0  0.23281300211E+03  0.13759016431E+03 -0.35938465450E+03  0.45898886128E+03  0.91545057897E+02 0.  0.
        254    2    1    2    0    0 -0.23281300211E+03 -0.13759016431E+03 -0.46124189671E+03  0.10449947309E+04  0.89785129788E+03 0.  0.
        -24    2    4    4    0    0 -0.28791556383E+03 -0.17311254969E+03  0.18425669484E+03  0.39146787917E+03  0.80207506345E+02 0.  0.
         24    2    4    4    0    0  0.55102561716E+02  0.35522385375E+02 -0.64549859155E+03  0.65352685175E+03  0.78299311009E+02 0.  0.
         13    1    3    3    0    0  0.19765539093E+03  0.14434904084E+03 -0.27992588022E+03  0.37183705783E+03  0.00000000000E+00 0.  1.
        -13    1    3    3    0    0  0.35157611184E+02 -0.67588765327E+01 -0.79458774276E+02  0.87151803456E+02  0.00000000000E+00 0. -1.
          4    1    6    6  502    0 -0.19210376448E+02  0.15147705875E+02 -0.12713667024E+03  0.12946900972E+03  0.00000000000E+00 0. -1.
          1    1    5    5  503    0 -0.56919572487E+02 -0.57012159254E+02  0.77417312276E+02  0.11173031941E+03  0.00000000000E+00 0. -1.
         -2    1    5    5    0  503 -0.23099599134E+03 -0.11610039043E+03  0.10683938256E+03  0.27973755976E+03  0.00000000000E+00 0.  1.
         -3    1    6    6    0  502  0.74312938164E+02  0.20374679500E+02 -0.51836192130E+03  0.52405784204E+03  0.00000000000E+00 0.  1.
<mgrwt>
<rscale>  0 0.12603724E+04</rscale>
<asrwt>0</asrwt>
<pdfrwt beam="1">  1        2 0.52565926E-01 0.12603724E+04</pdfrwt>
<pdfrwt beam="2">  1       -2 0.17881616E+00 0.12603724E+04</pdfrwt>
<totfact> 0.17220866E+01</totfact>
</mgrwt>
</event>
<event>
12    1  0.1489025E-007  0.1236895E+04  0.7818608E-02  0.9081161E-01
         -1   -1    0    0    0  501 -0.00000000000E+00  0.00000000000E+00  0.36992219587E+03  0.36992219587E+03  0.00000000000E+00 0.  1.
          1   -1    0    0  501    0  0.00000000000E+00 -0.00000000000E+00 -0.10339405180E+04  0.10339405180E+04  0.00000000000E+00 0. -1.
         23    2    1    2    0    0  0.11394025723E+03 -0.19655360161E+02  0.13361899457E+03  0.19883022057E+03  0.91163070918E+02 0.  0.
        254    2    1    2    0    0 -0.11394025723E+03  0.19655360161E+02 -0.79763731670E+03  0.12050324933E+04  0.89582883717E+03 0.  0.
        -24    2    4    4    0    0 -0.38960615422E+03  0.20692213117E+03 -0.72669641259E+03  0.85388579935E+03  0.80147105263E+02 0.  0.
         24    2    4    4    0    0  0.27566589699E+03 -0.18726677101E+03 -0.70940904111E+02  0.35114669395E+03  0.84916774020E+02 0.  0.
         11    1    3    3    0    0  0.43418482415E+02 -0.33582274900E+02  0.99463735169E+01  0.55784085086E+02  0.00000000000E+00 0. -1.
        -11    1    3    3    0    0  0.70521774812E+02  0.13926914738E+02  0.12367262106E+03  0.14304613548E+03  0.00000000000E+00 0.  1.
          2    1    6    6  502    0  0.45609719212E+02 -0.67059117250E+02 -0.37782814832E+02  0.89469060516E+02  0.00000000000E+00 0. -1.
          1    1    5    5  503    0 -0.40706971049E+02  0.50473136224E+02 -0.85076531413E+02  0.10697014149E+03  0.00000000000E+00 0. -1.
         -2    1    5    5    0  503 -0.34889918317E+03  0.15644899494E+03 -0.64161988118E+03  0.74691565786E+03  0.00000000000E+00 0.  1.
         -1    1    6    6    0  502  0.23005617778E+03 -0.12020765376E+03 -0.33158089280E+02  0.26167763344E+03  0.00000000000E+00 0.  1.
<mgrwt>
<rscale>  0 0.12368954E+04</rscale>
<asrwt>0</asrwt>
<pdfrwt beam="1">  1        1 0.15906777E+00 0.12368954E+04</pdfrwt>
<pdfrwt beam="2">  1       -1 0.56911108E-01 0.12368954E+04</pdfrwt>
<totfact> 0.43929384E+01</totfact>
</mgrwt>
</event>
<event>
12    1  0.1489025E-007  0.3783974E+04  0.7818608E-02  0.8049603E-01
          2   -1    0    0  501    0  0.00000000000E+00  0.00000000000E+00  0.30155284204E+04  0.30155284204E+04  0.00000000000E+00 0.  1.
         -2   -1    0    0    0  501 -0.00000000000E+00 -0.00000000000E+00 -0.11870606253E+04  0.11870606253E+04  0.00000000000E+00 0. -1.
         23    2    1    2    0    0  0.49707016150E+03  0.60014158572E+03  0.26800407323E+04  0.27925019997E+04  0.90556188598E+02 0.  0.
        254    2    1    2    0    0 -0.49707016150E+03 -0.60014158572E+03 -0.85157293722E+03  0.14100870459E+04  0.80988909200E+03 0.  0.
        -24    2    4    4    0    0 -0.19276224542E+03  0.76608035152E+01 -0.67050167021E+03  0.70227397178E+03  0.80001690790E+02 0.  0.
         24    2    4    4    0    0 -0.30430791609E+03 -0.60780238923E+03 -0.18107126702E+03  0.70781307415E+03  0.78647899206E+02 0.  0.
         11    1    3    3    0    0  0.26227337535E+02  0.42211892979E+02  0.10851287441E+03  0.11935141832E+03  0.00000000000E+00 0. -1.
        -11    1    3    3    0    0  0.47084282397E+03  0.55792969274E+03  0.25715278579E+04  0.26731505814E+04  0.00000000000E+00 0.  1.
          4    1    6    6  502    0 -0.14406786008E+03 -0.37337420883E+03 -0.10008632148E+03  0.41253014420E+03  0.00000000000E+00 0. -1.
          1    1    5    5  503    0 -0.18747596747E+03  0.34546334069E+01 -0.54057402264E+03  0.57217081962E+03  0.00000000000E+00 0. -1.
         -2    1    5    5    0  503 -0.52862779480E+01  0.42061701082E+01 -0.12992764757E+03  0.13010315217E+03  0.00000000000E+00 0.  1.
         -3    1    6    6    0  502 -0.16024005601E+03 -0.23442818041E+03 -0.80984945541E+02  0.29528292995E+03  0.00000000000E+00 0.  1.
<mgrwt>
<rscale>  0 0.37839741E+04</rscale>
<asrwt>0</asrwt>
<pdfrwt beam="1">  1        2 0.46392745E+00 0.37839741E+04</pdfrwt>
<pdfrwt beam="2">  1       -2 0.18262471E+00 0.37839741E+04</pdfrwt>
<totfact> 0.23758292E-01</totfact>
</mgrwt>
</event>
<event>
12    1  0.1489025E-007  0.1774494E+04  0.7818608E-02  0.8719982E-01
         -1   -1    0    0    0  501 -0.00000000000E+00  0.00000000000E+00  0.78745325085E+03  0.78745325085E+03  0.00000000000E+00 0.  1.
          1   -1    0    0  501    0  0.00000000000E+00 -0.00000000000E+00 -0.99968712832E+03  0.99968712832E+03  0.00000000000E+00 0. -1.
         23    2    1    2    0    0 -0.10624501881E+03 -0.63024093449E+03  0.66088639963E+02  0.64948631687E+03  0.94726595733E+02 0.  0.
        254    2    1    2    0    0  0.10624501881E+03  0.63024093449E+03 -0.27832251743E+03  0.11376540623E+04  0.89905600617E+03 0.  0.
        -24    2    4    4    0    0 -0.36703283986E+03  0.16133892464E+03  0.56346442277E+01  0.40897386086E+03  0.80526489484E+02 0.  0.
         24    2    4    4    0    0  0.47327785868E+03  0.46890200985E+03 -0.28395716166E+03  0.72868020144E+03  0.80511738023E+02 0.  0.
         13    1    3    3    0    0 -0.44277231089E+02 -0.31067695671E+03 -0.14469055190E+02  0.31414964298E+03  0.00000000000E+00 0.  1.
        -13    1    3    3    0    0 -0.61967787722E+02 -0.31956397777E+03  0.80557695153E+02  0.33533667389E+03  0.00000000000E+00 0. -1.
          2    1    6    6  502    0  0.18719368442E+02  0.12934426904E+01 -0.52528334308E+01  0.19485379337E+02  0.00000000000E+00 0. -1.
          1    1    5    5  503    0 -0.62848110296E+02  0.22497007865E+02  0.31079775634E+02  0.73633910558E+02  0.00000000000E+00 0. -1.
         -2    1    5    5    0  503 -0.30418472957E+03  0.13884191677E+03 -0.25445131406E+02  0.33533995030E+03  0.00000000000E+00 0.  1.
         -1    1    6    6    0  502  0.45455849023E+03  0.46760856716E+03 -0.27870432823E+03  0.70919482210E+03  0.00000000000E+00 0.  1.
<mgrwt>
<rscale>  0 0.17744936E+04</rscale>
<asrwt>0</asrwt>
<pdfrwt beam="1">  1        1 0.15379802E+00 0.17744936E+04</pdfrwt>
<pdfrwt beam="2">  1       -1 0.12114665E+00 0.17744936E+04</pdfrwt>
<totfact> 0.86599618E+00</totfact>
</mgrwt>
</event>
<event>
12    1  0.1489025E-007  0.1369217E+04  0.7818608E-02  0.8976407E-01
          1   -1    0    0  501    0  0.00000000000E+00  0.00000000000E+00  0.61292268421E+03  0.61292268421E+03  0.00000000000E+00 0. -1.
         -1   -1    0    0    0  501 -0.00000000000E+00 -0.00000000000E+00 -0.76467887218E+03  0.76467887218E+03  0.00000000000E+00 0.  1.
         23    2    1    2    0    0  0.21923432214E+03  0.27072968693E+03 -0.20443400952E+03  0.41396357288E+03  0.90632908110E+02 0.  0.
        254    2    1    2    0    0 -0.21923432214E+03 -0.27072968693E+03  0.52677821553E+02  0.96363798351E+03  0.89691970599E+03 0.  0.
        -24    2    4    4    0    0  0.33027617697E+03 -0.10422850350E+03 -0.88346046743E+02  0.36686856293E+03  0.82713871130E+02 0.  0.
         24    2    4    4    0    0 -0.54951049910E+03 -0.16650118344E+03  0.14102386830E+03  0.59676942058E+03  0.81003562892E+02 0.  0.
         13    1    3    3    0    0  0.21206182567E+03  0.27587920540E+03 -0.20685662366E+03  0.40480762917E+03  0.00000000000E+00 0.  1.
        -13    1    3    3    0    0  0.71724964651E+01 -0.51495184679E+01  0.24226141389E+01  0.91559437121E+01  0.00000000000E+00 0. -1.
          4    1    6    6  502    0 -0.50462015770E+03 -0.13776502840E+03  0.10816275529E+03  0.53415343136E+03  0.00000000000E+00 0. -1.
          1    1    5    5  503    0  0.90229825196E+02  0.59945046488E+01 -0.37400199365E+02  0.97857704620E+02  0.00000000000E+00 0. -1.
         -2    1    5    5    0  503  0.24004635177E+03 -0.11022300814E+03 -0.50945847378E+02  0.26901085831E+03  0.00000000000E+00 0.  1.
         -3    1    6    6    0  502 -0.44890341407E+02 -0.28736155038E+02  0.32861113006E+02  0.62615989220E+02  0.00000000000E+00 0.  1.
<mgrwt>
<rscale>  0 0.13692173E+04</rscale>
<asrwt>0</asrwt>
<pdfrwt beam="1">  1        1 0.94295798E-01 0.13692173E+04</pdfrwt>
<pdfrwt beam="2">  1       -1 0.11764290E+00 0.13692173E+04</pdfrwt>
<totfact> 0.21096191E+01</totfact>
</mgrwt>
</event>
<event>
12    1  0.1489025E-007  0.1079264E+04  0.7818608E-02  0.9225641E-01
         -2   -1    0    0    0  501 -0.00000000000E+00  0.00000000000E+00  0.24217793962E+03  0.24217793962E+03  0.00000000000E+00 0.  1.
          2   -1    0    0  501    0  0.00000000000E+00 -0.00000000000E+00 -0.12024332821E+04  0.12024332821E+04  0.00000000000E+00 0. -1.
         23    2    1    2    0    0 -0.52512485881E+02  0.12466829965E+03 -0.16678808289E+03  0.23694737950E+03  0.10013016503E+03 0.  0.
        254    2    1    2    0    0  0.52512485881E+02 -0.12466829965E+03 -0.79346725960E+03  0.12076638422E+04  0.90031212233E+03 0.  0.
        -24    2    4    4    0    0 -0.10544595737E+03  0.36530876054E+03 -0.32310574218E+03  0.50540637308E+03  0.80429726257E+02 0.  0.
         24    2    4    4    0    0  0.15795844325E+03 -0.48997706020E+03 -0.47036151743E+03  0.70225746914E+03  0.83049422448E+02 0.  0.
         13    1    3    3    0    0 -0.43278927237E+02  0.67415143696E+02 -0.15951280182E+03  0.17849986299E+03  0.00000000000E+00 0. -1.
        -13    1    3    3    0    0 -0.92335586444E+01  0.57253155959E+02 -0.72752810682E+01  0.58447516518E+02  0.00000000000E+00 0.  1.
          4    1    6    6  502    0  0.89343744134E+02 -0.35577393996E+03 -0.29280879768E+03  0.46935529502E+03  0.00000000000E+00 0. -1.
          1    1    5    5  503    0 -0.11632713938E+03  0.29909180589E+03 -0.27764763357E+03  0.42435376767E+03  0.00000000000E+00 0. -1.
         -2    1    5    5    0  503  0.10881182015E+02  0.66216954652E+02 -0.45458108606E+02  0.81052605408E+02  0.00000000000E+00 0.  1.
         -3    1    6    6    0  502  0.68614699116E+02 -0.13420312024E+03 -0.17755271975E+03  0.23290217412E+03  0.00000000000E+00 0.  1.
<mgrwt>
<rscale>  0 0.10792642E+04</rscale>
<asrwt>0</asrwt>
<pdfrwt beam="1">  1        2 0.18498973E+00 0.10792642E+04</pdfrwt>
<pdfrwt beam="2">  1       -2 0.37258145E-01 0.10792642E+04</pdfrwt>
<totfact> 0.12732675E+02</totfact>
</mgrwt>
</event>
<event>
12    1  0.1489025E-007  0.1505348E+04  0.7818608E-02  0.8880904E-01
          2   -1    0    0  501    0  0.00000000000E+00  0.00000000000E+00  0.24124137648E+04  0.24124137648E+04  0.00000000000E+00 0. -1.
         -2   -1    0    0    0  501 -0.00000000000E+00 -0.00000000000E+00 -0.23483470047E+03  0.23483470047E+03  0.00000000000E+00 0.  1.
         23    2    1    2    0    0 -0.27550232750E+03  0.39002138717E+03  0.67883273450E+03  0.83501522887E+03  0.91751491040E+02 0.  0.
        254    2    1    2    0    0  0.27550232750E+03 -0.39002138717E+03  0.14987463298E+04  0.18122332364E+04  0.89996140308E+03 0.  0.
        -24    2    4    4    0    0  0.31898195441E+03  0.21576121962E+03  0.45579834148E+03  0.60255244833E+03  0.83755201382E+02 0.  0.
         24    2    4    4    0    0 -0.43479626915E+02 -0.60578260680E+03  0.10429479883E+04  0.12096807881E+04  0.82000353486E+02 0.  0.
         11    1    3    3    0    0 -0.63779790723E+02  0.13795974173E+03  0.27304690612E+03  0.31249858397E+03  0.00000000000E+00 0. -1.
        -11    1    3    3    0    0 -0.21172253678E+03  0.25206164544E+03  0.40578582838E+03  0.52251664490E+03  0.00000000000E+00 0.  1.
          2    1    6    6  502    0 -0.19239222459E+02 -0.56478550610E+03  0.96789446248E+03  0.11207910180E+04  0.00000000000E+00 0. -1.
          1    1    5    5  503    0  0.84531779000E+02  0.10383573471E+03  0.16823877294E+03  0.21501573474E+03  0.00000000000E+00 0. -1.
         -2    1    5    5    0  503  0.23445017541E+03  0.11192548491E+03  0.28755956854E+03  0.38753671359E+03  0.00000000000E+00 0.  1.
         -1    1    6    6    0  502 -0.24240404456E+02 -0.40997100695E+02  0.75053525867E+02  0.88889770045E+02  0.00000000000E+00 0.  1.
<mgrwt>
<rscale>  0 0.15053484E+04</rscale>
<asrwt>0</asrwt>
<pdfrwt beam="1">  1        2 0.37114056E+00 0.15053484E+04</pdfrwt>
<pdfrwt beam="2">  1       -2 0.36128417E-01 0.15053484E+04</pdfrwt>
<totfact> 0.27284046E+01</totfact>
</mgrwt>
</event>
<event>
12    1  0.1591310E-007  0.1619224E+04  0.7818608E-02  0.8808824E-01
          1   -1    0    0  501    0  0.00000000000E+00  0.00000000000E+00  0.82591615664E+03  0.82591615664E+03  0.00000000000E+00 0. -1.
         -1   -1    0    0    0  501 -0.00000000000E+00 -0.00000000000E+00 -0.79363009489E+03  0.79363009489E+03  0.00000000000E+00 0.  1.
         23    2    1    2    0    0  0.18658346816E+03  0.17128870326E+03  0.50409175560E+03  0.57062731048E+03  0.85754410645E+02 0.  0.
        254    2    1    2    0    0 -0.18658346816E+03 -0.17128870326E+03 -0.47180569385E+03  0.10489189411E+04  0.90192966560E+03 0.  0.
        -24    2    4    4    0    0 -0.23666206396E+03  0.33624755615E+03 -0.18080548025E+03  0.45618210728E+03  0.79625007249E+02 0.  0.
         24    2    4    4    0    0  0.50078595798E+02 -0.50753625941E+03 -0.29100021361E+03  0.59273683377E+03  0.80962395097E+02 0.  0.
         11    1    3    3    0    0 -0.59708675190E+01  0.10516816275E+00  0.34373288350E+02  0.34888182402E+02  0.00000000000E+00 0.  1.
        -11    1    3    3    0    0  0.19255433568E+03  0.17118353510E+03  0.46971846725E+03  0.53573912808E+03  0.00000000000E+00 0. -1.
          2    1    6    6  502    0  0.26222183241E+02 -0.47413383358E+02 -0.45024512534E+02  0.70447416875E+02  0.00000000000E+00 0. -1.
          1    1    5    5  503    0 -0.72403327224E+02  0.47855649403E+02 -0.42337458985E+02  0.96565342676E+02  0.00000000000E+00 0. -1.
         -2    1    5    5    0  503 -0.16425873674E+03  0.28839190674E+03 -0.13846802126E+03  0.35961676460E+03  0.00000000000E+00 0.  1.
         -1    1    6    6    0  502  0.23856412557E+02 -0.46012287605E+03 -0.24597570107E+03  0.52228941690E+03  0.00000000000E+00 0.  1.
<mgrwt>
<rscale>  0 0.16192244E+04</rscale>
<asrwt>0</asrwt>
<pdfrwt beam="1">  1        1 0.12706402E+00 0.16192244E+04</pdfrwt>
<pdfrwt beam="2">  1       -1 0.12209694E+00 0.16192244E+04</pdfrwt>
<totfact> 0.11935648E+01</totfact>
</mgrwt>
</event>
<event>
12    1  0.1489025E-007  0.2047230E+04  0.7818608E-02  0.8584852E-01
          2   -1    0    0  501    0  0.00000000000E+00  0.00000000000E+00  0.26675409206E+04  0.26675409206E+04  0.00000000000E+00 0. -1.
         -2   -1    0    0    0  501 -0.00000000000E+00 -0.00000000000E+00 -0.39279153734E+03  0.39279153734E+03  0.00000000000E+00 0.  1.
         23    2    1    2    0    0  0.51005553681E+03  0.57818677645E+03  0.49978104068E+03  0.92463099140E+03  0.10346391904E+03 0.  0.
        254    2    1    2    0    0 -0.51005553681E+03 -0.57818677645E+03  0.17749683426E+04  0.21357014665E+04  0.90346640109E+03 0.  0.
        -24    2    4    4    0    0  0.11324304098E+03 -0.47677194144E+03  0.46978730731E+03  0.68358283383E+03  0.80311307536E+02 0.  0.
         24    2    4    4    0    0 -0.62329857779E+03 -0.10141483501E+03  0.13051810353E+04  0.14521186327E+04  0.79780340855E+02 0.  0.
         13    1    3    3    0    0  0.11080973347E+03  0.15504580116E+03  0.17294234875E+03  0.25734617440E+03  0.00000000000E+00 0. -1.
        -13    1    3    3    0    0  0.39924580334E+03  0.42314097529E+03  0.32683869194E+03  0.66728481700E+03  0.00000000000E+00 0.  1.
          4    1    6    6  502    0 -0.48770402835E+03 -0.59162793405E+02  0.94797311743E+03  0.10677117995E+04  0.00000000000E+00 0. -1.
          1    1    5    5  503    0  0.80602055226E+02 -0.43829678913E+03  0.43066984441E+03  0.61973968854E+03  0.00000000000E+00 0. -1.
         -2    1    5    5    0  503  0.32640985756E+02 -0.38475152311E+02  0.39117462906E+02  0.63843145291E+02  0.00000000000E+00 0.  1.
         -3    1    6    6    0  502 -0.13559454944E+03 -0.42252041605E+02  0.35720791785E+03  0.38440683323E+03  0.00000000000E+00 0.  1.
<mgrwt>
<rscale>  0 0.20472298E+04</rscale>
<asrwt>0</asrwt>
<pdfrwt beam="1">  1        2 0.41039090E+00 0.20472298E+04</pdfrwt>
<pdfrwt beam="2">  1       -2 0.60429469E-01 0.20472298E+04</pdfrwt>
<totfact> 0.65604754E+00</totfact>
</mgrwt>
</event>
<event>
12    1  0.1489025E-007  0.1247544E+04  0.7818608E-02  0.9072230E-01
         -1   -1    0    0    0  501 -0.00000000000E+00  0.00000000000E+00  0.25109323224E+03  0.25109323224E+03  0.00000000000E+00 0.  1.
          1   -1    0    0  501    0  0.00000000000E+00 -0.00000000000E+00 -0.15495890887E+04  0.15495890887E+04  0.00000000000E+00 0. -1.
         23    2    1    2    0    0 -0.17632345981E+03 -0.18584927918E+03 -0.49319675624E+03  0.56252095798E+03  0.86930263666E+02 0.  0.
        254    2    1    2    0    0  0.17632345981E+03  0.18584927918E+03 -0.80529910026E+03  0.12381613630E+04  0.90493480590E+03 0.  0.
        -24    2    4    4    0    0  0.19070428411E+03 -0.10959199315E+03  0.12017927756E+03  0.26321317612E+03  0.80371564528E+02 0.  0.
         24    2    4    4    0    0 -0.14380824304E+02  0.29544127233E+03 -0.92547837782E+03  0.97494818689E+03  0.80755097736E+02 0.  0.
         13    1    3    3    0    0 -0.77845368754E+02 -0.32505535153E+02 -0.20319504872E+03  0.22001077036E+03  0.00000000000E+00 0.  1.
        -13    1    3    3    0    0 -0.98478091056E+02 -0.15334374403E+03 -0.29000170752E+03  0.34251018761E+03  0.00000000000E+00 0. -1.
          2    1    6    6  502    0 -0.26716834002E+00 -0.53863586722E+01 -0.13822529000E+02  0.14837336237E+02  0.00000000000E+00 0. -1.
          3    1    5    5  503    0  0.43780366929E+02 -0.65925067880E+02  0.25925316467E+02  0.83276390035E+02  0.00000000000E+00 0. -1.
         -4    1    5    5    0  503  0.14692391719E+03 -0.43666925270E+02  0.94253961096E+02  0.17993678608E+03  0.00000000000E+00 0.  1.
         -1    1    6    6    0  502 -0.14113655964E+02  0.30082763101E+03 -0.91165584882E+03  0.96011085066E+03  0.00000000000E+00 0.  1.
<mgrwt>
<rscale>  0 0.12475437E+04</rscale>
<asrwt>0</asrwt>
<pdfrwt beam="1">  1        1 0.23839832E+00 0.12475437E+04</pdfrwt>
<pdfrwt beam="2">  1       -1 0.38629728E-01 0.12475437E+04</pdfrwt>
<totfact> 0.38698280E+01</totfact>
</mgrwt>
</event>
<event>
12    1  0.1489025E-007  0.1738939E+04  0.7818608E-02  0.8739462E-01
          2   -1    0    0  501    0  0.00000000000E+00  0.00000000000E+00  0.64470457795E+03  0.64470457795E+03  0.00000000000E+00 0. -1.
         -2   -1    0    0    0  501 -0.00000000000E+00 -0.00000000000E+00 -0.11725951809E+04  0.11725951809E+04  0.00000000000E+00 0.  1.
         23    2    1    2    0    0 -0.53088640227E+03  0.16307356421E+03 -0.15017749004E+03  0.58250232176E+03  0.91226733320E+02 0.  0.
        254    2    1    2    0    0  0.53088640227E+03 -0.16307356421E+03 -0.37771311291E+03  0.12347974371E+04  0.10361583641E+04 0.  0.
        -24    2    4    4    0    0 -0.26253382038E+03 -0.17851452772E+03 -0.28083131118E+03  0.43140251902E+03  0.80314784603E+02 0.  0.
         24    2    4    4    0    0  0.79342022265E+03  0.15440963504E+02 -0.96881801722E+02  0.80339491807E+03  0.79392933016E+02 0.  0.
         13    1    3    3    0    0 -0.33887538908E+03  0.13368063896E+03 -0.13175049746E+03  0.38738254496E+03  0.00000000000E+00 0. -1.
        -13    1    3    3    0    0 -0.19201101319E+03  0.29392925256E+02 -0.18426992580E+02  0.19511977680E+03  0.00000000000E+00 0.  1.
          2    1    6    6  502    0  0.15984564712E+03  0.30027154637E+02 -0.37253298684E+02  0.16685343623E+03  0.00000000000E+00 0. -1.
          3    1    5    5  503    0 -0.32817201003E+02 -0.39484011768E+02 -0.14831872146E+02  0.53440998291E+02  0.00000000000E+00 0. -1.
         -4    1    5    5    0  503 -0.22971661938E+03 -0.13903051595E+03 -0.26599943904E+03  0.37796152073E+03  0.00000000000E+00 0.  1.
         -1    1    6    6    0  502  0.63357457553E+03 -0.14586191133E+02 -0.59628503038E+02  0.63654148184E+03  0.00000000000E+00 0.  1.
<mgrwt>
<rscale>  0 0.17389393E+04</rscale>
<asrwt>0</asrwt>
<pdfrwt beam="1">  1        2 0.99185322E-01 0.17389393E+04</pdfrwt>
<pdfrwt beam="2">  1       -2 0.18039926E+00 0.17389393E+04</pdfrwt>
<totfact> 0.77570558E+00</totfact>
</mgrwt>
</event>
<event>
12    1  0.1489025E-007  0.2397268E+04  0.7818608E-02  0.8440527E-01
          2   -1    0    0  501    0  0.00000000000E+00  0.00000000000E+00  0.10709923040E+04  0.10709923040E+04  0.00000000000E+00 0. -1.
         -2   -1    0    0    0  501 -0.00000000000E+00 -0.00000000000E+00 -0.13414882553E+04  0.13414882553E+04  0.00000000000E+00 0.  1.
         23    2    1    2    0    0 -0.75298950433E+02  0.10243268198E+04 -0.62349888150E+02  0.10328351983E+04  0.89138501294E+02 0.  0.
        254    2    1    2    0    0  0.75298950433E+02 -0.10243268198E+04 -0.20814606308E+03  0.13796453610E+04  0.89731888024E+03 0.  0.
        -24    2    4    4    0    0 -0.22919482721E+03 -0.98504765051E+03 -0.28895690865E+02  0.10150355237E+04  0.81320420111E+02 0.  0.
         24    2    4    4    0    0  0.30449377765E+03 -0.39279169333E+02 -0.17925037221E+03  0.36460983738E+03  0.80934070713E+02 0.  0.
         11    1    3    3    0    0 -0.47449774921E+02  0.73625139202E+03 -0.50340903516E+01  0.73779599854E+03  0.00000000000E+00 0.  1.
        -11    1    3    3    0    0 -0.27849175512E+02  0.28807542782E+03 -0.57315797799E+02  0.29503919972E+03  0.00000000000E+00 0. -1.
          4    1    6    6  502    0  0.57365409694E+02 -0.32559088076E+02 -0.14537234301E+02  0.67544175373E+02  0.00000000000E+00 0. -1.
          1    1    5    5  503    0 -0.44791839593E+02 -0.15099985103E+03 -0.32581118857E+02  0.16083778540E+03  0.00000000000E+00 0. -1.
         -2    1    5    5    0  503 -0.18440298762E+03 -0.83404779948E+03  0.36854279925E+01  0.85419773825E+03  0.00000000000E+00 0.  1.
         -3    1    6    6    0  502  0.24712836795E+03 -0.67200812562E+01 -0.16471313791E+03  0.29706566200E+03  0.00000000000E+00 0.  1.
<mgrwt>
<rscale>  0 0.23972681E+04</rscale>
<asrwt>0</asrwt>
<pdfrwt beam="1">  1        2 0.16476805E+00 0.23972681E+04</pdfrwt>
<pdfrwt beam="2">  1       -2 0.20638281E+00 0.23972681E+04</pdfrwt>
<totfact> 0.24677816E+00</totfact>
</mgrwt>
</event>
<event>
12    1  0.1489025E-007  0.3444622E+04  0.7818608E-02  0.8127041E-01
          2   -1    0    0  501    0  0.00000000000E+00  0.00000000000E+00  0.39649766781E+04  0.39649766781E+04  0.00000000000E+00 0. -1.
         -2   -1    0    0    0  501 -0.00000000000E+00 -0.00000000000E+00 -0.74813943715E+03  0.74813943715E+03  0.00000000000E+00 0.  1.
         23    2    1    2    0    0 -0.59632556283E+03  0.26000874470E+03  0.35171979820E+04  0.35791212733E+04  0.12735273870E+03 0.  0.
        254    2    1    2    0    0  0.59632556283E+03 -0.26000874470E+03 -0.30036074113E+03  0.11339948419E+04  0.87893060159E+03 0.  0.
        -24    2    4    4    0    0  0.35751430566E+03  0.21569940006E+03 -0.40336675125E+03  0.58609305754E+03  0.80359356259E+02 0.  0.
         24    2    4    4    0    0  0.23881125716E+03 -0.47570814476E+03  0.10300601012E+03  0.54790178435E+03  0.79101653803E+02 0.  0.
         13    1    3    3    0    0 -0.41948715282E+03  0.24210376480E+03  0.24924527480E+04  0.25390755021E+04  0.00000000000E+00 0. -1.
        -13    1    3    3    0    0 -0.17683841001E+03  0.17904979902E+02  0.10247452340E+04  0.10400457712E+04  0.00000000000E+00 0.  1.
          2    1    6    6  502    0  0.28423392682E+02 -0.96874218227E+02  0.45612925821E+02  0.11078376420E+03  0.00000000000E+00 0. -1.
          1    1    5    5  503    0  0.23861785306E+01 -0.38676555445E+01  0.12159137141E+01  0.47043653718E+01  0.00000000000E+00 0. -1.
         -2    1    5    5    0  503  0.35512812713E+03  0.21956705561E+03 -0.40458266496E+03  0.58138869216E+03  0.00000000000E+00 0.  1.
         -1    1    6    6    0  502  0.21038786448E+03 -0.37883392654E+03  0.57393084296E+02  0.43711802015E+03  0.00000000000E+00 0.  1.
<mgrwt>
<rscale>  0 0.34446221E+04</rscale>
<asrwt>0</asrwt>
<pdfrwt beam="1">  1        2 0.60999640E+00 0.34446221E+04</pdfrwt>
<pdfrwt beam="2">  1       -2 0.11509838E+00 0.34446221E+04</pdfrwt>
<totfact> 0.17688916E-01</totfact>
</mgrwt>
</event>
<event>
12    1  0.1489025E-007  0.1646527E+04  0.7818608E-02  0.8792464E-01
         -1   -1    0    0    0  501 -0.00000000000E+00  0.00000000000E+00  0.11485495045E+04  0.11485495045E+04  0.00000000000E+00 0.  1.
          1   -1    0    0  501    0  0.00000000000E+00 -0.00000000000E+00 -0.59010292465E+03  0.59010292465E+03  0.00000000000E+00 0. -1.
         23    2    1    2    0    0 -0.13615730676E+03  0.49304056013E+02  0.77980305659E+03  0.79731552662E+03  0.81544710346E+02 0.  0.
        254    2    1    2    0    0  0.13615730676E+03 -0.49304056013E+02 -0.22135647677E+03  0.94133690251E+03  0.90340841932E+03 0.  0.
        -24    2    4    4    0    0 -0.45206831102E+02  0.24582009766E+03 -0.44847178002E+03  0.51964979521E+03  0.80235866062E+02 0.  0.
         24    2    4    4    0    0  0.18136413786E+03 -0.29512415367E+03  0.22711530325E+03  0.42168710730E+03  0.79040742100E+02 0.  0.
         11    1    3    3    0    0 -0.98854400600E+02 -0.59945626246E+01  0.49431487508E+03  0.50413819834E+03  0.00000000000E+00 0.  1.
        -11    1    3    3    0    0 -0.37302906159E+02  0.55298618637E+02  0.28548818151E+03  0.29317732827E+03  0.00000000000E+00 0. -1.
          2    1    6    6  502    0  0.15039561023E+03 -0.27767448318E+03  0.18281258998E+03  0.36488683347E+03  0.00000000000E+00 0. -1.
          3    1    5    5  503    0 -0.48290315709E+02  0.20821639221E+03 -0.31297382609E+03  0.37899688177E+03  0.00000000000E+00 0. -1.
         -4    1    5    5    0  503  0.30834846071E+01  0.37603705448E+02 -0.13549795393E+03  0.14065291344E+03  0.00000000000E+00 0.  1.
         -1    1    6    6    0  502  0.30968527628E+02 -0.17449670486E+02  0.44302713269E+02  0.56800273824E+02  0.00000000000E+00 0.  1.
<mgrwt>
<rscale>  0 0.16465266E+04</rscale>
<asrwt>0</asrwt>
<pdfrwt beam="1">  1        1 0.90785066E-01 0.16465266E+04</pdfrwt>
<pdfrwt beam="2">  1       -1 0.17669992E+00 0.16465266E+04</pdfrwt>
<totfact> 0.73712643E+00</totfact>
</mgrwt>
</event>
<event>
12    1  0.1489025E-007  0.1281836E+04  0.7818608E-02  0.9044094E-01
          2   -1    0    0  501    0  0.00000000000E+00  0.00000000000E+00  0.10688563289E+04  0.10688563289E+04  0.00000000000E+00 0. -1.
         -2   -1    0    0    0  501 -0.00000000000E+00 -0.00000000000E+00 -0.38431360981E+03  0.38431360981E+03  0.00000000000E+00 0.  1.
         23    2    1    2    0    0 -0.98908928119E+02  0.20444168506E+02 -0.16286742044E+03  0.21072450038E+03  0.87624644553E+02 0.  0.
        254    2    1    2    0    0  0.98908928119E+02 -0.20444168506E+02  0.84741013953E+03  0.12424454383E+04  0.90297606975E+03 0.  0.
        -24    2    4    4    0    0  0.44653811583E+03 -0.20615098279E+03  0.54840955228E+03  0.74107573366E+03  0.80905434889E+02 0.  0.
         24    2    4    4    0    0 -0.34762918771E+03  0.18570681428E+03  0.29900058726E+03  0.50136970466E+03  0.81468745870E+02 0.  0.
         11    1    3    3    0    0 -0.28370269455E+02 -0.34184245557E+02 -0.57388879314E+02  0.72573537204E+02  0.00000000000E+00 0. -1.
        -11    1    3    3    0    0 -0.70538658664E+02  0.54628414063E+02 -0.10547854113E+03  0.13815096318E+03  0.00000000000E+00 0.  1.
          2    1    6    6  502    0 -0.91959845924E+02  0.87013745325E+02  0.11698536903E+03  0.17237627941E+03  0.00000000000E+00 0. -1.
          3    1    5    5  503    0  0.18031405558E+03 -0.46767310435E+02  0.17518327608E+03  0.25571374657E+03  0.00000000000E+00 0. -1.
         -4    1    5    5    0  503  0.26622406025E+03 -0.15938367235E+03  0.37322627620E+03  0.48536198709E+03  0.00000000000E+00 0.  1.
         -1    1    6    6    0  502 -0.25566934179E+03  0.98693068957E+02  0.18201521823E+03  0.32899342525E+03  0.00000000000E+00 0.  1.
<mgrwt>
<rscale>  0 0.12818362E+04</rscale>
<asrwt>0</asrwt>
<pdfrwt beam="1">  1        2 0.16443943E+00 0.12818362E+04</pdfrwt>
<pdfrwt beam="2">  1       -2 0.59125171E-01 0.12818362E+04</pdfrwt>
<totfact> 0.59727892E+01</totfact>
</mgrwt>
</event>
<event>
12    1  0.1489025E-007  0.1841335E+04  0.7818608E-02  0.8684622E-01
          1   -1    0    0  501    0  0.00000000000E+00  0.00000000000E+00  0.18225129718E+04  0.18225129718E+04  0.00000000000E+00 0. -1.
         -1   -1    0    0    0  501 -0.00000000000E+00 -0.00000000000E+00 -0.46508781022E+03  0.46508781022E+03  0.00000000000E+00 0.  1.
         23    2    1    2    0    0 -0.59053046480E+03 -0.35544456701E+02  0.97823582996E+03  0.11465494700E+04  0.87411153911E+02 0.  0.
        254    2    1    2    0    0  0.59053046480E+03  0.35544456701E+02  0.37918933164E+03  0.11410513121E+04  0.89901274144E+03 0.  0.
        -24    2    4    4    0    0  0.66481678221E+03 -0.97295488046E+02  0.56973338814E+03  0.88449134218E+03  0.79252980530E+02 0.  0.
         24    2    4    4    0    0 -0.74286317410E+02  0.13283994475E+03 -0.19054405650E+03  0.25655996988E+03  0.79693618338E+02 0.  0.
         11    1    3    3    0    0 -0.40376988067E+03 -0.55259463838E+02  0.61751520244E+03  0.73987076582E+03  0.00000000000E+00 0.  1.
        -11    1    3    3    0    0 -0.18676058413E+03  0.19715007137E+02  0.36072062752E+03  0.40667870415E+03  0.00000000000E+00 0. -1.
          2    1    6    6  502    0  0.12704195706E+02  0.16667503125E+02 -0.51371851126E+02  0.55482153321E+02  0.00000000000E+00 0. -1.
          3    1    5    5  503    0  0.15684593728E+03 -0.19373365213E+02  0.17985833280E+03  0.23942638785E+03  0.00000000000E+00 0. -1.
         -4    1    5    5    0  503  0.50797084493E+03 -0.77922122832E+02  0.38987505534E+03  0.64506495433E+03  0.00000000000E+00 0.  1.
         -1    1    6    6    0  502 -0.86990513116E+02  0.11617244162E+03 -0.13917220538E+03  0.20107781656E+03  0.00000000000E+00 0.  1.
<mgrwt>
<rscale>  0 0.18413349E+04</rscale>
<asrwt>0</asrwt>
<pdfrwt beam="1">  1        1 0.28038661E+00 0.18413349E+04</pdfrwt>
<pdfrwt beam="2">  1       -1 0.71551972E-01 0.18413349E+04</pdfrwt>
<totfact> 0.72920574E+00</totfact>
</mgrwt>
</event>
<event>
12    1  0.1489025E-007  0.1214385E+04  0.7818608E-02  0.9100357E-01
         -2   -1    0    0    0  501 -0.00000000000E+00  0.00000000000E+00  0.90024509794E+03  0.90024509794E+03  0.00000000000E+00 0. -1.
          2   -1    0    0  501    0  0.00000000000E+00 -0.00000000000E+00 -0.40953625945E+03  0.40953625945E+03  0.00000000000E+00 0.  1.
         23    2    1    2    0    0  0.11610395017E+03  0.21482645568E+03  0.96763749281E+02  0.27690711687E+03  0.87657258064E+02 0.  0.
        254    2    1    2    0    0 -0.11610395017E+03 -0.21482645568E+03  0.39394508920E+03  0.10328742405E+04  0.92304167300E+03 0.  0.
        -24    2    4    4    0    0  0.14945416358E+03  0.25551695538E+02 -0.24319378444E+03  0.29755926919E+03  0.80055391691E+02 0.  0.
         24    2    4    4    0    0 -0.26555811375E+03 -0.24037815122E+03  0.63713887364E+03  0.73531497132E+03  0.80245843349E+02 0.  0.
         11    1    3    3    0    0  0.11520937391E+03  0.22149261310E+03  0.10059307341E+03  0.26916750159E+03  0.00000000000E+00 0.  1.
        -11    1    3    3    0    0  0.89457626622E+00 -0.66661574155E+01 -0.38293241319E+01  0.77396152806E+01  0.00000000000E+00 0. -1.
          4    1    6    6  502    0 -0.20062426643E+03 -0.22270407785E+03  0.52398488963E+03  0.60366163298E+03  0.00000000000E+00 0. -1.
          1    1    5    5  503    0  0.11497693336E+03  0.14886495279E+02 -0.23268946796E+03  0.25997248210E+03  0.00000000000E+00 0. -1.
         -2    1    5    5    0  503  0.34477230214E+02  0.10665200259E+02 -0.10504316479E+02  0.37586787100E+02  0.00000000000E+00 0.  1.
         -3    1    6    6    0  502 -0.64933847321E+02 -0.17674073367E+02  0.11315398402E+03  0.13165333834E+03  0.00000000000E+00 0.  1.
<mgrwt>
<rscale>  0 0.12143855E+04</rscale>
<asrwt>0</asrwt>
<pdfrwt beam="1">  1        2 0.63005578E-01 0.12143855E+04</pdfrwt>
<pdfrwt beam="2">  1       -2 0.13849925E+00 0.12143855E+04</pdfrwt>
<totfact> 0.28168912E+01</totfact>
</mgrwt>
</event>
<event>
12    1  0.1489025E-007  0.2090732E+04  0.7818608E-02  0.8565337E-01
         -2   -1    0    0    0  501 -0.00000000000E+00  0.00000000000E+00  0.54102162064E+03  0.54102162064E+03  0.00000000000E+00 0.  1.
          2   -1    0    0  501    0  0.00000000000E+00 -0.00000000000E+00 -0.20198645789E+04  0.20198645789E+04  0.00000000000E+00 0. -1.
         23    2    1    2    0    0  0.60076233534E+03 -0.46220850692E+03 -0.10773454541E+04  0.13204322560E+04  0.91192257539E+02 0.  0.
        254    2    1    2    0    0 -0.60076233534E+03  0.46220850692E+03 -0.40149750417E+03  0.12404539435E+04  0.89608797155E+03 0.  0.
        -24    2    4    4    0    0  0.12570158598E+03  0.40580350015E+03 -0.73148053807E+02  0.43727415751E+03  0.73353129466E+02 0.  0.
         24    2    4    4    0    0 -0.72646392132E+03  0.56405006772E+02 -0.32834945036E+03  0.80317978602E+03  0.79706043389E+02 0.  0.
         13    1    3    3    0    0  0.46673755308E+03 -0.39086980442E+03 -0.90547783454E+03  0.10911064367E+04  0.00000000000E+00 0. -1.
        -13    1    3    3    0    0  0.13402478225E+03 -0.71338702496E+02 -0.17186761959E+03  0.22932581930E+03  0.00000000000E+00 0.  1.
          2    1    6    6  502    0 -0.36513589825E+03  0.44608345849E+02 -0.12569359283E+03  0.38873256615E+03  0.00000000000E+00 0. -1.
          3    1    5    5  503    0  0.10453695443E+03  0.33096843871E+03 -0.88071916907E+02  0.35808482907E+03  0.00000000000E+00 0. -1.
         -4    1    5    5    0  503  0.21164631553E+02  0.74835061439E+02  0.14923863100E+02  0.79189328442E+02  0.00000000000E+00 0.  1.
         -1    1    6    6    0  502 -0.36132802308E+03  0.11796660923E+02 -0.20265585753E+03  0.41444721987E+03  0.00000000000E+00 0.  1.
<mgrwt>
<rscale>  0 0.20907323E+04</rscale>
<asrwt>0</asrwt>
<pdfrwt beam="1">  1        2 0.31074839E+00 0.20907323E+04</pdfrwt>
<pdfrwt beam="2">  1       -2 0.83234096E-01 0.20907323E+04</pdfrwt>
<totfact> 0.75908456E+00</totfact>
</mgrwt>
</event>
<event>
12    1  0.1489025E-007  0.1160357E+04  0.7818608E-02  0.9148282E-01
         -1   -1    0    0    0  501 -0.00000000000E+00  0.00000000000E+00  0.22621853500E+03  0.22621853500E+03  0.00000000000E+00 0.  1.
          1   -1    0    0  501    0  0.00000000000E+00 -0.00000000000E+00 -0.14879732824E+04  0.14879732824E+04  0.00000000000E+00 0. -1.
         23    2    1    2    0    0  0.21363937821E+03  0.12477313498E+02 -0.29759142430E+03  0.37686628471E+03  0.87578955583E+02 0.  0.
        254    2    1    2    0    0 -0.21363937821E+03 -0.12477313498E+02 -0.96416332309E+03  0.13373255327E+04  0.90168242718E+03 0.  0.
        -24    2    4    4    0    0  0.17793695592E+03 -0.30546101027E+03 -0.66802552367E+03  0.76002387050E+03  0.80063689536E+02 0.  0.
         24    2    4    4    0    0 -0.39157633413E+03  0.29298369677E+03 -0.29613779942E+03  0.57730166217E+03  0.80050864305E+02 0.  0.
         11    1    3    3    0    0  0.87130046811E+02 -0.49052651389E+01 -0.56256794384E+02  0.10382934844E+03  0.00000000000E+00 0.  1.
        -11    1    3    3    0    0  0.12650933140E+03  0.17382578637E+02 -0.24133462991E+03  0.27303693627E+03  0.00000000000E+00 0. -1.
          2    1    6    6  502    0 -0.54907865977E+02  0.10741891464E+02 -0.27366604804E+02  0.62283168166E+02  0.00000000000E+00 0. -1.
          1    1    5    5  503    0  0.29058910513E+02 -0.15539895254E+02 -0.98165683577E+02  0.10354907077E+03  0.00000000000E+00 0. -1.
         -2    1    5    5    0  503  0.14887804541E+03 -0.28992111502E+03 -0.56985984009E+03  0.65647479973E+03  0.00000000000E+00 0.  1.
         -1    1    6    6    0  502 -0.33666846815E+03  0.28224180531E+03 -0.26877119462E+03  0.51501849401E+03  0.00000000000E+00 0.  1.
<mgrwt>
<rscale>  0 0.11603571E+04</rscale>
<asrwt>0</asrwt>
<pdfrwt beam="1">  1        1 0.22891897E+00 0.11603571E+04</pdfrwt>
<pdfrwt beam="2">  1       -1 0.34802851E-01 0.11603571E+04</pdfrwt>
<totfact> 0.51866883E+01</totfact>
</mgrwt>
</event>
<event>
12    1  0.1489025E-007  0.1812120E+04  0.7818608E-02  0.8699881E-01
         -2   -1    0    0    0  501 -0.00000000000E+00  0.00000000000E+00  0.44579220955E+03  0.44579220955E+03  0.00000000000E+00 0.  1.
          2   -1    0    0  501    0  0.00000000000E+00 -0.00000000000E+00 -0.18415403986E+04  0.18415403986E+04  0.00000000000E+00 0. -1.
         23    2    1    2    0    0  0.18082404028E+03  0.37982773254E+03  0.14286745803E+03  0.45397156800E+03  0.93341491500E+02 0.  0.
        254    2    1    2    0    0 -0.18082404028E+03 -0.37982773254E+03 -0.15386156471E+04  0.18333610402E+04  0.90382971523E+03 0.  0.
        -24    2    4    4    0    0 -0.31566242898E+03  0.75977764177E+02 -0.15542450790E+03  0.36874786314E+03  0.80017618050E+02 0.  0.
         24    2    4    4    0    0  0.13483838870E+03 -0.45580549672E+03 -0.13831911392E+04  0.14646131770E+04  0.77032388135E+02 0.  0.
         11    1    3    3    0    0  0.76245002185E+02  0.24398696301E+03  0.11495181823E+03  0.28027996538E+03  0.00000000000E+00 0.  1.
        -11    1    3    3    0    0  0.10457903809E+03  0.13584076953E+03  0.27915639797E+02  0.17369160262E+03  0.00000000000E+00 0. -1.
          4    1    6    6  502    0  0.13814379643E+03 -0.41055564581E+03 -0.11968256431E+04  0.12728044888E+04  0.00000000000E+00 0. -1.
          1    1    5    5  503    0 -0.10061834291E+03  0.47016320414E+02 -0.19655620420E+02  0.11278709469E+03  0.00000000000E+00 0. -1.
         -2    1    5    5    0  503 -0.21504408607E+03  0.28961443762E+02 -0.13576888748E+03  0.25596076845E+03  0.00000000000E+00 0.  1.
         -3    1    6    6    0  502 -0.33054077261E+01 -0.45249850908E+02 -0.18636549615E+03  0.19180868823E+03  0.00000000000E+00 0.  1.
<mgrwt>
<rscale>  0 0.18121196E+04</rscale>
<asrwt>0</asrwt>
<pdfrwt beam="1">  1        2 0.28331391E+00 0.18121196E+04</pdfrwt>
<pdfrwt beam="2">  1       -2 0.68583417E-01 0.18121196E+04</pdfrwt>
<totfact> 0.14999012E+01</totfact>
</mgrwt>
</event>
<event>
12    1  0.1489025E-007  0.2445787E+04  0.7818608E-02  0.8422558E-01
          2   -1    0    0  501    0  0.00000000000E+00  0.00000000000E+00  0.37785153742E+04  0.37785153742E+04  0.00000000000E+00 0. -1.
         -2   -1    0    0    0  501 -0.00000000000E+00 -0.00000000000E+00 -0.39578207841E+03  0.39578207841E+03  0.00000000000E+00 0.  1.
         23    2    1    2    0    0  0.63050442370E+03 -0.41767612986E+03  0.20797899635E+03  0.78965067559E+03  0.91124907494E+02 0.  0.
        254    2    1    2    0    0 -0.63050442370E+03  0.41767612986E+03  0.31747542995E+04  0.33846467771E+04  0.89709518206E+03 0.  0.
        -24    2    4    4    0    0 -0.37075253754E+03  0.15747071531E+02  0.34344123603E+03  0.51199236224E+03  0.80491502893E+02 0.  0.
         24    2    4    4    0    0 -0.25975188616E+03  0.40192905833E+03  0.28313130634E+04  0.28726544148E+04  0.82411852412E+02 0.  0.
         13    1    3    3    0    0  0.47223751311E+03 -0.33226007955E+03  0.12133844255E+03  0.59002376807E+03  0.00000000000E+00 0.  1.
        -13    1    3    3    0    0  0.15826691060E+03 -0.85416050306E+02  0.86640553808E+02  0.19962690751E+03  0.00000000000E+00 0. -1.
          4    1    6    6  502    0 -0.63701307741E+01  0.23584504525E+02  0.72255450927E+02  0.76273570838E+02  0.00000000000E+00 0. -1.
          3    1    5    5  503    0 -0.25173811760E+02  0.18839156573E+02  0.13596841980E+02  0.34256513698E+02  0.00000000000E+00 0. -1.
         -4    1    5    5    0  503 -0.34557872578E+03 -0.30920850416E+01  0.32984439405E+03  0.47773584855E+03  0.00000000000E+00 0.  1.
         -3    1    6    6    0  502 -0.25338175539E+03  0.37834455380E+03  0.27590576125E+04  0.27963808440E+04  0.00000000000E+00 0.  1.
<mgrwt>
<rscale>  0 0.24457871E+04</rscale>
<asrwt>0</asrwt>
<pdfrwt beam="1">  1        2 0.58131003E+00 0.24457871E+04</pdfrwt>
<pdfrwt beam="2">  1       -2 0.60889553E-01 0.24457871E+04</pdfrwt>
<totfact> 0.11500285E+00</totfact>
</mgrwt>
</event>
<event>
12    1  0.1489025E-007  0.1319866E+04  0.7818608E-02  0.9013958E-01
         -3   -1    0    0    0  501 -0.00000000000E+00  0.00000000000E+00  0.11194660627E+04  0.11194660627E+04  0.00000000000E+00 0.  1.
          3   -1    0    0  501    0  0.00000000000E+00 -0.00000000000E+00 -0.38903489375E+03  0.38903489375E+03  0.00000000000E+00 0. -1.
         23    2    1    2    0    0 -0.31198879927E+03  0.81328870450E+02  0.54729280365E+02  0.33938094590E+03  0.90734427147E+02 0.  0.
        254    2    1    2    0    0  0.31198879927E+03 -0.81328870450E+02  0.67570188856E+03  0.11691200105E+04  0.89795164723E+03 0.  0.
        -24    2    4    4    0    0  0.59974139567E+03 -0.19085701282E+03  0.47861374242E+03  0.79476771012E+03  0.80426721903E+02 0.  0.
         24    2    4    4    0    0 -0.28775259639E+03  0.10952814237E+03  0.19708814613E+03  0.37435230040E+03  0.80609780836E+02 0.  0.
         13    1    3    3    0    0 -0.30942575969E+03  0.76188643857E+02  0.67177624677E+02  0.32567137342E+03  0.00000000000E+00 0. -1.
        -13    1    3    3    0    0 -0.25630395861E+01  0.51402265925E+01 -0.12448344312E+02  0.13709572475E+02  0.00000000000E+00 0.  1.
          2    1    6    6  502    0 -0.18620223896E+03  0.98453474824E+02  0.16409239748E+03  0.26700313745E+03  0.00000000000E+00 0. -1.
          3    1    5    5  503    0  0.42768509115E+03 -0.97643657908E+02  0.32374411027E+03  0.54521470087E+03  0.00000000000E+00 0. -1.
         -4    1    5    5    0  503  0.17205630452E+03 -0.93213354914E+02  0.15486963216E+03  0.24955300925E+03  0.00000000000E+00 0.  1.
         -1    1    6    6    0  502 -0.10155035744E+03  0.11074667549E+02  0.32995748651E+02  0.10734916295E+03  0.00000000000E+00 0.  1.
<mgrwt>
<rscale>  0 0.13198657E+04</rscale>
<asrwt>0</asrwt>
<pdfrwt beam="1">  1        3 0.59851522E-01 0.13198657E+04</pdfrwt>
<pdfrwt beam="2">  1       -3 0.17222555E+00 0.13198657E+04</pdfrwt>
<totfact> 0.15634160E+00</totfact>
</mgrwt>
</event>
<event>
12    1  0.1489025E-007  0.1651704E+04  0.7818608E-02  0.8789399E-01
          1   -1    0    0  501    0  0.00000000000E+00  0.00000000000E+00  0.13787040684E+04  0.13787040684E+04  0.00000000000E+00 0. -1.
         -1   -1    0    0    0  501 -0.00000000000E+00 -0.00000000000E+00 -0.49469059644E+03  0.49469059644E+03  0.00000000000E+00 0.  1.
         23    2    1    2    0    0 -0.30941090957E+03 -0.37650811111E+03 -0.57782818111E+02  0.49933204397E+03  0.92196352289E+02 0.  0.
        254    2    1    2    0    0  0.30941090957E+03  0.37650811111E+03  0.94179629007E+03  0.13740626209E+04  0.87382742312E+03 0.  0.
        -24    2    4    4    0    0 -0.19902011807E+03  0.22015450452E+03  0.20423774109E+02  0.30725632784E+03  0.76891528734E+02 0.  0.
         24    2    4    4    0    0  0.50843102764E+03  0.15635360659E+03  0.92137251596E+03  0.10668062930E+04  0.78738767563E+02 0.  0.
         11    1    3    3    0    0 -0.19193959988E+03 -0.18610711012E+03  0.34754888683E+01  0.26737379352E+03  0.00000000000E+00 0. -1.
        -11    1    3    3    0    0 -0.11747130970E+03 -0.19040100099E+03 -0.61258306979E+02  0.23195825045E+03  0.00000000000E+00 0.  1.
          2    1    6    6  502    0  0.49022356984E+03  0.13286605489E+03  0.87492574253E+03  0.10116657511E+04  0.00000000000E+00 0. -1.
          3    1    5    5  503    0 -0.13313993770E+03  0.94408849470E+02 -0.37288142967E+01  0.16325801029E+03  0.00000000000E+00 0. -1.
         -4    1    5    5    0  503 -0.65880180375E+02  0.12574565505E+03  0.24152588406E+02  0.14399831755E+03  0.00000000000E+00 0.  1.
         -1    1    6    6    0  502  0.18207457801E+02  0.23487551693E+02  0.46446773426E+02  0.55140541943E+02  0.00000000000E+00 0.  1.
<mgrwt>
<rscale>  0 0.16517045E+04</rscale>
<asrwt>0</asrwt>
<pdfrwt beam="1">  1        1 0.21210832E+00 0.16517045E+04</pdfrwt>
<pdfrwt beam="2">  1       -1 0.76106246E-01 0.16517045E+04</pdfrwt>
<totfact> 0.13174200E+01</totfact>
</mgrwt>
</event>
<event>
12    1  0.1489025E-007  0.1340770E+04  0.7818608E-02  0.8997844E-01
         -1   -1    0    0    0  501 -0.00000000000E+00  0.00000000000E+00  0.27782055354E+03  0.27782055354E+03  0.00000000000E+00 0.  1.
          1   -1    0    0  501    0  0.00000000000E+00 -0.00000000000E+00 -0.16176497766E+04  0.16176497766E+04  0.00000000000E+00 0. -1.
         23    2    1    2    0    0  0.58221748819E+02 -0.28727570485E+03 -0.56478883808E+02  0.30967801480E+03  0.82422726854E+02 0.  0.
        254    2    1    2    0    0 -0.58221748819E+02  0.28727570485E+03 -0.12833503392E+04  0.15857923153E+04  0.88421268453E+03 0.  0.
        -24    2    4    4    0    0 -0.41075714496E+03  0.21786297483E+03 -0.36519806909E+03  0.59665342346E+03  0.80249424405E+02 0.  0.
         24    2    4    4    0    0  0.35253539614E+03  0.69412730021E+02 -0.91815227015E+03  0.98913889187E+03  0.79327319403E+02 0.  0.
         13    1    3    3    0    0  0.28531025402E+02 -0.26433646966E+03 -0.40673537884E+02  0.26896491460E+03  0.00000000000E+00 0.  1.
        -13    1    3    3    0    0  0.29690723417E+02 -0.22939235193E+02 -0.15805345924E+02  0.40713100201E+02  0.00000000000E+00 0. -1.
          2    1    6    6  502    0  0.17035676877E+03  0.18655885642E+02 -0.53638612562E+03  0.56309816772E+03  0.00000000000E+00 0. -1.
          3    1    5    5  503    0 -0.32089721666E+03  0.20566699827E+03 -0.29474828462E+03  0.48181997585E+03  0.00000000000E+00 0. -1.
         -4    1    5    5    0  503 -0.89859928300E+02  0.12195976562E+02 -0.70449784470E+02  0.11483344761E+03  0.00000000000E+00 0.  1.
         -1    1    6    6    0  502  0.18217862737E+03  0.50756844380E+02 -0.38176614454E+03  0.42604072415E+03  0.00000000000E+00 0.  1.
<mgrwt>
<rscale>  0 0.13407705E+04</rscale>
<asrwt>0</asrwt>
<pdfrwt beam="1">  1        1 0.24886919E+00 0.13407705E+04</pdfrwt>
<pdfrwt beam="2">  1       -1 0.42741625E-01 0.13407705E+04</pdfrwt>
<totfact> 0.28651457E+01</totfact>
</mgrwt>
</event>
<event>
12    1  0.1489025E-007  0.1577592E+04  0.7818608E-02  0.8834433E-01
         -2   -1    0    0    0  501 -0.00000000000E+00  0.00000000000E+00  0.89936603239E+03  0.89936603239E+03  0.00000000000E+00 0.  1.
          2   -1    0    0  501    0  0.00000000000E+00 -0.00000000000E+00 -0.69182012254E+03  0.69182012254E+03  0.00000000000E+00 0. -1.
         23    2    1    2    0    0  0.39380392405E+03 -0.23796231293E+03  0.30897987774E+03  0.56179745341E+03  0.91870674514E+02 0.  0.
        254    2    1    2    0    0 -0.39380392405E+03  0.23796231293E+03 -0.10143396789E+03  0.10293887015E+04  0.91522929149E+03 0.  0.
        -24    2    4    4    0    0 -0.57893865342E+03  0.18465885259E+03 -0.34938950936E+03  0.70580210408E+03  0.82551345260E+02 0.  0.
         24    2    4    4    0    0  0.18513472937E+03  0.53303460339E+02  0.24795554147E+03  0.32358659744E+03  0.78167823262E+02 0.  0.
         11    1    3    3    0    0  0.21372626101E+02  0.65530505989E+01  0.64554468263E+01  0.23268098597E+02  0.00000000000E+00 0. -1.
        -11    1    3    3    0    0  0.37243129795E+03 -0.24451536353E+03  0.30252443091E+03  0.53852935481E+03  0.00000000000E+00 0.  1.
          2    1    6    6  502    0  0.66857067333E+02  0.22767116955E+02  0.36792621224E+02  0.79636085058E+02  0.00000000000E+00 0. -1.
          1    1    5    5  503    0 -0.63706120056E+01  0.13940923974E+02 -0.13243103951E+02  0.20256205489E+02  0.00000000000E+00 0. -1.
         -2    1    5    5    0  503 -0.57256804142E+03  0.17071792862E+03 -0.33614640541E+03  0.68554589859E+03  0.00000000000E+00 0.  1.
         -1    1    6    6    0  502  0.11827766204E+03  0.30536343384E+02  0.21116292025E+03  0.24395051238E+03  0.00000000000E+00 0.  1.
<mgrwt>
<rscale>  0 0.15775925E+04</rscale>
<asrwt>0</asrwt>
<pdfrwt beam="1">  1        2 0.10643387E+00 0.15775925E+04</pdfrwt>
<pdfrwt beam="2">  1       -2 0.13836400E+00 0.15775925E+04</pdfrwt>
<totfact> 0.14785850E+01</totfact>
</mgrwt>
</event>
<event>
12    1  0.1489025E-007  0.1816466E+04  0.7818608E-02  0.8697592E-01
          2   -1    0    0  501    0  0.00000000000E+00  0.00000000000E+00  0.14945005602E+04  0.14945005602E+04  0.00000000000E+00 0.  1.
         -2   -1    0    0    0  501 -0.00000000000E+00 -0.00000000000E+00 -0.55194862308E+03  0.55194862308E+03  0.00000000000E+00 0. -1.
         23    2    1    2    0    0  0.66675213150E+02  0.26359776957E+03 -0.34355321825E+03  0.44773314281E+03  0.92232235313E+02 0.  0.
        254    2    1    2    0    0 -0.66675213150E+02 -0.26359776957E+03  0.12861051554E+04  0.15987160404E+04  0.90988853119E+03 0.  0.
        -24    2    4    4    0    0  0.21023213784E+03 -0.42095745439E+03  0.31083843287E+03  0.56968158774E+03  0.80708424989E+02 0.  0.
         24    2    4    4    0    0 -0.27690735099E+03  0.15735968482E+03  0.97526672248E+03  0.10290344527E+04  0.79542274639E+02 0.  0.
         13    1    3    3    0    0  0.22924018762E+02  0.17659768714E+03 -0.27869017017E+03  0.33072717561E+03  0.00000000000E+00 0. -1.
        -13    1    3    3    0    0  0.43751194388E+02  0.87000082438E+02 -0.64863048076E+02  0.11700596720E+03  0.00000000000E+00 0.  1.
          4    1    6    6  502    0 -0.18085958231E+03  0.10285582920E+03  0.74735653450E+03  0.77577786754E+03  0.00000000000E+00 0. -1.
          3    1    5    5  503    0  0.17590270678E+03 -0.40038830464E+03  0.28220377715E+03  0.52047240906E+03  0.00000000000E+00 0. -1.
         -4    1    5    5    0  503  0.34329431058E+02 -0.20569149749E+02  0.28634655718E+02  0.49209178679E+02  0.00000000000E+00 0.  1.
         -3    1    6    6    0  502 -0.96047768680E+02  0.54503855618E+02  0.22791018798E+03  0.25325658517E+03  0.00000000000E+00 0.  1.
<mgrwt>
<rscale>  0 0.18164664E+04</rscale>
<asrwt>0</asrwt>
<pdfrwt beam="1">  1        2 0.22992316E+00 0.18164664E+04</pdfrwt>
<pdfrwt beam="2">  1       -2 0.84915173E-01 0.18164664E+04</pdfrwt>
<totfact> 0.14557485E+01</totfact>
</mgrwt>
</event>
<event>
12    1  0.1489025E-007  0.1393610E+04  0.7818608E-02  0.8958457E-01
          2   -1    0    0  501    0  0.00000000000E+00  0.00000000000E+00  0.12919958964E+04  0.12919958964E+04  0.00000000000E+00 0.  1.
         -2   -1    0    0    0  501 -0.00000000000E+00 -0.00000000000E+00 -0.37580372003E+03  0.37580372003E+03  0.00000000000E+00 0. -1.
         23    2    1    2    0    0  0.18147707412E+03 -0.38648714928E+03  0.33992867539E+03  0.55334246968E+03  0.91269597405E+02 0.  0.
        254    2    1    2    0    0 -0.18147707412E+03  0.38648714928E+03  0.57626350097E+03  0.11144571467E+04  0.85301164376E+03 0.  0.
        -24    2    4    4    0    0 -0.45414713956E+03  0.39857095394E+03  0.19741260803E+03  0.64088465020E+03  0.81565724119E+02 0.  0.
         24    2    4    4    0    0  0.27267006544E+03 -0.12083804667E+02  0.37885089294E+03  0.47357249655E+03  0.79043832643E+02 0.  0.
         13    1    3    3    0    0  0.10182789764E+03 -0.26265774627E+03  0.17223643863E+03  0.33018692162E+03  0.00000000000E+00 0. -1.
        -13    1    3    3    0    0  0.79649176482E+02 -0.12382940301E+03  0.16769223675E+03  0.22315554806E+03  0.00000000000E+00 0.  1.
          4    1    6    6  502    0  0.19420822037E+03 -0.13007510607E+02  0.20420753330E+03  0.28211122780E+03  0.00000000000E+00 0. -1.
          3    1    5    5  503    0 -0.44102388365E+03  0.36251052687E+03  0.17880257589E+03  0.59823599790E+03  0.00000000000E+00 0. -1.
         -4    1    5    5    0  503 -0.13123255913E+02  0.36060427072E+02  0.18610032141E+02  0.42648652296E+02  0.00000000000E+00 0.  1.
         -3    1    6    6    0  502  0.78461845069E+02  0.92370594058E+00  0.17464335964E+03  0.19146126875E+03  0.00000000000E+00 0.  1.
<mgrwt>
<rscale>  0 0.13936095E+04</rscale>
<asrwt>0</asrwt>
<pdfrwt beam="1">  1        2 0.19876860E+00 0.13936095E+04</pdfrwt>
<pdfrwt beam="2">  1       -2 0.57815958E-01 0.13936095E+04</pdfrwt>
<totfact> 0.45567316E+01</totfact>
</mgrwt>
</event>
<event>
12    1  0.1489025E-007  0.1957962E+04  0.7818608E-02  0.8626531E-01
          2   -1    0    0  501    0  0.00000000000E+00  0.00000000000E+00  0.21357796450E+04  0.21357796450E+04  0.00000000000E+00 0. -1.
         -2   -1    0    0    0  501 -0.00000000000E+00 -0.00000000000E+00 -0.44873731349E+03  0.44873731349E+03  0.00000000000E+00 0.  1.
         23    2    1    2    0    0 -0.54867527347E+02  0.14169156342E+03  0.16581788184E+04  0.16675052674E+04  0.89049863639E+02 0.  0.
        254    2    1    2    0    0  0.54867527347E+02 -0.14169156342E+03  0.28863513150E+02  0.91701169116E+03  0.90387520966E+03 0.  0.
        -24    2    4    4    0    0  0.10436027010E+03 -0.51475095953E+03  0.71005244351E+01  0.53132134652E+03  0.79952107630E+02 0.  0.
         24    2    4    4    0    0 -0.49492742758E+02  0.37305939611E+03  0.21762988715E+02  0.38569034464E+03  0.81612313180E+02 0.  0.
         13    1    3    3    0    0 -0.50278523090E+02  0.15374891067E+03  0.15812118202E+04  0.15894645255E+04  0.00000000000E+00 0. -1.
        -13    1    3    3    0    0 -0.45890042566E+01 -0.12057347253E+02  0.76966998172E+02  0.78040741863E+02  0.00000000000E+00 0.  1.
          2    1    6    6  502    0  0.13865021904E+02  0.15721325906E+03  0.29717549247E+02  0.16059695013E+03  0.00000000000E+00 0. -1.
          3    1    5    5  503    0  0.34349498059E+02 -0.57841636544E+02  0.15369014313E+02  0.69005431207E+02  0.00000000000E+00 0. -1.
         -4    1    5    5    0  503  0.70010772045E+02 -0.45690932298E+03 -0.82684898781E+01  0.46231591532E+03  0.00000000000E+00 0.  1.
         -1    1    6    6    0  502 -0.63357764662E+02  0.21584613705E+03 -0.79545605325E+01  0.22509339451E+03  0.00000000000E+00 0.  1.
<mgrwt>
<rscale>  0 0.19579622E+04</rscale>
<asrwt>0</asrwt>
<pdfrwt beam="1">  1        2 0.32858148E+00 0.19579622E+04</pdfrwt>
<pdfrwt beam="2">  1       -2 0.69036511E-01 0.19579622E+04</pdfrwt>
<totfact> 0.10022201E+01</totfact>
</mgrwt>
</event>
<event>
12    1  0.1489025E-007  0.2831156E+04  0.7818608E-02  0.8293660E-01
         -2   -1    0    0    0  501 -0.00000000000E+00  0.00000000000E+00  0.16845432234E+04  0.16845432234E+04  0.00000000000E+00 0.  1.
          2   -1    0    0  501    0  0.00000000000E+00 -0.00000000000E+00 -0.11895576958E+04  0.11895576958E+04  0.00000000000E+00 0. -1.
         23    2    1    2    0    0  0.91675730589E+03 -0.20477320714E+03 -0.64985303442E+03  0.11458093552E+04  0.90521201291E+02 0.  0.
        254    2    1    2    0    0 -0.91675730589E+03  0.20477320714E+03  0.11448385620E+04  0.17282915640E+04  0.89104454023E+03 0.  0.
        -24    2    4    4    0    0 -0.95408298593E+03  0.39948241845E+02  0.55100452611E+03  0.11057748058E+04  0.85215768403E+02 0.  0.
         24    2    4    4    0    0  0.37325680041E+02  0.16482496530E+03  0.59383403592E+03  0.62251675820E+03  0.79547322054E+02 0.  0.
         11    1    3    3    0    0  0.59480339857E+03 -0.13292236920E+03 -0.36826578624E+03  0.71209488728E+03  0.00000000000E+00 0. -1.
        -11    1    3    3    0    0  0.32195390732E+03 -0.71850837945E+02 -0.28158724818E+03  0.43371446793E+03  0.00000000000E+00 0.  1.
          2    1    6    6  502    0 -0.17451593790E+01  0.11097851846E+03  0.45811728331E+03  0.47137110901E+03  0.00000000000E+00 0. -1.
          3    1    5    5  503    0 -0.72411840048E+03  0.30032264216E+02  0.45915927396E+03  0.85794908572E+03  0.00000000000E+00 0. -1.
         -4    1    5    5    0  503 -0.22996458545E+03  0.99159776287E+01  0.91845252142E+02  0.24782572004E+03  0.00000000000E+00 0.  1.
         -1    1    6    6    0  502  0.39070839420E+02  0.53846446842E+02  0.13571675261E+03  0.15114564919E+03  0.00000000000E+00 0.  1.
<mgrwt>
<rscale>  0 0.28311562E+04</rscale>
<asrwt>0</asrwt>
<pdfrwt beam="1">  1        2 0.18300888E+00 0.28311562E+04</pdfrwt>
<pdfrwt beam="2">  1       -2 0.25916049E+00 0.28311562E+04</pdfrwt>
<totfact> 0.94158197E-01</totfact>
</mgrwt>
</event>
<event>
12    1  0.1489025E-007  0.2223091E+04  0.7818608E-02  0.8508878E-01
          3   -1    0    0  501    0  0.00000000000E+00  0.00000000000E+00  0.14107215768E+04  0.14107215768E+04  0.00000000000E+00 0. -1.
         -3   -1    0    0    0  501 -0.00000000000E+00 -0.00000000000E+00 -0.87581642340E+03  0.87581642340E+03  0.00000000000E+00 0.  1.
         23    2    1    2    0    0 -0.66514397333E+03 -0.66417658827E+02  0.88262652257E+03  0.11108394425E+04  0.90038202936E+02 0.  0.
        254    2    1    2    0    0  0.66514397333E+03  0.66417658827E+02 -0.34772136916E+03  0.11756985577E+04  0.90251267991E+03 0.  0.
        -24    2    4    4    0    0  0.63334314705E+03  0.41533998326E+03 -0.26738551986E+03  0.80719143678E+03  0.80200721749E+02 0.  0.
         24    2    4    4    0    0  0.31800826278E+02 -0.34892232443E+03 -0.80335849303E+02  0.36850712095E+03  0.81151515497E+02 0.  0.
         11    1    3    3    0    0 -0.64261318400E+03 -0.56510023744E+02  0.87029801269E+03  0.10833114593E+04  0.00000000000E+00 0. -1.
        -11    1    3    3    0    0 -0.22530789324E+02 -0.99076350829E+01  0.12328509876E+02  0.27527983149E+02  0.00000000000E+00 0.  1.
          4    1    6    6  502    0  0.30787615788E+02 -0.33150713849E+03 -0.54547441845E+02  0.33737261828E+03  0.00000000000E+00 0. -1.
          1    1    5    5  503    0  0.36254602828E+03  0.19713096070E+03 -0.16735742009E+03  0.44531869975E+03  0.00000000000E+00 0. -1.
         -2    1    5    5    0  503  0.27079711877E+03  0.21820902256E+03 -0.10002809977E+03  0.36187273702E+03  0.00000000000E+00 0.  1.
         -3    1    6    6    0  502  0.10132104897E+01 -0.17415185939E+02 -0.25788407458E+02  0.31134502662E+02  0.00000000000E+00 0.  1.
<mgrwt>
<rscale>  0 0.22230908E+04</rscale>
<asrwt>0</asrwt>
<pdfrwt beam="1">  1        3 0.21703409E+00 0.22230908E+04</pdfrwt>
<pdfrwt beam="2">  1       -3 0.13474099E+00 0.22230908E+04</pdfrwt>
<totfact> 0.11676179E-01</totfact>
</mgrwt>
</event>
<event>
12    1  0.1489025E-007  0.1170322E+04  0.7818608E-02  0.9139237E-01
          2   -1    0    0  501    0  0.00000000000E+00  0.00000000000E+00  0.45593743011E+03  0.45593743011E+03  0.00000000000E+00 0. -1.
         -2   -1    0    0    0  501 -0.00000000000E+00 -0.00000000000E+00 -0.75101013670E+03  0.75101013670E+03  0.00000000000E+00 0.  1.
         23    2    1    2    0    0 -0.86791466749E+02  0.13487513884E+03 -0.29387950169E+03  0.35099774713E+03  0.10540491069E+03 0.  0.
        254    2    1    2    0    0  0.86791466749E+02 -0.13487513884E+03 -0.11932049082E+01  0.85594981968E+03  0.84078808763E+03 0.  0.
        -24    2    4    4    0    0  0.17792672230E+03  0.29303929060E+03  0.15443768696E+03  0.38453456718E+03  0.80535022564E+02 0.  0.
         24    2    4    4    0    0 -0.91135255554E+02 -0.42791442944E+03 -0.15563089187E+03  0.47141525250E+03  0.81209433276E+02 0.  0.
         13    1    3    3    0    0 -0.88336537225E+02  0.91540959797E+02 -0.13163908240E+03  0.18306266453E+03  0.00000000000E+00 0.  1.
        -13    1    3    3    0    0  0.15450704765E+01  0.43334179047E+02 -0.16224041929E+03  0.16793508260E+03  0.00000000000E+00 0. -1.
          4    1    6    6  502    0 -0.45220493471E+02 -0.17150913234E+03 -0.10480124846E+03  0.20601839041E+03  0.00000000000E+00 0. -1.
          1    1    5    5  503    0  0.49573149211E+02  0.26964507627E+02  0.18928632986E+02  0.59522054241E+02  0.00000000000E+00 0. -1.
         -2    1    5    5    0  503  0.12835357309E+03  0.26607478297E+03  0.13550905398E+03  0.32501251294E+03  0.00000000000E+00 0.  1.
         -1    1    6    6    0  502 -0.45914762083E+02 -0.25640529710E+03 -0.50829643407E+02  0.26539686209E+03  0.00000000000E+00 0.  1.
<mgrwt>
<rscale>  0 0.11703224E+04</rscale>
<asrwt>0</asrwt>
<pdfrwt beam="1">  1        2 0.70144221E-01 0.11703224E+04</pdfrwt>
<pdfrwt beam="2">  1       -2 0.11554002E+00 0.11703224E+04</pdfrwt>
<totfact> 0.39473925E+01</totfact>
</mgrwt>
</event>
<event>
12    1  0.1489025E-007  0.1519803E+04  0.7818608E-02  0.8871390E-01
         -1   -1    0    0    0  501 -0.00000000000E+00  0.00000000000E+00  0.59080500884E+03  0.59080500884E+03  0.00000000000E+00 0.  1.
          1   -1    0    0  501    0  0.00000000000E+00 -0.00000000000E+00 -0.97739606582E+03  0.97739606582E+03  0.00000000000E+00 0. -1.
         23    2    1    2    0    0  0.19405378583E+03 -0.29737871770E+03 -0.46213384678E+03  0.58996657937E+03  0.91661872655E+02 0.  0.
        254    2    1    2    0    0 -0.19405378583E+03  0.29737871770E+03  0.75542789797E+02  0.97823449529E+03  0.90837494524E+03 0.  0.
        -24    2    4    4    0    0 -0.52072243557E+03  0.27837167431E+03 -0.91779366550E+02  0.60276763454E+03  0.79137381555E+02 0.  0.
         24    2    4    4    0    0  0.32666864974E+03  0.19007043394E+02  0.16732215635E+03  0.37546686075E+03  0.76843900833E+02 0.  0.
         11    1    3    3    0    0  0.17007959987E+03 -0.21963907902E+03 -0.30186591447E+03  0.41023337948E+03  0.00000000000E+00 0. -1.
        -11    1    3    3    0    0  0.23974185962E+02 -0.77739638687E+02 -0.16026793231E+03  0.17973319989E+03  0.00000000000E+00 0.  1.
          2    1    6    6  502    0  0.24890602704E+03  0.28788599529E+02  0.92451745576E+02  0.26707736523E+03  0.00000000000E+00 0. -1.
          3    1    5    5  503    0 -0.29481724056E+03  0.11514336587E+03 -0.36121514240E+02  0.31855919988E+03  0.00000000000E+00 0. -1.
         -4    1    5    5    0  503 -0.22590519501E+03  0.16322830844E+03 -0.55657852310E+02  0.28420843466E+03  0.00000000000E+00 0.  1.
         -1    1    6    6    0  502  0.77762622704E+02 -0.97815561344E+01  0.74870410772E+02  0.10838949552E+03  0.00000000000E+00 0.  1.
<mgrwt>
<rscale>  0 0.15198033E+04</rscale>
<asrwt>0</asrwt>
<pdfrwt beam="1">  1        1 0.15036862E+00 0.15198033E+04</pdfrwt>
<pdfrwt beam="2">  1       -1 0.90893079E-01 0.15198033E+04</pdfrwt>
<totfact> 0.17997216E+01</totfact>
</mgrwt>
</event>
<event>
12    1  0.1489025E-007  0.1271302E+04  0.7818608E-02  0.9052638E-01
         -1   -1    0    0    0  501 -0.00000000000E+00  0.00000000000E+00  0.12189996040E+04  0.12189996040E+04  0.00000000000E+00 0.  1.
          1   -1    0    0  501    0  0.00000000000E+00 -0.00000000000E+00 -0.33146197594E+03  0.33146197594E+03  0.00000000000E+00 0. -1.
         23    2    1    2    0    0  0.24178178539E+03  0.44009848962E+02 -0.63407243704E+01  0.26167240412E+03  0.89649003015E+02 0.  0.
        254    2    1    2    0    0 -0.24178178539E+03 -0.44009848962E+02  0.89387835246E+03  0.12887891758E+04  0.89530091714E+03 0.  0.
        -24    2    4    4    0    0 -0.24909155119E+03  0.36548686204E+03  0.69254634319E+03  0.82532507394E+03  0.76901189906E+02 0.  0.
         24    2    4    4    0    0  0.73097658060E+01 -0.40949671100E+03  0.20133200926E+03  0.46346410191E+03  0.80767609877E+02 0.  0.
         13    1    3    3    0    0  0.10899860192E+03 -0.29388185452E+01  0.35631629984E+02  0.11471244453E+03  0.00000000000E+00 0.  1.
        -13    1    3    3    0    0  0.13278318347E+03  0.46948667507E+02 -0.41972354354E+02  0.14695995959E+03  0.00000000000E+00 0. -1.
          2    1    6    6  502    0 -0.25262493083E+02 -0.32661534757E+03  0.14625863805E+03  0.35875809123E+03  0.00000000000E+00 0. -1.
          3    1    5    5  503    0 -0.22524631710E+03  0.35231506178E+03  0.67081597993E+03  0.79047826349E+03  0.00000000000E+00 0. -1.
         -4    1    5    5    0  503 -0.23845234091E+02  0.13171800255E+02  0.21730363262E+02  0.34846810447E+02  0.00000000000E+00 0.  1.
         -1    1    6    6    0  502  0.32572258889E+02 -0.82881363435E+02  0.55073371212E+02  0.10470601067E+03  0.00000000000E+00 0.  1.
<mgrwt>
<rscale>  0 0.12713017E+04</rscale>
<asrwt>0</asrwt>
<pdfrwt beam="1">  1        1 0.50994151E-01 0.12713017E+04</pdfrwt>
<pdfrwt beam="2">  1       -1 0.18753840E+00 0.12713017E+04</pdfrwt>
<totfact> 0.13930419E+01</totfact>
</mgrwt>
</event>
<event>
12    1  0.1489025E-007  0.1315941E+04  0.7818608E-02  0.9017018E-01
          2   -1    0    0  501    0  0.00000000000E+00  0.00000000000E+00  0.11205148290E+04  0.11205148290E+04  0.00000000000E+00 0. -1.
         -2   -1    0    0    0  501 -0.00000000000E+00 -0.00000000000E+00 -0.38636271945E+03  0.38636271945E+03  0.00000000000E+00 0.  1.
         23    2    1    2    0    0  0.79939815208E+02  0.28439642884E+03  0.41889386247E+03  0.52099465188E+03  0.93229053847E+02 0.  0.
        254    2    1    2    0    0 -0.79939815208E+02 -0.28439642884E+03  0.31525824705E+03  0.98588289654E+03  0.88617471222E+03 0.  0.
        -24    2    4    4    0    0 -0.20164828320E+03  0.18616304037E+03  0.39457013401E+03  0.48726383747E+03  0.80135815550E+02 0.  0.
         24    2    4    4    0    0  0.12170846800E+03 -0.47055946920E+03 -0.79311886966E+02  0.49861905907E+03  0.78047584313E+02 0.  0.
         11    1    3    3    0    0  0.99290990118E+02  0.26184699710E+03  0.38062749763E+03  0.47254612744E+03  0.00000000000E+00 0. -1.
        -11    1    3    3    0    0 -0.19351174910E+02  0.22549431739E+02  0.38266364838E+02  0.48448524437E+02  0.00000000000E+00 0.  1.
          2    1    6    6  502    0  0.24617278762E+02 -0.17367873685E+03 -0.61039320816E+02  0.18573129175E+03  0.00000000000E+00 0. -1.
          1    1    5    5  503    0 -0.15441936637E+03  0.11538804750E+03  0.32267113564E+03  0.37586753516E+03  0.00000000000E+00 0. -1.
         -2    1    5    5    0  503 -0.47228916831E+02  0.70774992865E+02  0.71898998376E+02  0.11139630231E+03  0.00000000000E+00 0.  1.
         -1    1    6    6    0  502  0.97091189235E+02 -0.29688073235E+03 -0.18272566150E+02  0.31288776732E+03  0.00000000000E+00 0.  1.
<mgrwt>
<rscale>  0 0.13159410E+04</rscale>
<asrwt>0</asrwt>
<pdfrwt beam="1">  1        2 0.17238690E+00 0.13159410E+04</pdfrwt>
<pdfrwt beam="2">  1       -2 0.59440419E-01 0.13159410E+04</pdfrwt>
<totfact> 0.54737243E+01</totfact>
</mgrwt>
</event>
<event>
12    1  0.1489025E-007  0.1330066E+04  0.7818608E-02  0.9006056E-01
         -2   -1    0    0    0  501 -0.00000000000E+00  0.00000000000E+00  0.10311186154E+04  0.10311186154E+04  0.00000000000E+00 0.  1.
          2   -1    0    0  501    0  0.00000000000E+00 -0.00000000000E+00 -0.42892171976E+03  0.42892171976E+03  0.00000000000E+00 0. -1.
         23    2    1    2    0    0  0.15379616413E+03 -0.24075920264E+03  0.38694081823E+03  0.48936734399E+03  0.90216111641E+02 0.  0.
        254    2    1    2    0    0 -0.15379616413E+03  0.24075920264E+03  0.21525607737E+03  0.97067299112E+03  0.90235947554E+03 0.  0.
        -24    2    4    4    0    0 -0.30314550003E+03  0.35076503576E+03  0.45795293998E+03  0.65663891616E+03  0.80749405432E+02 0.  0.
         24    2    4    4    0    0  0.14934933590E+03 -0.11000583312E+03 -0.24269686261E+03  0.31403407496E+03  0.72863747254E+02 0.  0.
         11    1    3    3    0    0  0.49603425836E+02 -0.78188112738E+02  0.20099291304E+03  0.22129625374E+03  0.00000000000E+00 0.  1.
        -11    1    3    3    0    0  0.10419273829E+03 -0.16257108990E+03  0.18594790519E+03  0.26807109025E+03  0.00000000000E+00 0. -1.
          2    1    6    6  502    0  0.13027626023E+03 -0.93544869048E+02 -0.24005445284E+03  0.28870172641E+03  0.00000000000E+00 0. -1.
          3    1    5    5  503    0 -0.29656748535E+03  0.34828643467E+03  0.43000900702E+03  0.62782438632E+03  0.00000000000E+00 0. -1.
         -4    1    5    5    0  503 -0.65780146852E+01  0.24786010882E+01  0.27943932959E+02  0.28814529838E+02  0.00000000000E+00 0.  1.
         -1    1    6    6    0  502  0.19073075671E+02 -0.16460964071E+02 -0.26424097667E+01  0.25332348550E+02  0.00000000000E+00 0.  1.
<mgrwt>
<rscale>  0 0.13300664E+04</rscale>
<asrwt>0</asrwt>
<pdfrwt beam="1">  1        2 0.65987957E-01 0.13300664E+04</pdfrwt>
<pdfrwt beam="2">  1       -2 0.15863363E+00 0.13300664E+04</pdfrwt>
<totfact> 0.18507853E+01</totfact>
</mgrwt>
</event>
<event>
12    1  0.1489025E-007  0.1514311E+04  0.7818608E-02  0.8874992E-01
          1   -1    0    0  501    0  0.00000000000E+00  0.00000000000E+00  0.13302634817E+04  0.13302634817E+04  0.00000000000E+00 0. -1.
         -1   -1    0    0    0  501 -0.00000000000E+00 -0.00000000000E+00 -0.43095528384E+03  0.43095528384E+03  0.00000000000E+00 0.  1.
         23    2    1    2    0    0 -0.32442618666E+03 -0.13602929813E+03  0.41850146047E+02  0.36378008933E+03  0.82632911892E+02 0.  0.
        254    2    1    2    0    0  0.32442618666E+03  0.13602929813E+03  0.85745805178E+03  0.13974386762E+04  0.10458700792E+04 0.  0.
        -24    2    4    4    0    0  0.59664642769E+03  0.88817560201E+02  0.92020263747E+03  0.11034610183E+04  0.83533264131E+02 0.  0.
         24    2    4    4    0    0 -0.27222024103E+03  0.47211737933E+02 -0.62744585687E+02  0.29397765788E+03  0.78442160056E+02 0.  0.
         13    1    3    3    0    0 -0.10802828054E+03 -0.73939452361E+02  0.45588207554E+02  0.13861975573E+03  0.00000000000E+00 0. -1.
        -13    1    3    3    0    0 -0.21639790612E+03 -0.62089845773E+02 -0.37380615075E+01  0.22516033359E+03  0.00000000000E+00 0.  1.
          2    1    6    6  502    0 -0.39650877743E+02 -0.20956501556E+02 -0.94476538594E+01  0.45832578224E+02  0.00000000000E+00 0. -1.
          3    1    5    5  503    0  0.73717511859E+01 -0.75491338726E+01  0.27682354688E+02  0.29625072132E+02  0.00000000000E+00 0. -1.
         -4    1    5    5    0  503  0.58927467650E+03  0.96366694073E+02  0.89252028278E+03  0.10738359462E+04  0.00000000000E+00 0.  1.
         -1    1    6    6    0  502 -0.23256936329E+03  0.68168239489E+02 -0.53296931827E+02  0.24814507966E+03  0.00000000000E+00 0.  1.
<mgrwt>
<rscale>  0 0.15143105E+04</rscale>
<asrwt>0</asrwt>
<pdfrwt beam="1">  1        1 0.20465592E+00 0.15143105E+04</pdfrwt>
<pdfrwt beam="2">  1       -1 0.66300814E-01 0.15143105E+04</pdfrwt>
<totfact> 0.19170966E+01</totfact>
</mgrwt>
</event>
<event>
12    1  0.1489025E-007  0.1237596E+04  0.7818608E-02  0.9080571E-01
          2   -1    0    0  501    0  0.00000000000E+00  0.00000000000E+00  0.45762682055E+03  0.45762682055E+03  0.00000000000E+00 0. -1.
         -2   -1    0    0    0  501 -0.00000000000E+00 -0.00000000000E+00 -0.83673216137E+03  0.83673216137E+03  0.00000000000E+00 0.  1.
         23    2    1    2    0    0  0.74092282094E+02  0.26125662316E+03 -0.35201806966E+03  0.45416482891E+03  0.92759263941E+02 0.  0.
        254    2    1    2    0    0 -0.74092282094E+02 -0.26125662316E+03 -0.27087271162E+02  0.84019415300E+03  0.79463690140E+03 0.  0.
        -24    2    4    4    0    0 -0.23924140405E+03  0.21274220914E+03 -0.37795603037E+02  0.33189661611E+03  0.78937691973E+02 0.  0.
         24    2    4    4    0    0  0.16514912196E+03 -0.47399883230E+03  0.10708331875E+02  0.50829753689E+03  0.79388866591E+02 0.  0.
         13    1    3    3    0    0  0.30884154954E+02  0.19892075433E+03 -0.30328178454E+03  0.36400980531E+03  0.00000000000E+00 0.  1.
        -13    1    3    3    0    0  0.43208127139E+02  0.62335868829E+02 -0.48736285121E+02  0.90155023603E+02  0.00000000000E+00 0. -1.
          4    1    6    6  502    0  0.35876896624E-01 -0.36673920666E+01  0.91129371389E+01  0.98232721137E+01  0.00000000000E+00 0. -1.
          1    1    5    5  503    0 -0.13711895083E+02  0.44518577361E+02  0.66309236199E+01  0.47051981308E+02  0.00000000000E+00 0. -1.
         -2    1    5    5    0  503 -0.22552950897E+03  0.16822363178E+03 -0.44426526657E+02  0.28484463480E+03  0.00000000000E+00 0.  1.
         -3    1    6    6    0  502  0.16511324506E+03 -0.47033144023E+03  0.15953947359E+01  0.49847426478E+03  0.00000000000E+00 0.  1.
<mgrwt>
<rscale>  0 0.12375962E+04</rscale>
<asrwt>0</asrwt>
<pdfrwt beam="1">  1        2 0.70404127E-01 0.12375962E+04</pdfrwt>
<pdfrwt beam="2">  1       -2 0.12872802E+00 0.12375962E+04</pdfrwt>
<totfact> 0.29881974E+01</totfact>
</mgrwt>
</event>
<event>
12    1  0.1489025E-007  0.2515243E+04  0.7818608E-02  0.8397575E-01
         -1   -1    0    0    0  501 -0.00000000000E+00  0.00000000000E+00  0.78738343807E+03  0.78738343807E+03  0.00000000000E+00 0.  1.
          1   -1    0    0  501    0  0.00000000000E+00 -0.00000000000E+00 -0.20086937959E+04  0.20086937959E+04  0.00000000000E+00 0. -1.
         23    2    1    2    0    0 -0.34174601872E+03  0.47808247558E+03 -0.15547000897E+04  0.16646671016E+04  0.93118179678E+02 0.  0.
        254    2    1    2    0    0  0.34174601872E+03 -0.47808247558E+03  0.33338973185E+03  0.11314101324E+04  0.90751693078E+03 0.  0.
        -24    2    4    4    0    0  0.42490915899E+03 -0.70254720704E+03  0.29525013584E+03  0.87630045893E+03  0.81298709024E+02 0.  0.
         24    2    4    4    0    0 -0.83163140275E+02  0.22446473146E+03  0.38139596008E+02  0.25510967348E+03  0.79534854939E+02 0.  0.
         11    1    3    3    0    0 -0.11407199310E+03  0.17274141721E+03 -0.43019060539E+03  0.47740546059E+03  0.00000000000E+00 0. -1.
        -11    1    3    3    0    0 -0.22767402562E+03  0.30534105838E+03 -0.11245094843E+04  0.11872616410E+04  0.00000000000E+00 0.  1.
          4    1    6    6  502    0 -0.82858406064E+02  0.11145620116E+03  0.14318551505E+02  0.13961740991E+03  0.00000000000E+00 0. -1.
          1    1    5    5  503    0  0.11103687013E+03 -0.12202212182E+03  0.52628732611E+02  0.17317149950E+03  0.00000000000E+00 0. -1.
         -2    1    5    5    0  503  0.31387228886E+03 -0.58052508522E+03  0.24262140323E+03  0.70312895943E+03  0.00000000000E+00 0.  1.
         -3    1    6    6    0  502 -0.30473421027E+00  0.11300853030E+03  0.23821044504E+02  0.11549226358E+03  0.00000000000E+00 0.  1.
<mgrwt>
<rscale>  0 0.25152433E+04</rscale>
<asrwt>0</asrwt>
<pdfrwt beam="1">  1        1 0.30902981E+00 0.25152433E+04</pdfrwt>
<pdfrwt beam="2">  1       -1 0.12113591E+00 0.25152433E+04</pdfrwt>
<totfact> 0.15774780E+00</totfact>
</mgrwt>
</event>
<event>
12    1  0.1489025E-007  0.1188508E+04  0.7818608E-02  0.9122975E-01
         -2   -1    0    0    0  501 -0.00000000000E+00  0.00000000000E+00  0.32843454885E+03  0.32843454885E+03  0.00000000000E+00 0.  1.
          2   -1    0    0  501    0  0.00000000000E+00 -0.00000000000E+00 -0.10752158051E+04  0.10752158051E+04  0.00000000000E+00 0. -1.
         23    2    1    2    0    0 -0.24123218020E+02  0.63385795138E+02 -0.39968209364E+03  0.41497391520E+03  0.88644715848E+02 0.  0.
        254    2    1    2    0    0  0.24123218020E+02 -0.63385795138E+02 -0.34709916264E+03  0.98867643878E+03  0.92325705155E+03 0.  0.
        -24    2    4    4    0    0 -0.36587798523E+03  0.21459919097E+03 -0.99275736804E+02  0.44338895603E+03  0.82574703020E+02 0.  0.
         24    2    4    4    0    0  0.39000120325E+03 -0.27798498611E+03 -0.24782342583E+03  0.54528748275E+03  0.80903630428E+02 0.  0.
         11    1    3    3    0    0 -0.31336244232E+02  0.10336688830E+02 -0.42519690767E+02  0.53821291711E+02  0.00000000000E+00 0.  1.
        -11    1    3    3    0    0  0.72130262125E+01  0.53049106308E+02 -0.35716240288E+03  0.36115262349E+03  0.00000000000E+00 0. -1.
          4    1    6    6  502    0  0.30952786815E+03 -0.20114511243E+03 -0.22304274496E+03  0.43129447422E+03  0.00000000000E+00 0. -1.
          1    1    5    5  503    0 -0.30887386929E+03  0.20707158016E+03 -0.68319177499E+02  0.37808625531E+03  0.00000000000E+00 0. -1.
         -2    1    5    5    0  503 -0.57004115937E+02  0.75276108102E+01 -0.30956559305E+02  0.65302700728E+02  0.00000000000E+00 0.  1.
         -3    1    6    6    0  502  0.80473335093E+02 -0.76839873680E+02 -0.24780680875E+02  0.11399300853E+03  0.00000000000E+00 0.  1.
<mgrwt>
<rscale>  0 0.11885083E+04</rscale>
<asrwt>0</asrwt>
<pdfrwt beam="1">  1        2 0.16541782E+00 0.11885083E+04</pdfrwt>
<pdfrwt beam="2">  1       -2 0.50528392E-01 0.11885083E+04</pdfrwt>
<totfact> 0.82536110E+01</totfact>
</mgrwt>
</event>
<event>
12    1  0.1489025E-007  0.1550681E+04  0.7818608E-02  0.8851433E-01
          2   -1    0    0  501    0  0.00000000000E+00  0.00000000000E+00  0.21608752407E+04  0.21608752407E+04  0.00000000000E+00 0. -1.
         -2   -1    0    0    0  501 -0.00000000000E+00 -0.00000000000E+00 -0.27819864581E+03  0.27819864581E+03  0.00000000000E+00 0.  1.
         23    2    1    2    0    0  0.19117143358E+03 -0.41922002008E+03  0.96643734607E+03  0.10743881017E+04  0.89536064438E+02 0.  0.
        254    2    1    2    0    0 -0.19117143358E+03  0.41922002008E+03  0.91623924880E+03  0.13646857848E+04  0.90032271326E+03 0.  0.
        -24    2    4    4    0    0 -0.49012877083E+03  0.91204008972E+02  0.70354736191E+03  0.86611816411E+03  0.81470243002E+02 0.  0.
         24    2    4    4    0    0  0.29895733726E+03  0.32801601111E+03  0.21269188688E+03  0.49856762072E+03  0.79761147416E+02 0.  0.
         13    1    3    3    0    0  0.18732151401E+03 -0.36990487276E+03  0.80448046223E+03  0.90504573289E+03  0.00000000000E+00 0. -1.
        -13    1    3    3    0    0  0.38499195657E+01 -0.49315147325E+02  0.16195688384E+03  0.16934236876E+03  0.00000000000E+00 0.  1.
          2    1    6    6  502    0  0.28234852518E+03  0.27380683940E+03  0.17498458759E+03  0.43047703873E+03  0.00000000000E+00 0. -1.
          3    1    5    5  503    0 -0.48521479349E+03  0.92748017950E+02  0.67136702142E+03  0.83352820475E+03  0.00000000000E+00 0. -1.
         -4    1    5    5    0  503 -0.49139773413E+01 -0.15440089780E+01  0.32180340495E+02  0.32589959365E+02  0.00000000000E+00 0.  1.
         -1    1    6    6    0  502  0.16608812073E+02  0.54209171710E+02  0.37707299292E+02  0.68090581991E+02  0.00000000000E+00 0.  1.
<mgrwt>
<rscale>  0 0.15506806E+04</rscale>
<asrwt>0</asrwt>
<pdfrwt beam="1">  1        2 0.33244233E+00 0.15506806E+04</pdfrwt>
<pdfrwt beam="2">  1       -2 0.42799793E-01 0.15506806E+04</pdfrwt>
<totfact> 0.27080372E+01</totfact>
</mgrwt>
</event>
<event>
12    1  0.1489025E-007  0.1351638E+04  0.7818608E-02  0.8989589E-01
          2   -1    0    0  501    0  0.00000000000E+00  0.00000000000E+00  0.12741649891E+04  0.12741649891E+04  0.00000000000E+00 0. -1.
         -2   -1    0    0    0  501 -0.00000000000E+00 -0.00000000000E+00 -0.35845535808E+03  0.35845535808E+03  0.00000000000E+00 0.  1.
         23    2    1    2    0    0  0.10102543976E+03  0.19238425695E+02 -0.18553572198E+03  0.23119548904E+03  0.91932548742E+02 0.  0.
        254    2    1    2    0    0 -0.10102543976E+03 -0.19238425695E+02  0.11012453530E+04  0.14014248582E+04  0.86062422058E+03 0.  0.
        -24    2    4    4    0    0 -0.22245880110E+03 -0.24900549585E+03  0.10744173972E+04  0.11279202742E+04  0.79622525421E+02 0.  0.
         24    2    4    4    0    0  0.12143336134E+03  0.22976707016E+03  0.26827955875E+02  0.27350458395E+03  0.80907666202E+02 0.  0.
         11    1    3    3    0    0  0.11461860260E+03  0.56904469643E+01 -0.13527571937E+03  0.17739595683E+03  0.00000000000E+00 0. -1.
        -11    1    3    3    0    0 -0.13593162835E+02  0.13547978731E+02 -0.50260002615E+02  0.53799532213E+02  0.00000000000E+00 0.  1.
          2    1    6    6  502    0  0.52700038340E+02  0.99989301140E+02 -0.28512294671E+02  0.11656802877E+03  0.00000000000E+00 0. -1.
          3    1    5    5  503    0 -0.15951621052E+03 -0.16855224576E+03  0.85423792979E+03  0.88519925535E+03  0.00000000000E+00 0. -1.
         -4    1    5    5    0  503 -0.62942590582E+02 -0.80453250090E+02  0.22017946737E+03  0.24272101889E+03  0.00000000000E+00 0.  1.
         -1    1    6    6    0  502  0.68733322998E+02  0.12977776902E+03  0.55340250547E+02  0.15693655518E+03  0.00000000000E+00 0.  1.
<mgrwt>
<rscale>  0 0.13516379E+04</rscale>
<asrwt>0</asrwt>
<pdfrwt beam="1">  1        2 0.19602538E+00 0.13516379E+04</pdfrwt>
<pdfrwt beam="2">  1       -2 0.55146979E-01 0.13516379E+04</pdfrwt>
<totfact> 0.51680813E+01</totfact>
</mgrwt>
</event>
<event>
12    1  0.1489025E-007  0.1558360E+04  0.7818608E-02  0.8846546E-01
         -1   -1    0    0    0  501 -0.00000000000E+00  0.00000000000E+00  0.44469699821E+03  0.44469699821E+03  0.00000000000E+00 0.  1.
          1   -1    0    0  501    0  0.00000000000E+00 -0.00000000000E+00 -0.13652472217E+04  0.13652472217E+04  0.00000000000E+00 0. -1.
         23    2    1    2    0    0  0.40469133030E+03 -0.83699691474E+02  0.76153072920E+02  0.42999606612E+03  0.91195477895E+02 0.  0.
        254    2    1    2    0    0 -0.40469133030E+03  0.83699691474E+02 -0.99670329644E+03  0.13799481538E+04  0.86026666503E+03 0.  0.
        -24    2    4    4    0    0 -0.54295438607E+03 -0.57632520215E+02 -0.25394764000E+03  0.60756651630E+03  0.80787963982E+02 0.  0.
         24    2    4    4    0    0  0.13826305577E+03  0.14133221169E+03 -0.74275565644E+03  0.77238163753E+03  0.76131216785E+02 0.  0.
         13    1    3    3    0    0  0.28114050627E+03 -0.97621719172E+02  0.38500690828E+02  0.30008713320E+03  0.00000000000E+00 0.  1.
        -13    1    3    3    0    0  0.12355082403E+03  0.13922027698E+02  0.37652382093E+02  0.12990893292E+03  0.00000000000E+00 0. -1.
          2    1    6    6  502    0  0.23859072613E+02  0.22232295846E+02 -0.26264538901E+03  0.26466229557E+03  0.00000000000E+00 0. -1.
          3    1    5    5  503    0 -0.13677692811E+03 -0.12224756565E+01 -0.10044706413E+03  0.16970278490E+03  0.00000000000E+00 0. -1.
         -4    1    5    5    0  503 -0.40617745796E+03 -0.56410044559E+02 -0.15350057587E+03  0.43786373140E+03  0.00000000000E+00 0.  1.
         -1    1    6    6    0  502  0.11440398316E+03  0.11909991584E+03 -0.48011026743E+03  0.50771934197E+03  0.00000000000E+00 0.  1.
<mgrwt>
<rscale>  0 0.15583598E+04</rscale>
<asrwt>0</asrwt>
<pdfrwt beam="1">  1        1 0.21003803E+00 0.15583598E+04</pdfrwt>
<pdfrwt beam="2">  1       -1 0.68414923E-01 0.15583598E+04</pdfrwt>
<totfact> 0.16924131E+01</totfact>
</mgrwt>
</event>
<event>
12    1  0.1489025E-007  0.1574721E+04  0.7818608E-02  0.8836230E-01
          2   -1    0    0  501    0  0.00000000000E+00  0.00000000000E+00  0.99870096815E+03  0.99870096815E+03  0.00000000000E+00 0. -1.
         -2   -1    0    0    0  501 -0.00000000000E+00 -0.00000000000E+00 -0.62074315447E+03  0.62074315447E+03  0.00000000000E+00 0.  1.
         23    2    1    2    0    0 -0.48673504529E+03 -0.20301013144E+02  0.32540570627E+03  0.59289867807E+03  0.91196673948E+02 0.  0.
        254    2    1    2    0    0  0.48673504529E+03  0.20301013144E+02  0.52552107410E+02  0.10265454445E+04  0.90205913901E+03 0.  0.
        -24    2    4    4    0    0  0.39165228040E+03 -0.37497614265E+02 -0.39242593820E+03  0.56070612273E+03  0.74804139442E+02 0.  0.
         24    2    4    4    0    0  0.95082764889E+02  0.57798627410E+02  0.44497804561E+03  0.46583932182E+03  0.81359690081E+02 0.  0.
         13    1    3    3    0    0 -0.94663458303E+02 -0.30600906342E+02  0.37314178207E+02  0.10625409970E+03  0.00000000000E+00 0. -1.
        -13    1    3    3    0    0 -0.39207158699E+03  0.10299893198E+02  0.28809152806E+03  0.48664457838E+03  0.00000000000E+00 0.  1.
          4    1    6    6  502    0  0.28909092282E+02 -0.72908433473E+01  0.22660758840E+03  0.22856047587E+03  0.00000000000E+00 0. -1.
          3    1    5    5  503    0  0.23818920466E+03  0.11382935884E+02 -0.21490442024E+03  0.32101024639E+03  0.00000000000E+00 0. -1.
         -4    1    5    5    0  503  0.15346307574E+03 -0.48880550149E+02 -0.17752151795E+03  0.23969587634E+03  0.00000000000E+00 0.  1.
         -3    1    6    6    0  502  0.66173672606E+02  0.65089470757E+02  0.21837045721E+03  0.23727884594E+03  0.00000000000E+00 0.  1.
<mgrwt>
<rscale>  0 0.15747213E+04</rscale>
<asrwt>0</asrwt>
<pdfrwt beam="1">  1        2 0.15364630E+00 0.15747213E+04</pdfrwt>
<pdfrwt beam="2">  1       -2 0.95498946E-01 0.15747213E+04</pdfrwt>
<totfact> 0.22327935E+01</totfact>
</mgrwt>
</event>
<event>
12    1  0.1489025E-007  0.2199372E+04  0.7818608E-02  0.8518690E-01
          2   -1    0    0  501    0  0.00000000000E+00  0.00000000000E+00  0.39607571732E+04  0.39607571732E+04  0.00000000000E+00 0. -1.
         -2   -1    0    0    0  501 -0.00000000000E+00 -0.00000000000E+00 -0.30532272752E+03  0.30532272752E+03  0.00000000000E+00 0.  1.
         23    2    1    2    0    0  0.31859786316E+03  0.82849320443E+03  0.11035005057E+04  0.14190070940E+04  0.89231039214E+02 0.  0.
        254    2    1    2    0    0 -0.31859786316E+03 -0.82849320443E+03  0.25519339399E+04  0.28470728067E+04  0.89752501076E+03 0.  0.
        -24    2    4    4    0    0 -0.17661656045E+02 -0.78962903074E+03  0.10706486199E+04  0.13327674200E+04  0.78451183432E+02 0.  0.
         24    2    4    4    0    0 -0.30093620712E+03 -0.38864173690E+02  0.14812853200E+04  0.15143053867E+04  0.82713846008E+02 0.  0.
         11    1    3    3    0    0  0.80569973588E+00  0.12241219650E+02  0.36567833606E+02  0.38570754014E+02  0.00000000000E+00 0. -1.
        -11    1    3    3    0    0  0.31779216343E+03  0.81625198478E+03  0.10669326721E+04  0.13804363399E+04  0.00000000000E+00 0.  1.
          2    1    6    6  502    0 -0.18600426292E+03 -0.33158935323E+02  0.10973342599E+04  0.11134808389E+04  0.00000000000E+00 0. -1.
          3    1    5    5  503    0 -0.44240093735E+01 -0.23656483554E+02  0.14730467774E+02  0.28216799144E+02  0.00000000000E+00 0. -1.
         -2    1    5    5    0  503 -0.13237646671E+02 -0.76597254718E+03  0.10559181522E+04  0.13045506209E+04  0.00000000000E+00 0.  1.
         -1    1    6    6    0  502 -0.11493194420E+03 -0.57052383670E+01  0.38395106014E+03  0.40082454781E+03  0.00000000000E+00 0.  1.
<mgrwt>
<rscale>  0 0.21993719E+04</rscale>
<asrwt>0</asrwt>
<pdfrwt beam="1">  1        2 0.60934722E+00 0.21993719E+04</pdfrwt>
<pdfrwt beam="2">  1       -2 0.46972730E-01 0.21993719E+04</pdfrwt>
<totfact> 0.14548279E+00</totfact>
</mgrwt>
</event>
<event>
12    1  0.1489025E-007  0.2115211E+04  0.7818608E-02  0.8554572E-01
         -2   -1    0    0    0  501 -0.00000000000E+00  0.00000000000E+00  0.97020664024E+03  0.97020664024E+03  0.00000000000E+00 0.  1.
          2   -1    0    0  501    0  0.00000000000E+00 -0.00000000000E+00 -0.11528776412E+04  0.11528776412E+04  0.00000000000E+00 0. -1.
         23    2    1    2    0    0 -0.48272601154E+03  0.71239860624E+03 -0.96673822539E+02  0.87072784624E+03  0.91021853734E+02 0.  0.
        254    2    1    2    0    0  0.48272601154E+03 -0.71239860624E+03 -0.85997178371E+02  0.12523564352E+04  0.90579520290E+03 0.  0.
        -24    2    4    4    0    0  0.54914782097E+03 -0.26800861635E+03 -0.36633286472E+03  0.71682975476E+03  0.79077062550E+02 0.  0.
         24    2    4    4    0    0 -0.66421809429E+02 -0.44438998989E+03  0.28033568635E+03  0.53552668039E+03  0.79412898751E+02 0.  0.
         11    1    3    3    0    0 -0.17249870517E+03  0.24922536688E+03  0.94599974030E+01  0.30324672848E+03  0.00000000000E+00 0. -1.
        -11    1    3    3    0    0 -0.31022730637E+03  0.46317323936E+03 -0.10613381994E+03  0.56748111776E+03  0.00000000000E+00 0.  1.
          2    1    6    6  502    0 -0.38615464617E+02 -0.40051009055E+03  0.23141053739E+03  0.46416626715E+03  0.00000000000E+00 0. -1.
          1    1    5    5  503    0  0.34251374425E+03 -0.17805861032E+03 -0.27347953547E+03  0.47308729642E+03  0.00000000000E+00 0. -1.
         -2    1    5    5    0  503  0.20663407672E+03 -0.89950006030E+02 -0.92853329252E+02  0.24374245835E+03  0.00000000000E+00 0.  1.
         -1    1    6    6    0  502 -0.27806344812E+02 -0.43879899338E+02  0.48925148964E+02  0.71360413247E+02  0.00000000000E+00 0.  1.
<mgrwt>
<rscale>  0 0.21152111E+04</rscale>
<asrwt>0</asrwt>
<pdfrwt beam="1">  1        2 0.17736579E+00 0.21152111E+04</pdfrwt>
<pdfrwt beam="2">  1       -2 0.14926256E+00 0.21152111E+04</pdfrwt>
<totfact> 0.56499576E+00</totfact>
</mgrwt>
</event>
<event>
12    1  0.1489025E-007  0.1376774E+04  0.7818608E-02  0.8970805E-01
         -1   -1    0    0    0  501 -0.00000000000E+00  0.00000000000E+00  0.15410850199E+03  0.15410850199E+03  0.00000000000E+00 0.  1.
          1   -1    0    0  501    0  0.00000000000E+00 -0.00000000000E+00 -0.30749537754E+04  0.30749537754E+04  0.00000000000E+00 0. -1.
         23    2    1    2    0    0 -0.11057924648E+03  0.21018532794E+03 -0.15411401934E+04  0.15620777076E+04  0.92563638146E+02 0.  0.
        254    2    1    2    0    0  0.11057924648E+03 -0.21018532794E+03 -0.13797050800E+04  0.16669845698E+04  0.90490099249E+03 0.  0.
        -24    2    4    4    0    0  0.81626333804E+02 -0.27319355598E+03 -0.13480294511E+02  0.29699469781E+03  0.82015576497E+02 0.  0.
         24    2    4    4    0    0  0.28952912673E+02  0.63008228041E+02 -0.13662247855E+04  0.13699898719E+04  0.74120016310E+02 0.  0.
         13    1    3    3    0    0 -0.10524985487E+03  0.21975982727E+03 -0.14583979272E+04  0.14786130081E+04  0.00000000000E+00 0. -1.
        -13    1    3    3    0    0 -0.53293916080E+01 -0.95744993270E+01 -0.82742266213E+02  0.83464699546E+02  0.00000000000E+00 0.  1.
          2    1    6    6  502    0 -0.69581843963E+01 -0.26542329217E+01 -0.15530689042E+02  0.17223924774E+02  0.00000000000E+00 0. -1.
          1    1    5    5  503    0  0.45284913770E+02 -0.18584522673E+03 -0.46389279882E+02  0.19682768352E+03  0.00000000000E+00 0. -1.
         -2    1    5    5    0  503  0.36341420034E+02 -0.87348329254E+02  0.32908985372E+02  0.10016701429E+03  0.00000000000E+00 0.  1.
         -1    1    6    6    0  502  0.35911097069E+02  0.65662460963E+02 -0.13506940964E+04  0.13527659472E+04  0.00000000000E+00 0.  1.
<mgrwt>
<rscale>  0 0.13767738E+04</rscale>
<asrwt>0</asrwt>
<pdfrwt beam="1">  1        1 0.47306979E+00 0.13767738E+04</pdfrwt>
<pdfrwt beam="2">  1       -1 0.23709002E-01 0.13767738E+04</pdfrwt>
<totfact> 0.79640110E+00</totfact>
</mgrwt>
</event>
<event>
12    1  0.1489025E-007  0.1527240E+04  0.7818608E-02  0.8866538E-01
         -1   -1    0    0    0  501 -0.00000000000E+00  0.00000000000E+00  0.16896457575E+04  0.16896457575E+04  0.00000000000E+00 0.  1.
          1   -1    0    0  501    0  0.00000000000E+00 -0.00000000000E+00 -0.34511092934E+03  0.34511092934E+03  0.00000000000E+00 0. -1.
         23    2    1    2    0    0  0.15603837389E+03  0.76075424035E+02  0.10536610466E+04  0.10719029209E+04  0.92945287113E+02 0.  0.
        254    2    1    2    0    0 -0.15603837389E+03 -0.76075424035E+02  0.29087378148E+03  0.96285376589E+03  0.90130148866E+03 0.  0.
        -24    2    4    4    0    0  0.25573861036E+02  0.30920893396E+03 -0.14083725033E+03  0.34992196109E+03  0.79662165208E+02 0.  0.
         24    2    4    4    0    0 -0.18161223493E+03 -0.38528435799E+03  0.43171103181E+03  0.61293180479E+03  0.88791564653E+02 0.  0.
         13    1    3    3    0    0  0.11728184310E+03  0.51841328244E+02  0.49374455671E+03  0.51012375098E+03  0.00000000000E+00 0. -1.
        -13    1    3    3    0    0  0.38756530791E+02  0.24234095791E+02  0.55991648994E+03  0.56177916995E+03  0.00000000000E+00 0.  1.
          4    1    6    6  502    0 -0.73136593042E+02 -0.68314002994E+02  0.98545939461E+02  0.14045307555E+03  0.00000000000E+00 0. -1.
          1    1    5    5  503    0  0.30564240721E+02  0.13746251943E+03 -0.10169519193E+03  0.17370097617E+03  0.00000000000E+00 0. -1.
         -2    1    5    5    0  503 -0.49903796848E+01  0.17174641452E+03 -0.39142058398E+02  0.17622098492E+03  0.00000000000E+00 0.  1.
         -3    1    6    6    0  502 -0.10847564189E+03 -0.31697035500E+03  0.33316509235E+03  0.47247872925E+03  0.00000000000E+00 0.  1.
<mgrwt>
<rscale>  0 0.15272396E+04</rscale>
<asrwt>0</asrwt>
<pdfrwt beam="1">  1        1 0.53093990E-01 0.15272396E+04</pdfrwt>
<pdfrwt beam="2">  1       -1 0.25994550E+00 0.15272396E+04</pdfrwt>
<totfact> 0.42324048E+00</totfact>
</mgrwt>
</event>
<event>
12    1  0.1489025E-007  0.1516309E+04  0.7818608E-02  0.8873679E-01
         -2   -1    0    0    0  501 -0.00000000000E+00  0.00000000000E+00  0.60292253788E+03  0.60292253788E+03  0.00000000000E+00 0.  1.
          2   -1    0    0  501    0  0.00000000000E+00 -0.00000000000E+00 -0.95335397793E+03  0.95335397793E+03  0.00000000000E+00 0. -1.
         23    2    1    2    0    0  0.14697499547E+03  0.36900207236E+03  0.16905856114E+03  0.44074447290E+03  0.88942198071E+02 0.  0.
        254    2    1    2    0    0 -0.14697499547E+03 -0.36900207236E+03 -0.51949000119E+03  0.11155320429E+04  0.90375754421E+03 0.  0.
        -24    2    4    4    0    0  0.99215792945E+02  0.14344071357E+03  0.14249192573E+03  0.23952797867E+03  0.81551773686E+02 0.  0.
         24    2    4    4    0    0 -0.24619078841E+03 -0.51244278592E+03 -0.66198192691E+03  0.87600406424E+03  0.77172118382E+02 0.  0.
         13    1    3    3    0    0  0.13973213485E+02  0.95150547767E+02  0.75455382564E+02  0.12223907801E+03  0.00000000000E+00 0. -1.
        -13    1    3    3    0    0  0.13300178198E+03  0.27385152459E+03  0.93603178578E+02  0.31850539489E+03  0.00000000000E+00 0.  1.
          2    1    6    6  502    0 -0.13045171300E+03 -0.31026505904E+03 -0.33835232428E+03  0.47724663606E+03  0.00000000000E+00 0. -1.
          1    1    5    5  503    0  0.21931371279E+02  0.92490061301E+02  0.99020719618E+02  0.13726069867E+03  0.00000000000E+00 0. -1.
         -2    1    5    5    0  503  0.77284421665E+02  0.50950652264E+02  0.43471206108E+02  0.10226728000E+03  0.00000000000E+00 0.  1.
         -1    1    6    6    0  502 -0.11573907541E+03 -0.20217772688E+03 -0.32362960263E+03  0.39875742817E+03  0.00000000000E+00 0.  1.
<mgrwt>
<rscale>  0 0.15163095E+04</rscale>
<asrwt>0</asrwt>
<pdfrwt beam="1">  1        2 0.14666984E+00 0.15163095E+04</pdfrwt>
<pdfrwt beam="2">  1       -2 0.92757314E-01 0.15163095E+04</pdfrwt>
<totfact> 0.25693256E+01</totfact>
</mgrwt>
</event>
<event>
12    1  0.1489025E-007  0.2316695E+04  0.7818608E-02  0.8471368E-01
         -1   -1    0    0    0  501 -0.00000000000E+00  0.00000000000E+00  0.41633171865E+03  0.41633171865E+03  0.00000000000E+00 0.  1.
          1   -1    0    0  501    0  0.00000000000E+00 -0.00000000000E+00 -0.32228359769E+04  0.32228359769E+04  0.00000000000E+00 0. -1.
         23    2    1    2    0    0 -0.31468187321E+03  0.21458644260E+03 -0.25957165348E+04  0.26250127194E+04  0.88743593691E+02 0.  0.
        254    2    1    2    0    0  0.31468187321E+03 -0.21458644260E+03 -0.21078772343E+03  0.10141549761E+04  0.91597315930E+03 0.  0.
        -24    2    4    4    0    0  0.39413306955E+03 -0.46480625674E+03  0.74371118131E+02  0.61869778016E+03  0.76616885596E+02 0.  0.
         24    2    4    4    0    0 -0.79451196334E+02  0.25021981414E+03 -0.28515884156E+03  0.39545719595E+03  0.78411612158E+02 0.  0.
         11    1    3    3    0    0 -0.31175528869E+03  0.21777447035E+03 -0.24593744362E+04  0.24886019564E+04  0.00000000000E+00 0. -1.
        -11    1    3    3    0    0 -0.29265845213E+01 -0.31880277535E+01 -0.13634209855E+03  0.13641076298E+03  0.00000000000E+00 0.  1.
          4    1    6    6  502    0 -0.87029010187E+02  0.25165274152E+03 -0.27688018061E+03  0.38414292307E+03  0.00000000000E+00 0. -1.
          3    1    5    5  503    0  0.17251329237E+03 -0.24086019533E+03  0.61597122222E+01  0.29633159095E+03  0.00000000000E+00 0. -1.
         -4    1    5    5    0  503  0.22161977717E+03 -0.22394606140E+03  0.68211405909E+02  0.32236618921E+03  0.00000000000E+00 0.  1.
         -3    1    6    6    0  502  0.75778138523E+01 -0.14329273832E+01 -0.82786609506E+01  0.11314272880E+02  0.00000000000E+00 0.  1.
<mgrwt>
<rscale>  0 0.23166949E+04</rscale>
<asrwt>0</asrwt>
<pdfrwt beam="1">  1        1 0.49582093E+00 0.23166949E+04</pdfrwt>
<pdfrwt beam="2">  1       -1 0.64051032E-01 0.23166949E+04</pdfrwt>
<totfact> 0.91257352E-01</totfact>
</mgrwt>
</event>
<event>
12    1  0.1489025E-007  0.2026961E+04  0.7818608E-02  0.8594118E-01
         -2   -1    0    0    0  501 -0.00000000000E+00  0.00000000000E+00  0.23325238759E+04  0.23325238759E+04  0.00000000000E+00 0.  1.
          2   -1    0    0  501    0  0.00000000000E+00 -0.00000000000E+00 -0.44035689865E+03  0.44035689865E+03  0.00000000000E+00 0. -1.
         23    2    1    2    0    0 -0.58372647815E+02  0.76685720247E+03  0.10830024823E+04  0.13316079117E+04  0.93850513469E+02 0.  0.
        254    2    1    2    0    0  0.58372647815E+02 -0.76685720247E+03  0.80916449491E+03  0.14412728628E+04  0.91161557154E+03 0.  0.
        -24    2    4    4    0    0  0.22773415099E+03  0.51466011715E+02  0.47937646257E+03  0.53916951623E+03  0.79939855369E+02 0.  0.
         24    2    4    4    0    0 -0.16936150317E+03 -0.81832321418E+03  0.32978803234E+03  0.90210334659E+03  0.81817479918E+02 0.  0.
         11    1    3    3    0    0  0.95546024972E+01  0.81223155202E+02  0.77309332955E+02  0.11253987885E+03  0.00000000000E+00 0.  1.
        -11    1    3    3    0    0 -0.67927250312E+02  0.68563404727E+03  0.10056931494E+04  0.12190680329E+04  0.00000000000E+00 0. -1.
          4    1    6    6  502    0 -0.16701476047E+03 -0.81004635941E+03  0.31508688234E+03  0.88506992833E+03  0.00000000000E+00 0. -1.
          3    1    5    5  503    0  0.21206258649E+03  0.58511349756E+02  0.47144539856E+03  0.52024502157E+03  0.00000000000E+00 0. -1.
         -4    1    5    5    0  503  0.15671564499E+02 -0.70453380414E+01  0.79310640085E+01  0.18924494664E+02  0.00000000000E+00 0.  1.
         -3    1    6    6    0  502 -0.23467426993E+01 -0.82768547760E+01  0.14701150002E+02  0.17033418261E+02  0.00000000000E+00 0.  1.
<mgrwt>
<rscale>  0 0.20269613E+04</rscale>
<asrwt>0</asrwt>
<pdfrwt beam="1">  1        2 0.67747217E-01 0.20269613E+04</pdfrwt>
<pdfrwt beam="2">  1       -2 0.35884982E+00 0.20269613E+04</pdfrwt>
<totfact> 0.90603559E-01</totfact>
</mgrwt>
</event>
<event>
12    1  0.1489025E-007  0.1824591E+04  0.7818608E-02  0.8693330E-01
         -1   -1    0    0    0  501 -0.00000000000E+00  0.00000000000E+00  0.84259933126E+03  0.84259933126E+03  0.00000000000E+00 0.  1.
          1   -1    0    0  501    0  0.00000000000E+00 -0.00000000000E+00 -0.98775675208E+03  0.98775675208E+03  0.00000000000E+00 0. -1.
         23    2    1    2    0    0  0.34210960747E+03 -0.28040864325E+03 -0.57712653224E+03  0.73168986710E+03  0.81406613177E+02 0.  0.
        254    2    1    2    0    0 -0.34210960747E+03  0.28040864325E+03  0.43196911143E+03  0.10986662162E+04  0.90818618727E+03 0.  0.
        -24    2    4    4    0    0 -0.47328778287E+03  0.46296291803E+03  0.51871653532E+03  0.84432237882E+03  0.74009772829E+02 0.  0.
         24    2    4    4    0    0  0.13117817540E+03 -0.18255427479E+03 -0.86747423896E+02  0.25434383742E+03  0.81436448453E+02 0.  0.
         11    1    3    3    0    0  0.28807688349E+03 -0.20863853034E+03 -0.49795652328E+03  0.61194691455E+03  0.00000000000E+00 0. -1.
        -11    1    3    3    0    0  0.54032723984E+02 -0.71770112910E+02 -0.79170008957E+02  0.11974295255E+03  0.00000000000E+00 0.  1.
          2    1    6    6  502    0 -0.72111579152E+01 -0.38074623298E+02 -0.18661085293E+02  0.43010624758E+02  0.00000000000E+00 0. -1.
          3    1    5    5  503    0 -0.44810171840E+02  0.57676642159E+02  0.32442760068E+02  0.79919204400E+02  0.00000000000E+00 0. -1.
         -4    1    5    5    0  503 -0.42847761103E+03  0.40528627587E+03  0.48627377525E+03  0.76440317442E+03  0.00000000000E+00 0.  1.
         -1    1    6    6    0  502  0.13838933331E+03 -0.14447965149E+03 -0.68086338603E+02  0.21133321266E+03  0.00000000000E+00 0.  1.
<mgrwt>
<rscale>  0 0.18245911E+04</rscale>
<asrwt>0</asrwt>
<pdfrwt beam="1">  1        1 0.15196258E+00 0.18245911E+04</pdfrwt>
<pdfrwt beam="2">  1       -1 0.12963067E+00 0.18245911E+04</pdfrwt>
<totfact> 0.74418369E+00</totfact>
</mgrwt>
</event>
<event>
12    1  0.1489025E-007  0.2181445E+04  0.7818608E-02  0.8526191E-01
          1   -1    0    0  501    0  0.00000000000E+00  0.00000000000E+00  0.24300723137E+04  0.24300723137E+04  0.00000000000E+00 0. -1.
         -1   -1    0    0    0  501 -0.00000000000E+00 -0.00000000000E+00 -0.48956381939E+03  0.48956381939E+03  0.00000000000E+00 0.  1.
         23    2    1    2    0    0 -0.35070639785E+03 -0.81193611129E+03  0.55526952269E+03  0.10499265859E+04  0.10856503371E+03 0.  0.
        254    2    1    2    0    0  0.35070639785E+03  0.81193611129E+03  0.13852389716E+04  0.18697095472E+04  0.89145474151E+03 0.  0.
        -24    2    4    4    0    0  0.58727015861E+03  0.48639571693E+03  0.11889634476E+04  0.14147588042E+04  0.80258094603E+02 0.  0.
         24    2    4    4    0    0 -0.23656376076E+03  0.32554039437E+03  0.19627552398E+03  0.45495074298E+03  0.80728780171E+02 0.  0.
         11    1    3    3    0    0 -0.10740621435E+03 -0.30965529108E+03  0.26109693742E+03  0.41903950280E+03  0.00000000000E+00 0.  1.
        -11    1    3    3    0    0 -0.24330018350E+03 -0.50228082021E+03  0.29417258527E+03  0.63088708306E+03  0.00000000000E+00 0. -1.
          2    1    6    6  502    0 -0.12785544998E+03  0.23748962221E+03  0.11547807204E+03  0.29339993502E+03  0.00000000000E+00 0. -1.
          3    1    5    5  503    0  0.43149129659E+03  0.39667876869E+03  0.93763705081E+03  0.11057585738E+04  0.00000000000E+00 0. -1.
         -4    1    5    5    0  503  0.15577886202E+03  0.89716948234E+02  0.25132639680E+03  0.30900023039E+03  0.00000000000E+00 0.  1.
         -3    1    6    6    0  502 -0.10870831078E+03  0.88050772158E+02  0.80797451946E+02  0.16155080796E+03  0.00000000000E+00 0.  1.
<mgrwt>
<rscale>  0 0.21814449E+04</rscale>
<asrwt>0</asrwt>
<pdfrwt beam="1">  1        1 0.37385727E+00 0.21814449E+04</pdfrwt>
<pdfrwt beam="2">  1       -1 0.75317512E-01 0.21814449E+04</pdfrwt>
<totfact> 0.24510288E+00</totfact>
</mgrwt>
</event>
<event>
12    1  0.1489025E-007  0.3417449E+04  0.7818608E-02  0.8133637E-01
         -2   -1    0    0    0  501 -0.00000000000E+00  0.00000000000E+00  0.85875246874E+03  0.85875246874E+03  0.00000000000E+00 0.  1.
          2   -1    0    0  501    0  0.00000000000E+00 -0.00000000000E+00 -0.33999771863E+04  0.33999771863E+04  0.00000000000E+00 0. -1.
         23    2    1    2    0    0  0.43917932530E+03  0.83260113086E+03  0.41083578068E+03  0.10310787521E+04  0.90742666120E+02 0.  0.
        254    2    1    2    0    0 -0.43917932530E+03 -0.83260113086E+03 -0.29520604982E+04  0.32276509029E+04  0.90386173895E+03 0.  0.
        -24    2    4    4    0    0 -0.30058614635E+02 -0.52017608646E+02  0.40178862829E+02  0.10731277827E+03  0.79324267658E+02 0.  0.
         24    2    4    4    0    0 -0.40912071067E+03 -0.78058352222E+03 -0.29922393610E+04  0.31203381246E+04  0.79518723005E+02 0.  0.
         13    1    3    3    0    0  0.31451787219E+03  0.63502888187E+03  0.34617006537E+03  0.78868047199E+03  0.00000000000E+00 0.  1.
        -13    1    3    3    0    0  0.12466145311E+03  0.19757224899E+03  0.64665715308E+02  0.24239828011E+03  0.00000000000E+00 0. -1.
          2    1    6    6  502    0 -0.67324604890E+02 -0.87124190156E+02 -0.44044267006E+03  0.45399666578E+03  0.00000000000E+00 0. -1.
          3    1    5    5  503    0  0.20234014587E+02 -0.38540738502E+01 -0.85701827433E+01  0.22309577849E+02  0.00000000000E+00 0. -1.
         -4    1    5    5    0  503 -0.50292629222E+02 -0.48163534796E+02  0.48749045572E+02  0.85003200424E+02  0.00000000000E+00 0.  1.
         -1    1    6    6    0  502 -0.34179610578E+03 -0.69345933206E+03 -0.25517966910E+04  0.26663414589E+04  0.00000000000E+00 0.  1.
<mgrwt>
<rscale>  0 0.34174486E+04</rscale>
<asrwt>0</asrwt>
<pdfrwt beam="1">  1        2 0.52307341E+00 0.34174486E+04</pdfrwt>
<pdfrwt beam="2">  1       -2 0.13211576E+00 0.34174486E+04</pdfrwt>
<totfact> 0.32834261E-01</totfact>
</mgrwt>
</event>
<event>
12    1  0.1489025E-007  0.2294432E+04  0.7818608E-02  0.8480120E-01
          1   -1    0    0  501    0  0.00000000000E+00  0.00000000000E+00  0.23496585389E+04  0.23496585389E+04  0.00000000000E+00 0. -1.
         -1   -1    0    0    0  501 -0.00000000000E+00 -0.00000000000E+00 -0.56012602491E+03  0.56012602491E+03  0.00000000000E+00 0.  1.
         23    2    1    2    0    0 -0.19070174265E+03 -0.89329040582E+03  0.11664463344E+04  0.14843633657E+04  0.91665951115E+02 0.  0.
        254    2    1    2    0    0  0.19070174265E+03  0.89329040582E+03  0.62308617958E+03  0.14254211981E+04  0.89958562739E+03 0.  0.
        -24    2    4    4    0    0  0.54334465045E+03  0.55682995061E+03  0.45667656987E+03  0.90543364398E+03  0.77289010348E+02 0.  0.
         24    2    4    4    0    0 -0.35264290779E+03  0.33646045521E+03  0.16640960971E+03  0.51998755411E+03  0.71639653071E+02 0.  0.
         11    1    3    3    0    0 -0.81255195594E+01 -0.88689395953E+02  0.76819127553E+02  0.11761382308E+03  0.00000000000E+00 0. -1.
        -11    1    3    3    0    0 -0.18257622310E+03 -0.80460100987E+03  0.10896272068E+04  0.13667495426E+04  0.00000000000E+00 0.  1.
          4    1    6    6  502    0 -0.25232026952E+03  0.19898498241E+03  0.92071231116E+02  0.33427182536E+03  0.00000000000E+00 0. -1.
          1    1    5    5  503    0  0.54351282310E+03  0.54916715843E+03  0.44551468436E+03  0.89189354228E+03  0.00000000000E+00 0. -1.
         -2    1    5    5    0  503 -0.16817265698E+00  0.76627921762E+01  0.11161885507E+02  0.13540101701E+02  0.00000000000E+00 0.  1.
         -3    1    6    6    0  502 -0.10032263828E+03  0.13747547281E+03  0.74338378590E+02  0.18571572875E+03  0.00000000000E+00 0.  1.
<mgrwt>
<rscale>  0 0.22944323E+04</rscale>
<asrwt>0</asrwt>
<pdfrwt beam="1">  1        1 0.36148592E+00 0.22944323E+04</pdfrwt>
<pdfrwt beam="2">  1       -1 0.86173236E-01 0.22944323E+04</pdfrwt>
<totfact> 0.20673611E+00</totfact>
</mgrwt>
</event>
<event>
12    1  0.1489025E-007  0.1656128E+04  0.7818608E-02  0.8786790E-01
         -4   -1    0    0    0  501 -0.00000000000E+00  0.00000000000E+00  0.12048795920E+04  0.12048795920E+04  0.00000000000E+00 0.  1.
          4   -1    0    0  501    0  0.00000000000E+00 -0.00000000000E+00 -0.56909413559E+03  0.56909413559E+03  0.00000000000E+00 0. -1.
         23    2    1    2    0    0 -0.43147407844E+03 -0.17346556164E+03 -0.12756146431E+03  0.49034753586E+03  0.88930294637E+02 0.  0.
        254    2    1    2    0    0  0.43147407844E+03  0.17346556164E+03  0.76334692067E+03  0.12836261917E+04  0.92126950305E+03 0.  0.
        -24    2    4    4    0    0  0.47739231938E+03 -0.21536825172E+03  0.70187470306E+03  0.87932931060E+03  0.79404201586E+02 0.  0.
         24    2    4    4    0    0 -0.45918240947E+02  0.38883381337E+03  0.61472217612E+02  0.40429688109E+03  0.79855589979E+02 0.  0.
         11    1    3    3    0    0 -0.40057008393E+03 -0.18393519030E+03 -0.11688682687E+03  0.45601653114E+03  0.00000000000E+00 0. -1.
        -11    1    3    3    0    0 -0.30903994505E+02  0.10469628660E+02 -0.10674637444E+02  0.34331004721E+02  0.00000000000E+00 0.  1.
          4    1    6    6  502    0  0.13254087390E+02  0.11206696662E+02  0.30546261719E+01  0.17623609836E+02  0.00000000000E+00 0. -1.
          3    1    5    5  503    0  0.28844252826E+02 -0.34809777298E+02  0.76066886379E+02  0.88486624526E+02  0.00000000000E+00 0. -1.
         -4    1    5    5    0  503  0.44854806656E+03 -0.18055847443E+03  0.62580781668E+03  0.79084268608E+03  0.00000000000E+00 0.  1.
         -3    1    6    6    0  502 -0.59172328337E+02  0.37762711671E+03  0.58417591440E+02  0.38667327125E+03  0.00000000000E+00 0.  1.
<mgrwt>
<rscale>  0 0.16561279E+04</rscale>
<asrwt>0</asrwt>
<pdfrwt beam="1">  1        4 0.87552944E-01 0.16561279E+04</pdfrwt>
<pdfrwt beam="2">  1       -4 0.18536609E+00 0.16561279E+04</pdfrwt>
<totfact> 0.35570287E-01</totfact>
</mgrwt>
</event>
<event>
12    1  0.1489025E-007  0.1413891E+04  0.7818608E-02  0.8943824E-01
         -2   -1    0    0    0  501 -0.00000000000E+00  0.00000000000E+00  0.28111412088E+03  0.28111412088E+03  0.00000000000E+00 0. -1.
          2   -1    0    0  501    0  0.00000000000E+00 -0.00000000000E+00 -0.17778267859E+04  0.17778267859E+04  0.00000000000E+00 0.  1.
         23    2    1    2    0    0  0.25536367611E+03 -0.13512420325E+03 -0.24890915364E+02  0.30115866591E+03  0.81288541667E+02 0.  0.
        254    2    1    2    0    0 -0.25536367611E+03  0.13512420325E+03 -0.14718217497E+04  0.17577822409E+04  0.91655331878E+03 0.  0.
        -24    2    4    4    0    0 -0.14475390214E+03 -0.16449016737E+03 -0.14021908329E+04  0.14214252450E+04  0.79371832600E+02 0.  0.
         24    2    4    4    0    0 -0.11060977398E+03  0.29961437062E+03 -0.69630916770E+02  0.33635699591E+03  0.79273393702E+02 0.  0.
         11    1    3    3    0    0  0.21912357038E+03 -0.12150502778E+03  0.75180645231E+01  0.25066936822E+03  0.00000000000E+00 0. -1.
        -11    1    3    3    0    0  0.36240105738E+02 -0.13619175468E+02 -0.32408979887E+02  0.50489297694E+02  0.00000000000E+00 0.  1.
          2    1    6    6  502    0 -0.46833011250E+02  0.72734487640E+02 -0.49878203278E+02  0.99857257109E+02  0.00000000000E+00 0. -1.
          3    1    5    5  503    0 -0.13219047560E+02  0.82400141732E+01 -0.75946087177E+02  0.77527086941E+02  0.00000000000E+00 0. -1.
         -4    1    5    5    0  503 -0.13153485458E+03 -0.17273018154E+03 -0.13262447457E+04  0.13438981580E+04  0.00000000000E+00 0.  1.
         -1    1    6    6    0  502 -0.63776762726E+02  0.22687988298E+03 -0.19752713492E+02  0.23649973880E+03  0.00000000000E+00 0.  1.
<mgrwt>
<rscale>  0 0.14138914E+04</rscale>
<asrwt>0</asrwt>
<pdfrwt beam="1">  1        2 0.27351181E+00 0.14138914E+04</pdfrwt>
<pdfrwt beam="2">  1       -2 0.43248327E-01 0.14138914E+04</pdfrwt>
<totfact> 0.43754593E+01</totfact>
</mgrwt>
</event>
<event>
12    1  0.1489025E-007  0.1431088E+04  0.7818608E-02  0.8931618E-01
          1   -1    0    0  501    0  0.00000000000E+00  0.00000000000E+00  0.20722650394E+04  0.20722650394E+04  0.00000000000E+00 0. -1.
         -1   -1    0    0    0  501 -0.00000000000E+00 -0.00000000000E+00 -0.24707417410E+03  0.24707417410E+03  0.00000000000E+00 0.  1.
         23    2    1    2    0    0 -0.33518840747E+03 -0.25738839863E+03  0.58057535707E+03  0.72412293527E+03  0.93199913666E+02 0.  0.
        254    2    1    2    0    0  0.33518840747E+03  0.25738839863E+03  0.12446155082E+04  0.15952162782E+04  0.90390660729E+03 0.  0.
        -24    2    4    4    0    0  0.29587665171E+03 -0.15151868155E+03  0.70174785877E+02  0.34853236699E+03  0.77777929907E+02 0.  0.
         24    2    4    4    0    0  0.39311755757E+02  0.40890708018E+03  0.11744407223E+04  0.12466839112E+04  0.78481525469E+02 0.  0.
         11    1    3    3    0    0 -0.15690536625E+03 -0.76874222997E+02  0.18761760699E+03  0.25637727390E+03  0.00000000000E+00 0. -1.
        -11    1    3    3    0    0 -0.17828304122E+03 -0.18051417563E+03  0.39295775008E+03  0.46774566138E+03  0.00000000000E+00 0.  1.
          4    1    6    6  502    0  0.39344498828E+02  0.14037245707E+03  0.33523002437E+03  0.36555654218E+03  0.00000000000E+00 0. -1.
          3    1    5    5  503    0  0.11815966737E+01 -0.16299054206E+02  0.87205713318E+01  0.18523058685E+02  0.00000000000E+00 0. -1.
         -4    1    5    5    0  503  0.29469505504E+03 -0.13521962734E+03  0.61454214545E+02  0.33000930830E+03  0.00000000000E+00 0.  1.
         -3    1    6    6    0  502 -0.32743071199E-01  0.26853462310E+03  0.83921069796E+03  0.88112736903E+03  0.00000000000E+00 0.  1.
<mgrwt>
<rscale>  0 0.14310879E+04</rscale>
<asrwt>0</asrwt>
<pdfrwt beam="1">  1        1 0.31881000E+00 0.14310879E+04</pdfrwt>
<pdfrwt beam="2">  1       -1 0.38011413E-01 0.14310879E+04</pdfrwt>
<totfact> 0.17325074E+01</totfact>
</mgrwt>
</event>
<event>
12    1  0.1489025E-007  0.3369771E+04  0.7818608E-02  0.8145366E-01
          2   -1    0    0  501    0  0.00000000000E+00  0.00000000000E+00  0.27720512085E+04  0.27720512085E+04  0.00000000000E+00 0. -1.
         -2   -1    0    0    0  501 -0.00000000000E+00 -0.00000000000E+00 -0.10240932727E+04  0.10240932727E+04  0.00000000000E+00 0.  1.
         23    2    1    2    0    0  0.44846840604E+03  0.14686102330E+04  0.11763624915E+04  0.19364905936E+04  0.90703802826E+02 0.  0.
        254    2    1    2    0    0 -0.44846840604E+03 -0.14686102330E+04  0.57159544428E+03  0.18596538877E+04  0.87957450090E+03 0.  0.
        -24    2    4    4    0    0  0.23253172446E+03 -0.29272112924E+03 -0.33002853902E+01  0.38206134655E+03  0.78761146865E+02 0.  0.
         24    2    4    4    0    0 -0.68100013050E+03 -0.11758891037E+04  0.57489572967E+03  0.14775925412E+04  0.79361550891E+02 0.  0.
         11    1    3    3    0    0  0.16239793476E+03  0.39327691772E+03  0.32186131551E+03  0.53351150846E+03  0.00000000000E+00 0. -1.
        -11    1    3    3    0    0  0.28607047128E+03  0.10753333153E+04  0.85450117600E+03  0.14029790851E+04  0.00000000000E+00 0.  1.
          2    1    6    6  502    0 -0.13426852316E+03 -0.17764349387E+03  0.10617591568E+03  0.24669530254E+03  0.00000000000E+00 0. -1.
          1    1    5    5  503    0  0.62304208320E+02 -0.53440624280E+02  0.28037944671E+02  0.86740077468E+02  0.00000000000E+00 0. -1.
         -2    1    5    5    0  503  0.17022751614E+03 -0.23928050496E+03 -0.31338230062E+02  0.29532126908E+03  0.00000000000E+00 0.  1.
         -1    1    6    6    0  502 -0.54673160734E+03 -0.99824560987E+03  0.46871981399E+03  0.12308972386E+04  0.00000000000E+00 0.  1.
<mgrwt>
<rscale>  0 0.33697709E+04</rscale>
<asrwt>0</asrwt>
<pdfrwt beam="1">  1        2 0.42646941E+00 0.33697709E+04</pdfrwt>
<pdfrwt beam="2">  1       -2 0.15755281E+00 0.33697709E+04</pdfrwt>
<totfact> 0.52421227E-01</totfact>
</mgrwt>
</event>
<event>
12    1  0.2028352E-007  0.2272073E+04  0.7818608E-02  0.8489014E-01
         -1   -1    0    0    0  501 -0.00000000000E+00  0.00000000000E+00  0.68776781858E+03  0.68776781858E+03  0.00000000000E+00 0.  1.
          1   -1    0    0  501    0  0.00000000000E+00 -0.00000000000E+00 -0.18764749072E+04  0.18764749072E+04  0.00000000000E+00 0. -1.
         23    2    1    2    0    0  0.44714019732E+03 -0.63188905374E+03  0.12836444997E+03  0.79017952657E+03  0.93210084736E+02 0.  0.
        254    2    1    2    0    0 -0.44714019732E+03  0.63188905374E+03 -0.13170715386E+04  0.17740631992E+04  0.90188949698E+03 0.  0.
        -24    2    4    4    0    0  0.83557432434E+02  0.50275851544E+03 -0.25184760597E+03  0.57437299874E+03  0.82031431060E+02 0.  0.
         24    2    4    4    0    0 -0.53069762975E+03  0.12913053830E+03 -0.10652239326E+04  0.11996902005E+04  0.78992913309E+02 0.  0.
         13    1    3    3    0    0  0.16622141368E+02 -0.33605162862E+02 -0.12966825413E+02  0.39670406047E+02  0.00000000000E+00 0. -1.
        -13    1    3    3    0    0  0.43051805595E+03 -0.59828389088E+03  0.14133127538E+03  0.75050912052E+03  0.00000000000E+00 0.  1.
          2    1    6    6  502    0 -0.38566964667E+02 -0.21614598333E+00 -0.42612176315E+02  0.57473951083E+02  0.00000000000E+00 0. -1.
          3    1    5    5  503    0  0.15223114685E+02  0.14324641375E+03 -0.11255373782E+03  0.18281034481E+03  0.00000000000E+00 0. -1.
         -4    1    5    5    0  503  0.68334317749E+02  0.35951210169E+03 -0.13929386815E+03  0.39156265393E+03  0.00000000000E+00 0.  1.
         -1    1    6    6    0  502 -0.49213066508E+03  0.12934668428E+03 -0.10226117563E+04  0.11422162494E+04  0.00000000000E+00 0.  1.
<mgrwt>
<rscale>  0 0.22720731E+04</rscale>
<asrwt>0</asrwt>
<pdfrwt beam="1">  1        1 0.28868844E+00 0.22720731E+04</pdfrwt>
<pdfrwt beam="2">  1       -1 0.10581044E+00 0.22720731E+04</pdfrwt>
<totfact> 0.27382121E+00</totfact>
</mgrwt>
</event>
<event>
12    1  0.1489025E-007  0.1484204E+04  0.7818608E-02  0.8895026E-01
         -2   -1    0    0    0  501 -0.00000000000E+00  0.00000000000E+00  0.17289525236E+03  0.17289525236E+03  0.00000000000E+00 0.  1.
          2   -1    0    0  501    0  0.00000000000E+00 -0.00000000000E+00 -0.31852545056E+04  0.31852545056E+04  0.00000000000E+00 0. -1.
         23    2    1    2    0    0  0.27092070537E+03  0.33394518541E+03 -0.13806449226E+04  0.14478667369E+04  0.72251434786E+02 0.  0.
        254    2    1    2    0    0 -0.27092070537E+03 -0.33394518541E+03 -0.16317143306E+04  0.19102830211E+04  0.89541730417E+03 0.  0.
        -24    2    4    4    0    0  0.30091825142E+03 -0.25067531273E+03 -0.80169812953E+03  0.89581331331E+03  0.79822897517E+02 0.  0.
         24    2    4    4    0    0 -0.57183895679E+03 -0.83269872683E+02 -0.83001620111E+03  0.10144697078E+04  0.79298359399E+02 0.  0.
         13    1    3    3    0    0  0.14140357464E+03  0.21449571402E+03 -0.89981912644E+03  0.93577659864E+03  0.00000000000E+00 0. -1.
        -13    1    3    3    0    0  0.12951713073E+03  0.11944947139E+03 -0.48082579619E+03  0.51209013821E+03  0.00000000000E+00 0.  1.
          4    1    6    6  502    0 -0.16937015507E+03 -0.64632285144E+01 -0.19082786419E+03  0.25523184853E+03  0.00000000000E+00 0. -1.
          1    1    5    5  503    0  0.22936912885E+03 -0.19582526089E+03 -0.68413290565E+03  0.74766005822E+03  0.00000000000E+00 0. -1.
         -2    1    5    5    0  503  0.71549122571E+02 -0.54850051837E+02 -0.11756522388E+03  0.14815325509E+03  0.00000000000E+00 0.  1.
         -3    1    6    6    0  502 -0.40246880172E+03 -0.76806644168E+02 -0.63918833691E+03  0.75923785930E+03  0.00000000000E+00 0.  1.
<mgrwt>
<rscale>  0 0.14842040E+04</rscale>
<asrwt>0</asrwt>
<pdfrwt beam="1">  1        2 0.49003917E+00 0.14842040E+04</pdfrwt>
<pdfrwt beam="2">  1       -2 0.26599269E-01 0.14842040E+04</pdfrwt>
<totfact> 0.16594804E+01</totfact>
</mgrwt>
</event>
<event>
12    1  0.1489025E-007  0.1513109E+04  0.7818608E-02  0.8875782E-01
         -1   -1    0    0    0  501 -0.00000000000E+00  0.00000000000E+00  0.16374407249E+03  0.16374407249E+03  0.00000000000E+00 0.  1.
          1   -1    0    0  501    0  0.00000000000E+00 -0.00000000000E+00 -0.34955450169E+04  0.34955450169E+04  0.00000000000E+00 0. -1.
         23    2    1    2    0    0  0.18195931184E+03 -0.48849878419E+02 -0.57783422544E+01  0.20932552561E+03  0.91040016738E+02 0.  0.
        254    2    1    2    0    0 -0.18195931184E+03  0.48849878419E+02 -0.33260226021E+04  0.34499635637E+04  0.89684265034E+03 0.  0.
        -24    2    4    4    0    0 -0.50239629591E+03 -0.14848202590E+03 -0.18076351296E+04  0.18836264702E+04  0.77813669510E+02 0.  0.
         24    2    4    4    0    0  0.32043698407E+03  0.19733190432E+03 -0.15183874725E+04  0.15663370936E+04  0.79319813264E+02 0.  0.
         11    1    3    3    0    0  0.16810553737E+03 -0.13109295112E+02  0.74367005242E+01  0.16877982649E+03  0.00000000000E+00 0.  1.
        -11    1    3    3    0    0  0.13853774466E+02 -0.35740583308E+02 -0.13215042779E+02  0.40545699128E+02  0.00000000000E+00 0. -1.
          2    1    6    6  502    0  0.55459072430E+02  0.60307136438E+02 -0.23976990493E+03  0.25338166219E+03  0.00000000000E+00 0. -1.
          1    1    5    5  503    0 -0.13298817644E+03 -0.60037080311E+02 -0.40561078899E+03  0.43105732592E+03  0.00000000000E+00 0. -1.
         -2    1    5    5    0  503 -0.36940811946E+03 -0.88444945593E+02 -0.14020243406E+04  0.14525691442E+04  0.00000000000E+00 0.  1.
         -1    1    6    6    0  502  0.26497791164E+03  0.13702476789E+03 -0.12786175676E+04  0.13129554314E+04  0.00000000000E+00 0.  1.
<mgrwt>
<rscale>  0 0.15131091E+04</rscale>
<asrwt>0</asrwt>
<pdfrwt beam="1">  1        1 0.53777611E+00 0.15131091E+04</pdfrwt>
<pdfrwt beam="2">  1       -1 0.25191398E-01 0.15131091E+04</pdfrwt>
<totfact> 0.34039738E+00</totfact>
</mgrwt>
</event>
<event>
12    1  0.1489025E-007  0.1895039E+04  0.7818608E-02  0.8657330E-01
          1   -1    0    0  501    0  0.00000000000E+00  0.00000000000E+00  0.10523801412E+04  0.10523801412E+04  0.00000000000E+00 0.  1.
         -1   -1    0    0    0  501 -0.00000000000E+00 -0.00000000000E+00 -0.85310715240E+03  0.85310715240E+03  0.00000000000E+00 0. -1.
         23    2    1    2    0    0  0.69638204815E+03 -0.78237139227E+02  0.30035114594E+03  0.76808215442E+03  0.93114865261E+02 0.  0.
        254    2    1    2    0    0 -0.69638204815E+03  0.78237139227E+02 -0.10107815713E+03  0.11374051392E+04  0.89017113515E+03 0.  0.
        -24    2    4    4    0    0 -0.16417355992E+03  0.32663865827E+03  0.24680877124E+03  0.44966281810E+03  0.87385980395E+02 0.  0.
         24    2    4    4    0    0 -0.53220848822E+03 -0.24840151904E+03 -0.34788692838E+03  0.68774232108E+03  0.83755570948E+02 0.  0.
         13    1    3    3    0    0  0.16148960434E+03 -0.67709026747E+01  0.29582062741E+02  0.16431626781E+03  0.00000000000E+00 0. -1.
        -13    1    3    3    0    0  0.53489244381E+03 -0.71466236553E+02  0.27076908320E+03  0.60376588661E+03  0.00000000000E+00 0.  1.
          2    1    6    6  502    0 -0.28782609544E+03 -0.17280993897E+03 -0.17122279570E+03  0.37686122378E+03  0.00000000000E+00 0. -1.
          1    1    5    5  503    0 -0.97106225033E+02  0.20119493183E+03  0.98468300605E+02  0.24414140525E+03  0.00000000000E+00 0. -1.
         -4    1    5    5    0  503 -0.67067334890E+02  0.12544372644E+03  0.14834047064E+03  0.20552141285E+03  0.00000000000E+00 0.  1.
         -1    1    6    6    0  502 -0.24438239279E+03 -0.75591580072E+02 -0.17666413268E+03  0.31088109730E+03  0.00000000000E+00 0.  1.
<mgrwt>
<rscale>  0 0.18950388E+04</rscale>
<asrwt>0</asrwt>
<pdfrwt beam="1">  1        1 0.16190464E+00 0.18950388E+04</pdfrwt>
<pdfrwt beam="2">  1       -1 0.13124725E+00 0.18950388E+04</pdfrwt>
<totfact> 0.63862289E+00</totfact>
</mgrwt>
</event>
<event>
12    1  0.1622893E-007  0.1559336E+04  0.7818608E-02  0.8845926E-01
         -1   -1    0    0    0  501 -0.00000000000E+00  0.00000000000E+00  0.25159616957E+03  0.25159616957E+03  0.00000000000E+00 0.  1.
          1   -1    0    0  501    0  0.00000000000E+00 -0.00000000000E+00 -0.24161028123E+04  0.24161028123E+04  0.00000000000E+00 0. -1.
         23    2    1    2    0    0  0.65775368095E+02 -0.34257059498E+03 -0.85106818311E+02  0.37121574648E+03  0.94217558453E+02 0.  0.
        254    2    1    2    0    0 -0.65775368095E+02  0.34257059498E+03 -0.20793998244E+04  0.22964832353E+04  0.91008274845E+03 0.  0.
        -24    2    4    4    0    0  0.23366923342E+03  0.47975094833E+03 -0.17191930088E+04  0.18019138196E+04  0.80663056547E+02 0.  0.
         24    2    4    4    0    0 -0.29944460152E+03 -0.13718035335E+03 -0.36020681558E+03  0.49456941575E+03  0.79777429624E+02 0.  0.
         11    1    3    3    0    0  0.11049107581E+02  0.46100812271E+00  0.53161063959E+01  0.12270138306E+02  0.00000000000E+00 0. -1.
        -11    1    3    3    0    0  0.54726260514E+02 -0.34303160310E+03 -0.90422924707E+02  0.35894560818E+03  0.00000000000E+00 0.  1.
          4    1    6    6  502    0 -0.21330888043E+03 -0.74869351123E+02 -0.19737214108E+03  0.30010308276E+03  0.00000000000E+00 0. -1.
          3    1    5    5  503    0  0.22558327141E+03  0.43374892162E+03 -0.16219915972E+04  0.16940728086E+04  0.00000000000E+00 0. -1.
         -4    1    5    5    0  503  0.80859620154E+01  0.46002026715E+02 -0.97201411588E+02  0.10784101102E+03  0.00000000000E+00 0.  1.
         -3    1    6    6    0  502 -0.86135721093E+02 -0.62311002231E+02 -0.16283467450E+03  0.19446633299E+03  0.00000000000E+00 0.  1.
<mgrwt>
<rscale>  0 0.15593360E+04</rscale>
<asrwt>0</asrwt>
<pdfrwt beam="1">  1        1 0.37170814E+00 0.15593360E+04</pdfrwt>
<pdfrwt beam="2">  1       -1 0.38707101E-01 0.15593360E+04</pdfrwt>
<totfact> 0.96606823E+00</totfact>
</mgrwt>
</event>
<event>
12    1  0.1489025E-007  0.1229723E+04  0.7818608E-02  0.9087231E-01
          1   -1    0    0  501    0  0.00000000000E+00  0.00000000000E+00  0.48565102415E+04  0.48565102415E+04  0.00000000000E+00 0. -1.
         -1   -1    0    0    0  501 -0.00000000000E+00 -0.00000000000E+00 -0.77844934701E+02  0.77844934701E+02  0.00000000000E+00 0.  1.
         23    2    1    2    0    0  0.17985467809E+03 -0.52342754905E+02  0.19170914312E+04  0.19282539076E+04  0.88521790766E+02 0.  0.
        254    2    1    2    0    0 -0.17985467809E+03  0.52342754905E+02  0.28615738756E+04  0.30061012686E+04  0.90163868720E+03 0.  0.
        -24    2    4    4    0    0 -0.53303380611E+03  0.20667472642E+02  0.13955220047E+04  0.14956911339E+04  0.71120458696E+02 0.  0.
         24    2    4    4    0    0  0.35317912802E+03  0.31675282263E+02  0.14660518710E+04  0.15104101347E+04  0.79321287872E+02 0.  0.
         11    1    3    3    0    0  0.18676824881E+03 -0.51900688412E+02  0.16939860727E+04  0.17050410185E+04  0.00000000000E+00 0. -1.
        -11    1    3    3    0    0 -0.69135707154E+01 -0.44206649333E+00  0.22310535854E+03  0.22321288917E+03  0.00000000000E+00 0.  1.
          4    1    6    6  502    0  0.35629830188E+03  0.27361154484E+02  0.14303111738E+04  0.14742751326E+04  0.00000000000E+00 0. -1.
          3    1    5    5  503    0 -0.43820732675E+03  0.42109869649E+02  0.11123605755E+04  0.11963047071E+04  0.00000000000E+00 0. -1.
         -4    1    5    5    0  503 -0.94826479366E+02 -0.21442397007E+02  0.28316142916E+03  0.29938642678E+03  0.00000000000E+00 0.  1.
         -3    1    6    6    0  502 -0.31191738598E+01  0.43141277787E+01  0.35740697198E+02  0.36135002148E+02  0.00000000000E+00 0.  1.
<mgrwt>
<rscale>  0 0.12297231E+04</rscale>
<asrwt>0</asrwt>
<pdfrwt beam="1">  1        1 0.74715519E+00 0.12297231E+04</pdfrwt>
<pdfrwt beam="2">  1       -1 0.11976148E-01 0.12297231E+04</pdfrwt>
<totfact> 0.64608406E-01</totfact>
</mgrwt>
</event>
<event>
12    1  0.1489025E-007  0.3108722E+04  0.7818608E-02  0.8213348E-01
          1   -1    0    0  501    0  0.00000000000E+00  0.00000000000E+00  0.23214679652E+04  0.23214679652E+04  0.00000000000E+00 0.  1.
         -1   -1    0    0    0  501 -0.00000000000E+00 -0.00000000000E+00 -0.10407369871E+04  0.10407369871E+04  0.00000000000E+00 0. -1.
         23    2    1    2    0    0 -0.19097258039E+03  0.57894608859E+03  0.20148058890E+04  0.21069927161E+04  0.91249303753E+02 0.  0.
        254    2    1    2    0    0  0.19097258039E+03 -0.57894608859E+03 -0.73407491093E+03  0.12552122362E+04  0.81550149179E+03 0.  0.
        -24    2    4    4    0    0  0.25802900455E+01 -0.40071596407E+03 -0.86335545339E+03  0.95509226985E+03  0.78985209212E+02 0.  0.
         24    2    4    4    0    0  0.18839229035E+03 -0.17823012452E+03  0.12928054247E+03  0.30011996635E+03  0.78108278641E+02 0.  0.
         11    1    3    3    0    0 -0.56496430778E+02  0.70464564350E+02  0.27962106864E+03  0.29384527144E+03  0.00000000000E+00 0. -1.
        -11    1    3    3    0    0 -0.13447614961E+03  0.50848152424E+03  0.17351848203E+04  0.18131474446E+04  0.00000000000E+00 0.  1.
          4    1    6    6  502    0  0.66328621295E+02 -0.70261308035E+02  0.90982620694E+02  0.13271765021E+03  0.00000000000E+00 0. -1.
          1    1    5    5  503    0  0.38559793088E+02 -0.14143952672E+03 -0.31858219555E+03  0.35069447199E+03  0.00000000000E+00 0. -1.
         -2    1    5    5    0  503 -0.35979503042E+02 -0.25927643734E+03 -0.54477325784E+03  0.60439779786E+03  0.00000000000E+00 0.  1.
         -3    1    6    6    0  502  0.12206366905E+03 -0.10796881649E+03  0.38297921773E+02  0.16740231614E+03  0.00000000000E+00 0.  1.
<mgrwt>
<rscale>  0 0.31087217E+04</rscale>
<asrwt>0</asrwt>
<pdfrwt beam="1">  1        1 0.35714892E+00 0.31087217E+04</pdfrwt>
<pdfrwt beam="2">  1       -1 0.16011338E+00 0.31087217E+04</pdfrwt>
<totfact> 0.44236375E-01</totfact>
</mgrwt>
</event>
<event>
12    1  0.1489025E-007  0.2276453E+04  0.7818608E-02  0.8487264E-01
          1   -1    0    0  501    0  0.00000000000E+00  0.00000000000E+00  0.25008999492E+04  0.25008999492E+04  0.00000000000E+00 0. -1.
         -1   -1    0    0    0  501 -0.00000000000E+00 -0.00000000000E+00 -0.51803727709E+03  0.51803727709E+03  0.00000000000E+00 0.  1.
         23    2    1    2    0    0 -0.18450494389E+03 -0.66346294668E+03  0.17320425235E+04  0.18660743285E+04  0.89648985218E+02 0.  0.
        254    2    1    2    0    0  0.18450494389E+03  0.66346294668E+03  0.25082014859E+03  0.11528628977E+04  0.88991963573E+03 0.  0.
        -24    2    4    4    0    0 -0.31250254642E+03  0.49455150051E+03  0.83949692140E+02  0.59633531586E+03  0.79556457662E+02 0.  0.
         24    2    4    4    0    0  0.49700749031E+03  0.16891144618E+03  0.16687045645E+03  0.55652758186E+03  0.79559273902E+02 0.  0.
         11    1    3    3    0    0 -0.54386292509E+01 -0.95422467968E+02  0.30824321183E+03  0.32272109277E+03  0.00000000000E+00 0.  1.
        -11    1    3    3    0    0 -0.17906631463E+03 -0.56804047872E+03  0.14237993116E+04  0.15433532358E+04  0.00000000000E+00 0. -1.
          2    1    6    6  502    0  0.33532721037E+03  0.99591309279E+02  0.14721237492E+03  0.37951844518E+03  0.00000000000E+00 0. -1.
          3    1    5    5  503    0 -0.30105201999E+03  0.44239522239E+03  0.89879406571E+02  0.54260866125E+03  0.00000000000E+00 0. -1.
         -4    1    5    5    0  503 -0.11450526429E+02  0.52156278114E+02 -0.59297144312E+01  0.53726654609E+02  0.00000000000E+00 0.  1.
         -1    1    6    6    0  502  0.16168027993E+03  0.69320136898E+02  0.19658081526E+02  0.17700913668E+03  0.00000000000E+00 0.  1.
<mgrwt>
<rscale>  0 0.22764529E+04</rscale>
<asrwt>0</asrwt>
<pdfrwt beam="1">  1        1 0.38475383E+00 0.22764529E+04</pdfrwt>
<pdfrwt beam="2">  1       -1 0.79698044E-01 0.22764529E+04</pdfrwt>
<totfact> 0.19265818E+00</totfact>
</mgrwt>
</event>
<event>
12    1  0.1489025E-007  0.2117810E+04  0.7818608E-02  0.8553438E-01
         -1   -1    0    0    0  501 -0.00000000000E+00  0.00000000000E+00  0.37152595101E+03  0.37152595101E+03  0.00000000000E+00 0.  1.
          1   -1    0    0  501    0  0.00000000000E+00 -0.00000000000E+00 -0.30180399310E+04  0.30180399310E+04  0.00000000000E+00 0. -1.
         23    2    1    2    0    0 -0.42339860496E+03  0.12626988354E+03  0.10542207837E+03  0.46347844304E+03  0.92130290266E+02 0.  0.
        254    2    1    2    0    0  0.42339860496E+03 -0.12626988354E+03 -0.27519360584E+04  0.29260874390E+04  0.89085642449E+03 0.  0.
        -24    2    4    4    0    0  0.57479364835E+03 -0.37547988268E+03 -0.19188338161E+04  0.20396268362E+04  0.82350086517E+02 0.  0.
         24    2    4    4    0    0 -0.15139504338E+03  0.24920999914E+03 -0.83310224233E+03  0.88646060282E+03  0.82018115948E+02 0.  0.
         13    1    3    3    0    0 -0.15262184177E+03  0.37123761999E+02 -0.65358235865E+01  0.15720787919E+03  0.00000000000E+00 0. -1.
        -13    1    3    3    0    0 -0.27077676319E+03  0.89146121539E+02  0.11195790196E+03  0.30627056385E+03  0.00000000000E+00 0.  1.
          2    1    6    6  502    0 -0.50352919847E+02  0.87080526648E+02 -0.18244238192E+03  0.20833544436E+03  0.00000000000E+00 0. -1.
          1    1    5    5  503    0  0.11378885328E+02 -0.24678824263E+02 -0.60288426614E+02  0.66130309102E+02  0.00000000000E+00 0. -1.
         -2    1    5    5    0  503  0.56341476302E+03 -0.35080105842E+03 -0.18585453894E+04  0.19734965271E+04  0.00000000000E+00 0.  1.
         -1    1    6    6    0  502 -0.10104212354E+03  0.16212947249E+03 -0.65065986041E+03  0.67812515845E+03  0.00000000000E+00 0.  1.
<mgrwt>
<rscale>  0 0.21178103E+04</rscale>
<asrwt>0</asrwt>
<pdfrwt beam="1">  1        1 0.46431382E+00 0.21178103E+04</pdfrwt>
<pdfrwt beam="2">  1       -1 0.57157841E-01 0.21178103E+04</pdfrwt>
<totfact> 0.16525314E+00</totfact>
</mgrwt>
</event>
<event>
12    1  0.1489025E-007  0.2102018E+04  0.7818608E-02  0.8560355E-01
         -1   -1    0    0    0  501 -0.00000000000E+00  0.00000000000E+00  0.15418489805E+04  0.15418489805E+04  0.00000000000E+00 0.  1.
          1   -1    0    0  501    0  0.00000000000E+00 -0.00000000000E+00 -0.71642536326E+03  0.71642536326E+03  0.00000000000E+00 0. -1.
         23    2    1    2    0    0 -0.51895414933E+03  0.57877415474E+03 -0.40126079434E+02  0.78384335399E+03  0.92235405632E+02 0.  0.
        254    2    1    2    0    0  0.51895414933E+03 -0.57877415474E+03  0.86554969665E+03  0.14744309897E+04  0.90580214994E+03 0.  0.
        -24    2    4    4    0    0  0.28245923714E+02 -0.64243397924E+02  0.74086707222E+03  0.74847194793E+03  0.80007448111E+02 0.  0.
         24    2    4    4    0    0  0.49070822561E+03 -0.51453075681E+03  0.12468262443E+03  0.72595904181E+03  0.77034480324E+02 0.  0.
         13    1    3    3    0    0 -0.33776178715E+03  0.35289913407E+03  0.16600566313E+02  0.48877029624E+03  0.00000000000E+00 0. -1.
        -13    1    3    3    0    0 -0.18119236217E+03  0.22587502067E+03 -0.56726645747E+02  0.29507305775E+03  0.00000000000E+00 0.  1.
          4    1    6    6  502    0  0.44054836285E+03 -0.42301130367E+03  0.10960505993E+03  0.62051163744E+03  0.00000000000E+00 0. -1.
          3    1    5    5  503    0  0.34046016471E+02 -0.80557536685E+02  0.66020803681E+03  0.66597544987E+03  0.00000000000E+00 0. -1.
         -4    1    5    5    0  503 -0.58000927564E+01  0.16314138761E+02  0.80659035406E+02  0.82496498060E+02  0.00000000000E+00 0.  1.
         -3    1    6    6    0  502  0.50159862765E+02 -0.91519453143E+02  0.15077564502E+02  0.10544740437E+03  0.00000000000E+00 0.  1.
<mgrwt>
<rscale>  0 0.21020178E+04</rscale>
<asrwt>0</asrwt>
<pdfrwt beam="1">  1        1 0.11021929E+00 0.21020178E+04</pdfrwt>
<pdfrwt beam="2">  1       -1 0.23720754E+00 0.21020178E+04</pdfrwt>
<totfact> 0.20447887E+00</totfact>
</mgrwt>
</event>
<event>
12    1  0.1489025E-007  0.2323160E+04  0.7818608E-02  0.8468845E-01
         -2   -1    0    0    0  501 -0.00000000000E+00  0.00000000000E+00  0.85713311273E+03  0.85713311273E+03  0.00000000000E+00 0.  1.
          2   -1    0    0  501    0  0.00000000000E+00 -0.00000000000E+00 -0.15741635751E+04  0.15741635751E+04  0.00000000000E+00 0. -1.
         23    2    1    2    0    0  0.42724772405E+03  0.82524460233E+03  0.33558516127E+02  0.93452955575E+03  0.93005619122E+02 0.  0.
        254    2    1    2    0    0 -0.42724772405E+03 -0.82524460233E+03 -0.75058897849E+03  0.14967671321E+04  0.90186404831E+03 0.  0.
        -24    2    4    4    0    0 -0.29335411783E+02  0.17247016057E+03 -0.13959991017E+02  0.19174544000E+03  0.77232828109E+02 0.  0.
         24    2    4    4    0    0 -0.39791231227E+03 -0.99771476291E+03 -0.73662898748E+03  0.13050216921E+04  0.81794836138E+02 0.  0.
         13    1    3    3    0    0  0.29765272939E+03  0.60313960158E+03 -0.15387845013E+02  0.67276393488E+03  0.00000000000E+00 0.  1.
        -13    1    3    3    0    0  0.12959499466E+03  0.22210500075E+03  0.48946361140E+02  0.26176562087E+03  0.00000000000E+00 0. -1.
          2    1    6    6  502    0 -0.21121619141E+03 -0.43868133133E+03 -0.36100658244E+03  0.60611825788E+03  0.00000000000E+00 0. -1.
          3    1    5    5  503    0  0.26392947320E+02  0.52274684960E+02 -0.33648531084E+00  0.58560597488E+02  0.00000000000E+00 0. -1.
         -4    1    5    5    0  503 -0.55728359102E+02  0.12019547562E+03 -0.13623505706E+02  0.13318484251E+03  0.00000000000E+00 0.  1.
         -1    1    6    6    0  502 -0.18669612086E+03 -0.55903343158E+03 -0.37562240504E+03  0.69890343420E+03  0.00000000000E+00 0.  1.
<mgrwt>
<rscale>  0 0.23231597E+04</rscale>
<asrwt>0</asrwt>
<pdfrwt beam="1">  1        2 0.24217901E+00 0.23231597E+04</pdfrwt>
<pdfrwt beam="2">  1       -2 0.13186663E+00 0.23231597E+04</pdfrwt>
<totfact> 0.43709638E+00</totfact>
</mgrwt>
</event>
<event>
12    1  0.1489025E-007  0.1368459E+04  0.7818608E-02  0.8976972E-01
          2   -1    0    0  501    0  0.00000000000E+00  0.00000000000E+00  0.21234837472E+04  0.21234837472E+04  0.00000000000E+00 0. -1.
         -2   -1    0    0    0  501 -0.00000000000E+00 -0.00000000000E+00 -0.22047248319E+03  0.22047248319E+03  0.00000000000E+00 0.  1.
         23    2    1    2    0    0 -0.90907600107E+02 -0.26380499295E+03  0.42268034150E+03  0.51483427288E+03  0.92403416511E+02 0.  0.
        254    2    1    2    0    0  0.90907600107E+02  0.26380499295E+03  0.14803309225E+04  0.18291219575E+04  0.10375211946E+04 0.  0.
        -24    2    4    4    0    0 -0.37203014472E+03  0.20146309755E+03  0.22132711727E+03  0.48372744924E+03  0.77541885783E+02 0.  0.
         24    2    4    4    0    0  0.46293774483E+03  0.62341895407E+02  0.12590038052E+04  0.13453945083E+04  0.82449583094E+02 0.  0.
         11    1    3    3    0    0  0.30220283630E+00 -0.76268946809E+02  0.62362982515E+02  0.98519973418E+02  0.00000000000E+00 0. -1.
        -11    1    3    3    0    0 -0.91209802943E+02 -0.18753604614E+03  0.36031735898E+03  0.41631429947E+03  0.00000000000E+00 0.  1.
          2    1    6    6  502    0  0.37314600299E+03  0.46501797653E+02  0.10947475896E+04  0.11575286785E+04  0.00000000000E+00 0. -1.
          3    1    5    5  503    0 -0.26343292517E+03  0.14876574332E+03  0.11764978325E+03  0.32460687600E+03  0.00000000000E+00 0. -1.
         -4    1    5    5    0  503 -0.10859721955E+03  0.52697354227E+02  0.10367733402E+03  0.15912057324E+03  0.00000000000E+00 0.  1.
         -1    1    6    6    0  502  0.89791741838E+02  0.15840097754E+02  0.16425621569E+03  0.18786582976E+03  0.00000000000E+00 0.  1.
<mgrwt>
<rscale>  0 0.13684586E+04</rscale>
<asrwt>0</asrwt>
<pdfrwt beam="1">  1        2 0.32668979E+00 0.13684586E+04</pdfrwt>
<pdfrwt beam="2">  1       -2 0.33918845E-01 0.13684586E+04</pdfrwt>
<totfact> 0.45292178E+01</totfact>
</mgrwt>
</event>
<event>
12    1  0.1489025E-007  0.2666500E+04  0.7818608E-02  0.8345957E-01
         -1   -1    0    0    0  501 -0.00000000000E+00  0.00000000000E+00  0.94634331607E+03  0.94634331607E+03  0.00000000000E+00 0.  1.
          1   -1    0    0  501    0  0.00000000000E+00 -0.00000000000E+00 -0.18783409025E+04  0.18783409025E+04  0.00000000000E+00 0. -1.
         23    2    1    2    0    0 -0.74323549097E+02 -0.11127658760E+04 -0.81219242198E+03  0.13825322706E+04  0.89258412317E+02 0.  0.
        254    2    1    2    0    0  0.74323549097E+02  0.11127658760E+04 -0.11980516449E+03  0.14421519480E+04  0.90646405279E+03 0.  0.
        -24    2    4    4    0    0 -0.19020870608E+02  0.10349920086E+04  0.22978090620E+03  0.10633560412E+04  0.79728000603E+02 0.  0.
         24    2    4    4    0    0  0.93344419705E+02  0.77773867384E+02 -0.34958607069E+03  0.37879590682E+03  0.80709126284E+02 0.  0.
         11    1    3    3    0    0 -0.23323424387E+02 -0.22102705385E+03 -0.12044890127E+03  0.25279414249E+03  0.00000000000E+00 0.  1.
        -11    1    3    3    0    0 -0.51000124710E+02 -0.89173882214E+03 -0.69174352072E+03  0.11297381281E+04  0.00000000000E+00 0. -1.
          4    1    6    6  502    0  0.44272437303E+02  0.60289331179E+02 -0.29072535455E+03  0.30019341089E+03  0.00000000000E+00 0. -1.
          3    1    5    5  503    0  0.66587522639E+01  0.88614487286E+03  0.21276993121E+03  0.91135510001E+03  0.00000000000E+00 0. -1.
         -4    1    5    5    0  503 -0.25679622872E+02  0.14884713575E+03  0.17010974995E+02  0.15200094119E+03  0.00000000000E+00 0.  1.
         -3    1    6    6    0  502  0.49071982403E+02  0.17484536205E+02 -0.58860716139E+02  0.78602495938E+02  0.00000000000E+00 0.  1.
<mgrwt>
<rscale>  0 0.26664998E+04</rscale>
<asrwt>0</asrwt>
<pdfrwt beam="1">  1        1 0.28897552E+00 0.26664998E+04</pdfrwt>
<pdfrwt beam="2">  1       -1 0.14559128E+00 0.26664998E+04</pdfrwt>
<totfact> 0.11927732E+00</totfact>
</mgrwt>
</event>
<event>
12    1  0.1489025E-007  0.2825742E+04  0.7818608E-02  0.8295321E-01
         -2   -1    0    0    0  501 -0.00000000000E+00  0.00000000000E+00  0.14641571360E+04  0.14641571360E+04  0.00000000000E+00 0.  1.
          2   -1    0    0  501    0  0.00000000000E+00 -0.00000000000E+00 -0.13633812027E+04  0.13633812027E+04  0.00000000000E+00 0. -1.
         23    2    1    2    0    0 -0.51183214215E+03 -0.63463506543E+03  0.10120712677E+04  0.13027835672E+04  0.90680560711E+02 0.  0.
        254    2    1    2    0    0  0.51183214215E+03  0.63463506543E+03 -0.91129533434E+03  0.15247547715E+04  0.91086997911E+03 0.  0.
        -24    2    4    4    0    0 -0.11874446251E+03  0.38979882857E+03 -0.38265085290E+02  0.41726716713E+03  0.81266831400E+02 0.  0.
         24    2    4    4    0    0  0.63057660466E+03  0.24483623686E+03 -0.87303024905E+03  0.11074876044E+04  0.82312458752E+02 0.  0.
         11    1    3    3    0    0 -0.32153993845E+03 -0.33537441177E+03  0.60704786288E+03  0.76444164978E+03  0.00000000000E+00 0.  1.
        -11    1    3    3    0    0 -0.19029220369E+03 -0.29926065366E+03  0.40502340483E+03  0.53834191744E+03  0.00000000000E+00 0. -1.
          2    1    6    6  502    0  0.49520608854E+03  0.18524548161E+03 -0.62431001319E+03  0.81811243185E+03  0.00000000000E+00 0. -1.
          3    1    5    5  503    0 -0.98975787824E+02  0.38054080178E+03 -0.40701066479E+02  0.39530252365E+03  0.00000000000E+00 0. -1.
         -4    1    5    5    0  503 -0.19768674688E+02  0.92580267907E+01  0.24359811891E+01  0.21964643483E+02  0.00000000000E+00 0.  1.
         -1    1    6    6    0  502  0.13537051612E+03  0.59590755247E+02 -0.24872023586E+03  0.28937517252E+03  0.00000000000E+00 0.  1.
<mgrwt>
<rscale>  0 0.28257419E+04</rscale>
<asrwt>0</asrwt>
<pdfrwt beam="1">  1        2 0.20975095E+00 0.28257419E+04</pdfrwt>
<pdfrwt beam="2">  1       -2 0.22525494E+00 0.28257419E+04</pdfrwt>
<totfact> 0.12077200E+00</totfact>
</mgrwt>
</event>
<event>
12    1  0.1489025E-007  0.1385547E+04  0.7818608E-02  0.8964347E-01
          1   -1    0    0  501    0  0.00000000000E+00  0.00000000000E+00  0.54595604348E+03  0.54595604348E+03  0.00000000000E+00 0. -1.
         -1   -1    0    0    0  501 -0.00000000000E+00 -0.00000000000E+00 -0.87907284135E+03  0.87907284135E+03  0.00000000000E+00 0.  1.
         23    2    1    2    0    0  0.24587937537E+03  0.60495330942E+02 -0.39684180374E+03  0.47928998768E+03  0.90106175104E+02 0.  0.
        254    2    1    2    0    0 -0.24587937537E+03 -0.60495330942E+02  0.63725005866E+02  0.94573889716E+03  0.90898010590E+03 0.  0.
        -24    2    4    4    0    0  0.27005117608E+03  0.12159646822E+02  0.26015133051E+03  0.38266713483E+03  0.75365287781E+02 0.  0.
         24    2    4    4    0    0 -0.51593055145E+03 -0.72654977764E+02 -0.19642632465E+03  0.56307176233E+03  0.83686491155E+02 0.  0.
         13    1    3    3    0    0  0.40182017707E+02  0.30333813392E+02 -0.14045796075E+03  0.14920849011E+03  0.00000000000E+00 0.  1.
        -13    1    3    3    0    0  0.20569735767E+03  0.30161517550E+02 -0.25638384299E+03  0.33008149757E+03  0.00000000000E+00 0. -1.
          4    1    6    6  502    0 -0.39449286135E+03 -0.35845971329E+02 -0.11567261467E+03  0.41266173205E+03  0.00000000000E+00 0. -1.
          1    1    5    5  503    0  0.26756866064E+03  0.21759774194E+02  0.25837942271E+03  0.37259415187E+03  0.00000000000E+00 0. -1.
         -2    1    5    5    0  503  0.24825154351E+01 -0.96001273716E+01  0.17719078029E+01  0.10072982959E+02  0.00000000000E+00 0.  1.
         -3    1    6    6    0  502 -0.12143769010E+03 -0.36809006434E+02 -0.80753709980E+02  0.15041003027E+03  0.00000000000E+00 0.  1.
<mgrwt>
<rscale>  0 0.13855470E+04</rscale>
<asrwt>0</asrwt>
<pdfrwt beam="1">  1        1 0.83993237E-01 0.13855470E+04</pdfrwt>
<pdfrwt beam="2">  1       -1 0.13524198E+00 0.13855470E+04</pdfrwt>
<totfact> 0.17548533E+01</totfact>
</mgrwt>
</event>
<event>
12    1  0.1489025E-007  0.4089966E+04  0.7818608E-02  0.7986639E-01
         -1   -1    0    0    0  501 -0.00000000000E+00  0.00000000000E+00  0.99596262601E+03  0.99596262601E+03  0.00000000000E+00 0.  1.
          1   -1    0    0  501    0  0.00000000000E+00 -0.00000000000E+00 -0.41989077959E+04  0.41989077959E+04  0.00000000000E+00 0. -1.
         23    2    1    2    0    0  0.63993255953E+03 -0.59319843221E+03  0.68313884426E+03  0.11120443565E+04  0.92552198837E+02 0.  0.
        254    2    1    2    0    0 -0.63993255953E+03  0.59319843221E+03 -0.38860840142E+04  0.40828260655E+04  0.89800983001E+03 0.  0.
        -24    2    4    4    0    0 -0.71264835778E+03  0.76234335673E+03 -0.33819137401E+04  0.35401681176E+04  0.80091698999E+02 0.  0.
         24    2    4    4    0    0  0.72715798250E+02 -0.16914492452E+03 -0.50417027410E+03  0.54265794784E+03  0.79952424995E+02 0.  0.
         13    1    3    3    0    0  0.32714646351E+03 -0.27242898910E+03  0.28177486028E+03  0.51052858351E+03  0.00000000000E+00 0.  1.
        -13    1    3    3    0    0  0.31278609602E+03 -0.32076944310E+03  0.40136398399E+03  0.60151577297E+03  0.00000000000E+00 0. -1.
          2    1    6    6  502    0  0.73691876403E+02 -0.17185774521E+03 -0.43574806183E+03  0.47417502109E+03  0.00000000000E+00 0. -1.
          3    1    5    5  503    0 -0.62005808288E+03  0.68072441073E+03 -0.30540867192E+04  0.31898751445E+04  0.00000000000E+00 0. -1.
         -4    1    5    5    0  503 -0.92590274898E+02  0.81618946003E+02 -0.32782702093E+03  0.35029297311E+03  0.00000000000E+00 0.  1.
         -1    1    6    6    0  502 -0.97607815347E+00  0.27128206863E+01 -0.68422212273E+02  0.68482926755E+02  0.00000000000E+00 0.  1.
<mgrwt>
<rscale>  0 0.40899659E+04</rscale>
<asrwt>0</asrwt>
<pdfrwt beam="1">  1        1 0.64598582E+00 0.40899659E+04</pdfrwt>
<pdfrwt beam="2">  1       -1 0.15322502E+00 0.40899659E+04</pdfrwt>
<totfact> 0.16150946E-02</totfact>
</mgrwt>
</event>
<event>
12    1  0.1489025E-007  0.1278495E+04  0.7818608E-02  0.9046794E-01
          1   -1    0    0  501    0  0.00000000000E+00  0.00000000000E+00  0.20712525398E+04  0.20712525398E+04  0.00000000000E+00 0. -1.
         -1   -1    0    0    0  501 -0.00000000000E+00 -0.00000000000E+00 -0.19729010851E+03  0.19729010851E+03  0.00000000000E+00 0.  1.
         23    2    1    2    0    0  0.11350884212E+03 -0.80453237940E+02 -0.21503058700E+02  0.16798964363E+03  0.91657831629E+02 0.  0.
        254    2    1    2    0    0 -0.11350884212E+03  0.80453237940E+02  0.18954654900E+04  0.21005530047E+04  0.89452586379E+03 0.  0.
        -24    2    4    4    0    0 -0.25934680368E+03  0.42963550537E+03  0.91151642119E+03  0.10435354064E+04  0.79098206423E+02 0.  0.
         24    2    4    4    0    0  0.14583796156E+03 -0.34918226743E+03  0.98394906885E+03  0.10570175983E+04  0.77028995562E+02 0.  0.
         11    1    3    3    0    0  0.11833507072E+03 -0.42077321470E+02 -0.28239951839E+02  0.12872911413E+03  0.00000000000E+00 0. -1.
        -11    1    3    3    0    0 -0.48262286011E+01 -0.38375916470E+02  0.67368931396E+01  0.39260529500E+02  0.00000000000E+00 0.  1.
          4    1    6    6  502    0  0.14864511320E+03 -0.32275001814E+03  0.86511463603E+03  0.93524663986E+03  0.00000000000E+00 0. -1.
          1    1    5    5  503    0 -0.19226141232E+03  0.28170013072E+03  0.67977091744E+03  0.76053133697E+03  0.00000000000E+00 0. -1.
         -2    1    5    5    0  503 -0.67085391365E+02  0.14793537465E+03  0.23174550375E+03  0.28300406943E+03  0.00000000000E+00 0.  1.
         -3    1    6    6    0  502 -0.28071516383E+01 -0.26432249289E+02  0.11883443282E+03  0.12177095847E+03  0.00000000000E+00 0.  1.
<mgrwt>
<rscale>  0 0.12784954E+04</rscale>
<asrwt>0</asrwt>
<pdfrwt beam="1">  1        1 0.31865422E+00 0.12784954E+04</pdfrwt>
<pdfrwt beam="2">  1       -1 0.30352326E-01 0.12784954E+04</pdfrwt>
<totfact> 0.26270544E+01</totfact>
</mgrwt>
</event>
<event>
12    1  0.1489025E-007  0.1860969E+04  0.7818608E-02  0.8674532E-01
          2   -1    0    0  501    0  0.00000000000E+00  0.00000000000E+00  0.10385117295E+04  0.10385117295E+04  0.00000000000E+00 0. -1.
         -2   -1    0    0    0  501 -0.00000000000E+00 -0.00000000000E+00 -0.83369462461E+03  0.83369462461E+03  0.00000000000E+00 0.  1.
         23    2    1    2    0    0 -0.10934334817E+03  0.45266851852E+03 -0.46102718571E+03  0.66189094519E+03  0.93213743141E+02 0.  0.
        254    2    1    2    0    0  0.10934334817E+03 -0.45266851852E+03  0.66584429061E+03  0.12103154089E+04  0.89702286163E+03 0.  0.
        -24    2    4    4    0    0 -0.40839521820E+02 -0.49389753756E+03  0.83017591816E+03  0.97021200962E+03  0.80725735431E+02 0.  0.
         24    2    4    4    0    0  0.15018286999E+03  0.41229019038E+02 -0.16433162756E+03  0.24010339930E+03  0.79937676285E+02 0.  0.
         11    1    3    3    0    0 -0.47228217079E+02  0.35808066187E+03 -0.36472998754E+03  0.51330325219E+03  0.00000000000E+00 0.  1.
        -11    1    3    3    0    0 -0.62115131095E+02  0.94587856653E+02 -0.96297198170E+02  0.14858769301E+03  0.00000000000E+00 0. -1.
          4    1    6    6  502    0  0.14434655070E+03  0.56695202701E+02 -0.16040150867E+03  0.22311189276E+03  0.00000000000E+00 0. -1.
          1    1    5    5  503    0 -0.15401378733E+02 -0.43296470558E+03  0.68175028201E+03  0.80776177538E+03  0.00000000000E+00 0. -1.
         -2    1    5    5    0  503 -0.25438143087E+02 -0.60932831982E+02  0.14842563616E+03  0.16245023424E+03  0.00000000000E+00 0.  1.
         -3    1    6    6    0  502  0.58363192948E+01 -0.15466183662E+02 -0.39301188857E+01  0.16991506538E+02  0.00000000000E+00 0.  1.
<mgrwt>
<rscale>  0 0.18609693E+04</rscale>
<asrwt>0</asrwt>
<pdfrwt beam="1">  1        2 0.15977103E+00 0.18609693E+04</pdfrwt>
<pdfrwt beam="2">  1       -2 0.12826071E+00 0.18609693E+04</pdfrwt>
<totfact> 0.10049200E+01</totfact>
</mgrwt>
</event>
<event>
12    1  0.1489025E-007  0.1407872E+04  0.7818608E-02  0.8948140E-01
          2   -1    0    0  501    0  0.00000000000E+00  0.00000000000E+00  0.65118234137E+03  0.65118234137E+03  0.00000000000E+00 0.  1.
         -2   -1    0    0    0  501 -0.00000000000E+00 -0.00000000000E+00 -0.76096386310E+03  0.76096386310E+03  0.00000000000E+00 0. -1.
         23    2    1    2    0    0 -0.38748142845E+03  0.11145219880E+03  0.38941351605E+02  0.41657698659E+03  0.97244572517E+02 0.  0.
        254    2    1    2    0    0  0.38748142845E+03 -0.11145219880E+03 -0.14872287333E+03  0.99556921788E+03  0.89804015753E+03 0.  0.
        -24    2    4    4    0    0 -0.19874041460E+03 -0.18454584836E+03  0.15833882649E+03  0.32417281759E+03  0.80386000969E+02 0.  0.
         24    2    4    4    0    0  0.58622184305E+03  0.73093649562E+02 -0.30706169982E+03  0.67139640029E+03  0.86530387406E+02 0.  0.
         11    1    3    3    0    0 -0.14495173210E+03  0.66464713990E+02  0.56768644142E+02  0.16926677702E+03  0.00000000000E+00 0. -1.
        -11    1    3    3    0    0 -0.24252969634E+03  0.44987484805E+02 -0.17827292537E+02  0.24731020957E+03  0.00000000000E+00 0.  1.
          2    1    6    6  502    0  0.58831593487E+02 -0.18212261798E+02 -0.37614630822E+02  0.72164418683E+02  0.00000000000E+00 0. -1.
          3    1    5    5  503    0 -0.39153397231E+02 -0.19972149424E+01  0.12159592060E+02  0.41046718034E+02  0.00000000000E+00 0. -1.
         -4    1    5    5    0  503 -0.15958701737E+03 -0.18254863341E+03  0.14617923443E+03  0.28312609956E+03  0.00000000000E+00 0.  1.
         -1    1    6    6    0  502  0.52739024956E+03  0.91305911359E+02 -0.26944706900E+03  0.59923198160E+03  0.00000000000E+00 0.  1.
<mgrwt>
<rscale>  0 0.14078725E+04</rscale>
<asrwt>0</asrwt>
<pdfrwt beam="1">  1        2 0.10018190E+00 0.14078725E+04</pdfrwt>
<pdfrwt beam="2">  1       -2 0.11707136E+00 0.14078725E+04</pdfrwt>
<totfact> 0.24628652E+01</totfact>
</mgrwt>
</event>
<event>
12    1  0.1489025E-007  0.1455846E+04  0.7818608E-02  0.8914358E-01
         -2   -1    0    0    0  501 -0.00000000000E+00  0.00000000000E+00  0.24215486050E+03  0.24215486050E+03  0.00000000000E+00 0.  1.
          2   -1    0    0  501    0  0.00000000000E+00 -0.00000000000E+00 -0.21881532064E+04  0.21881532064E+04  0.00000000000E+00 0. -1.
         23    2    1    2    0    0  0.12822489633E+03  0.13683694811E+03  0.63959318596E+02  0.21836769194E+03  0.91802396709E+02 0.  0.
        254    2    1    2    0    0 -0.12822489633E+03 -0.13683694811E+03 -0.20099576645E+04  0.22119403749E+04  0.90420375738E+03 0.  0.
        -24    2    4    4    0    0  0.32308808529E+03 -0.13623931159E+03 -0.39864400747E+03  0.53673802638E+03  0.78889817972E+02 0.  0.
         24    2    4    4    0    0 -0.45131298162E+03 -0.59763652096E+00 -0.16113136570E+04  0.16752023486E+04  0.79293397032E+02 0.  0.
         13    1    3    3    0    0  0.20055070711E+02 -0.12250182406E+02  0.14628575009E+02  0.27681546868E+02  0.00000000000E+00 0. -1.
        -13    1    3    3    0    0  0.10816982562E+03  0.14908713052E+03  0.49330743588E+02  0.19068614507E+03  0.00000000000E+00 0.  1.
          4    1    6    6  502    0 -0.13496708160E+02  0.32641119827E+00 -0.16165462393E+02  0.21061572824E+02  0.00000000000E+00 0. -1.
          3    1    5    5  503    0  0.10806532496E+02 -0.85200414181E+01 -0.48829943334E+02  0.50731997953E+02  0.00000000000E+00 0. -1.
         -4    1    5    5    0  503  0.31228155280E+03 -0.12771927017E+03 -0.34981406414E+03  0.48600602842E+03  0.00000000000E+00 0.  1.
         -3    1    6    6    0  502 -0.43781627346E+03 -0.92404771923E+00 -0.15951481946E+04  0.16541407757E+04  0.00000000000E+00 0.  1.
<mgrwt>
<rscale>  0 0.14558461E+04</rscale>
<asrwt>0</asrwt>
<pdfrwt beam="1">  1        2 0.33663895E+00 0.14558461E+04</pdfrwt>
<pdfrwt beam="2">  1       -2 0.37254595E-01 0.14558461E+04</pdfrwt>
<totfact> 0.34571185E+01</totfact>
</mgrwt>
</event>
<event>
12    1  0.1489025E-007  0.2483375E+04  0.7818608E-02  0.8408932E-01
          2   -1    0    0  501    0  0.00000000000E+00  0.00000000000E+00  0.21698251420E+04  0.21698251420E+04  0.00000000000E+00 0.  1.
         -2   -1    0    0    0  501 -0.00000000000E+00 -0.00000000000E+00 -0.71055849673E+03  0.71055849673E+03  0.00000000000E+00 0. -1.
         23    2    1    2    0    0  0.58092756973E+03 -0.47730157018E+03  0.15457159704E+04  0.17212305735E+04  0.90017751674E+02 0.  0.
        254    2    1    2    0    0 -0.58092756973E+03  0.47730157018E+03 -0.86449325145E+02  0.11591530653E+04  0.87799129425E+03 0.  0.
        -24    2    4    4    0    0 -0.54976031660E+02 -0.24167703416E+03 -0.44147378374E+02  0.26371575021E+03  0.78529312973E+02 0.  0.
         24    2    4    4    0    0 -0.52595153807E+03  0.71897860434E+03 -0.42301946771E+02  0.89543731508E+03  0.80394506237E+02 0.  0.
         11    1    3    3    0    0  0.14896946439E+03 -0.17349251949E+03  0.43994941049E+03  0.49582964759E+03  0.00000000000E+00 0. -1.
        -11    1    3    3    0    0  0.43195810534E+03 -0.30380905069E+03  0.11057665599E+04  0.12254009259E+04  0.00000000000E+00 0.  1.
          4    1    6    6  502    0 -0.40834407183E+03  0.57007071496E+03 -0.94243771389E+00  0.70123205092E+03  0.00000000000E+00 0. -1.
          3    1    5    5  503    0 -0.70384519480E+02 -0.22964257323E+03 -0.37691172583E+02  0.24312613293E+03  0.00000000000E+00 0. -1.
         -4    1    5    5    0  503  0.15408487820E+02 -0.12034460932E+02 -0.64562057911E+01  0.20589617287E+02  0.00000000000E+00 0.  1.
         -3    1    6    6    0  502 -0.11760746624E+03  0.14890788938E+03 -0.41359509057E+02  0.19420526415E+03  0.00000000000E+00 0.  1.
<mgrwt>
<rscale>  0 0.24833749E+04</rscale>
<asrwt>0</asrwt>
<pdfrwt beam="1">  1        2 0.33381925E+00 0.24833749E+04</pdfrwt>
<pdfrwt beam="2">  1       -2 0.10931669E+00 0.24833749E+04</pdfrwt>
<totfact> 0.31983494E+00</totfact>
</mgrwt>
</event>
<event>
12    1  0.1489025E-007  0.1502455E+04  0.7818608E-02  0.8882822E-01
          1   -1    0    0  501    0  0.00000000000E+00  0.00000000000E+00  0.57161532058E+03  0.57161532058E+03  0.00000000000E+00 0. -1.
         -1   -1    0    0    0  501 -0.00000000000E+00 -0.00000000000E+00 -0.98727678669E+03  0.98727678669E+03  0.00000000000E+00 0.  1.
         23    2    1    2    0    0 -0.25433257926E+03 -0.13994385807E+03 -0.52056572877E+03  0.60319645925E+03  0.92671172406E+02 0.  0.
        254    2    1    2    0    0  0.25433257926E+03  0.13994385807E+03  0.10490426266E+03  0.95569564801E+03  0.90447770730E+03 0.  0.
        -24    2    4    4    0    0  0.24308146474E+02  0.49747131861E+02 -0.38726562067E+03  0.39924197686E+03  0.79710927866E+02 0.  0.
         24    2    4    4    0    0  0.23002443279E+03  0.90196726211E+02  0.49216988333E+03  0.55645367115E+03  0.79767192391E+02 0.  0.
         13    1    3    3    0    0 -0.22088852657E+03 -0.12392364579E+03 -0.50073125757E+03  0.56114223105E+03  0.00000000000E+00 0.  1.
        -13    1    3    3    0    0 -0.33444052697E+02 -0.16020212277E+02 -0.19834471204E+02  0.42054228208E+02  0.00000000000E+00 0. -1.
          4    1    6    6  502    0  0.38485545860E+02  0.29065612801E+02  0.16986891145E+03  0.17658254207E+03  0.00000000000E+00 0. -1.
          1    1    5    5  503    0  0.32977734516E+02  0.36766743972E+02 -0.99795688439E+02  0.11134856922E+03  0.00000000000E+00 0. -1.
         -2    1    5    5    0  503 -0.86695880429E+01  0.12980387889E+02 -0.28746993223E+03  0.28789340764E+03  0.00000000000E+00 0.  1.
         -3    1    6    6    0  502  0.19153888693E+03  0.61131113409E+02  0.32230097188E+03  0.37987112908E+03  0.00000000000E+00 0.  1.
<mgrwt>
<rscale>  0 0.15024547E+04</rscale>
<asrwt>0</asrwt>
<pdfrwt beam="1">  1        1 0.87940820E-01 0.15024547E+04</pdfrwt>
<pdfrwt beam="2">  1       -1 0.15188873E+00 0.15024547E+04</pdfrwt>
<totfact> 0.11979285E+01</totfact>
</mgrwt>
</event>
<event>
12    1  0.1489025E-007  0.1291344E+04  0.7818608E-02  0.9036458E-01
          1   -1    0    0  501    0  0.00000000000E+00  0.00000000000E+00  0.21258549696E+04  0.21258549696E+04  0.00000000000E+00 0. -1.
         -1   -1    0    0    0  501 -0.00000000000E+00 -0.00000000000E+00 -0.19610560581E+03  0.19610560581E+03  0.00000000000E+00 0.  1.
         23    2    1    2    0    0  0.20879366587E+03 -0.51799026793E+02  0.76639036827E+02  0.24689182932E+03  0.93830162186E+02 0.  0.
        254    2    1    2    0    0 -0.20879366587E+03  0.51799026793E+02  0.18531103270E+04  0.20750687461E+04  0.90863330503E+03 0.  0.
        -24    2    4    4    0    0 -0.24855683594E+03 -0.52289283556E+02  0.19091076819E+04  0.19275941143E+04  0.80076579000E+02 0.  0.
         24    2    4    4    0    0  0.39763170065E+02  0.10408831035E+03 -0.55997354977E+02  0.14747463176E+03  0.78724692458E+02 0.  0.
         11    1    3    3    0    0  0.94037029042E+02 -0.41566819492E+02  0.82068171293E+02  0.13155207354E+03  0.00000000000E+00 0. -1.
        -11    1    3    3    0    0  0.11475663683E+03 -0.10232207301E+02 -0.54291344658E+01  0.11533975578E+03  0.00000000000E+00 0.  1.
          2    1    6    6  502    0  0.57953489414E+02  0.74774306992E+02 -0.18269454369E+02  0.96351320097E+02  0.00000000000E+00 0. -1.
          1    1    5    5  503    0 -0.11749083326E+03 -0.36277094019E+02  0.64559739158E+03  0.65720325278E+03  0.00000000000E+00 0. -1.
         -2    1    5    5    0  503 -0.13106600268E+03 -0.16012189537E+02  0.12635102904E+04  0.12703908615E+04  0.00000000000E+00 0.  1.
         -3    1    6    6    0  502 -0.18190319350E+02  0.29314003357E+02 -0.37727900608E+02  0.51123311661E+02  0.00000000000E+00 0.  1.
<mgrwt>
<rscale>  0 0.12913436E+04</rscale>
<asrwt>0</asrwt>
<pdfrwt beam="1">  1        1 0.32705459E+00 0.12913436E+04</pdfrwt>
<pdfrwt beam="2">  1       -1 0.30170095E-01 0.12913436E+04</pdfrwt>
<totfact> 0.24357294E+01</totfact>
</mgrwt>
</event>
<event>
12    1  0.1489025E-007  0.1714086E+04  0.7818608E-02  0.8753371E-01
          2   -1    0    0  501    0  0.00000000000E+00  0.00000000000E+00  0.21610528506E+04  0.21610528506E+04  0.00000000000E+00 0. -1.
         -2   -1    0    0    0  501 -0.00000000000E+00 -0.00000000000E+00 -0.33989127928E+03  0.33989127928E+03  0.00000000000E+00 0.  1.
         23    2    1    2    0    0  0.13990264794E+03  0.40760045299E+03  0.23016260364E+02  0.44101259029E+03  0.90837637457E+02 0.  0.
        254    2    1    2    0    0 -0.13990264794E+03 -0.40760045299E+03  0.17981453109E+04  0.20599315396E+04  0.90789895271E+03 0.  0.
        -24    2    4    4    0    0  0.33188456892E+01  0.22398810717E+03  0.13252685783E+03  0.27103424312E+03  0.75594351697E+02 0.  0.
         24    2    4    4    0    0 -0.14322149363E+03 -0.63158856015E+03  0.16656184531E+04  0.17888972965E+04  0.80325589939E+02 0.  0.
         13    1    3    3    0    0  0.11925730755E+02  0.15023517567E+03 -0.13326746959E+02  0.15129584676E+03  0.00000000000E+00 0. -1.
        -13    1    3    3    0    0  0.12797691718E+03  0.25736527732E+03  0.36343007324E+02  0.28971674353E+03  0.00000000000E+00 0.  1.
          4    1    6    6  502    0 -0.13989979794E+03 -0.62566807631E+03  0.16114015201E+04  0.17342570035E+04  0.00000000000E+00 0. -1.
          3    1    5    5  503    0 -0.26616359973E+02  0.18644313470E+03  0.10288262981E+03  0.21460267615E+03  0.00000000000E+00 0. -1.
         -4    1    5    5    0  503  0.29935205663E+02  0.37544972467E+02  0.29644228020E+02  0.56431566969E+02  0.00000000000E+00 0.  1.
         -3    1    6    6    0  502 -0.33216956852E+01 -0.59204838409E+01  0.54216932983E+02  0.54640292946E+02  0.00000000000E+00 0.  1.
<mgrwt>
<rscale>  0 0.17140864E+04</rscale>
<asrwt>0</asrwt>
<pdfrwt beam="1">  1        2 0.33246966E+00 0.17140864E+04</pdfrwt>
<pdfrwt beam="2">  1       -2 0.52290967E-01 0.17140864E+04</pdfrwt>
<totfact> 0.17825438E+01</totfact>
</mgrwt>
</event>
<event>
12    1  0.1489025E-007  0.1582781E+04  0.7818608E-02  0.8831197E-01
          1   -1    0    0  501    0  0.00000000000E+00  0.00000000000E+00  0.85854730523E+03  0.85854730523E+03  0.00000000000E+00 0. -1.
         -1   -1    0    0    0  501 -0.00000000000E+00 -0.00000000000E+00 -0.72948671582E+03  0.72948671582E+03  0.00000000000E+00 0.  1.
         23    2    1    2    0    0  0.10146693016E+03 -0.52796774091E+03  0.30198691715E+02  0.54594406504E+03  0.89986042357E+02 0.  0.
        254    2    1    2    0    0 -0.10146693016E+03  0.52796774091E+03  0.98861897691E+02  0.10420899560E+04  0.88720478371E+03 0.  0.
        -24    2    4    4    0    0  0.63385785173E+02  0.55791693253E+03 -0.27064096973E+03  0.62863691152E+03  0.81539994275E+02 0.  0.
         24    2    4    4    0    0 -0.16485271533E+03 -0.29949191626E+02  0.36950286742E+03  0.41345304448E+03  0.79609541694E+02 0.  0.
         11    1    3    3    0    0  0.48559082871E+02 -0.16549806507E+03  0.48538067393E+02  0.17917460215E+03  0.00000000000E+00 0. -1.
        -11    1    3    3    0    0  0.52907847285E+02 -0.36246967584E+03 -0.18339375678E+02  0.36676946289E+03  0.00000000000E+00 0.  1.
          4    1    6    6  502    0 -0.44636450311E+02  0.58077706100E+01  0.18472112611E+03  0.19012637199E+03  0.00000000000E+00 0. -1.
          1    1    5    5  503    0  0.57427659214E+02  0.19735585666E+03 -0.78408510820E+02  0.21998901057E+03  0.00000000000E+00 0. -1.
         -2    1    5    5    0  503  0.59581259590E+01  0.36056107587E+03 -0.19223245891E+03  0.40864790096E+03  0.00000000000E+00 0.  1.
         -3    1    6    6    0  502 -0.12021626502E+03 -0.35756962236E+02  0.18478174131E+03  0.22332667249E+03  0.00000000000E+00 0.  1.
<mgrwt>
<rscale>  0 0.15827809E+04</rscale>
<asrwt>0</asrwt>
<pdfrwt beam="1">  1        1 0.13208420E+00 0.15827809E+04</pdfrwt>
<pdfrwt beam="2">  1       -1 0.11222873E+00 0.15827809E+04</pdfrwt>
<totfact> 0.13777043E+01</totfact>
</mgrwt>
</event>
<event>
12    1  0.1489025E-007  0.1443282E+04  0.7818608E-02  0.8923072E-01
          2   -1    0    0  501    0  0.00000000000E+00  0.00000000000E+00  0.12517168707E+04  0.12517168707E+04  0.00000000000E+00 0. -1.
         -2   -1    0    0    0  501 -0.00000000000E+00 -0.00000000000E+00 -0.41604092012E+03  0.41604092012E+03  0.00000000000E+00 0.  1.
         23    2    1    2    0    0 -0.18117440715E+02 -0.22979223345E+03  0.65248773229E+03  0.69807808399E+03  0.91869790188E+02 0.  0.
        254    2    1    2    0    0  0.18117440715E+02  0.22979223345E+03  0.18318821826E+03  0.96967970680E+03  0.92389831598E+03 0.  0.
        -24    2    4    4    0    0 -0.32631129274E+03  0.31896874224E+03 -0.13831193320E+03  0.48354697674E+03  0.80419957423E+02 0.  0.
         24    2    4    4    0    0  0.34442873345E+03 -0.89176508793E+02  0.32150015146E+03  0.48613273007E+03  0.79869153640E+02 0.  0.
         13    1    3    3    0    0  0.10456547082E+02 -0.58496844840E+02  0.29143366765E+03  0.29743033280E+03  0.00000000000E+00 0.  1.
        -13    1    3    3    0    0 -0.28573987797E+02 -0.17129538861E+03  0.36105406464E+03  0.40064775118E+03  0.00000000000E+00 0. -1.
          4    1    6    6  502    0  0.17078206002E+03 -0.26726521644E+02  0.10751879279E+03  0.20357089622E+03  0.00000000000E+00 0. -1.
          3    1    5    5  503    0 -0.89757574116E+02  0.49718483342E+02 -0.10968839661E+02  0.10319236958E+03  0.00000000000E+00 0. -1.
         -4    1    5    5    0  503 -0.23655371862E+03  0.26925025890E+03 -0.12734309353E+03  0.38035460715E+03  0.00000000000E+00 0.  1.
         -3    1    6    6    0  502  0.17364667343E+03 -0.62449987149E+02  0.21398135867E+03  0.28256183385E+03  0.00000000000E+00 0.  1.
<mgrwt>
<rscale>  0 0.14432816E+04</rscale>
<asrwt>0</asrwt>
<pdfrwt beam="1">  1        2 0.19257182E+00 0.14432816E+04</pdfrwt>
<pdfrwt beam="2">  1       -2 0.64006296E-01 0.14432816E+04</pdfrwt>
<totfact> 0.38637378E+01</totfact>
</mgrwt>
</event>
<event>
12    1  0.1489025E-007  0.1190284E+04  0.7818608E-02  0.9121404E-01
          1   -1    0    0  501    0  0.00000000000E+00  0.00000000000E+00  0.22904387152E+04  0.22904387152E+04  0.00000000000E+00 0. -1.
         -1   -1    0    0    0  501 -0.00000000000E+00 -0.00000000000E+00 -0.15464024209E+03  0.15464024209E+03  0.00000000000E+00 0.  1.
         23    2    1    2    0    0  0.11946273184E+03 -0.19879712115E+03  0.31991043028E+03  0.40489484169E+03  0.88348795954E+02 0.  0.
        254    2    1    2    0    0 -0.11946273184E+03  0.19879712115E+03  0.18158880428E+04  0.20401841156E+04  0.90061656758E+03 0.  0.
        -24    2    4    4    0    0 -0.25178543388E+03 -0.23739398973E+03  0.33103900433E+03  0.48537911452E+03  0.79083824860E+02 0.  0.
         24    2    4    4    0    0  0.13232270204E+03  0.43619111088E+03  0.14848490384E+04  0.15548050010E+04  0.69784966732E+02 0.  0.
         11    1    3    3    0    0  0.35733310111E+02 -0.81506620147E+02  0.58830520844E+02  0.10668284193E+03  0.00000000000E+00 0.  1.
        -11    1    3    3    0    0  0.83729421727E+02 -0.11729050101E+03  0.26107990944E+03  0.29821199976E+03  0.00000000000E+00 0. -1.
          4    1    6    6  502    0  0.13805611119E+03  0.37656823193E+03  0.13051332793E+04  0.13653702794E+04  0.00000000000E+00 0. -1.
          3    1    5    5  503    0 -0.24354695022E+03 -0.22460015214E+03  0.28543219223E+03  0.43730067650E+03  0.00000000000E+00 0. -1.
         -4    1    5    5    0  503 -0.82384836621E+01 -0.12793837583E+02  0.45606812097E+02  0.48078438024E+02  0.00000000000E+00 0.  1.
         -3    1    6    6    0  502 -0.57334091495E+01  0.59622878951E+02  0.17971575913E+03  0.18943472161E+03  0.00000000000E+00 0.  1.
<mgrwt>
<rscale>  0 0.11902840E+04</rscale>
<asrwt>0</asrwt>
<pdfrwt beam="1">  1        1 0.35237516E+00 0.11902840E+04</pdfrwt>
<pdfrwt beam="2">  1       -1 0.23790808E-01 0.11902840E+04</pdfrwt>
<totfact> 0.28659985E+01</totfact>
</mgrwt>
</event>
<event>
12    1  0.1489025E-007  0.1958362E+04  0.7818608E-02  0.8626339E-01
          3   -1    0    0  501    0  0.00000000000E+00  0.00000000000E+00  0.46592354543E+03  0.46592354543E+03  0.00000000000E+00 0. -1.
         -3   -1    0    0    0  501 -0.00000000000E+00 -0.00000000000E+00 -0.20578383275E+04  0.20578383275E+04  0.00000000000E+00 0.  1.
         23    2    1    2    0    0  0.72610318112E+02  0.21441308441E+02 -0.16328235263E+04  0.16372076717E+04  0.92759389062E+02 0.  0.
        254    2    1    2    0    0 -0.72610318112E+02 -0.21441308441E+02  0.40908744231E+02  0.88655420122E+03  0.88236774552E+03 0.  0.
        -24    2    4    4    0    0 -0.41572448875E+03  0.19758726462E+03 -0.18494562397E+02  0.46728544375E+03  0.78396807435E+02 0.  0.
         24    2    4    4    0    0  0.34311417064E+03 -0.21902857306E+03  0.59403306628E+02  0.41926875747E+03  0.80973379827E+02 0.  0.
         11    1    3    3    0    0  0.74807257980E+02 -0.27026841737E+01 -0.15183968857E+04  0.15202409457E+04  0.00000000000E+00 0.  1.
        -11    1    3    3    0    0 -0.21969398674E+01  0.24143992614E+02 -0.11442664057E+03  0.11696672602E+03  0.00000000000E+00 0. -1.
          4    1    6    6  502    0  0.80624290634E+02 -0.69212063348E+02  0.48591443747E+02  0.11684055100E+03  0.00000000000E+00 0. -1.
          3    1    5    5  503    0 -0.73831567299E+00  0.82397348669E+01  0.64070849647E+01  0.10463702904E+02  0.00000000000E+00 0. -1.
         -4    1    5    5    0  503 -0.41498617308E+03  0.18934752976E+03 -0.24901647362E+02  0.45682174085E+03  0.00000000000E+00 0.  1.
         -3    1    6    6    0  502  0.26248988000E+03 -0.14981650971E+03  0.10811862881E+02  0.30242820647E+03  0.00000000000E+00 0.  1.
<mgrwt>
<rscale>  0 0.19583619E+04</rscale>
<asrwt>0</asrwt>
<pdfrwt beam="1">  1        3 0.71680544E-01 0.19583619E+04</pdfrwt>
<pdfrwt beam="2">  1       -3 0.31659052E+00 0.19583619E+04</pdfrwt>
<totfact> 0.13887307E-01</totfact>
</mgrwt>
</event>
<event>
12    1  0.1489025E-007  0.1633066E+04  0.7818608E-02  0.8800488E-01
          1   -1    0    0  501    0  0.00000000000E+00  0.00000000000E+00  0.15679563919E+04  0.15679563919E+04  0.00000000000E+00 0. -1.
         -1   -1    0    0    0  501 -0.00000000000E+00 -0.00000000000E+00 -0.42521976594E+03  0.42521976594E+03  0.00000000000E+00 0.  1.
         23    2    1    2    0    0  0.28016830534E+03 -0.11201511543E+03  0.97809681892E+03  0.10264294339E+04  0.76435137359E+02 0.  0.
        254    2    1    2    0    0 -0.28016830534E+03  0.11201511543E+03  0.16463980707E+03  0.96674672395E+03  0.90357694570E+03 0.  0.
        -24    2    4    4    0    0 -0.51434791681E+03  0.82692652014E+02 -0.16631516044E+03  0.55263269331E+03  0.79688812879E+02 0.  0.
         24    2    4    4    0    0  0.23417961147E+03  0.29322463421E+02  0.33095496751E+03  0.41411403064E+03  0.79116007019E+02 0.  0.
         13    1    3    3    0    0  0.82220364536E+02 -0.19987408906E+02  0.39129780140E+03  0.40034192166E+03  0.00000000000E+00 0.  1.
        -13    1    3    3    0    0  0.19794794081E+03 -0.92027706529E+02  0.58679901752E+03  0.62608751226E+03  0.00000000000E+00 0. -1.
          4    1    6    6  502    0  0.14532965574E+03  0.46895735258E+02  0.24827675346E+03  0.29148115742E+03  0.00000000000E+00 0. -1.
          3    1    5    5  503    0 -0.43863512791E+03  0.42332683014E+02 -0.14834981502E+03  0.46497365420E+03  0.00000000000E+00 0. -1.
         -4    1    5    5    0  503 -0.75712788899E+02  0.40359969000E+02 -0.17965345419E+02  0.87659039104E+02  0.00000000000E+00 0.  1.
         -3    1    6    6    0  502  0.88849955728E+02 -0.17573271837E+02  0.82678214052E+02  0.12263287322E+03  0.00000000000E+00 0.  1.
<mgrwt>
<rscale>  0 0.16330659E+04</rscale>
<asrwt>0</asrwt>
<pdfrwt beam="1">  1        1 0.24122406E+00 0.16330659E+04</pdfrwt>
<pdfrwt beam="2">  1       -1 0.65418426E-01 0.16330659E+04</pdfrwt>
<totfact> 0.13306920E+01</totfact>
</mgrwt>
</event>
<event>
12    1  0.1489025E-007  0.1460869E+04  0.7818608E-02  0.8910900E-01
          2   -1    0    0  501    0  0.00000000000E+00  0.00000000000E+00  0.22443322572E+04  0.22443322572E+04  0.00000000000E+00 0.  1.
         -2   -1    0    0    0  501 -0.00000000000E+00 -0.00000000000E+00 -0.23772531994E+03  0.23772531994E+03  0.00000000000E+00 0. -1.
         23    2    1    2    0    0  0.14246787166E+03  0.24836774189E+03  0.98185480012E+03  0.10271825805E+04  0.95297300301E+02 0.  0.
        254    2    1    2    0    0 -0.14246787166E+03 -0.24836774189E+03  0.10247521371E+04  0.14548749967E+04  0.99225031302E+03 0.  0.
        -24    2    4    4    0    0  0.10936007753E+03  0.21940197077E+03 -0.41513049054E+02  0.26093560731E+03  0.79165690709E+02 0.  0.
         24    2    4    4    0    0 -0.25182794918E+03 -0.46776971266E+03  0.10662651862E+04  0.11939393893E+04  0.79649219126E+02 0.  0.
         11    1    3    3    0    0  0.63321813108E+00  0.85171551375E+02  0.30117609983E+03  0.31298823818E+03  0.00000000000E+00 0. -1.
        -11    1    3    3    0    0  0.14183465353E+03  0.16319619051E+03  0.68067870029E+03  0.71419434229E+03  0.00000000000E+00 0.  1.
          4    1    6    6  502    0 -0.25252799878E+03 -0.42538838901E+03  0.97565928110E+03  0.10939089105E+04  0.00000000000E+00 0. -1.
          3    1    5    5  503    0  0.52922441990E+02  0.33912772477E+02 -0.10043796950E+01  0.62863898876E+02  0.00000000000E+00 0. -1.
         -4    1    5    5    0  503  0.56437635537E+02  0.18548919830E+03 -0.40508669359E+02  0.19807170844E+03  0.00000000000E+00 0.  1.
         -3    1    6    6    0  502  0.70004959352E+00 -0.42381323649E+02  0.90605905071E+02  0.10003047884E+03  0.00000000000E+00 0.  1.
<mgrwt>
<rscale>  0 0.14608691E+04</rscale>
<asrwt>0</asrwt>
<pdfrwt beam="1">  1        2 0.34528187E+00 0.14608691E+04</pdfrwt>
<pdfrwt beam="2">  1       -2 0.36573128E-01 0.14608691E+04</pdfrwt>
<totfact> 0.33304108E+01</totfact>
</mgrwt>
</event>
<event>
12    1  0.1634497E-007  0.2485284E+04  0.7818608E-02  0.8408247E-01
         -1   -1    0    0    0  501 -0.00000000000E+00  0.00000000000E+00  0.10528235072E+04  0.10528235072E+04  0.00000000000E+00 0.  1.
          1   -1    0    0  501    0  0.00000000000E+00 -0.00000000000E+00 -0.14666832072E+04  0.14666832072E+04  0.00000000000E+00 0. -1.
         23    2    1    2    0    0  0.50429347820E+03 -0.65237734747E+03 -0.88131041220E+03  0.12103337708E+04  0.91058653700E+02 0.  0.
        254    2    1    2    0    0 -0.50429347820E+03  0.65237734747E+03  0.46745071221E+03  0.13091729436E+04  0.90305897492E+03 0.  0.
        -24    2    4    4    0    0 -0.29865619296E+03 -0.60007968027E+02  0.46723594190E+03  0.56319266905E+03  0.77974862935E+02 0.  0.
         24    2    4    4    0    0 -0.20563728524E+03  0.71238531550E+03  0.21477030971E+00  0.74598027452E+03  0.81896233298E+02 0.  0.
         11    1    3    3    0    0  0.36357410418E+03 -0.41822752501E+03 -0.54778325968E+03  0.77920914489E+03  0.00000000000E+00 0. -1.
        -11    1    3    3    0    0  0.14071937402E+03 -0.23414982246E+03 -0.33352715252E+03  0.43112462590E+03  0.00000000000E+00 0.  1.
          4    1    6    6  502    0 -0.32909760002E+02  0.16388215770E+03  0.31403324752E+02  0.17007816650E+03  0.00000000000E+00 0. -1.
          3    1    5    5  503    0 -0.15556983432E+03 -0.38885673246E+02  0.17650223097E+03  0.23846825045E+03  0.00000000000E+00 0. -1.
         -4    1    5    5    0  503 -0.14308635864E+03 -0.21122294781E+02  0.29073371093E+03  0.32472441860E+03  0.00000000000E+00 0.  1.
         -3    1    6    6    0  502 -0.17272752524E+03  0.54850315780E+03 -0.31188554443E+02  0.57590210802E+03  0.00000000000E+00 0.  1.
<mgrwt>
<rscale>  0 0.24852835E+04</rscale>
<asrwt>0</asrwt>
<pdfrwt beam="1">  1        1 0.22564357E+00 0.24852835E+04</pdfrwt>
<pdfrwt beam="2">  1       -1 0.16197285E+00 0.24852835E+04</pdfrwt>
<totfact> 0.17332637E+00</totfact>
</mgrwt>
</event>
<event>
12    1  0.1489025E-007  0.1145617E+04  0.7818608E-02  0.9161837E-01
         -2   -1    0    0    0  501 -0.00000000000E+00  0.00000000000E+00  0.10380133015E+04  0.10380133015E+04  0.00000000000E+00 0.  1.
          2   -1    0    0  501    0  0.00000000000E+00 -0.00000000000E+00 -0.31609372527E+03  0.31609372527E+03  0.00000000000E+00 0. -1.
         23    2    1    2    0    0 -0.13233132250E+02 -0.19134151082E+03  0.22224113192E+03  0.30667309771E+03  0.88716281425E+02 0.  0.
        254    2    1    2    0    0  0.13233132250E+02  0.19134151082E+03  0.49967844429E+03  0.10474339290E+04  0.90036248171E+03 0.  0.
        -24    2    4    4    0    0 -0.13426537368E+03  0.34078761731E+03 -0.11489201479E+03  0.39309747722E+03  0.84628959906E+02 0.  0.
         24    2    4    4    0    0  0.14749850593E+03 -0.14944610649E+03  0.61457045908E+03  0.65433645182E+03  0.79808489612E+02 0.  0.
         11    1    3    3    0    0  0.16161584861E+02 -0.38155852529E+02  0.10082267128E+03  0.10900585742E+03  0.00000000000E+00 0.  1.
        -11    1    3    3    0    0 -0.29394717111E+02 -0.15318565829E+03  0.12141846064E+03  0.19766724029E+03  0.00000000000E+00 0. -1.
          4    1    6    6  502    0  0.94723143611E+02 -0.39513503237E+02  0.27379603269E+03  0.29240051024E+03  0.00000000000E+00 0. -1.
          3    1    5    5  503    0 -0.12850134332E+03  0.23210733275E+03 -0.98687377711E+02  0.28306467047E+03  0.00000000000E+00 0. -1.
         -4    1    5    5    0  503 -0.57640303622E+01  0.10868028456E+03 -0.16204637075E+02  0.11003280675E+03  0.00000000000E+00 0.  1.
         -3    1    6    6    0  502  0.52775362318E+02 -0.10993260326E+03  0.34077442639E+03  0.36193594158E+03  0.00000000000E+00 0.  1.
<mgrwt>
<rscale>  0 0.11456168E+04</rscale>
<asrwt>0</asrwt>
<pdfrwt beam="1">  1        2 0.48629804E-01 0.11456168E+04</pdfrwt>
<pdfrwt beam="2">  1       -2 0.15969435E+00 0.11456168E+04</pdfrwt>
<totfact> 0.25935431E+01</totfact>
</mgrwt>
</event>
<event>
12    1  0.1489025E-007  0.1240791E+04  0.7818608E-02  0.9077883E-01
          2   -1    0    0  501    0  0.00000000000E+00  0.00000000000E+00  0.85467504050E+03  0.85467504050E+03  0.00000000000E+00 0. -1.
         -2   -1    0    0    0  501 -0.00000000000E+00 -0.00000000000E+00 -0.45033584375E+03  0.45033584375E+03  0.00000000000E+00 0.  1.
         23    2    1    2    0    0 -0.21915802775E+03 -0.10159508736E+03 -0.59716458243E+02  0.26513208995E+03  0.91526864007E+02 0.  0.
        254    2    1    2    0    0  0.21915802775E+03  0.10159508736E+03  0.46405565499E+03  0.10398787943E+04  0.89869263544E+03 0.  0.
        -24    2    4    4    0    0  0.54321570460E+03 -0.72731682761E+02  0.27398133426E+03  0.61792940137E+03  0.79986087244E+02 0.  0.
         24    2    4    4    0    0 -0.32405767685E+03  0.17432677012E+03  0.19007432073E+03  0.42194939292E+03  0.80683592368E+02 0.  0.
         11    1    3    3    0    0 -0.22549707981E+03 -0.10619119751E+03 -0.62244029116E+02  0.25690430629E+03  0.00000000000E+00 0.  1.
        -11    1    3    3    0    0  0.63390520563E+01  0.45961101509E+01  0.25275708724E+01  0.82277836631E+01  0.00000000000E+00 0. -1.
          2    1    6    6  502    0 -0.67077713516E+01  0.27282433022E+01  0.23476899275E+02  0.24568319185E+02  0.00000000000E+00 0. -1.
          3    1    5    5  503    0  0.19589875413E+03 -0.60676877786E+02  0.12198733781E+03  0.23861876697E+03  0.00000000000E+00 0. -1.
         -4    1    5    5    0  503  0.34731695047E+03 -0.12054804975E+02  0.15199399646E+03  0.37931063440E+03  0.00000000000E+00 0.  1.
         -1    1    6    6    0  502 -0.31734990550E+03  0.17159852682E+03  0.16659742146E+03  0.39738107374E+03  0.00000000000E+00 0.  1.
<mgrwt>
<rscale>  0 0.12407914E+04</rscale>
<asrwt>0</asrwt>
<pdfrwt beam="1">  1        2 0.13148847E+00 0.12407914E+04</pdfrwt>
<pdfrwt beam="2">  1       -2 0.69282438E-01 0.12407914E+04</pdfrwt>
<totfact> 0.58961380E+01</totfact>
</mgrwt>
</event>
<event>
12    1  0.1489025E-007  0.2404385E+04  0.7818608E-02  0.8437864E-01
         -2   -1    0    0    0  501 -0.00000000000E+00  0.00000000000E+00  0.69716233790E+03  0.69716233790E+03  0.00000000000E+00 0.  1.
          2   -1    0    0  501    0  0.00000000000E+00 -0.00000000000E+00 -0.20730705748E+04  0.20730705748E+04  0.00000000000E+00 0. -1.
         23    2    1    2    0    0 -0.10460218696E+04 -0.27019188090E+01 -0.75371020886E+03  0.12925222497E+04  0.91463844482E+02 0.  0.
        254    2    1    2    0    0  0.10460218696E+04  0.27019188090E+01 -0.62219802806E+03  0.14777106631E+04  0.83805093255E+03 0.  0.
        -24    2    4    4    0    0  0.86405817915E+03 -0.34960129809E+03 -0.45836573008E+03  0.10417431159E+04  0.79447922532E+02 0.  0.
         24    2    4    4    0    0  0.18196369045E+03  0.35230321690E+03 -0.16383229799E+03  0.43596754718E+03  0.77448944792E+02 0.  0.
         13    1    3    3    0    0 -0.78367466102E+03  0.11972486342E+02 -0.60895464681E+03  0.99252963514E+03  0.00000000000E+00 0.  1.
        -13    1    3    3    0    0 -0.26234720858E+03 -0.14674405151E+02 -0.14475556205E+03  0.29999261451E+03  0.00000000000E+00 0. -1.
          4    1    6    6  502    0  0.11211556366E+03  0.16739793095E+03 -0.11645941742E+03  0.23271175906E+03  0.00000000000E+00 0. -1.
          3    1    5    5  503    0  0.27738439321E+03 -0.10066614953E+03 -0.10622194105E+03  0.31362218674E+03  0.00000000000E+00 0. -1.
         -4    1    5    5    0  503  0.58667378594E+03 -0.24893514856E+03 -0.35214378903E+03  0.72812092914E+03  0.00000000000E+00 0.  1.
         -3    1    6    6    0  502  0.69848126794E+02  0.18490528596E+03 -0.47372880564E+02  0.20325578812E+03  0.00000000000E+00 0.  1.
<mgrwt>
<rscale>  0 0.24043849E+04</rscale>
<asrwt>0</asrwt>
<pdfrwt beam="1">  1        2 0.31893393E+00 0.24043849E+04</pdfrwt>
<pdfrwt beam="2">  1       -2 0.10725575E+00 0.24043849E+04</pdfrwt>
<totfact> 0.38186925E+00</totfact>
</mgrwt>
</event>
<event>
12    1  0.1489025E-007  0.1624682E+04  0.7818608E-02  0.8805527E-01
         -2   -1    0    0    0  501 -0.00000000000E+00  0.00000000000E+00  0.73554880954E+03  0.73554880954E+03  0.00000000000E+00 0.  1.
          2   -1    0    0  501    0  0.00000000000E+00 -0.00000000000E+00 -0.89715068055E+03  0.89715068055E+03  0.00000000000E+00 0. -1.
         23    2    1    2    0    0 -0.10987957168E+01 -0.70694035361E+02  0.49502562467E+03  0.50814680642E+03  0.90354600369E+02 0.  0.
        254    2    1    2    0    0  0.10987957168E+01  0.70694035361E+02 -0.65662749568E+03  0.11245526837E+04  0.91019789951E+03 0.  0.
        -24    2    4    4    0    0 -0.10264962803E+03 -0.20936490862E+03  0.13070658913E+03  0.27876079329E+03  0.79074372200E+02 0.  0.
         24    2    4    4    0    0  0.10374842374E+03  0.28005894398E+03 -0.78733408480E+03  0.84579189038E+03  0.79197305527E+02 0.  0.
         13    1    3    3    0    0 -0.34804909132E+02 -0.40735077250E+01  0.95988721943E+02  0.10218517459E+03  0.00000000000E+00 0. -1.
        -13    1    3    3    0    0  0.33706113415E+02 -0.66620527636E+02  0.39903690273E+03  0.40596163184E+03  0.00000000000E+00 0.  1.
          4    1    6    6  502    0  0.49006697453E+02  0.22668663940E+03 -0.61417811518E+03  0.65650837469E+03  0.00000000000E+00 0. -1.
          3    1    5    5  503    0 -0.38190130510E+02 -0.15121127593E+03  0.10574403997E+03  0.18842807122E+03  0.00000000000E+00 0. -1.
         -4    1    5    5    0  503 -0.64459497515E+02 -0.58153632693E+02  0.24962549155E+02  0.90332722065E+02  0.00000000000E+00 0.  1.
         -3    1    6    6    0  502  0.54741726289E+02  0.53372304585E+02 -0.17315596963E+03  0.18928351569E+03  0.00000000000E+00 0.  1.
<mgrwt>
<rscale>  0 0.16246823E+04</rscale>
<asrwt>0</asrwt>
<pdfrwt beam="1">  1        2 0.13802318E+00 0.16246823E+04</pdfrwt>
<pdfrwt beam="2">  1       -2 0.11316136E+00 0.16246823E+04</pdfrwt>
<totfact> 0.17289945E+01</totfact>
</mgrwt>
</event>
<event>
12    1  0.1489025E-007  0.1368683E+04  0.7818608E-02  0.8976805E-01
          2   -1    0    0  501    0  0.00000000000E+00  0.00000000000E+00  0.13159479951E+04  0.13159479951E+04  0.00000000000E+00 0. -1.
         -2   -1    0    0    0  501 -0.00000000000E+00 -0.00000000000E+00 -0.35588286778E+03  0.35588286778E+03  0.00000000000E+00 0.  1.
         23    2    1    2    0    0 -0.30572939781E+03 -0.21441592724E+03  0.35238800563E+03  0.52115826305E+03  0.89353086668E+02 0.  0.
        254    2    1    2    0    0  0.30572939781E+03  0.21441592724E+03  0.60767712164E+03  0.11506725998E+04  0.90295697193E+03 0.  0.
        -24    2    4    4    0    0 -0.15379520093E+03  0.70627604136E+02  0.63425925227E+03  0.66115878583E+03  0.78771306253E+02 0.  0.
         24    2    4    4    0    0  0.45952459874E+03  0.14378832310E+03 -0.26582130628E+02  0.48951381395E+03  0.84138134468E+02 0.  0.
         13    1    3    3    0    0 -0.14197506189E+03 -0.11851983932E+03  0.11717239595E+03  0.21893661385E+03  0.00000000000E+00 0. -1.
        -13    1    3    3    0    0 -0.16375433593E+03 -0.95896087919E+02  0.23521560968E+03  0.30222164921E+03  0.00000000000E+00 0.  1.
          4    1    6    6  502    0  0.39258648763E+03  0.10648620747E+03  0.45598055397E+01  0.40679755958E+03  0.00000000000E+00 0. -1.
          3    1    5    5  503    0 -0.12030819169E+03  0.37580526628E+02  0.55372635525E+03  0.56789015969E+03  0.00000000000E+00 0. -1.
         -2    1    5    5    0  503 -0.33487009235E+02  0.33047077508E+02  0.80532897019E+02  0.93268626138E+02  0.00000000000E+00 0.  1.
         -3    1    6    6    0  502  0.66938111112E+02  0.37302115625E+02 -0.31141936167E+02  0.82716254373E+02  0.00000000000E+00 0.  1.
<mgrwt>
<rscale>  0 0.13686831E+04</rscale>
<asrwt>0</asrwt>
<pdfrwt beam="1">  1        2 0.20245354E+00 0.13686831E+04</pdfrwt>
<pdfrwt beam="2">  1       -2 0.54751211E-01 0.13686831E+04</pdfrwt>
<totfact> 0.49531635E+01</totfact>
</mgrwt>
</event>
<event>
12    1  0.1489025E-007  0.2119890E+04  0.7818608E-02  0.8552532E-01
          1   -1    0    0  501    0  0.00000000000E+00  0.00000000000E+00  0.11912444495E+04  0.11912444495E+04  0.00000000000E+00 0. -1.
         -1   -1    0    0    0  501 -0.00000000000E+00 -0.00000000000E+00 -0.94311720701E+03  0.94311720701E+03  0.00000000000E+00 0.  1.
         23    2    1    2    0    0 -0.40522593290E+03 -0.67164908539E+03 -0.24152133285E+03  0.82568354021E+03  0.90001132003E+02 0.  0.
        254    2    1    2    0    0  0.40522593290E+03  0.67164908539E+03  0.48964857533E+03  0.13086781163E+04  0.92604650754E+03 0.  0.
        -24    2    4    4    0    0  0.34096212100E+03  0.76436824083E+03  0.44227890097E+02  0.84209562776E+03  0.81577965625E+02 0.  0.
         24    2    4    4    0    0  0.64263811895E+02 -0.92719155445E+02  0.44542068523E+03  0.46658248853E+03  0.81073747081E+02 0.  0.
         13    1    3    3    0    0 -0.30411715760E+03 -0.42444523648E+03 -0.14832882759E+03  0.54280976908E+03  0.00000000000E+00 0.  1.
        -13    1    3    3    0    0 -0.10110877530E+03 -0.24720384891E+03 -0.93192505262E+02  0.28287377113E+03  0.00000000000E+00 0. -1.
          2    1    6    6  502    0  0.61152926564E+02 -0.17971584049E+02  0.22200943873E+03  0.23097802741E+03  0.00000000000E+00 0. -1.
          3    1    5    5  503    0  0.14678286948E+03  0.31806277821E+03 -0.21510657897E+02  0.35095847341E+03  0.00000000000E+00 0. -1.
         -4    1    5    5    0  503  0.19417925152E+03  0.44630546262E+03  0.65738547994E+02  0.49113715435E+03  0.00000000000E+00 0.  1.
         -1    1    6    6    0  502  0.31108853310E+01 -0.74747571396E+02  0.22341124650E+03  0.23560446112E+03  0.00000000000E+00 0.  1.
<mgrwt>
<rscale>  0 0.21198898E+04</rscale>
<asrwt>0</asrwt>
<pdfrwt beam="1">  1        1 0.18326838E+00 0.21198898E+04</pdfrwt>
<pdfrwt beam="2">  1       -1 0.14509496E+00 0.21198898E+04</pdfrwt>
<totfact> 0.37979045E+00</totfact>
</mgrwt>
</event>
<event>
12    1  0.1489025E-007  0.1311110E+04  0.7818608E-02  0.9020801E-01
          1   -1    0    0  501    0  0.00000000000E+00  0.00000000000E+00  0.14660307476E+04  0.14660307476E+04  0.00000000000E+00 0. -1.
         -1   -1    0    0    0  501 -0.00000000000E+00 -0.00000000000E+00 -0.29313989050E+03  0.29313989050E+03  0.00000000000E+00 0.  1.
         23    2    1    2    0    0 -0.18391896266E+03 -0.41704533448E+02 -0.58101621780E+02  0.21746294814E+03  0.91372219122E+02 0.  0.
        254    2    1    2    0    0  0.18391896266E+03  0.41704533448E+02  0.12309924788E+04  0.15417076899E+04  0.90882048020E+03 0.  0.
        -24    2    4    4    0    0  0.25618159437E+03 -0.39365341856E+03  0.69356122798E+03  0.84148076109E+03  0.80440481644E+02 0.  0.
         24    2    4    4    0    0 -0.72262631716E+02  0.43535795201E+03  0.53743125086E+03  0.70022692882E+03  0.82018096310E+02 0.  0.
         13    1    3    3    0    0 -0.92725905925E+02 -0.50484616350E+02  0.58419790053E+01  0.10573986399E+03  0.00000000000E+00 0. -1.
        -13    1    3    3    0    0 -0.91193056731E+02  0.87800829025E+01 -0.63943600785E+02  0.11172308415E+03  0.00000000000E+00 0.  1.
          4    1    6    6  502    0 -0.40617479424E+02  0.61908795315E+02  0.85223794855E+02  0.11289629658E+03  0.00000000000E+00 0. -1.
          3    1    5    5  503    0 -0.39212844420E+01 -0.22358418328E+02  0.25654585755E+02  0.34255409968E+02  0.00000000000E+00 0. -1.
         -4    1    5    5    0  503  0.26010287881E+03 -0.37129500023E+03  0.66790664222E+03  0.80722535112E+03  0.00000000000E+00 0.  1.
         -3    1    6    6    0  502 -0.31645152292E+02  0.37344915670E+03  0.45220745601E+03  0.58733063224E+03  0.00000000000E+00 0.  1.
<mgrwt>
<rscale>  0 0.13111096E+04</rscale>
<asrwt>0</asrwt>
<pdfrwt beam="1">  1        1 0.22554319E+00 0.13111096E+04</pdfrwt>
<pdfrwt beam="2">  1       -1 0.45098446E-01 0.13111096E+04</pdfrwt>
<totfact> 0.33068413E+01</totfact>
</mgrwt>
</event>
<event>
12    1  0.1489025E-007  0.1698720E+04  0.7818608E-02  0.8762095E-01
         -1   -1    0    0    0  501 -0.00000000000E+00  0.00000000000E+00  0.26526869609E+03  0.26526869609E+03  0.00000000000E+00 0.  1.
          1   -1    0    0  501    0  0.00000000000E+00 -0.00000000000E+00 -0.27195528748E+04  0.27195528748E+04  0.00000000000E+00 0. -1.
         23    2    1    2    0    0 -0.15608160842E+03  0.51205414782E+03 -0.36675117979E+03  0.65544859655E+03  0.92441960480E+02 0.  0.
        254    2    1    2    0    0  0.15608160842E+03 -0.51205414782E+03 -0.20875329990E+04  0.23293729744E+04  0.88409474223E+03 0.  0.
        -24    2    4    4    0    0  0.21669342494E+03 -0.14020563308E+03 -0.18651178506E+04  0.18845367065E+04  0.78742247759E+02 0.  0.
         24    2    4    4    0    0 -0.60611816524E+02 -0.37184851474E+03 -0.22241514839E+03  0.44483626790E+03  0.80409556596E+02 0.  0.
         13    1    3    3    0    0 -0.11661092761E+03  0.44074200013E+03 -0.27372990670E+03  0.53177032724E+03  0.00000000000E+00 0.  1.
        -13    1    3    3    0    0 -0.39470680809E+02  0.71312147695E+02 -0.93021273089E+02  0.12367826931E+03  0.00000000000E+00 0. -1.
          4    1    6    6  502    0 -0.29297886618E+02 -0.19198809240E+03 -0.68147955179E+02  0.20582015834E+03  0.00000000000E+00 0. -1.
          1    1    5    5  503    0  0.60041213172E+02 -0.81429318673E+02 -0.61373513351E+03  0.62201808279E+03  0.00000000000E+00 0. -1.
         -2    1    5    5    0  503  0.15665221177E+03 -0.58776314407E+02 -0.12513827171E+04  0.12625186237E+04  0.00000000000E+00 0.  1.
         -3    1    6    6    0  502 -0.31313929906E+02 -0.17986042234E+03 -0.15426719321E+03  0.23901610957E+03  0.00000000000E+00 0.  1.
<mgrwt>
<rscale>  0 0.16987198E+04</rscale>
<asrwt>0</asrwt>
<pdfrwt beam="1">  1        1 0.41839278E+00 0.16987198E+04</pdfrwt>
<pdfrwt beam="2">  1       -1 0.40810565E-01 0.16987198E+04</pdfrwt>
<totfact> 0.53244214E+00</totfact>
</mgrwt>
</event>
<event>
12    1  0.1489025E-007  0.1349172E+04  0.7818608E-02  0.8991455E-01
         -2   -1    0    0    0  501 -0.00000000000E+00  0.00000000000E+00  0.49058325322E+03  0.49058325322E+03  0.00000000000E+00 0.  1.
          2   -1    0    0  501    0  0.00000000000E+00 -0.00000000000E+00 -0.92760219782E+03  0.92760219782E+03  0.00000000000E+00 0. -1.
         23    2    1    2    0    0 -0.20764256632E+03 -0.12035888653E+02  0.20760246895E+03  0.30837018487E+03  0.93450991638E+02 0.  0.
        254    2    1    2    0    0  0.20764256632E+03  0.12035888653E+02 -0.64462141356E+03  0.11098152662E+04  0.87914325354E+03 0.  0.
        -24    2    4    4    0    0  0.15917139859E+03  0.32083585131E+03  0.23695444731E+02  0.36775419233E+03  0.80065562232E+02 0.  0.
         24    2    4    4    0    0  0.48471167728E+02 -0.30879996266E+03 -0.66831685829E+03  0.74206107385E+03  0.79374701305E+02 0.  0.
         13    1    3    3    0    0 -0.75853251978E+02  0.38015679365E+02  0.57785723740E+02  0.10265523650E+03  0.00000000000E+00 0. -1.
        -13    1    3    3    0    0 -0.13178931434E+03 -0.50051568018E+02  0.14981674521E+03  0.20571494837E+03  0.00000000000E+00 0.  1.
          4    1    6    6  502    0  0.54385766716E+02 -0.27488187898E+03 -0.63533174971E+03  0.69438050894E+03  0.00000000000E+00 0. -1.
          1    1    5    5  503    0  0.65977197550E+02  0.20718437207E+03  0.35460784932E+02  0.22030846986E+03  0.00000000000E+00 0. -1.
         -2    1    5    5    0  503  0.93194201045E+02  0.11365147924E+03 -0.11765340201E+02  0.14744572246E+03  0.00000000000E+00 0.  1.
         -3    1    6    6    0  502 -0.59145989879E+01 -0.33918083675E+02 -0.32985108581E+02  0.47680564903E+02  0.00000000000E+00 0.  1.
<mgrwt>
<rscale>  0 0.13491718E+04</rscale>
<asrwt>0</asrwt>
<pdfrwt beam="1">  1        2 0.14270803E+00 0.13491718E+04</pdfrwt>
<pdfrwt beam="2">  1       -2 0.75474347E-01 0.13491718E+04</pdfrwt>
<totfact> 0.43227024E+01</totfact>
</mgrwt>
</event>
<event>
12    1  0.1489025E-007  0.1429737E+04  0.7818608E-02  0.8932570E-01
         -1   -1    0    0    0  501 -0.00000000000E+00  0.00000000000E+00  0.52046883548E+03  0.52046883548E+03  0.00000000000E+00 0.  1.
          1   -1    0    0  501    0  0.00000000000E+00 -0.00000000000E+00 -0.98187804462E+03  0.98187804462E+03  0.00000000000E+00 0. -1.
         23    2    1    2    0    0 -0.19927278599E+02  0.27946967285E+03 -0.47676756063E+03  0.55997796135E+03  0.88134078816E+02 0.  0.
        254    2    1    2    0    0  0.19927278599E+02 -0.27946967285E+03  0.15358351489E+02  0.94236891875E+03  0.89962375780E+03 0.  0.
        -24    2    4    4    0    0  0.27976058392E+03 -0.20908622594E+01 -0.31801864847E+03  0.43065502748E+03  0.77830173454E+02 0.  0.
         24    2    4    4    0    0 -0.25983330532E+03 -0.27737881059E+03  0.33337699996E+03  0.51171389127E+03  0.79110879765E+02 0.  0.
         13    1    3    3    0    0 -0.47273975979E+02  0.11577992943E+03 -0.16801005303E+03  0.20944497794E+03  0.00000000000E+00 0.  1.
        -13    1    3    3    0    0  0.27346697380E+02  0.16368974342E+03 -0.30875750760E+03  0.35053298340E+03  0.00000000000E+00 0. -1.
          2    1    6    6  502    0 -0.11625191942E+03 -0.16003279629E+03  0.21276273349E+03  0.29050470808E+03  0.00000000000E+00 0. -1.
          3    1    5    5  503    0 -0.22107370480E+01 -0.15922076110E+01  0.25428633298E+01  0.37267462063E+01  0.00000000000E+00 0. -1.
         -4    1    5    5    0  503  0.28197132096E+03 -0.49865464842E+00 -0.32056151180E+03  0.42692828128E+03  0.00000000000E+00 0.  1.
         -1    1    6    6    0  502 -0.14358138590E+03 -0.11734601430E+03  0.12061426648E+03  0.22120918319E+03  0.00000000000E+00 0.  1.
<mgrwt>
<rscale>  0 0.14297369E+04</rscale>
<asrwt>0</asrwt>
<pdfrwt beam="1">  1        1 0.15105816E+00 0.14297369E+04</pdfrwt>
<pdfrwt beam="2">  1       -1 0.80072129E-01 0.14297369E+04</pdfrwt>
<totfact> 0.23686385E+01</totfact>
</mgrwt>
</event>
<event>
12    1  0.1489025E-007  0.2849822E+04  0.7818608E-02  0.8287965E-01
          2   -1    0    0  501    0  0.00000000000E+00  0.00000000000E+00  0.29907227187E+04  0.29907227187E+04  0.00000000000E+00 0. -1.
         -2   -1    0    0    0  501 -0.00000000000E+00 -0.00000000000E+00 -0.67888988469E+03  0.67888988469E+03  0.00000000000E+00 0.  1.
         23    2    1    2    0    0 -0.77416954532E+03  0.52062140358E+03 -0.85134983574E+02  0.94129538574E+03  0.91672825892E+02 0.  0.
        254    2    1    2    0    0  0.77416954532E+03 -0.52062140358E+03  0.23969678176E+04  0.27283172176E+04  0.90987636018E+03 0.  0.
        -24    2    4    4    0    0  0.20282695842E+03 -0.43514077057E+03  0.34886797238E+03  0.59884907183E+03  0.80156617997E+02 0.  0.
         24    2    4    4    0    0  0.57134258690E+03 -0.85480633009E+02  0.20480998452E+04  0.21294681458E+04  0.78627717087E+02 0.  0.
         13    1    3    3    0    0 -0.74792237686E+03  0.50154379919E+03 -0.64465306137E+02  0.90282326067E+03  0.00000000000E+00 0.  1.
        -13    1    3    3    0    0 -0.26247168461E+02  0.19077604394E+02 -0.20669677437E+02  0.38472125064E+02  0.00000000000E+00 0. -1.
          4    1    6    6  502    0  0.40842032155E+03 -0.42788381175E+02  0.15591702053E+04  0.16123429331E+04  0.00000000000E+00 0. -1.
          1    1    5    5  503    0  0.20445193146E+03 -0.38492983358E+03  0.32182153361E+03  0.54179393551E+03  0.00000000000E+00 0. -1.
         -2    1    5    5    0  503 -0.16249730448E+01 -0.50210936990E+02  0.27046438771E+02  0.57055136324E+02  0.00000000000E+00 0.  1.
         -3    1    6    6    0  502  0.16292226535E+03 -0.42692251835E+02  0.48892963983E+03  0.51712521271E+03  0.00000000000E+00 0.  1.
<mgrwt>
<rscale>  0 0.28498220E+04</rscale>
<asrwt>0</asrwt>
<pdfrwt beam="1">  1        2 0.46011118E+00 0.28498220E+04</pdfrwt>
<pdfrwt beam="2">  1       -2 0.10444460E+00 0.28498220E+04</pdfrwt>
<totfact> 0.11380012E+00</totfact>
</mgrwt>
</event>
<event>
12    1  0.1489025E-007  0.1650777E+04  0.7818608E-02  0.8789947E-01
         -3   -1    0    0    0  501 -0.00000000000E+00  0.00000000000E+00  0.12716886433E+04  0.12716886433E+04  0.00000000000E+00 0.  1.
          3   -1    0    0  501    0  0.00000000000E+00 -0.00000000000E+00 -0.53571792396E+03  0.53571792396E+03  0.00000000000E+00 0. -1.
         23    2    1    2    0    0  0.13724468193E+03  0.54389628751E+03  0.44151251789E+03  0.71965442061E+03  0.91158693362E+02 0.  0.
        254    2    1    2    0    0 -0.13724468193E+03 -0.54389628751E+03  0.29445820148E+03  0.10877521467E+04  0.88421706945E+03 0.  0.
        -24    2    4    4    0    0 -0.80225589890E+01 -0.76059934409E+03  0.13136966038E+03  0.77657249412E+03  0.85036035153E+02 0.  0.
         24    2    4    4    0    0 -0.12922212294E+03  0.21670305658E+03  0.16308854110E+03  0.31117965256E+03  0.81094587607E+02 0.  0.
         13    1    3    3    0    0  0.13859744733E+03  0.53826407939E+03  0.44574634829E+03  0.71247966888E+03  0.00000000000E+00 0. -1.
        -13    1    3    3    0    0 -0.13527653972E+01  0.56322081186E+01 -0.42338303985E+01  0.71747517277E+01  0.00000000000E+00 0.  1.
          2    1    6    6  502    0 -0.13392893778E+03  0.21440779183E+03  0.16837414869E+03  0.30373922289E+03  0.00000000000E+00 0. -1.
          1    1    5    5  503    0  0.22747697254E+02 -0.65209278722E+03  0.11657027418E+03  0.66282055619E+03  0.00000000000E+00 0. -1.
         -2    1    5    5    0  503 -0.30770256243E+02 -0.10850655686E+03  0.14799386196E+02  0.11375193793E+03  0.00000000000E+00 0.  1.
         -1    1    6    6    0  502  0.47068148367E+01  0.22952647484E+01 -0.52856075862E+01  0.74404296735E+01  0.00000000000E+00 0.  1.
<mgrwt>
<rscale>  0 0.16507773E+04</rscale>
<asrwt>0</asrwt>
<pdfrwt beam="1">  1        3 0.82418143E-01 0.16507773E+04</pdfrwt>
<pdfrwt beam="2">  1       -3 0.19564440E+00 0.16507773E+04</pdfrwt>
<totfact> 0.53133464E-01</totfact>
</mgrwt>
</event>
<event>
12    1  0.1489025E-007  0.1873382E+04  0.7818608E-02  0.8668220E-01
         -1   -1    0    0    0  501 -0.00000000000E+00  0.00000000000E+00  0.97860254175E+03  0.97860254175E+03  0.00000000000E+00 0.  1.
          1   -1    0    0  501    0  0.00000000000E+00 -0.00000000000E+00 -0.89657441319E+03  0.89657441319E+03  0.00000000000E+00 0. -1.
         23    2    1    2    0    0 -0.60258269054E+03 -0.35195499384E+03  0.18094209684E+03  0.72809836763E+03  0.10202437903E+03 0.  0.
        254    2    1    2    0    0  0.60258269054E+03  0.35195499384E+03 -0.98913968284E+02  0.11470785873E+04  0.90500115785E+03 0.  0.
        -24    2    4    4    0    0  0.44768507808E+03 -0.15501337185E+03  0.21537581697E+03  0.52650032094E+03  0.79779513842E+02 0.  0.
         24    2    4    4    0    0  0.15489761245E+03  0.50696836569E+03 -0.31428978526E+03  0.62057826636E+03  0.73000831561E+02 0.  0.
         11    1    3    3    0    0 -0.58820233074E+03 -0.32061556291E+03  0.17971713651E+03  0.69359539375E+03  0.00000000000E+00 0.  1.
        -11    1    3    3    0    0 -0.14380359791E+02 -0.31339430935E+02  0.12249603261E+01  0.34502973885E+02  0.00000000000E+00 0. -1.
          4    1    6    6  502    0  0.23892392933E+02  0.26500869140E+02 -0.10365825592E+02  0.37156329817E+02  0.00000000000E+00 0. -1.
          1    1    5    5  503    0  0.99718877374E+02 -0.45612915477E+02  0.86421969811E+02  0.13961786930E+03  0.00000000000E+00 0. -1.
         -2    1    5    5    0  503  0.34796620071E+03 -0.10940045637E+03  0.12895384716E+03  0.38688245164E+03  0.00000000000E+00 0.  1.
         -1    1    6    6    0  502  0.13100521952E+03  0.48046749655E+03 -0.30392395967E+03  0.58342193654E+03  0.00000000000E+00 0.  1.
<mgrwt>
<rscale>  0 0.18733820E+04</rscale>
<asrwt>0</asrwt>
<pdfrwt beam="1">  1        1 0.13793453E+00 0.18733820E+04</pdfrwt>
<pdfrwt beam="2">  1       -1 0.15055424E+00 0.18733820E+04</pdfrwt>
<totfact> 0.59332950E+00</totfact>
</mgrwt>
</event>
<event>
12    1  0.1489025E-007  0.2791441E+04  0.7818608E-02  0.8305930E-01
          1   -1    0    0  501    0  0.00000000000E+00  0.00000000000E+00  0.28699168376E+04  0.28699168376E+04  0.00000000000E+00 0. -1.
         -1   -1    0    0    0  501 -0.00000000000E+00 -0.00000000000E+00 -0.67877791099E+03  0.67877791099E+03  0.00000000000E+00 0.  1.
         23    2    1    2    0    0  0.11690328907E+03  0.19208831890E+03  0.25442399243E+04  0.25557161385E+04  0.89240611783E+02 0.  0.
        254    2    1    2    0    0 -0.11690328907E+03 -0.19208831890E+03 -0.35310099777E+03  0.99297861005E+03  0.90042318059E+03 0.  0.
        -24    2    4    4    0    0 -0.19523464481E+02 -0.19721075191E+03  0.27712887963E+03  0.35030732922E+03  0.81495782994E+02 0.  0.
         24    2    4    4    0    0 -0.97379824593E+02  0.51224330147E+01 -0.63022987740E+03  0.64267128082E+03  0.79546258700E+02 0.  0.
         11    1    3    3    0    0  0.56151670912E+02  0.16044446944E+03  0.19931191381E+04  0.20003548027E+04  0.00000000000E+00 0. -1.
        -11    1    3    3    0    0  0.60751618162E+02  0.31643849458E+02  0.55112078619E+03  0.55536133579E+03  0.00000000000E+00 0.  1.
          2    1    6    6  502    0 -0.10108273724E+02 -0.24846012472E+02 -0.24867073497E+03  0.25011324627E+03  0.00000000000E+00 0. -1.
          1    1    5    5  503    0 -0.20205311295E+02 -0.21902691455E+02  0.85704178462E+02  0.90736920288E+02  0.00000000000E+00 0. -1.
         -2    1    5    5    0  503  0.68184681353E+00 -0.17530806046E+03  0.19142470117E+03  0.25957040894E+03  0.00000000000E+00 0.  1.
         -1    1    6    6    0  502 -0.87271550869E+02  0.29968445486E+02 -0.38155914243E+03  0.39255803455E+03  0.00000000000E+00 0.  1.
<mgrwt>
<rscale>  0 0.27914413E+04</rscale>
<asrwt>0</asrwt>
<pdfrwt beam="1">  1        1 0.44152566E+00 0.27914413E+04</pdfrwt>
<pdfrwt beam="2">  1       -1 0.10442737E+00 0.27914413E+04</pdfrwt>
<totfact> 0.55445484E-01</totfact>
</mgrwt>
</event>
<event>
12    1  0.1489025E-007  0.1647837E+04  0.7818608E-02  0.8791687E-01
          1   -1    0    0  501    0  0.00000000000E+00  0.00000000000E+00  0.16303244165E+04  0.16303244165E+04  0.00000000000E+00 0. -1.
         -1   -1    0    0    0  501 -0.00000000000E+00 -0.00000000000E+00 -0.41638449097E+03  0.41638449097E+03  0.00000000000E+00 0.  1.
         23    2    1    2    0    0 -0.36703370252E+03 -0.90877198671E+02 -0.10727519090E+03  0.40311862426E+03  0.89578203924E+02 0.  0.
        254    2    1    2    0    0  0.36703370252E+03  0.90877198671E+02  0.13212151164E+04  0.16435902832E+04  0.90155822393E+03 0.  0.
        -24    2    4    4    0    0  0.12372776411E+03  0.42991155684E+03  0.10403263393E+04  0.11352618147E+04  0.80049918839E+02 0.  0.
         24    2    4    4    0    0  0.24330593841E+03 -0.33903435817E+03  0.28088877712E+03  0.50832846843E+03  0.73193244368E+02 0.  0.
         11    1    3    3    0    0 -0.61274998233E+02 -0.38985207693E+02 -0.48867243271E+02  0.87535588718E+02  0.00000000000E+00 0.  1.
        -11    1    3    3    0    0 -0.30575870428E+03 -0.51891990979E+02 -0.58407947624E+02  0.31558303554E+03  0.00000000000E+00 0. -1.
          4    1    6    6  502    0  0.22097107930E+03 -0.32132998015E+03  0.23809970903E+03  0.45691645349E+03  0.00000000000E+00 0. -1.
          3    1    5    5  503    0  0.43578285456E+02  0.28813799951E+03  0.65143192396E+03  0.71364285555E+03  0.00000000000E+00 0. -1.
         -4    1    5    5    0  503  0.80149478651E+02  0.14177355733E+03  0.38889441532E+03  0.42161895919E+03  0.00000000000E+00 0.  1.
         -3    1    6    6    0  502  0.22334859111E+02 -0.17704378024E+02  0.42789068088E+02  0.51412014943E+02  0.00000000000E+00 0.  1.
<mgrwt>
<rscale>  0 0.16478371E+04</rscale>
<asrwt>0</asrwt>
<pdfrwt beam="1">  1        1 0.25081914E+00 0.16478371E+04</pdfrwt>
<pdfrwt beam="2">  1       -1 0.64059153E-01 0.16478371E+04</pdfrwt>
<totfact> 0.12562659E+01</totfact>
</mgrwt>
</event>
<event>
12    1  0.1489025E-007  0.1530224E+04  0.7818608E-02  0.8864600E-01
         -2   -1    0    0    0  501 -0.00000000000E+00  0.00000000000E+00  0.58505420222E+03  0.58505420222E+03  0.00000000000E+00 0. -1.
          2   -1    0    0  501    0  0.00000000000E+00 -0.00000000000E+00 -0.10005842837E+04  0.10005842837E+04  0.00000000000E+00 0.  1.
         23    2    1    2    0    0  0.34153921992E+03  0.21956819518E+03 -0.42200914623E+03  0.59264059206E+03  0.90950100480E+02 0.  0.
        254    2    1    2    0    0 -0.34153921992E+03 -0.21956819518E+03  0.64790647064E+01  0.99299789390E+03  0.90616974565E+03 0.  0.
        -24    2    4    4    0    0  0.29499863398E+03 -0.17008843107E+03 -0.10951872627E+02  0.34935392562E+03  0.77291353971E+02 0.  0.
         24    2    4    4    0    0 -0.63653785390E+03 -0.49479764111E+02  0.17430937333E+02  0.64364396828E+03  0.79655720627E+02 0.  0.
         13    1    3    3    0    0  0.96375064952E+02  0.20409435346E+02 -0.78322766945E+02  0.12585370085E+03  0.00000000000E+00 0. -1.
        -13    1    3    3    0    0  0.24516415497E+03  0.19915875984E+03 -0.34368637929E+03  0.46678689121E+03  0.00000000000E+00 0.  1.
          2    1    6    6  502    0 -0.22546353188E+03 -0.44347432109E+01  0.41978656288E+02  0.22938107755E+03  0.00000000000E+00 0. -1.
          3    1    5    5  503    0  0.32740496785E+01 -0.83864165162E+01 -0.12990172495E+02  0.15804934822E+02  0.00000000000E+00 0. -1.
         -4    1    5    5    0  503  0.29172458430E+03 -0.16170201456E+03  0.20382998679E+01  0.33354899080E+03  0.00000000000E+00 0.  1.
         -1    1    6    6    0  502 -0.41107432202E+03 -0.45045020900E+02 -0.24547718955E+02  0.41426289073E+03  0.00000000000E+00 0.  1.
<mgrwt>
<rscale>  0 0.15302236E+04</rscale>
<asrwt>0</asrwt>
<pdfrwt beam="1">  1        2 0.15393604E+00 0.15302236E+04</pdfrwt>
<pdfrwt beam="2">  1       -2 0.90008340E-01 0.15302236E+04</pdfrwt>
<totfact> 0.25639609E+01</totfact>
</mgrwt>
</event>
<event>
12    1  0.1489025E-007  0.2420420E+04  0.7818608E-02  0.8431898E-01
         -2   -1    0    0    0  501 -0.00000000000E+00  0.00000000000E+00  0.62435989169E+03  0.62435989169E+03  0.00000000000E+00 0.  1.
          2   -1    0    0  501    0  0.00000000000E+00 -0.00000000000E+00 -0.23457761362E+04  0.23457761362E+04  0.00000000000E+00 0. -1.
         23    2    1    2    0    0  0.32953014309E+03 -0.96049685731E+03 -0.46589064120E+03  0.11209381003E+04  0.91125227464E+02 0.  0.
        254    2    1    2    0    0 -0.32953014309E+03  0.96049685731E+03 -0.12555256033E+04  0.18491979275E+04  0.90113489922E+03 0.  0.
        -24    2    4    4    0    0 -0.15705289256E+03  0.36775159962E+02 -0.76531487319E+03  0.78599270185E+03  0.77843745929E+02 0.  0.
         24    2    4    4    0    0 -0.17247725054E+03  0.92372169735E+03 -0.49021073008E+03  0.10632052257E+04  0.84193918533E+02 0.  0.
         11    1    3    3    0    0  0.20569541788E+03 -0.57885222849E+03 -0.32986805311E+03  0.69727572726E+03  0.00000000000E+00 0.  1.
        -11    1    3    3    0    0  0.12383472521E+03 -0.38164462882E+03 -0.13602258810E+03  0.42366237306E+03  0.00000000000E+00 0. -1.
          4    1    6    6  502    0 -0.50321575649E+01  0.14993491434E+03 -0.55087123140E+02  0.15981361733E+03  0.00000000000E+00 0. -1.
          1    1    5    5  503    0 -0.52161233780E+02  0.41071591196E+02 -0.19222427252E+03  0.20336627267E+03  0.00000000000E+00 0. -1.
         -2    1    5    5    0  503 -0.10489165877E+03 -0.42964312340E+01 -0.57309060067E+03  0.58262642918E+03  0.00000000000E+00 0.  1.
         -3    1    6    6    0  502 -0.16744509297E+03  0.77378678301E+03 -0.43512360694E+03  0.90339160835E+03  0.00000000000E+00 0.  1.
<mgrwt>
<rscale>  0 0.24204202E+04</rscale>
<asrwt>0</asrwt>
<pdfrwt beam="1">  1        2 0.36088864E+00 0.24204202E+04</pdfrwt>
<pdfrwt beam="2">  1       -2 0.96055367E-01 0.24204202E+04</pdfrwt>
<totfact> 0.34806342E+00</totfact>
</mgrwt>
</event>
<event>
12    1  0.1489025E-007  0.2142381E+04  0.7818608E-02  0.8542801E-01
         -2   -1    0    0    0  501 -0.00000000000E+00  0.00000000000E+00  0.64554471759E+03  0.64554471759E+03  0.00000000000E+00 0.  1.
          2   -1    0    0  501    0  0.00000000000E+00 -0.00000000000E+00 -0.17774894782E+04  0.17774894782E+04  0.00000000000E+00 0. -1.
         23    2    1    2    0    0  0.23405932316E+02  0.24288615732E+03 -0.14182511927E+04  0.14417593923E+04  0.87705055174E+02 0.  0.
        254    2    1    2    0    0 -0.23405932316E+02 -0.24288615732E+03  0.28630643205E+03  0.98127480351E+03  0.90630422259E+03 0.  0.
        -24    2    4    4    0    0  0.92366195911E+02 -0.55942887368E+03  0.76517758435E+02  0.57778725409E+03  0.80566523942E+02 0.  0.
         24    2    4    4    0    0 -0.11577212823E+03  0.31654271636E+03  0.20978867361E+03  0.40348754942E+03  0.72030812892E+02 0.  0.
         11    1    3    3    0    0 -0.19535954334E+02  0.18659860558E+03 -0.10804624686E+04  0.10966311318E+04  0.00000000000E+00 0. -1.
        -11    1    3    3    0    0  0.42941886650E+02  0.56287551734E+02 -0.33778872407E+03  0.34512826053E+03  0.00000000000E+00 0.  1.
          4    1    6    6  502    0 -0.11333157125E+03  0.27038581959E+03  0.15440672838E+03  0.33135173795E+03  0.00000000000E+00 0. -1.
          3    1    5    5  503    0  0.75181414400E+02 -0.50473729242E+03  0.44796061303E+02  0.51226815882E+03  0.00000000000E+00 0. -1.
         -4    1    5    5    0  503  0.17184781511E+02 -0.54691581252E+02  0.31721697132E+02  0.65519095265E+02  0.00000000000E+00 0.  1.
         -3    1    6    6    0  502 -0.24405569780E+01  0.46156896773E+02  0.55381945236E+02  0.72135811469E+02  0.00000000000E+00 0.  1.
<mgrwt>
<rscale>  0 0.21423809E+04</rscale>
<asrwt>0</asrwt>
<pdfrwt beam="1">  1        2 0.27345992E+00 0.21423809E+04</pdfrwt>
<pdfrwt beam="2">  1       -2 0.99314570E-01 0.21423809E+04</pdfrwt>
<totfact> 0.68474615E+00</totfact>
</mgrwt>
</event>
<event>
12    1  0.1489025E-007  0.1243335E+04  0.7818608E-02  0.9075749E-01
         -2   -1    0    0    0  501 -0.00000000000E+00  0.00000000000E+00  0.25570262160E+03  0.25570262160E+03  0.00000000000E+00 0. -1.
          2   -1    0    0  501    0  0.00000000000E+00 -0.00000000000E+00 -0.15114056796E+04  0.15114056796E+04  0.00000000000E+00 0.  1.
         23    2    1    2    0    0 -0.47873657557E+02 -0.69693433993E+02 -0.70992816600E+03  0.72079992546E+03  0.91681349356E+02 0.  0.
        254    2    1    2    0    0  0.47873657557E+02  0.69693433993E+02 -0.54577489196E+03  0.10463083757E+04  0.88867424996E+03 0.  0.
        -24    2    4    4    0    0 -0.33040631608E+03 -0.17350354008E+03 -0.72886153961E+02  0.38920208375E+03  0.83030466853E+02 0.  0.
         24    2    4    4    0    0  0.37827997364E+03  0.24319697407E+03 -0.47288873800E+03  0.65710629196E+03  0.76970213381E+02 0.  0.
         11    1    3    3    0    0 -0.63500753169E+02 -0.16539246724E+02 -0.29639613536E+03  0.30357299187E+03  0.00000000000E+00 0.  1.
        -11    1    3    3    0    0  0.15627095612E+02 -0.53154187270E+02 -0.41353203064E+03  0.41722693358E+03  0.00000000000E+00 0. -1.
          4    1    6    6  502    0  0.25843758377E+03  0.12693634730E+03 -0.27456263395E+03  0.39785356719E+03  0.00000000000E+00 0. -1.
          3    1    5    5  503    0 -0.10171218654E+03 -0.29291636187E+02 -0.52274994801E+02  0.11805102254E+03  0.00000000000E+00 0. -1.
         -4    1    5    5    0  503 -0.22869412954E+03 -0.14421190389E+03 -0.20611159160E+02  0.27115106120E+03  0.00000000000E+00 0.  1.
         -3    1    6    6    0  502  0.11984238987E+03  0.11626062677E+03 -0.19832610405E+03  0.25925272476E+03  0.00000000000E+00 0.  1.
<mgrwt>
<rscale>  0 0.12433349E+04</rscale>
<asrwt>0</asrwt>
<pdfrwt beam="1">  1        2 0.23252395E+00 0.12433349E+04</pdfrwt>
<pdfrwt beam="2">  1       -2 0.39338866E-01 0.12433349E+04</pdfrwt>
<totfact> 0.75158988E+01</totfact>
</mgrwt>
</event>
<event>
12    1  0.1489025E-007  0.3086121E+04  0.7818608E-02  0.8219557E-01
         -2   -1    0    0    0  501 -0.00000000000E+00  0.00000000000E+00  0.48796956508E+03  0.48796956508E+03  0.00000000000E+00 0.  1.
          2   -1    0    0  501    0  0.00000000000E+00 -0.00000000000E+00 -0.48794764692E+04  0.48794764692E+04  0.00000000000E+00 0. -1.
         23    2    1    2    0    0  0.41735997783E+03  0.10712454749E+04 -0.35195523847E+04  0.37036913017E+04  0.91236237653E+02 0.  0.
        254    2    1    2    0    0 -0.41735997783E+03 -0.10712454749E+04 -0.87195451942E+03  0.16637547326E+04  0.82826258381E+03 0.  0.
        -24    2    4    4    0    0 -0.43918817189E+03 -0.87041673286E+03 -0.10103449920E+04  0.14065866483E+04  0.84719874101E+02 0.  0.
         24    2    4    4    0    0  0.21828194058E+02 -0.20082874201E+03  0.13839047261E+03  0.25716808429E+03  0.78580194668E+02 0.  0.
         11    1    3    3    0    0  0.40813278519E+01  0.34561078290E+02 -0.15558612945E+03  0.15943076569E+03  0.00000000000E+00 0.  1.
        -11    1    3    3    0    0  0.41327864998E+03  0.10366843966E+04 -0.33639662553E+04  0.35442605360E+04  0.00000000000E+00 0. -1.
          2    1    6    6  502    0  0.81454348963E+01 -0.16443992319E+03  0.14293073527E+03  0.21802759351E+03  0.00000000000E+00 0. -1.
          3    1    5    5  503    0 -0.21129595664E+03 -0.46802244476E+03 -0.58322463391E+03  0.77707268881E+03  0.00000000000E+00 0. -1.
         -4    1    5    5    0  503 -0.22789221525E+03 -0.40239428810E+03 -0.42712035812E+03  0.62951395949E+03  0.00000000000E+00 0.  1.
         -1    1    6    6    0  502  0.13682759162E+02 -0.36388818826E+02 -0.45402626531E+01  0.39140490784E+02  0.00000000000E+00 0.  1.
<mgrwt>
<rscale>  0 0.30861212E+04</rscale>
<asrwt>0</asrwt>
<pdfrwt beam="1">  1        2 0.75068870E+00 0.30861212E+04</pdfrwt>
<pdfrwt beam="2">  1       -2 0.75072239E-01 0.30861212E+04</pdfrwt>
<totfact> 0.65128102E-02</totfact>
</mgrwt>
</event>
<event>
12    1  0.1489025E-007  0.1810114E+04  0.7818608E-02  0.8700939E-01
          2   -1    0    0  501    0  0.00000000000E+00  0.00000000000E+00  0.11069822318E+04  0.11069822318E+04  0.00000000000E+00 0.  1.
         -2   -1    0    0    0  501 -0.00000000000E+00 -0.00000000000E+00 -0.73996540488E+03  0.73996540488E+03  0.00000000000E+00 0. -1.
         23    2    1    2    0    0 -0.53589649850E+03  0.22590648017E+03 -0.22409207260E+03  0.62991088950E+03  0.91387509127E+02 0.  0.
        254    2    1    2    0    0  0.53589649850E+03 -0.22590648017E+03  0.59110889950E+03  0.12170367472E+04  0.89081418824E+03 0.  0.
        -24    2    4    4    0    0  0.90142647377E+02  0.23328591371E+02  0.68148190443E+03  0.69243114635E+03  0.79833491258E+02 0.  0.
         24    2    4    4    0    0  0.44575385112E+03 -0.24923507154E+03 -0.90373004926E+02  0.52460560080E+03  0.78924899098E+02 0.  0.
         11    1    3    3    0    0 -0.14099148438E+03  0.85982235554E+02 -0.99569681632E+02  0.19283584988E+03  0.00000000000E+00 0. -1.
        -11    1    3    3    0    0 -0.39490501412E+03  0.13992424462E+03 -0.12452239097E+03  0.43707503962E+03  0.00000000000E+00 0.  1.
          4    1    6    6  502    0  0.40344496048E+03 -0.22824216566E+03 -0.10477785778E+03  0.47522702133E+03  0.00000000000E+00 0. -1.
          1    1    5    5  503    0  0.97181129153E+02  0.18274833021E+02  0.44777286484E+03  0.45856153335E+03  0.00000000000E+00 0. -1.
         -2    1    5    5    0  503 -0.70384817767E+01  0.50537583495E+01  0.23370903959E+03  0.23386961300E+03  0.00000000000E+00 0.  1.
         -3    1    6    6    0  502  0.42308890642E+02 -0.20992905882E+02  0.14404852858E+02  0.49378579471E+02  0.00000000000E+00 0.  1.
<mgrwt>
<rscale>  0 0.18101144E+04</rscale>
<asrwt>0</asrwt>
<pdfrwt beam="1">  1        2 0.17030496E+00 0.18101144E+04</pdfrwt>
<pdfrwt beam="2">  1       -2 0.11384083E+00 0.18101144E+04</pdfrwt>
<totfact> 0.12300549E+01</totfact>
</mgrwt>
</event>
<event>
12    1  0.1489025E-007  0.1077260E+04  0.7818608E-02  0.9227643E-01
         -2   -1    0    0    0  501 -0.00000000000E+00  0.00000000000E+00  0.11279706419E+03  0.11279706419E+03  0.00000000000E+00 0.  1.
          2   -1    0    0  501    0  0.00000000000E+00 -0.00000000000E+00 -0.25720743918E+04  0.25720743918E+04  0.00000000000E+00 0. -1.
         23    2    1    2    0    0  0.29030526572E+02 -0.65914846480E+02 -0.87171956056E+02  0.14782308843E+03  0.95211223550E+02 0.  0.
        254    2    1    2    0    0 -0.29030526572E+02  0.65914846480E+02 -0.23721053715E+04  0.25370483675E+04  0.89696320276E+03 0.  0.
        -24    2    4    4    0    0  0.35365311809E+03  0.39001656393E+02 -0.18421259640E+04  0.18779106699E+04  0.80800741410E+02 0.  0.
         24    2    4    4    0    0 -0.38268364466E+03  0.26913190087E+02 -0.52997940753E+03  0.65913769761E+03  0.80082709242E+02 0.  0.
         11    1    3    3    0    0 -0.13861980316E+02 -0.46795886217E+02  0.94579734730E-03  0.48805834344E+02  0.00000000000E+00 0.  1.
        -11    1    3    3    0    0  0.42892506887E+02 -0.19118960263E+02 -0.87172901853E+02  0.99017254083E+02  0.00000000000E+00 0. -1.
          2    1    6    6  502    0 -0.72463764418E+02  0.71221878403E+01 -0.16080667168E+03  0.17652339326E+03  0.00000000000E+00 0. -1.
          1    1    5    5  503    0  0.89948899191E+02  0.17795502717E+02 -0.31641099772E+03  0.32942890562E+03  0.00000000000E+00 0. -1.
         -2    1    5    5    0  503  0.26370421890E+03  0.21206153677E+02 -0.15257149663E+04  0.15484817643E+04  0.00000000000E+00 0.  1.
         -3    1    6    6    0  502 -0.31021988024E+03  0.19791002246E+02 -0.36917273585E+03  0.48261430435E+03  0.00000000000E+00 0.  1.
<mgrwt>
<rscale>  0 0.10772603E+04</rscale>
<asrwt>0</asrwt>
<pdfrwt beam="1">  1        2 0.39570376E+00 0.10772603E+04</pdfrwt>
<pdfrwt beam="2">  1       -2 0.17353394E-01 0.10772603E+04</pdfrwt>
<totfact> 0.86925514E+01</totfact>
</mgrwt>
</event>
<event>
12    1  0.1489025E-007  0.1202781E+04  0.7818608E-02  0.9110426E-01
         -2   -1    0    0    0  501 -0.00000000000E+00  0.00000000000E+00  0.82588680043E+03  0.82588680043E+03  0.00000000000E+00 0.  1.
          2   -1    0    0  501    0  0.00000000000E+00 -0.00000000000E+00 -0.43791774431E+03  0.43791774431E+03  0.00000000000E+00 0. -1.
         23    2    1    2    0    0  0.18013034948E+03 -0.15130869322E+03  0.18150736062E+03  0.31055683380E+03  0.90329184735E+02 0.  0.
        254    2    1    2    0    0 -0.18013034948E+03  0.15130869322E+03  0.20646169550E+03  0.95324771093E+03  0.90039630344E+03 0.  0.
        -24    2    4    4    0    0  0.24286443687E+03  0.31517681591E+03 -0.76010307404E+02  0.41273913378E+03  0.79097823875E+02 0.  0.
         24    2    4    4    0    0 -0.42299478635E+03 -0.16386812269E+03  0.28247200290E+03  0.54050857716E+03  0.81127915331E+02 0.  0.
         11    1    3    3    0    0  0.43903805937E+02 -0.59620580243E+02  0.12821004250E+02  0.75143435603E+02  0.00000000000E+00 0. -1.
        -11    1    3    3    0    0  0.13622654355E+03 -0.91688112977E+02  0.16868635637E+03  0.23541339820E+03  0.00000000000E+00 0.  1.
          4    1    6    6  502    0 -0.40478685420E+03 -0.16489041410E+03  0.28544026856E+03  0.52203198457E+03  0.00000000000E+00 0. -1.
          1    1    5    5  503    0  0.20638780729E+03  0.30230676405E+03 -0.76977260051E+02  0.37404652806E+03  0.00000000000E+00 0. -1.
         -2    1    5    5    0  503  0.36476629576E+02  0.12870051859E+02  0.96695264736E+00  0.38692605721E+02  0.00000000000E+00 0.  1.
         -3    1    6    6    0  502 -0.18207932145E+02  0.10222914108E+01 -0.29682656554E+01  0.18476592590E+02  0.00000000000E+00 0.  1.
<mgrwt>
<rscale>  0 0.12027809E+04</rscale>
<asrwt>0</asrwt>
<pdfrwt beam="1">  1        2 0.67371961E-01 0.12027809E+04</pdfrwt>
<pdfrwt beam="2">  1       -2 0.12705951E+00 0.12027809E+04</pdfrwt>
<totfact> 0.32554103E+01</totfact>
</mgrwt>
</event>
<event>
12    1  0.1489025E-007  0.1940309E+04  0.7818608E-02  0.8635048E-01
         -2   -1    0    0    0  501 -0.00000000000E+00  0.00000000000E+00  0.10667080867E+04  0.10667080867E+04  0.00000000000E+00 0.  1.
          2   -1    0    0  501    0  0.00000000000E+00 -0.00000000000E+00 -0.88234072147E+03  0.88234072147E+03  0.00000000000E+00 0. -1.
         23    2    1    2    0    0  0.54793334916E+03 -0.21729306940E+03  0.54482293423E+03  0.80738682115E+03  0.87144800028E+02 0.  0.
        254    2    1    2    0    0 -0.54793334916E+03  0.21729306940E+03 -0.36045556905E+03  0.11416619870E+04  0.90885457699E+03 0.  0.
        -24    2    4    4    0    0 -0.61536434487E+03  0.61117198917E+02 -0.58060590870E+03  0.85231597235E+03  0.83250865285E+02 0.  0.
         24    2    4    4    0    0  0.67430995708E+02  0.15617587048E+03  0.22015033965E+03  0.28934601462E+03  0.79480201466E+02 0.  0.
         13    1    3    3    0    0  0.16902028494E+03 -0.33557198385E+02  0.19218490370E+03  0.25812589854E+03  0.00000000000E+00 0.  1.
        -13    1    3    3    0    0  0.37891306422E+03 -0.18373587101E+03  0.35263803053E+03  0.54926092261E+03  0.00000000000E+00 0. -1.
          4    1    6    6  502    0  0.54581130478E+02  0.12213610551E+03  0.21410555418E+03  0.25246290104E+03  0.00000000000E+00 0. -1.
          3    1    5    5  503    0 -0.44146198012E+03  0.34859260765E+02 -0.46337326279E+03  0.64095134654E+03  0.00000000000E+00 0. -1.
         -4    1    5    5    0  503 -0.17390236475E+03  0.26257938152E+02 -0.11723264591E+03  0.21136462582E+03  0.00000000000E+00 0.  1.
         -3    1    6    6    0  502  0.12849865230E+02  0.34039764974E+02  0.60447854762E+01  0.36883113581E+02  0.00000000000E+00 0.  1.
<mgrwt>
<rscale>  0 0.19403092E+04</rscale>
<asrwt>0</asrwt>
<pdfrwt beam="1">  1        2 0.13574473E+00 0.19403092E+04</pdfrwt>
<pdfrwt beam="2">  1       -2 0.16410894E+00 0.19403092E+04</pdfrwt>
<totfact> 0.66109787E+00</totfact>
</mgrwt>
</event>
<event>
12    1  0.1489025E-007  0.1346880E+04  0.7818608E-02  0.8993193E-01
          1   -1    0    0  501    0  0.00000000000E+00  0.00000000000E+00  0.20904294044E+04  0.20904294044E+04  0.00000000000E+00 0. -1.
         -1   -1    0    0    0  501 -0.00000000000E+00 -0.00000000000E+00 -0.21695142411E+03  0.21695142411E+03  0.00000000000E+00 0.  1.
         23    2    1    2    0    0  0.25785517218E+03  0.13915765994E+03  0.15678784374E+03  0.34638925401E+03  0.97718694254E+02 0.  0.
        254    2    1    2    0    0 -0.25785517218E+03 -0.13915765994E+03  0.17166901366E+04  0.19609915745E+04  0.90144816057E+03 0.  0.
        -24    2    4    4    0    0 -0.22736158325E+03  0.36152729981E+03  0.88195187192E+03  0.98318992041E+03  0.80175040737E+02 0.  0.
         24    2    4    4    0    0 -0.30493588931E+02 -0.50068495976E+03  0.83473826468E+03  0.97780165414E+03  0.87708702058E+02 0.  0.
         11    1    3    3    0    0  0.12840521959E+03  0.95132897240E+02  0.35694295918E+02  0.16374446957E+03  0.00000000000E+00 0.  1.
        -11    1    3    3    0    0  0.12944995259E+03  0.44024762704E+02  0.12109354782E+03  0.18264478444E+03  0.00000000000E+00 0. -1.
          4    1    6    6  502    0 -0.53274456852E+01 -0.45108602358E+03  0.77034589129E+03  0.89271483385E+03  0.00000000000E+00 0. -1.
          1    1    5    5  503    0 -0.22485365787E+03  0.33995436371E+03  0.86282060877E+03  0.95424710625E+03  0.00000000000E+00 0. -1.
         -2    1    5    5    0  503 -0.25079253816E+01  0.21572936102E+02  0.19131263153E+02  0.28942814162E+02  0.00000000000E+00 0.  1.
         -3    1    6    6    0  502 -0.25166143246E+02 -0.49598936178E+02  0.64392373395E+02  0.85086820291E+02  0.00000000000E+00 0.  1.
<mgrwt>
<rscale>  0 0.13468803E+04</rscale>
<asrwt>0</asrwt>
<pdfrwt beam="1">  1        1 0.32160451E+00 0.13468803E+04</pdfrwt>
<pdfrwt beam="2">  1       -1 0.33377144E-01 0.13468803E+04</pdfrwt>
<totfact> 0.21428537E+01</totfact>
</mgrwt>
</event>
<event>
12    1  0.1489025E-007  0.3200760E+04  0.7818608E-02  0.8188617E-01
         -2   -1    0    0    0  501 -0.00000000000E+00  0.00000000000E+00  0.14026117542E+04  0.14026117542E+04  0.00000000000E+00 0. -1.
          2   -1    0    0  501    0  0.00000000000E+00 -0.00000000000E+00 -0.18260331819E+04  0.18260331819E+04  0.00000000000E+00 0.  1.
         23    2    1    2    0    0  0.94989853422E+03  0.23491471847E+02  0.93918144595E+03  0.13392073867E+04  0.92496279169E+02 0.  0.
        254    2    1    2    0    0 -0.94989853422E+03 -0.23491471847E+02 -0.13626028737E+04  0.18894375494E+04  0.90023807254E+03 0.  0.
        -24    2    4    4    0    0 -0.83420629872E+03  0.36082719073E+01 -0.42204519275E+03  0.93801751393E+03  0.76429989319E+02 0.  0.
         24    2    4    4    0    0 -0.11569223550E+03 -0.27099743755E+02 -0.94055768094E+03  0.95142003550E+03  0.80201267530E+02 0.  0.
         11    1    3    3    0    0  0.56205030804E+03 -0.21365592521E+02  0.59436717545E+03  0.81830885157E+03  0.00000000000E+00 0. -1.
        -11    1    3    3    0    0  0.38784822619E+03  0.44857064369E+02  0.34481427050E+03  0.52089853515E+03  0.00000000000E+00 0.  1.
          2    1    6    6  502    0 -0.67572232980E+02  0.30601810703E+01 -0.73673187415E+03  0.73983053855E+03  0.00000000000E+00 0. -1.
          3    1    5    5  503    0 -0.58226583724E+03  0.34686977810E+02 -0.30971822393E+03  0.66042567324E+03  0.00000000000E+00 0. -1.
         -4    1    5    5    0  503 -0.25194046148E+03 -0.31078705903E+02 -0.11232696882E+03  0.27759184069E+03  0.00000000000E+00 0.  1.
         -1    1    6    6    0  502 -0.48120002524E+02 -0.30159924825E+02 -0.20382580678E+03  0.21158949695E+03  0.00000000000E+00 0.  1.
<mgrwt>
<rscale>  0 0.32007597E+04</rscale>
<asrwt>0</asrwt>
<pdfrwt beam="1">  1        2 0.28092818E+00 0.32007597E+04</pdfrwt>
<pdfrwt beam="2">  1       -2 0.21578642E+00 0.32007597E+04</pdfrwt>
<totfact> 0.73887296E-01</totfact>
</mgrwt>
</event>
<event>
12    1  0.1489025E-007  0.1384957E+04  0.7818608E-02  0.8964780E-01
         -1   -1    0    0    0  501 -0.00000000000E+00  0.00000000000E+00  0.54689063209E+03  0.54689063209E+03  0.00000000000E+00 0.  1.
          1   -1    0    0  501    0  0.00000000000E+00 -0.00000000000E+00 -0.87682341881E+03  0.87682341881E+03  0.00000000000E+00 0. -1.
         23    2    1    2    0    0 -0.29643588173E+03 -0.24104776663E+02 -0.27772948814E+03  0.41717754166E+03  0.91913875168E+02 0.  0.
        254    2    1    2    0    0  0.29643588173E+03  0.24104776663E+02 -0.52203298589E+02  0.10065365092E+04  0.96017461319E+03 0.  0.
        -24    2    4    4    0    0 -0.18318572878E+02  0.27913076389E+03 -0.37988218566E+03  0.47885031450E+03  0.82082856009E+02 0.  0.
         24    2    4    4    0    0  0.31475445461E+03 -0.25502598723E+03  0.32767888707E+03  0.52768619474E+03  0.83490395983E+02 0.  0.
         11    1    3    3    0    0 -0.11492935669E+03  0.29416269758E+02 -0.13777517054E+03  0.18181328767E+03  0.00000000000E+00 0. -1.
        -11    1    3    3    0    0 -0.18150652505E+03 -0.53521046421E+02 -0.13995431760E+03  0.23536425399E+03  0.00000000000E+00 0.  1.
          2    1    6    6  502    0  0.10623010197E+03 -0.83176653514E+02  0.16159344519E+03  0.21051278294E+03  0.00000000000E+00 0. -1.
          1    1    5    5  503    0  0.28050815137E+02  0.16711509229E+03 -0.23916713615E+03  0.29311298387E+03  0.00000000000E+00 0. -1.
         -2    1    5    5    0  503 -0.46369388015E+02  0.11201567160E+03 -0.14071504951E+03  0.18573733063E+03  0.00000000000E+00 0.  1.
         -1    1    6    6    0  502  0.20852435264E+03 -0.17184933372E+03  0.16608544188E+03  0.31717341179E+03  0.00000000000E+00 0.  1.
<mgrwt>
<rscale>  0 0.13849571E+04</rscale>
<asrwt>0</asrwt>
<pdfrwt beam="1">  1        1 0.13489591E+00 0.13849571E+04</pdfrwt>
<pdfrwt beam="2">  1       -1 0.84137020E-01 0.13849571E+04</pdfrwt>
<totfact> 0.25994404E+01</totfact>
</mgrwt>
</event>
<event>
12    1  0.1489025E-007  0.1631720E+04  0.7818608E-02  0.8801295E-01
         -2   -1    0    0    0  501 -0.00000000000E+00  0.00000000000E+00  0.34647718827E+03  0.34647718827E+03  0.00000000000E+00 0. -1.
          2   -1    0    0  501    0  0.00000000000E+00 -0.00000000000E+00 -0.19211285065E+04  0.19211285065E+04  0.00000000000E+00 0.  1.
         23    2    1    2    0    0  0.50934587745E+03  0.22534330708E+03 -0.65362801460E+03  0.86386912866E+03  0.93954569091E+02 0.  0.
        254    2    1    2    0    0 -0.50934587745E+03 -0.22534330708E+03 -0.92102330364E+03  0.14037365661E+04  0.90109910237E+03 0.  0.
        -24    2    4    4    0    0 -0.27270080972E+03  0.29246962629E+03 -0.65178899685E+03  0.76915243924E+03  0.82839389513E+02 0.  0.
         24    2    4    4    0    0 -0.23664506773E+03 -0.51781293337E+03 -0.26923430678E+03  0.63458412688E+03  0.77966531860E+02 0.  0.
         11    1    3    3    0    0  0.44878501747E+03  0.19119814393E+03 -0.61275915740E+03  0.78322315283E+03  0.00000000000E+00 0.  1.
        -11    1    3    3    0    0  0.60560859988E+02  0.34145163151E+02 -0.40868857198E+02  0.80645975831E+02  0.00000000000E+00 0. -1.
          4    1    6    6  502    0 -0.10174521863E+03 -0.13760170387E+03 -0.75577888080E+02  0.18707842096E+03  0.00000000000E+00 0. -1.
          3    1    5    5  503    0 -0.10152150945E+02  0.15913418195E+02 -0.77663296750E+02  0.79924281101E+02  0.00000000000E+00 0. -1.
         -4    1    5    5    0  503 -0.26254865878E+03  0.27655620809E+03 -0.57412570010E+03  0.68922815814E+03  0.00000000000E+00 0.  1.
         -3    1    6    6    0  502 -0.13489984910E+03 -0.38021122949E+03 -0.19365641870E+03  0.44750570591E+03  0.00000000000E+00 0.  1.
<mgrwt>
<rscale>  0 0.16317196E+04</rscale>
<asrwt>0</asrwt>
<pdfrwt beam="1">  1        2 0.29555823E+00 0.16317196E+04</pdfrwt>
<pdfrwt beam="2">  1       -2 0.53304183E-01 0.16317196E+04</pdfrwt>
<totfact> 0.23458822E+01</totfact>
</mgrwt>
</event>
<event>
12    1  0.1489025E-007  0.2928200E+04  0.7818608E-02  0.8264536E-01
          1   -1    0    0  501    0  0.00000000000E+00  0.00000000000E+00  0.83634155734E+03  0.83634155734E+03  0.00000000000E+00 0. -1.
         -1   -1    0    0    0  501 -0.00000000000E+00 -0.00000000000E+00 -0.25630542592E+04  0.25630542592E+04  0.00000000000E+00 0.  1.
         23    2    1    2    0    0 -0.38427851509E+03 -0.66065888025E+03 -0.20508780168E+04  0.21904706773E+04  0.89000084572E+02 0.  0.
        254    2    1    2    0    0  0.38427851509E+03  0.66065888025E+03  0.32416531497E+03  0.12089251392E+04  0.87879275577E+03 0.  0.
        -24    2    4    4    0    0  0.54372904815E+03  0.29943400565E+03 -0.89245987283E+02  0.63215028417E+03  0.79668902233E+02 0.  0.
         24    2    4    4    0    0 -0.15945053306E+03  0.36122487459E+03  0.41341130225E+03  0.57677485505E+03  0.76501281501E+02 0.  0.
         13    1    3    3    0    0 -0.44320833146E+01  0.18035541040E+01 -0.24883078736E+02  0.25338977432E+02  0.00000000000E+00 0. -1.
        -13    1    3    3    0    0 -0.37984643178E+03 -0.66246243435E+03 -0.20259949381E+04  0.21651316999E+04  0.00000000000E+00 0.  1.
          4    1    6    6  502    0 -0.82402960222E+02  0.21523177365E+03  0.29129063138E+03  0.37143666508E+03  0.00000000000E+00 0. -1.
          3    1    5    5  503    0  0.35743176618E+03  0.17473356670E+03 -0.90267356582E+02  0.40796750173E+03  0.00000000000E+00 0. -1.
         -4    1    5    5    0  503  0.18629728197E+03  0.12470043895E+03  0.10213692988E+01  0.22418278243E+03  0.00000000000E+00 0.  1.
         -3    1    6    6    0  502 -0.77047572836E+02  0.14599310095E+03  0.12212067088E+03  0.20533818997E+03  0.00000000000E+00 0.  1.
<mgrwt>
<rscale>  0 0.29282000E+04</rscale>
<asrwt>0</asrwt>
<pdfrwt beam="1">  1        1 0.12866793E+00 0.29282000E+04</pdfrwt>
<pdfrwt beam="2">  1       -1 0.39431603E+00 0.29282000E+04</pdfrwt>
<totfact> 0.13770558E-01</totfact>
</mgrwt>
</event>
<event>
12    1  0.1489025E-007  0.1316525E+04  0.7818608E-02  0.9016563E-01
         -2   -1    0    0    0  501 -0.00000000000E+00  0.00000000000E+00  0.33604983005E+03  0.33604983005E+03  0.00000000000E+00 0.  1.
          2   -1    0    0  501    0  0.00000000000E+00 -0.00000000000E+00 -0.12894195862E+04  0.12894195862E+04  0.00000000000E+00 0. -1.
         23    2    1    2    0    0 -0.16772054490E+03 -0.18618643231E+03 -0.53198292597E+03  0.59466597829E+03  0.88465945167E+02 0.  0.
        254    2    1    2    0    0  0.16772054490E+03  0.18618643231E+03 -0.42138683015E+03  0.10308034379E+04  0.90674875146E+03 0.  0.
        -24    2    4    4    0    0 -0.10614559633E+03 -0.11083047526E+03 -0.56839701062E+03  0.59349563516E+03  0.74910782994E+02 0.  0.
         24    2    4    4    0    0  0.27386614123E+03  0.29701690757E+03  0.14701018046E+03  0.43730780278E+03  0.80027585945E+02 0.  0.
         13    1    3    3    0    0 -0.99536501663E+02 -0.91230319593E+02 -0.18874592632E+03  0.23206790187E+03  0.00000000000E+00 0.  1.
        -13    1    3    3    0    0 -0.68184043235E+02 -0.94956112718E+02 -0.34323699965E+03  0.36259807642E+03  0.00000000000E+00 0. -1.
          4    1    6    6  502    0  0.23252862322E+03  0.24826243560E+03  0.90490687376E+02  0.35198346843E+03  0.00000000000E+00 0. -1.
          3    1    5    5  503    0 -0.10809903826E+03 -0.70529885581E+02 -0.46248274234E+03  0.48015638473E+03  0.00000000000E+00 0. -1.
         -4    1    5    5    0  503  0.19534419275E+01 -0.40300589679E+02 -0.10591426827E+03  0.11333925043E+03  0.00000000000E+00 0.  1.
         -3    1    6    6    0  502  0.41337518014E+02  0.48754471967E+02  0.56519493087E+02  0.85324334343E+02  0.00000000000E+00 0.  1.
<mgrwt>
<rscale>  0 0.13165246E+04</rscale>
<asrwt>0</asrwt>
<pdfrwt beam="1">  1        2 0.19837225E+00 0.13165246E+04</pdfrwt>
<pdfrwt beam="2">  1       -2 0.51699974E-01 0.13165246E+04</pdfrwt>
<totfact> 0.57999633E+01</totfact>
</mgrwt>
</event>
<event>
12    1  0.1489025E-007  0.1553910E+04  0.7818608E-02  0.8849374E-01
          1   -1    0    0  501    0  0.00000000000E+00  0.00000000000E+00  0.51689352328E+03  0.51689352328E+03  0.00000000000E+00 0. -1.
         -1   -1    0    0    0  501 -0.00000000000E+00 -0.00000000000E+00 -0.11678594883E+04  0.11678594883E+04  0.00000000000E+00 0.  1.
         23    2    1    2    0    0 -0.32711904274E+03  0.20315151330E+03  0.14776895563E+03  0.42206355663E+03  0.89579998383E+02 0.  0.
        254    2    1    2    0    0  0.32711904274E+03 -0.20315151330E+03 -0.79873492066E+03  0.12626894550E+04  0.89896038883E+03 0.  0.
        -24    2    4    4    0    0  0.60265917678E+03 -0.29332747116E+03 -0.59019096205E+03  0.89656452445E+03  0.79142189289E+02 0.  0.
         24    2    4    4    0    0 -0.27554013403E+03  0.90175957865E+02 -0.20854395861E+03  0.36612493050E+03  0.80640022463E+02 0.  0.
         13    1    3    3    0    0 -0.31447719108E+03  0.21004087625E+03  0.15117710267E+03  0.40726844927E+03  0.00000000000E+00 0. -1.
        -13    1    3    3    0    0 -0.12641851666E+02 -0.68893629542E+01 -0.34081470407E+01  0.14795107358E+02  0.00000000000E+00 0.  1.
          4    1    6    6  502    0 -0.14647243237E+03  0.49887096180E+02 -0.15969089043E+03  0.22236023992E+03  0.00000000000E+00 0. -1.
          3    1    5    5  503    0  0.40464759940E+03 -0.21252182183E+03 -0.35543888090E+03  0.57900086572E+03  0.00000000000E+00 0. -1.
         -4    1    5    5    0  503  0.19801157738E+03 -0.80805649333E+02 -0.23475208115E+03  0.31756365873E+03  0.00000000000E+00 0.  1.
         -3    1    6    6    0  502 -0.12906770166E+03  0.40288861684E+02 -0.48853068178E+02  0.14376469058E+03  0.00000000000E+00 0.  1.
<mgrwt>
<rscale>  0 0.15539099E+04</rscale>
<asrwt>0</asrwt>
<pdfrwt beam="1">  1        1 0.79522082E-01 0.15539099E+04</pdfrwt>
<pdfrwt beam="2">  1       -1 0.17967069E+00 0.15539099E+04</pdfrwt>
<totfact> 0.85285343E+00</totfact>
</mgrwt>
</event>
<event>
12    1  0.1489025E-007  0.1245936E+04  0.7818608E-02  0.9073573E-01
          2   -1    0    0  501    0  0.00000000000E+00  0.00000000000E+00  0.96896849781E+03  0.96896849781E+03  0.00000000000E+00 0. -1.
         -2   -1    0    0    0  501 -0.00000000000E+00 -0.00000000000E+00 -0.40051770666E+03  0.40051770666E+03  0.00000000000E+00 0.  1.
         23    2    1    2    0    0 -0.23450055217E+03 -0.51719989355E+02  0.27214497432E+03  0.37382997575E+03  0.89557230038E+02 0.  0.
        254    2    1    2    0    0  0.23450055217E+03  0.51719989355E+02  0.29630581682E+03  0.99565622872E+03  0.91971121687E+03 0.  0.
        -24    2    4    4    0    0  0.14338696535E+03  0.42726161525E+03 -0.61644126016E+02  0.46153276438E+03  0.78103678682E+02 0.  0.
         24    2    4    4    0    0  0.91113586819E+02 -0.37554162589E+03  0.35794994283E+03  0.53412346434E+03  0.88467593531E+02 0.  0.
         11    1    3    3    0    0  0.32176042202E+01  0.10123951552E+02  0.10022591869E+02  0.14604784138E+02  0.00000000000E+00 0.  1.
        -11    1    3    3    0    0 -0.23771815639E+03 -0.61843940907E+02  0.26212238246E+03  0.35922519161E+03  0.00000000000E+00 0. -1.
          4    1    6    6  502    0  0.50408722798E+02 -0.13407839403E+03  0.18667186303E+03  0.23529649281E+03  0.00000000000E+00 0. -1.
          3    1    5    5  503    0  0.11684962088E+03  0.39548478207E+03 -0.72552396733E+02  0.41871935353E+03  0.00000000000E+00 0. -1.
         -4    1    5    5    0  503  0.26537344471E+02  0.31776833183E+02  0.10908270716E+02  0.42813410851E+02  0.00000000000E+00 0.  1.
         -3    1    6    6    0  502  0.40704864020E+02 -0.24146323186E+03  0.17127807980E+03  0.29882697154E+03  0.00000000000E+00 0.  1.
<mgrwt>
<rscale>  0 0.12459359E+04</rscale>
<asrwt>0</asrwt>
<pdfrwt beam="1">  1        2 0.14907208E+00 0.12459359E+04</pdfrwt>
<pdfrwt beam="2">  1       -2 0.61618109E-01 0.12459359E+04</pdfrwt>
<totfact> 0.63539663E+01</totfact>
</mgrwt>
</event>
<event>
12    1  0.1489025E-007  0.2970105E+04  0.7818608E-02  0.8252320E-01
         -1   -1    0    0    0  501 -0.00000000000E+00  0.00000000000E+00  0.12421324738E+04  0.12421324738E+04  0.00000000000E+00 0.  1.
          1   -1    0    0  501    0  0.00000000000E+00 -0.00000000000E+00 -0.17754793826E+04  0.17754793826E+04  0.00000000000E+00 0. -1.
         23    2    1    2    0    0 -0.19757462630E+03  0.12944000973E+04  0.66317048093E+02  0.13140777529E+04  0.88854065050E+02 0.  0.
        254    2    1    2    0    0  0.19757462630E+03 -0.12944000973E+04 -0.59966395683E+03  0.17035341035E+04  0.90990342124E+03 0.  0.
        -24    2    4    4    0    0  0.18627911777E+03 -0.17444394535E+03  0.19344409942E+03  0.32882112817E+03  0.74646600390E+02 0.  0.
         24    2    4    4    0    0  0.11295508526E+02 -0.11199561519E+04 -0.79310805625E+03  0.13747129754E+04  0.79912483185E+02 0.  0.
         11    1    3    3    0    0 -0.78326353167E+02  0.69529190059E+03  0.57927329659E+00  0.69969006008E+03  0.00000000000E+00 0. -1.
        -11    1    3    3    0    0 -0.11924827313E+03  0.59910819670E+03  0.65737774797E+02  0.61438769278E+03  0.00000000000E+00 0.  1.
          4    1    6    6  502    0  0.40763884721E+02 -0.35527431942E+03 -0.25462018291E+03  0.43899085854E+03  0.00000000000E+00 0. -1.
          3    1    5    5  503    0  0.64613034645E+02 -0.71670633374E+02  0.11845932007E+03  0.15278787401E+03  0.00000000000E+00 0. -1.
         -4    1    5    5    0  503  0.12166608312E+03 -0.10277331197E+03  0.74984779346E+02  0.17603325416E+03  0.00000000000E+00 0.  1.
         -3    1    6    6    0  502 -0.29468376194E+02 -0.76468183252E+03 -0.53848787334E+03  0.93572211682E+03  0.00000000000E+00 0.  1.
<mgrwt>
<rscale>  0 0.29701048E+04</rscale>
<asrwt>0</asrwt>
<pdfrwt beam="1">  1        1 0.27315067E+00 0.29701048E+04</pdfrwt>
<pdfrwt beam="2">  1       -1 0.19109730E+00 0.29701048E+04</pdfrwt>
<totfact> 0.62708807E-01</totfact>
</mgrwt>
</event>
<event>
12    1  0.1489025E-007  0.1898023E+04  0.7818608E-02  0.8655841E-01
          1   -1    0    0  501    0  0.00000000000E+00  0.00000000000E+00  0.24249550139E+04  0.24249550139E+04  0.00000000000E+00 0. -1.
         -1   -1    0    0    0  501 -0.00000000000E+00 -0.00000000000E+00 -0.37139785197E+03  0.37139785197E+03  0.00000000000E+00 0.  1.
         23    2    1    2    0    0  0.65190710765E+03  0.11746350700E+03  0.33815071966E+03  0.74938314956E+03  0.91916500958E+02 0.  0.
        254    2    1    2    0    0 -0.65190710765E+03 -0.11746350700E+03  0.17154064423E+04  0.20469697163E+04  0.89926926160E+03 0.  0.
        -24    2    4    4    0    0  0.70231711016E+02 -0.13461709905E+03 -0.13404970075E+02  0.17163423638E+03  0.78894621403E+02 0.  0.
         24    2    4    4    0    0 -0.72213881867E+03  0.17153592055E+02  0.17288114124E+04  0.18753354800E+04  0.79470395101E+02 0.  0.
         13    1    3    3    0    0  0.54720947516E+03  0.10243192000E+03  0.24422503125E+03  0.60792793473E+03  0.00000000000E+00 0.  1.
        -13    1    3    3    0    0  0.10469763250E+03  0.15031586997E+02  0.93925688415E+02  0.14145521483E+03  0.00000000000E+00 0. -1.
          4    1    6    6  502    0 -0.25739197203E+03  0.20068619527E+01  0.71663271878E+03  0.76145722689E+03  0.00000000000E+00 0. -1.
          1    1    5    5  503    0  0.63075858670E+02 -0.13711172771E+03 -0.29558226305E+02  0.15379167262E+03  0.00000000000E+00 0. -1.
         -2    1    5    5    0  503  0.71558523463E+01  0.24946286615E+01  0.16153256229E+02  0.17842563767E+02  0.00000000000E+00 0.  1.
         -3    1    6    6    0  502 -0.46474684664E+03  0.15146730102E+02  0.10121786936E+04  0.11138782531E+04  0.00000000000E+00 0.  1.
<mgrwt>
<rscale>  0 0.18980233E+04</rscale>
<asrwt>0</asrwt>
<pdfrwt beam="1">  1        1 0.37306999E+00 0.18980233E+04</pdfrwt>
<pdfrwt beam="2">  1       -1 0.57138133E-01 0.18980233E+04</pdfrwt>
<totfact> 0.44341923E+00</totfact>
</mgrwt>
</event>
<event>
12    1  0.1524716E-007  0.1997217E+04  0.7818608E-02  0.8607923E-01
         -1   -1    0    0    0  501 -0.00000000000E+00  0.00000000000E+00  0.75535722120E+03  0.75535722120E+03  0.00000000000E+00 0.  1.
          1   -1    0    0  501    0  0.00000000000E+00 -0.00000000000E+00 -0.13201956548E+04  0.13201956548E+04  0.00000000000E+00 0. -1.
         23    2    1    2    0    0  0.19947119546E+03 -0.78334730129E+02  0.56781924080E+03  0.61364242394E+03  0.90626963278E+02 0.  0.
        254    2    1    2    0    0 -0.19947119546E+03  0.78334730129E+02 -0.11326576744E+04  0.14619104521E+04  0.89907934840E+03 0.  0.
        -24    2    4    4    0    0 -0.50014221127E+02 -0.24031725877E+02  0.14214471718E+03  0.17204527930E+03  0.79470191542E+02 0.  0.
         24    2    4    4    0    0 -0.14945697433E+03  0.10236645601E+03 -0.12748023916E+04  0.12898651728E+04  0.76254493955E+02 0.  0.
         11    1    3    3    0    0  0.24480067574E+02 -0.37966925665E+02  0.19024651148E+03  0.19553643211E+03  0.00000000000E+00 0. -1.
        -11    1    3    3    0    0  0.17499112788E+03 -0.40367804464E+02  0.37757272932E+03  0.41810599183E+03  0.00000000000E+00 0.  1.
          2    1    6    6  502    0 -0.53808224469E+02  0.76655151086E+01 -0.22511874195E+03  0.23158698823E+03  0.00000000000E+00 0. -1.
          1    1    5    5  503    0  0.13226381992E+02  0.15380791509E+02  0.47017346314E+02  0.51206804064E+02  0.00000000000E+00 0. -1.
         -2    1    5    5    0  503 -0.63240603118E+02 -0.39412517386E+02  0.95127370863E+02  0.12083847523E+03  0.00000000000E+00 0.  1.
         -1    1    6    6    0  502 -0.95648749860E+02  0.94700940898E+02 -0.10496836497E+04  0.10582781846E+04  0.00000000000E+00 0.  1.
<mgrwt>
<rscale>  0 0.19972174E+04</rscale>
<asrwt>0</asrwt>
<pdfrwt beam="1">  1        1 0.20310702E+00 0.19972174E+04</pdfrwt>
<pdfrwt beam="2">  1       -1 0.11620880E+00 0.19972174E+04</pdfrwt>
<totfact> 0.54346530E+00</totfact>
</mgrwt>
</event>
<event>
12    1  0.1489025E-007  0.3286096E+04  0.7818608E-02  0.8166442E-01
          2   -1    0    0  501    0  0.00000000000E+00  0.00000000000E+00  0.25503577455E+04  0.25503577455E+04  0.00000000000E+00 0. -1.
         -2   -1    0    0    0  501 -0.00000000000E+00 -0.00000000000E+00 -0.10585208508E+04  0.10585208508E+04  0.00000000000E+00 0.  1.
         23    2    1    2    0    0  0.67932468046E+02  0.10303161069E+04  0.19185371999E+04  0.21811626330E+04  0.10256385223E+03 0.  0.
        254    2    1    2    0    0 -0.67932468046E+02 -0.10303161069E+04 -0.42670030524E+03  0.14277159633E+04  0.88889460630E+03 0.  0.
        -24    2    4    4    0    0 -0.60242345250E+02 -0.34424476818E+03 -0.61475224086E+03  0.71186538128E+03  0.81843770978E+02 0.  0.
         24    2    4    4    0    0 -0.76901227965E+01 -0.68607133870E+03  0.18805193562E+03  0.71585058203E+03  0.79533046758E+02 0.  0.
         13    1    3    3    0    0  0.50889148430E+02  0.10075140033E+04  0.18747630098E+04  0.21289458695E+04  0.00000000000E+00 0. -1.
        -13    1    3    3    0    0  0.17043319616E+02  0.22802103583E+02  0.43774190169E+02  0.52216763556E+02  0.00000000000E+00 0.  1.
          4    1    6    6  502    0 -0.73547744748E+01 -0.27325031403E+03  0.35045344945E+02  0.27558665248E+03  0.00000000000E+00 0. -1.
          1    1    5    5  503    0  0.26640778599E+01 -0.14846557116E+03 -0.31639623660E+03  0.34950779915E+03  0.00000000000E+00 0. -1.
         -2    1    5    5    0  503 -0.62906423110E+02 -0.19577919701E+03 -0.29835600427E+03  0.36235758214E+03  0.00000000000E+00 0.  1.
         -3    1    6    6    0  502 -0.33534832172E+00 -0.41282102467E+03  0.15300659068E+03  0.44026392955E+03  0.00000000000E+00 0.  1.
<mgrwt>
<rscale>  0 0.32860961E+04</rscale>
<asrwt>0</asrwt>
<pdfrwt beam="1">  1        2 0.39236273E+00 0.32860961E+04</pdfrwt>
<pdfrwt beam="2">  1       -2 0.16284936E+00 0.32860961E+04</pdfrwt>
<totfact> 0.65291377E-01</totfact>
</mgrwt>
</event>
<event>
12    1  0.1489025E-007  0.2298769E+04  0.7818608E-02  0.8478407E-01
         -1   -1    0    0    0  501 -0.00000000000E+00  0.00000000000E+00  0.94430672033E+03  0.94430672033E+03  0.00000000000E+00 0.  1.
          1   -1    0    0  501    0  0.00000000000E+00 -0.00000000000E+00 -0.13989996031E+04  0.13989996031E+04  0.00000000000E+00 0. -1.
         23    2    1    2    0    0  0.84560699248E+03 -0.49228109056E+03 -0.17235591183E+03  0.99785493215E+03  0.92822666558E+02 0.  0.
        254    2    1    2    0    0 -0.84560699248E+03  0.49228109056E+03 -0.28233697096E+03  0.13454513913E+04  0.87928005967E+03 0.  0.
        -24    2    4    4    0    0  0.97668900822E+02  0.15754312848E+02 -0.25513939048E+03  0.28525119569E+03  0.80527780976E+02 0.  0.
         24    2    4    4    0    0 -0.94327589330E+03  0.47652677771E+03 -0.27197580480E+02  0.10602001956E+04  0.80234441655E+02 0.  0.
         11    1    3    3    0    0  0.13303838370E+03 -0.95473052022E+02  0.22663847950E+01  0.16376645475E+03  0.00000000000E+00 0.  1.
        -11    1    3    3    0    0  0.71256860877E+03 -0.39680803854E+03 -0.17462229662E+03  0.83408847740E+03  0.00000000000E+00 0. -1.
          2    1    6    6  502    0 -0.69803569806E+03  0.38926935099E+03 -0.94664337754E+01  0.79929598820E+03  0.00000000000E+00 0. -1.
          3    1    5    5  503    0  0.10350019242E+03  0.32275714518E+02 -0.20138501704E+03  0.22871365649E+03  0.00000000000E+00 0. -1.
         -4    1    5    5    0  503 -0.58312915971E+01 -0.16521401670E+02 -0.53754373443E+02  0.56537539202E+02  0.00000000000E+00 0.  1.
         -1    1    6    6    0  502 -0.24524019524E+03  0.87257426722E+02 -0.17731146705E+02  0.26090420741E+03  0.00000000000E+00 0.  1.
<mgrwt>
<rscale>  0 0.22987690E+04</rscale>
<asrwt>0</asrwt>
<pdfrwt beam="1">  1        1 0.21523071E+00 0.22987690E+04</pdfrwt>
<pdfrwt beam="2">  1       -1 0.14527796E+00 0.22987690E+04</pdfrwt>
<totfact> 0.26445531E+00</totfact>
</mgrwt>
</event>
<event>
12    1  0.1489025E-007  0.1783812E+04  0.7818608E-02  0.8714955E-01
          2   -1    0    0  501    0  0.00000000000E+00  0.00000000000E+00  0.24666444464E+04  0.24666444464E+04  0.00000000000E+00 0. -1.
         -2   -1    0    0    0  501 -0.00000000000E+00 -0.00000000000E+00 -0.32250157318E+03  0.32250157318E+03  0.00000000000E+00 0.  1.
         23    2    1    2    0    0  0.41735076313E+03  0.42446488957E+03  0.96846170970E+03  0.11405223840E+04  0.92309930819E+02 0.  0.
        254    2    1    2    0    0 -0.41735076313E+03 -0.42446488957E+03  0.11756811635E+04  0.16486236356E+04  0.99064705700E+03 0.  0.
        -24    2    4    4    0    0 -0.24935387811E+03 -0.16789852103E+02  0.11718388340E+04  0.12008537717E+04  0.79901641337E+02 0.  0.
         24    2    4    4    0    0 -0.16799688502E+03 -0.40767503746E+03  0.38423295143E+01  0.44776986394E+03  0.77853696169E+02 0.  0.
         11    1    3    3    0    0  0.36951734103E+03  0.32536869977E+03  0.79004850394E+03  0.93090520177E+03  0.00000000000E+00 0. -1.
        -11    1    3    3    0    0  0.47833422106E+02  0.99096189800E+02  0.17841320577E+03  0.20961718225E+03  0.00000000000E+00 0.  1.
          2    1    6    6  502    0 -0.16268886431E+03 -0.31202854522E+03  0.61628956499E+01  0.35194809402E+03  0.00000000000E+00 0. -1.
          3    1    5    5  503    0 -0.21526754540E+03 -0.42557480080E+02  0.96215821989E+03  0.98686356469E+03  0.00000000000E+00 0. -1.
         -4    1    5    5    0  503 -0.34086332717E+02  0.25767627977E+02  0.20968061414E+03  0.21399020696E+03  0.00000000000E+00 0.  1.
         -1    1    6    6    0  502 -0.53080207053E+01 -0.95646492242E+02 -0.23205661356E+01  0.95821769912E+02  0.00000000000E+00 0.  1.
<mgrwt>
<rscale>  0 0.17838125E+04</rscale>
<asrwt>0</asrwt>
<pdfrwt beam="1">  1        2 0.37948375E+00 0.17838125E+04</pdfrwt>
<pdfrwt beam="2">  1       -2 0.49615628E-01 0.17838125E+04</pdfrwt>
<totfact> 0.13240444E+01</totfact>
</mgrwt>
</event>
<event>
12    1  0.1489025E-007  0.1545793E+04  0.7818608E-02  0.8854559E-01
          4   -1    0    0  501    0  0.00000000000E+00  0.00000000000E+00  0.89705101571E+03  0.89705101571E+03  0.00000000000E+00 0. -1.
         -4   -1    0    0    0  501 -0.00000000000E+00 -0.00000000000E+00 -0.66592525111E+03  0.66592525111E+03  0.00000000000E+00 0.  1.
         23    2    1    2    0    0 -0.85877578955E+02  0.14459748960E+02  0.58148015392E+03  0.59587640425E+03  0.96775393731E+02 0.  0.
        254    2    1    2    0    0  0.85877578955E+02 -0.14459748960E+02 -0.35035438932E+03  0.96709986258E+03  0.89719000394E+03 0.  0.
        -24    2    4    4    0    0 -0.29019692251E+02  0.13763904295E+03 -0.61219849775E+03  0.63297625482E+03  0.78008267771E+02 0.  0.
         24    2    4    4    0    0  0.11489727121E+03 -0.15209879191E+03  0.26184410843E+03  0.33412360775E+03  0.82102513390E+02 0.  0.
         11    1    3    3    0    0 -0.53668572656E+02  0.55003197824E+02  0.30090140861E+03  0.31055969662E+03  0.00000000000E+00 0.  1.
        -11    1    3    3    0    0 -0.32209006299E+02 -0.40543448864E+02  0.28057874531E+03  0.28531670763E+03  0.00000000000E+00 0. -1.
          2    1    6    6  502    0  0.10345862639E+03 -0.12235697020E+03  0.15617111655E+03  0.22375060486E+03  0.00000000000E+00 0. -1.
          1    1    5    5  503    0 -0.48303838240E+02  0.44637589564E+02 -0.23972811114E+03  0.24858669003E+03  0.00000000000E+00 0. -1.
         -2    1    5    5    0  503  0.19284145989E+02  0.93001453389E+02 -0.37247038661E+03  0.38438956479E+03  0.00000000000E+00 0.  1.
         -1    1    6    6    0  502  0.11438644816E+02 -0.29741821712E+02  0.10567299188E+03  0.11037300289E+03  0.00000000000E+00 0.  1.
<mgrwt>
<rscale>  0 0.15457929E+04</rscale>
<asrwt>0</asrwt>
<pdfrwt beam="1">  1        4 0.13800785E+00 0.15457929E+04</pdfrwt>
<pdfrwt beam="2">  1       -4 0.10245004E+00 0.15457929E+04</pdfrwt>
<totfact> 0.55662346E-01</totfact>
</mgrwt>
</event>
<event>
12    1  0.1489025E-007  0.1592646E+04  0.7818608E-02  0.8825078E-01
          1   -1    0    0  501    0  0.00000000000E+00  0.00000000000E+00  0.64498217300E+03  0.64498217300E+03  0.00000000000E+00 0. -1.
         -1   -1    0    0    0  501 -0.00000000000E+00 -0.00000000000E+00 -0.98317543532E+03  0.98317543532E+03  0.00000000000E+00 0.  1.
         23    2    1    2    0    0 -0.33884524934E+03 -0.38382621385E+03 -0.22436182459E+03  0.56582985521E+03  0.87672865131E+02 0.  0.
        254    2    1    2    0    0  0.33884524934E+03  0.38382621385E+03 -0.11383143773E+03  0.10623277531E+04  0.92382032527E+03 0.  0.
        -24    2    4    4    0    0  0.58150796908E+03  0.12711562217E+02 -0.16315718348E+03  0.60916193539E+03  0.78389381293E+02 0.  0.
         24    2    4    4    0    0 -0.24266271974E+03  0.37111465163E+03  0.49325745744E+02  0.45316581772E+03  0.79466653044E+02 0.  0.
         11    1    3    3    0    0 -0.31985294510E+03 -0.34822739848E+03 -0.18018126077E+03  0.50599754375E+03  0.00000000000E+00 0.  1.
        -11    1    3    3    0    0 -0.18992304233E+02 -0.35598815366E+02 -0.44180563825E+02  0.59832311467E+02  0.00000000000E+00 0. -1.
          4    1    6    6  502    0 -0.59415423238E+02  0.66817957234E+02  0.39677940203E+02  0.97822138937E+02  0.00000000000E+00 0. -1.
          3    1    5    5  503    0  0.10312094846E+03  0.53809734978E+01 -0.61003898290E+02  0.11993481769E+03  0.00000000000E+00 0. -1.
         -4    1    5    5    0  503  0.47838702061E+03  0.73305887194E+01 -0.10215328519E+03  0.48922711770E+03  0.00000000000E+00 0.  1.
         -3    1    6    6    0  502 -0.18324729650E+03  0.30429669440E+03  0.96478055413E+01  0.35534367878E+03  0.00000000000E+00 0.  1.
<mgrwt>
<rscale>  0 0.15926464E+04</rscale>
<asrwt>0</asrwt>
<pdfrwt beam="1">  1        1 0.99228027E-01 0.15926464E+04</pdfrwt>
<pdfrwt beam="2">  1       -1 0.15125776E+00 0.15926464E+04</pdfrwt>
<totfact> 0.10090461E+01</totfact>
</mgrwt>
</event>
<event>
12    1  0.1489025E-007  0.1364892E+04  0.7818608E-02  0.8979631E-01
         -2   -1    0    0    0  501 -0.00000000000E+00  0.00000000000E+00  0.30101051600E+03  0.30101051600E+03  0.00000000000E+00 0.  1.
          2   -1    0    0  501    0  0.00000000000E+00 -0.00000000000E+00 -0.15472310434E+04  0.15472310434E+04  0.00000000000E+00 0. -1.
         23    2    1    2    0    0 -0.10444360447E+03  0.18810436584E+03 -0.77718981793E+03  0.81112198305E+03  0.87195982271E+02 0.  0.
        254    2    1    2    0    0  0.10444360447E+03 -0.18810436584E+03 -0.46903070946E+03  0.10371195763E+04  0.89963075217E+03 0.  0.
        -24    2    4    4    0    0  0.19010102657E+03 -0.49463231853E+03 -0.46385789820E+03  0.70876235856E+03  0.79877408347E+02 0.  0.
         24    2    4    4    0    0 -0.85657422092E+02  0.30652795269E+03 -0.51728112673E+01  0.32835721778E+03  0.80592336811E+02 0.  0.
         11    1    3    3    0    0 -0.36988784383E+02  0.14849206352E+03 -0.54704414176E+03  0.56804520606E+03  0.00000000000E+00 0.  1.
        -11    1    3    3    0    0 -0.67454820090E+02  0.39612302318E+02 -0.23014567617E+03  0.24307677699E+03  0.00000000000E+00 0. -1.
          2    1    6    6  502    0 -0.45689690587E+01  0.15561697130E+03 -0.17129956697E+02  0.15662360184E+03  0.00000000000E+00 0. -1.
          3    1    5    5  503    0  0.48325520444E+02 -0.67398549790E+02 -0.47417368149E+02  0.95531812723E+02  0.00000000000E+00 0. -1.
         -4    1    5    5    0  503  0.14177550612E+03 -0.42723376874E+03 -0.41644053005E+03  0.61323054584E+03  0.00000000000E+00 0.  1.
         -1    1    6    6    0  502 -0.81088453034E+02  0.15091098138E+03  0.11957145429E+02  0.17173361594E+03  0.00000000000E+00 0.  1.
<mgrwt>
<rscale>  0 0.13648924E+04</rscale>
<asrwt>0</asrwt>
<pdfrwt beam="1">  1        2 0.23803554E+00 0.13648924E+04</pdfrwt>
<pdfrwt beam="2">  1       -2 0.46309311E-01 0.13648924E+04</pdfrwt>
<totfact> 0.51488718E+01</totfact>
</mgrwt>
</event>
<event>
12    1  0.1489025E-007  0.2481481E+04  0.7818608E-02  0.8409613E-01
          1   -1    0    0  501    0  0.00000000000E+00  0.00000000000E+00  0.85943946498E+03  0.85943946498E+03  0.00000000000E+00 0. -1.
         -1   -1    0    0    0  501 -0.00000000000E+00 -0.00000000000E+00 -0.17912106410E+04  0.17912106410E+04  0.00000000000E+00 0.  1.
         23    2    1    2    0    0 -0.60838465676E+03 -0.13981330873E+03  0.48853446548E+03  0.79797349888E+03  0.91739462988E+02 0.  0.
        254    2    1    2    0    0  0.60838465676E+03  0.13981330873E+03 -0.14203056415E+04  0.18526766071E+04  0.10126513928E+04 0.  0.
        -24    2    4    4    0    0  0.87147327571E+03  0.22234583717E+03 -0.10836005302E+04  0.14103778754E+04  0.77924969728E+02 0.  0.
         24    2    4    4    0    0 -0.26308861895E+03 -0.82532528442E+02 -0.33670511135E+03  0.44229873169E+03  0.78934126791E+02 0.  0.
         13    1    3    3    0    0 -0.35360402180E+03 -0.10833221920E+03  0.24145643644E+03  0.44167056122E+03  0.00000000000E+00 0. -1.
        -13    1    3    3    0    0 -0.25478063496E+03 -0.31481089532E+02  0.24707802905E+03  0.35630293766E+03  0.00000000000E+00 0.  1.
          4    1    6    6  502    0 -0.18790234509E+03 -0.51799046613E+02 -0.17773845228E+03  0.26378284618E+03  0.00000000000E+00 0. -1.
          3    1    5    5  503    0  0.70241103881E+03  0.20990070237E+03 -0.88960774579E+03  0.11527538825E+04  0.00000000000E+00 0. -1.
         -4    1    5    5    0  503  0.16906223690E+03  0.12445134800E+02 -0.19399278437E+03  0.25762399289E+03  0.00000000000E+00 0.  1.
         -3    1    6    6    0  502 -0.75186273856E+02 -0.30733481830E+02 -0.15896665907E+03  0.17851588551E+03  0.00000000000E+00 0.  1.
<mgrwt>
<rscale>  0 0.24814811E+04</rscale>
<asrwt>0</asrwt>
<pdfrwt beam="1">  1        1 0.13222146E+00 0.24814811E+04</pdfrwt>
<pdfrwt beam="2">  1       -1 0.27557087E+00 0.24814811E+04</pdfrwt>
<totfact> 0.83195509E-01</totfact>
</mgrwt>
</event>
<event>
12    1  0.1924329E-007  0.2243747E+04  0.7818608E-02  0.8500437E-01
          1   -1    0    0  501    0  0.00000000000E+00  0.00000000000E+00  0.14970630906E+04  0.14970630906E+04  0.00000000000E+00 0. -1.
         -1   -1    0    0    0  501 -0.00000000000E+00 -0.00000000000E+00 -0.84071295195E+03  0.84071295195E+03  0.00000000000E+00 0.  1.
         23    2    1    2    0    0 -0.91347014882E+03  0.88169232575E+02  0.68520716453E+02  0.92468037180E+03  0.90206291589E+02 0.  0.
        254    2    1    2    0    0  0.91347014882E+03 -0.88169232575E+02  0.58782942216E+03  0.14130956707E+04  0.89949675858E+03 0.  0.
        -24    2    4    4    0    0  0.38300427577E+03  0.17188274644E+03 -0.15970760735E+03  0.45676306774E+03  0.83006183042E+02 0.  0.
         24    2    4    4    0    0  0.53046587305E+03 -0.26005197902E+03  0.74753702950E+03  0.95633260298E+03  0.82093622009E+02 0.  0.
         13    1    3    3    0    0 -0.35068769334E+03  0.39136485581E+02  0.70117003547E+02  0.35976369599E+03  0.00000000000E+00 0.  1.
        -13    1    3    3    0    0 -0.56278245548E+03  0.49032746994E+02 -0.15962870944E+01  0.56491667581E+03  0.00000000000E+00 0. -1.
          4    1    6    6  502    0  0.35161260049E+03 -0.14185621063E+03  0.43104380726E+03  0.57406739073E+03  0.00000000000E+00 0. -1.
          1    1    5    5  503    0  0.31075235447E+03  0.14239252234E+03 -0.16291056224E+03  0.37865882733E+03  0.00000000000E+00 0. -1.
         -2    1    5    5    0  503  0.72251921308E+02  0.29490224098E+02  0.32029548965E+01  0.78104240411E+02  0.00000000000E+00 0.  1.
         -3    1    6    6    0  502  0.17885327256E+03 -0.11819576839E+03  0.31649322225E+03  0.38226521225E+03  0.00000000000E+00 0.  1.
<mgrwt>
<rscale>  0 0.22437472E+04</rscale>
<asrwt>0</asrwt>
<pdfrwt beam="1">  1        1 0.23031740E+00 0.22437472E+04</pdfrwt>
<pdfrwt beam="2">  1       -1 0.12934045E+00 0.22437472E+04</pdfrwt>
<totfact> 0.30666371E+00</totfact>
</mgrwt>
</event>
<event>
12    1  0.1489025E-007  0.1576219E+04  0.7818608E-02  0.8835292E-01
          1   -1    0    0  501    0  0.00000000000E+00  0.00000000000E+00  0.39483279343E+03  0.39483279343E+03  0.00000000000E+00 0. -1.
         -1   -1    0    0    0  501 -0.00000000000E+00 -0.00000000000E+00 -0.15731129453E+04  0.15731129453E+04  0.00000000000E+00 0.  1.
         23    2    1    2    0    0 -0.84910968645E+02 -0.46721604324E+03 -0.14257675521E+03  0.50431454827E+03  0.92218917874E+02 0.  0.
        254    2    1    2    0    0  0.84910968645E+02  0.46721604324E+03 -0.10357033966E+04  0.14636311904E+04  0.91871324808E+03 0.  0.
        -24    2    4    4    0    0  0.42106954112E+03  0.46915332260E+03 -0.87792289789E+03  0.10834925694E+04  0.76178308873E+02 0.  0.
         24    2    4    4    0    0 -0.33615857248E+03 -0.19372793613E+01 -0.15778049874E+03  0.38013862104E+03  0.81267130658E+02 0.  0.
         11    1    3    3    0    0 -0.75701156538E+02 -0.45997794141E+03 -0.12403855232E+03  0.48238566951E+03  0.00000000000E+00 0. -1.
        -11    1    3    3    0    0 -0.92098121068E+01 -0.72381018236E+01 -0.18538202893E+02  0.21928878757E+02  0.00000000000E+00 0.  1.
          2    1    6    6  502    0 -0.61776572350E+02 -0.27761321033E+02 -0.13495969399E+02  0.69059228397E+02  0.00000000000E+00 0. -1.
          3    1    5    5  503    0  0.16999923082E+03  0.15128441017E+03 -0.27195595659E+03  0.35460788706E+03  0.00000000000E+00 0. -1.
         -4    1    5    5    0  503  0.25107031030E+03  0.31786891243E+03 -0.60596694130E+03  0.72888468234E+03  0.00000000000E+00 0.  1.
         -1    1    6    6    0  502 -0.27438200013E+03  0.25824041672E+02 -0.14428452934E+03  0.31107939265E+03  0.00000000000E+00 0.  1.
<mgrwt>
<rscale>  0 0.15762190E+04</rscale>
<asrwt>0</asrwt>
<pdfrwt beam="1">  1        1 0.60743507E-01 0.15762190E+04</pdfrwt>
<pdfrwt beam="2">  1       -1 0.24201737E+00 0.15762190E+04</pdfrwt>
<totfact> 0.46164399E+00</totfact>
</mgrwt>
</event>
<event>
12    1  0.1489025E-007  0.1341804E+04  0.7818608E-02  0.8997056E-01
         -1   -1    0    0    0  501 -0.00000000000E+00  0.00000000000E+00  0.95704448765E+03  0.95704448765E+03  0.00000000000E+00 0.  1.
          1   -1    0    0  501    0  0.00000000000E+00 -0.00000000000E+00 -0.47031187131E+03  0.47031187131E+03  0.00000000000E+00 0. -1.
         23    2    1    2    0    0 -0.11658300813E+03  0.33759338269E+03  0.49063880126E+02  0.37072508487E+03  0.86422996937E+02 0.  0.
        254    2    1    2    0    0  0.11658300813E+03 -0.33759338269E+03  0.43766873622E+03  0.10566312741E+04  0.89294727555E+03 0.  0.
        -24    2    4    4    0    0 -0.34643541577E+03 -0.10362977587E+03  0.37405834409E+03  0.52632491967E+03  0.79634468312E+02 0.  0.
         24    2    4    4    0    0  0.46301842389E+03 -0.23396360682E+03  0.63610392132E+02  0.53030635443E+03  0.89741391666E+02 0.  0.
         13    1    3    3    0    0  0.12886581671E+01  0.25826953593E+02  0.25926947981E+02  0.36618285096E+02  0.00000000000E+00 0. -1.
        -13    1    3    3    0    0 -0.11787166629E+03  0.31176642909E+03  0.23136932145E+02  0.33410679977E+03  0.00000000000E+00 0.  1.
          2    1    6    6  502    0  0.19676342868E+03 -0.53568967267E+02  0.40151960782E+02  0.20784047025E+03  0.00000000000E+00 0. -1.
          1    1    5    5  503    0 -0.18283496658E+02 -0.34593205222E+01 -0.18470627378E+00  0.18608795365E+02  0.00000000000E+00 0. -1.
         -2    1    5    5    0  503 -0.32815191911E+03 -0.10017045534E+03  0.37424305036E+03  0.50771612431E+03  0.00000000000E+00 0.  1.
         -1    1    6    6    0  502  0.26625499521E+03 -0.18039463955E+03  0.23458431350E+02  0.32246588417E+03  0.00000000000E+00 0.  1.
<mgrwt>
<rscale>  0 0.13418038E+04</rscale>
<asrwt>0</asrwt>
<pdfrwt beam="1">  1        1 0.72355673E-01 0.13418038E+04</pdfrwt>
<pdfrwt beam="2">  1       -1 0.14723761E+00 0.13418038E+04</pdfrwt>
<totfact> 0.17322605E+01</totfact>
</mgrwt>
</event>
<event>
12    1  0.1489025E-007  0.1882841E+04  0.7818608E-02  0.8663445E-01
          2   -1    0    0  501    0  0.00000000000E+00  0.00000000000E+00  0.18502158069E+04  0.18502158069E+04  0.00000000000E+00 0. -1.
         -2   -1    0    0    0  501 -0.00000000000E+00 -0.00000000000E+00 -0.47901020211E+03  0.47901020211E+03  0.00000000000E+00 0.  1.
         23    2    1    2    0    0  0.25711603607E+03 -0.44983008698E+01 -0.30802327803E+03  0.41053538999E+03  0.86787533182E+02 0.  0.
        254    2    1    2    0    0 -0.25711603607E+03  0.44983008698E+01  0.16792288828E+04  0.19186906190E+04  0.89187171715E+03 0.  0.
        -24    2    4    4    0    0  0.16691002356E+03 -0.32348850339E+03  0.85032646881E+03  0.92844224100E+03  0.80287754511E+02 0.  0.
         24    2    4    4    0    0 -0.42402605963E+03  0.32798680426E+03  0.82890241399E+03  0.99024837798E+03  0.78353016349E+02 0.  0.
         13    1    3    3    0    0  0.73062893620E+01 -0.19055794715E+02 -0.15777874588E+02  0.25796249785E+02  0.00000000000E+00 0. -1.
        -13    1    3    3    0    0  0.24980974670E+03  0.14557493845E+02 -0.29224540344E+03  0.38473914021E+03  0.00000000000E+00 0.  1.
          4    1    6    6  502    0 -0.29791631356E+00  0.42729778301E+01  0.26373138177E+02  0.26718710878E+02  0.00000000000E+00 0. -1.
          1    1    5    5  503    0  0.68799665082E+02 -0.11039837080E+03  0.40086323022E+03  0.42144100836E+03  0.00000000000E+00 0. -1.
         -2    1    5    5    0  503  0.98110358481E+02 -0.21309013259E+03  0.44946323859E+03  0.50700123264E+03  0.00000000000E+00 0.  1.
         -3    1    6    6    0  502 -0.42372814331E+03  0.32371382643E+03  0.80252927581E+03  0.96352966711E+03  0.00000000000E+00 0.  1.
<mgrwt>
<rscale>  0 0.18828407E+04</rscale>
<asrwt>0</asrwt>
<pdfrwt beam="1">  1        2 0.28464858E+00 0.18828407E+04</pdfrwt>
<pdfrwt beam="2">  1       -2 0.73693878E-01 0.18828407E+04</pdfrwt>
<totfact> 0.12598508E+01</totfact>
</mgrwt>
</event>
<event>
12    1  0.1489025E-007  0.2119668E+04  0.7818608E-02  0.8552629E-01
         -2   -1    0    0    0  501 -0.00000000000E+00  0.00000000000E+00  0.53798776453E+03  0.53798776453E+03  0.00000000000E+00 0.  1.
          2   -1    0    0  501    0  0.00000000000E+00 -0.00000000000E+00 -0.20878689706E+04  0.20878689706E+04  0.00000000000E+00 0. -1.
         23    2    1    2    0    0 -0.76079379861E+03 -0.18504207751E+03 -0.11163538808E+04  0.13665594873E+04  0.90504533678E+02 0.  0.
        254    2    1    2    0    0  0.76079379861E+03  0.18504207751E+03 -0.43352732525E+03  0.12592972478E+04  0.88590961290E+03 0.  0.
        -24    2    4    4    0    0  0.28536723683E+02  0.38888523881E+03 -0.40609880720E+02  0.40005817047E+03  0.79695067489E+02 0.  0.
         24    2    4    4    0    0  0.73225707493E+03 -0.20384316130E+03 -0.39291744453E+03  0.85923907737E+03  0.78455182573E+02 0.  0.
         13    1    3    3    0    0 -0.45561229801E+03 -0.12972987860E+03 -0.74319717771E+03  0.88133674181E+03  0.00000000000E+00 0. -1.
        -13    1    3    3    0    0 -0.30518150060E+03 -0.55312198915E+02 -0.37315670312E+03  0.48522274549E+03  0.00000000000E+00 0.  1.
          4    1    6    6  502    0  0.12244416981E+03 -0.65080749585E+02 -0.66789311468E+02  0.15391195799E+03  0.00000000000E+00 0. -1.
          1    1    5    5  503    0  0.31390549769E+02  0.20209031958E+03  0.15215055404E+02  0.20507891601E+03  0.00000000000E+00 0. -1.
         -2    1    5    5    0  503 -0.28538260866E+01  0.18679491924E+03 -0.55824936124E+02  0.19497925446E+03  0.00000000000E+00 0.  1.
         -3    1    6    6    0  502  0.60981290512E+03 -0.13876241172E+03 -0.32612813306E+03  0.70532711938E+03  0.00000000000E+00 0.  1.
<mgrwt>
<rscale>  0 0.21196679E+04</rscale>
<asrwt>0</asrwt>
<pdfrwt beam="1">  1        2 0.32121061E+00 0.21196679E+04</pdfrwt>
<pdfrwt beam="2">  1       -2 0.82767349E-01 0.21196679E+04</pdfrwt>
<totfact> 0.70284950E+00</totfact>
</mgrwt>
</event>
<event>
12    1  0.1489025E-007  0.1287935E+04  0.7818608E-02  0.9039188E-01
         -2   -1    0    0    0  501 -0.00000000000E+00  0.00000000000E+00  0.32675793204E+03  0.32675793204E+03  0.00000000000E+00 0.  1.
          2   -1    0    0  501    0  0.00000000000E+00 -0.00000000000E+00 -0.12691171176E+04  0.12691171176E+04  0.00000000000E+00 0. -1.
         23    2    1    2    0    0  0.25671222480E+03  0.15781645427E+03 -0.11175301586E+03  0.33394521050E+03  0.90683336186E+02 0.  0.
        254    2    1    2    0    0 -0.25671222480E+03 -0.15781645427E+03 -0.83060616968E+03  0.12619298391E+04  0.90097342366E+03 0.  0.
        -24    2    4    4    0    0  0.17913596900E+03 -0.25569770333E+03 -0.72674139515E+03  0.79509213965E+03  0.80916279068E+02 0.  0.
         24    2    4    4    0    0 -0.43584819380E+03  0.97881249061E+02 -0.10386477452E+03  0.46683769947E+03  0.87207564448E+02 0.  0.
         11    1    3    3    0    0  0.24503788335E+03  0.16964034985E+03 -0.10455812027E+03  0.31583827046E+03  0.00000000000E+00 0. -1.
        -11    1    3    3    0    0  0.11674341446E+02 -0.11823895580E+02 -0.71948955869E+01  0.18106940034E+02  0.00000000000E+00 0.  1.
          4    1    6    6  502    0 -0.41351710389E+02  0.64468186993E+00 -0.36152477899E+02  0.54930694744E+02  0.00000000000E+00 0. -1.
          3    1    5    5  503    0  0.14442752585E+02 -0.20420640006E+02 -0.19343149003E+02  0.31618871799E+02  0.00000000000E+00 0. -1.
         -4    1    5    5    0  503  0.16469321642E+03 -0.23527706333E+03 -0.70739824615E+03  0.76347326785E+03  0.00000000000E+00 0.  1.
         -3    1    6    6    0  502 -0.39449648341E+03  0.97236567191E+02 -0.67712296626E+02  0.41190700472E+03  0.00000000000E+00 0.  1.
<mgrwt>
<rscale>  0 0.12879349E+04</rscale>
<asrwt>0</asrwt>
<pdfrwt beam="1">  1        2 0.19524879E+00 0.12879349E+04</pdfrwt>
<pdfrwt beam="2">  1       -2 0.50270451E-01 0.12879349E+04</pdfrwt>
<totfact> 0.63262214E+01</totfact>
</mgrwt>
</event>
<event>
12    1  0.1489025E-007  0.1449907E+04  0.7818608E-02  0.8918465E-01
          3   -1    0    0  501    0  0.00000000000E+00  0.00000000000E+00  0.34943028553E+03  0.34943028553E+03  0.00000000000E+00 0. -1.
         -3   -1    0    0    0  501 -0.00000000000E+00 -0.00000000000E+00 -0.15040415635E+04  0.15040415635E+04  0.00000000000E+00 0.  1.
         23    2    1    2    0    0  0.30095526448E+03 -0.29452273449E+03 -0.19612405812E+03  0.47311170647E+03  0.89734766282E+02 0.  0.
        254    2    1    2    0    0 -0.30095526448E+03  0.29452273449E+03 -0.95848721986E+03  0.13803601426E+04  0.89965474501E+03 0.  0.
        -24    2    4    4    0    0  0.86028665781E+02  0.52354379903E+03 -0.49743333050E+03  0.73176745691E+03  0.80899022603E+02 0.  0.
         24    2    4    4    0    0 -0.38698393026E+03 -0.22902106454E+03 -0.46105388937E+03  0.64859268567E+03  0.76776120766E+02 0.  0.
         13    1    3    3    0    0  0.30193344694E+03 -0.26807283209E+03 -0.17959357965E+03  0.44190576319E+03  0.00000000000E+00 0. -1.
        -13    1    3    3    0    0 -0.97818246239E+00 -0.26449902403E+02 -0.16530478468E+02  0.31205943287E+02  0.00000000000E+00 0.  1.
          2    1    6    6  502    0 -0.39007681782E+03 -0.22986914119E+03 -0.45925912981E+03  0.64491758712E+03  0.00000000000E+00 0. -1.
          3    1    5    5  503    0  0.82425274459E+02  0.31587928839E+03 -0.26878416861E+03  0.42286945977E+03  0.00000000000E+00 0. -1.
         -4    1    5    5    0  503  0.36033913216E+01  0.20766451064E+03 -0.22864916188E+03  0.30889799714E+03  0.00000000000E+00 0.  1.
         -1    1    6    6    0  502  0.30928875570E+01  0.84807664779E+00 -0.17947595565E+01  0.36750985437E+01  0.00000000000E+00 0.  1.
<mgrwt>
<rscale>  0 0.14499071E+04</rscale>
<asrwt>0</asrwt>
<pdfrwt beam="1">  1        3 0.53758506E-01 0.14499071E+04</pdfrwt>
<pdfrwt beam="2">  1       -3 0.23139101E+00 0.14499071E+04</pdfrwt>
<totfact> 0.81754754E-01</totfact>
</mgrwt>
</event>
<event>
12    1  0.1489025E-007  0.2684613E+04  0.7818608E-02  0.8340015E-01
         -1   -1    0    0    0  501 -0.00000000000E+00  0.00000000000E+00  0.14262293967E+04  0.14262293967E+04  0.00000000000E+00 0.  1.
          1   -1    0    0  501    0  0.00000000000E+00 -0.00000000000E+00 -0.12633217110E+04  0.12633217110E+04  0.00000000000E+00 0. -1.
         23    2    1    2    0    0  0.72309463327E+03 -0.59244405717E+03  0.81078494618E+03  0.12417946881E+04  0.10404810807E+03 0.  0.
        254    2    1    2    0    0 -0.72309463327E+03  0.59244405717E+03 -0.64787726051E+03  0.14477564196E+04  0.89576665288E+03 0.  0.
        -24    2    4    4    0    0 -0.70365520313E+03  0.32077226590E+03 -0.41409520414E+02  0.77830102253E+03  0.77538647250E+02 0.  0.
         24    2    4    4    0    0 -0.19439430136E+02  0.27167179127E+03 -0.60646774009E+03  0.66945539712E+03  0.78638129081E+02 0.  0.
         11    1    3    3    0    0  0.69471541780E+02 -0.27535128006E+02  0.87596666563E+02  0.11514188805E+03  0.00000000000E+00 0. -1.
        -11    1    3    3    0    0  0.65362309149E+03 -0.56490892917E+03  0.72318827961E+03  0.11266528000E+04  0.00000000000E+00 0.  1.
          2    1    6    6  502    0 -0.49848293686E+02  0.18468053791E+03 -0.40344132098E+03  0.44649373226E+03  0.00000000000E+00 0. -1.
          3    1    5    5  503    0 -0.27389566323E+03  0.16079700949E+03  0.26684270095E+01  0.31761869136E+03  0.00000000000E+00 0. -1.
         -4    1    5    5    0  503 -0.42975953990E+03  0.15997525641E+03 -0.44077947423E+02  0.46068233117E+03  0.00000000000E+00 0.  1.
         -1    1    6    6    0  502  0.30408863549E+02  0.86991253361E+02 -0.20302641911E+03  0.22296166487E+03  0.00000000000E+00 0.  1.
<mgrwt>
<rscale>  0 0.26846129E+04</rscale>
<asrwt>0</asrwt>
<pdfrwt beam="1">  1        1 0.19435719E+00 0.26846129E+04</pdfrwt>
<pdfrwt beam="2">  1       -1 0.21941991E+00 0.26846129E+04</pdfrwt>
<totfact> 0.93312574E-01</totfact>
</mgrwt>
</event>
<event>
12    1  0.1489025E-007  0.1499147E+04  0.7818608E-02  0.8885021E-01
         -2   -1    0    0    0  501 -0.00000000000E+00  0.00000000000E+00  0.15358486288E+03  0.15358486288E+03  0.00000000000E+00 0.  1.
          2   -1    0    0  501    0  0.00000000000E+00 -0.00000000000E+00 -0.36583038351E+04  0.36583038351E+04  0.00000000000E+00 0. -1.
         23    2    1    2    0    0  0.31331814985E+03  0.30982972142E+03 -0.71013879712E+03  0.84062996432E+03  0.90547813054E+02 0.  0.
        254    2    1    2    0    0 -0.31331814985E+03 -0.30982972142E+03 -0.27945801751E+04  0.29712587337E+04  0.90804041098E+03 0.  0.
        -24    2    4    4    0    0  0.22649232126E+03  0.81728349433E+02 -0.14073815225E+04  0.14300464056E+04  0.79571838397E+02 0.  0.
         24    2    4    4    0    0 -0.53981047111E+03 -0.39155807085E+03 -0.13871986526E+04  0.15412123281E+04  0.79386843678E+02 0.  0.
         11    1    3    3    0    0  0.21123590381E+03  0.22627745435E+03 -0.56685219285E+03  0.64586647378E+03  0.00000000000E+00 0. -1.
        -11    1    3    3    0    0  0.10208224604E+03  0.83552267065E+02 -0.14328660426E+03  0.19476349055E+03  0.00000000000E+00 0.  1.
          2    1    6    6  502    0 -0.31911570246E+03 -0.23474636074E+03 -0.73294960606E+03  0.83316013494E+03  0.00000000000E+00 0. -1.
          3    1    5    5  503    0  0.21008507246E+03  0.84388948331E+02 -0.13763238615E+04  0.13948206351E+04  0.00000000000E+00 0. -1.
         -2    1    5    5    0  503  0.16407248798E+02 -0.26605988981E+01 -0.31057661016E+02  0.35225770501E+02  0.00000000000E+00 0.  1.
         -1    1    6    6    0  502 -0.22069476865E+03 -0.15681171011E+03 -0.65424904652E+03  0.70805219314E+03  0.00000000000E+00 0.  1.
<mgrwt>
<rscale>  0 0.14991465E+04</rscale>
<asrwt>0</asrwt>
<pdfrwt beam="1">  1        2 0.56281599E+00 0.14991465E+04</pdfrwt>
<pdfrwt beam="2">  1       -2 0.23628440E-01 0.14991465E+04</pdfrwt>
<totfact> 0.97799467E+00</totfact>
</mgrwt>
</event>
<event>
12    1  0.1489025E-007  0.1774481E+04  0.7818608E-02  0.8719989E-01
          1   -1    0    0  501    0  0.00000000000E+00  0.00000000000E+00  0.14908451146E+04  0.14908451146E+04  0.00000000000E+00 0. -1.
         -1   -1    0    0    0  501 -0.00000000000E+00 -0.00000000000E+00 -0.52802003975E+03  0.52802003975E+03  0.00000000000E+00 0.  1.
         23    2    1    2    0    0  0.28058791519E+03 -0.33010815647E+03  0.91410651801E+03  0.10155101149E+04  0.89269782611E+02 0.  0.
        254    2    1    2    0    0 -0.28058791519E+03  0.33010815647E+03  0.48718556801E+02  0.10033550394E+04  0.90368515767E+03 0.  0.
        -24    2    4    4    0    0  0.87183109687E+02  0.55222175496E+03  0.14177003382E+02  0.56491519357E+03  0.79865056386E+02 0.  0.
         24    2    4    4    0    0 -0.36777102487E+03 -0.22211359849E+03  0.34541553419E+02  0.43843984583E+03  0.80289489504E+02 0.  0.
         11    1    3    3    0    0  0.28527358677E+03 -0.33160011065E+03  0.90344140466E+03  0.10037659211E+04  0.00000000000E+00 0. -1.
        -11    1    3    3    0    0 -0.46856715871E+01  0.14919541805E+01  0.10665113353E+02  0.11744193814E+02  0.00000000000E+00 0.  1.
          4    1    6    6  502    0 -0.11581374394E+03 -0.39000009429E+02 -0.14762624807E+02  0.12309248195E+03  0.00000000000E+00 0. -1.
          3    1    5    5  503    0 -0.12090524766E+02  0.32038507040E+02  0.86304593846E+01  0.35314749775E+02  0.00000000000E+00 0. -1.
         -2    1    5    5    0  503  0.99273634452E+02  0.52018324792E+03  0.55465439970E+01  0.52960044379E+03  0.00000000000E+00 0.  1.
         -3    1    6    6    0  502 -0.25195728093E+03 -0.18311358906E+03  0.49304178226E+02  0.31534736388E+03  0.00000000000E+00 0.  1.
<mgrwt>
<rscale>  0 0.17744814E+04</rscale>
<asrwt>0</asrwt>
<pdfrwt beam="1">  1        1 0.22936079E+00 0.17744814E+04</pdfrwt>
<pdfrwt beam="2">  1       -1 0.81233853E-01 0.17744814E+04</pdfrwt>
<totfact> 0.94764925E+00</totfact>
</mgrwt>
</event>
<event>
12    1  0.1489025E-007  0.1783031E+04  0.7818608E-02  0.8715376E-01
         -1   -1    0    0    0  501 -0.00000000000E+00  0.00000000000E+00  0.94674488489E+03  0.94674488489E+03  0.00000000000E+00 0.  1.
          1   -1    0    0  501    0  0.00000000000E+00 -0.00000000000E+00 -0.83950814258E+03  0.83950814258E+03  0.00000000000E+00 0. -1.
         23    2    1    2    0    0  0.23077214785E+03 -0.14440428660E+03  0.63475574903E+03  0.69652058709E+03  0.90098197011E+02 0.  0.
        254    2    1    2    0    0 -0.23077214785E+03  0.14440428660E+03 -0.52751900672E+03  0.10897324404E+04  0.91385562698E+03 0.  0.
        -24    2    4    4    0    0 -0.54139027915E+03  0.28385262105E+02 -0.12492629950E+03  0.56215032903E+03  0.80605549795E+02 0.  0.
         24    2    4    4    0    0  0.31061813130E+03  0.11601902449E+03 -0.40259270722E+03  0.52758211135E+03  0.79485588494E+02 0.  0.
         11    1    3    3    0    0  0.57060636069E+02 -0.20024052901E+01  0.82480488087E+02  0.10031428976E+03  0.00000000000E+00 0. -1.
        -11    1    3    3    0    0  0.17371151178E+03 -0.14240188131E+03  0.55227526094E+03  0.59620629733E+03  0.00000000000E+00 0.  1.
          4    1    6    6  502    0  0.29086193694E+03  0.84167736982E+02 -0.34702443540E+03  0.46055491862E+03  0.00000000000E+00 0. -1.
          1    1    5    5  503    0 -0.21419686194E+03  0.40109562216E+02 -0.22394203515E+02  0.21906750786E+03  0.00000000000E+00 0. -1.
         -2    1    5    5    0  503 -0.32719341721E+03 -0.11724300111E+02 -0.10253209598E+03  0.34308282117E+03  0.00000000000E+00 0.  1.
         -3    1    6    6    0  502  0.19756194362E+02  0.31851287509E+02 -0.55568271823E+02  0.67027192729E+02  0.00000000000E+00 0.  1.
<mgrwt>
<rscale>  0 0.17830312E+04</rscale>
<asrwt>0</asrwt>
<pdfrwt beam="1">  1        1 0.12915510E+00 0.17830312E+04</pdfrwt>
<pdfrwt beam="2">  1       -1 0.14565306E+00 0.17830312E+04</pdfrwt>
<totfact> 0.72937868E+00</totfact>
</mgrwt>
</event>
<event>
12    1  0.1489025E-007  0.2434718E+04  0.7818608E-02  0.8426619E-01
          2   -1    0    0  501    0  0.00000000000E+00  0.00000000000E+00  0.12105945083E+04  0.12105945083E+04  0.00000000000E+00 0. -1.
         -2   -1    0    0    0  501 -0.00000000000E+00 -0.00000000000E+00 -0.12241609577E+04  0.12241609577E+04  0.00000000000E+00 0.  1.
         23    2    1    2    0    0 -0.43715753997E+03 -0.88524245278E+03  0.33565829376E+03  0.10467884106E+04  0.91315778556E+02 0.  0.
        254    2    1    2    0    0  0.43715753997E+03  0.88524245278E+03 -0.34922474322E+03  0.13879670554E+04  0.91089720092E+03 0.  0.
        -24    2    4    4    0    0  0.23087644389E+02  0.32388714916E+03 -0.56231145271E+03  0.65446504644E+03  0.81819328128E+02 0.  0.
         24    2    4    4    0    0  0.41406989558E+03  0.56135530362E+03  0.21308670949E+03  0.73350200896E+03  0.77753431133E+02 0.  0.
         11    1    3    3    0    0 -0.43446307662E+03 -0.87832244255E+03  0.32237236060E+03  0.10315679410E+04  0.00000000000E+00 0. -1.
        -11    1    3    3    0    0 -0.26944633480E+01 -0.69200102268E+01  0.13285933157E+02  0.15220469577E+02  0.00000000000E+00 0.  1.
          2    1    6    6  502    0  0.21664902626E+02  0.22394064213E+02  0.27283270416E+02  0.41415443525E+02  0.00000000000E+00 0. -1.
          3    1    5    5  503    0  0.91194237874E+01  0.20934066333E+03 -0.28197105442E+03  0.35130378982E+03  0.00000000000E+00 0. -1.
         -4    1    5    5    0  503  0.13968220601E+02  0.11454648583E+03 -0.28034039829E+03  0.30316125662E+03  0.00000000000E+00 0.  1.
         -1    1    6    6    0  502  0.39240499295E+03  0.53896123941E+03  0.18580343907E+03  0.69208656543E+03  0.00000000000E+00 0.  1.
<mgrwt>
<rscale>  0 0.24347177E+04</rscale>
<asrwt>0</asrwt>
<pdfrwt beam="1">  1        2 0.18624531E+00 0.24347177E+04</pdfrwt>
<pdfrwt beam="2">  1       -2 0.18833246E+00 0.24347177E+04</pdfrwt>
<totfact> 0.26623066E+00</totfact>
</mgrwt>
</event>
<event>
12    1  0.1489025E-007  0.1387530E+04  0.7818608E-02  0.8962895E-01
          2   -1    0    0  501    0  0.00000000000E+00  0.00000000000E+00  0.26256145493E+04  0.26256145493E+04  0.00000000000E+00 0. -1.
         -2   -1    0    0    0  501 -0.00000000000E+00 -0.00000000000E+00 -0.18331313107E+03  0.18331313107E+03  0.00000000000E+00 0.  1.
         23    2    1    2    0    0  0.25176715062E+02 -0.27072264465E+02  0.14556729860E+04  0.14588035183E+04  0.88074334087E+02 0.  0.
        254    2    1    2    0    0 -0.25176715062E+02  0.27072264465E+02  0.98662843222E+03  0.13501241621E+04  0.92088697202E+03 0.  0.
        -24    2    4    4    0    0  0.20052387131E+03 -0.11187195565E+03  0.10400239011E+04  0.10680754139E+04  0.80063833193E+02 0.  0.
         24    2    4    4    0    0 -0.22570058637E+03  0.13894422011E+03 -0.53395468900E+02  0.28204874819E+03  0.80337844557E+02 0.  0.
         11    1    3    3    0    0  0.11319163269E+02 -0.15194388096E+02  0.58100741470E+02  0.61112102288E+02  0.00000000000E+00 0.  1.
        -11    1    3    3    0    0  0.13857551794E+02 -0.11877876370E+02  0.13975722445E+04  0.13976914160E+04  0.00000000000E+00 0. -1.
          2    1    6    6  502    0 -0.87184604503E+02  0.54425445731E+02 -0.61158104369E+02  0.11959765104E+03  0.00000000000E+00 0. -1.
          1    1    5    5  503    0  0.96006618332E+02 -0.86927523475E+02  0.68542053686E+03  0.69754926525E+03  0.00000000000E+00 0. -1.
         -2    1    5    5    0  503  0.10451725297E+03 -0.24944432173E+02  0.35460336426E+03  0.37052614862E+03  0.00000000000E+00 0.  1.
         -1    1    6    6    0  502 -0.13851598187E+03  0.84518774382E+02  0.77626354692E+01  0.16245109715E+03  0.00000000000E+00 0.  1.
<mgrwt>
<rscale>  0 0.13875296E+04</rscale>
<asrwt>0</asrwt>
<pdfrwt beam="1">  1        2 0.40394067E+00 0.13875296E+04</pdfrwt>
<pdfrwt beam="2">  1       -2 0.28202022E-01 0.13875296E+04</pdfrwt>
<totfact> 0.33103176E+01</totfact>
</mgrwt>
</event>
<event>
12    1  0.1489025E-007  0.2022228E+04  0.7818608E-02  0.8596298E-01
         -1   -1    0    0    0  501 -0.00000000000E+00  0.00000000000E+00  0.76415210763E+03  0.76415210763E+03  0.00000000000E+00 0.  1.
          1   -1    0    0  501    0  0.00000000000E+00 -0.00000000000E+00 -0.13378897250E+04  0.13378897250E+04  0.00000000000E+00 0. -1.
         23    2    1    2    0    0 -0.85164825693E+02  0.54509184205E+03  0.37810160852E+03  0.67516881042E+03  0.92270972652E+02 0.  0.
        254    2    1    2    0    0  0.85164825693E+02 -0.54509184205E+03 -0.95183922594E+03  0.14268730223E+04  0.90862013284E+03 0.  0.
        -24    2    4    4    0    0 -0.55702187514E+02  0.22015788690E+03 -0.40962506682E+03  0.47513072418E+03  0.79901694814E+02 0.  0.
         24    2    4    4    0    0  0.14086701321E+03 -0.76524972895E+03 -0.54221415911E+03  0.95174229807E+03  0.79790629349E+02 0.  0.
         13    1    3    3    0    0 -0.51642853419E+02  0.16794603300E+03  0.78998184769E+02  0.19264881912E+03  0.00000000000E+00 0.  1.
        -13    1    3    3    0    0 -0.33521972275E+02  0.37714580904E+03  0.29910342375E+03  0.48251999130E+03  0.00000000000E+00 0. -1.
          2    1    6    6  502    0  0.10478429617E+02 -0.16549242772E+02 -0.27755778975E+01  0.19783294878E+02  0.00000000000E+00 0. -1.
          1    1    5    5  503    0 -0.24723878680E+02  0.15340199041E+03 -0.33999228151E+03  0.37381571974E+03  0.00000000000E+00 0. -1.
         -2    1    5    5    0  503 -0.30978308835E+02  0.66755896494E+02 -0.69632785314E+02  0.10131500444E+03  0.00000000000E+00 0.  1.
         -1    1    6    6    0  502  0.13038858359E+03 -0.74870048617E+03 -0.53943858122E+03  0.93195900319E+03  0.00000000000E+00 0.  1.
<mgrwt>
<rscale>  0 0.20222277E+04</rscale>
<asrwt>0</asrwt>
<pdfrwt beam="1">  1        1 0.20582919E+00 0.20222277E+04</pdfrwt>
<pdfrwt beam="2">  1       -1 0.11756186E+00 0.20222277E+04</pdfrwt>
<totfact> 0.51226478E+00</totfact>
</mgrwt>
</event>
<event>
12    1  0.1489025E-007  0.1493238E+04  0.7818608E-02  0.8888962E-01
         -1   -1    0    0    0  501 -0.00000000000E+00  0.00000000000E+00  0.82946076682E+03  0.82946076682E+03  0.00000000000E+00 0.  1.
          1   -1    0    0  501    0  0.00000000000E+00 -0.00000000000E+00 -0.67205096297E+03  0.67205096297E+03  0.00000000000E+00 0. -1.
         23    2    1    2    0    0  0.20395593137E+03 -0.51468004693E+02  0.49775798958E+03  0.54801544731E+03  0.91164339816E+02 0.  0.
        254    2    1    2    0    0 -0.20395593137E+03  0.51468004693E+02 -0.34034818573E+03  0.95349628248E+03  0.86548905004E+03 0.  0.
        -24    2    4    4    0    0  0.22935979619E+03 -0.67538057213E+02  0.14224681593E+03  0.28924344019E+03  0.79122094084E+02 0.  0.
         24    2    4    4    0    0 -0.43331572755E+03  0.11900606191E+03 -0.48259500166E+03  0.66425284229E+03  0.80055857682E+02 0.  0.
         11    1    3    3    0    0  0.20681759706E+03 -0.41339908798E+02  0.49346824038E+03  0.53665017542E+03  0.00000000000E+00 0.  1.
        -11    1    3    3    0    0 -0.28616656910E+01 -0.10128095895E+02  0.42897491976E+01  0.11365271891E+02  0.00000000000E+00 0. -1.
          2    1    6    6  502    0 -0.39156189406E+03  0.86334373632E+02 -0.44650618577E+03  0.60011841739E+03  0.00000000000E+00 0. -1.
          3    1    5    5  503    0  0.23558138051E+03 -0.68403457773E+02  0.13650639850E+03  0.28073406760E+03  0.00000000000E+00 0. -1.
         -4    1    5    5    0  503 -0.62215843256E+01  0.86540055964E+00  0.57404174237E+01  0.85093725884E+01  0.00000000000E+00 0.  1.
         -1    1    6    6    0  502 -0.41753833489E+02  0.32671688274E+02 -0.36088815889E+02  0.64134424905E+02  0.00000000000E+00 0.  1.
<mgrwt>
<rscale>  0 0.14932380E+04</rscale>
<asrwt>0</asrwt>
<pdfrwt beam="1">  1        1 0.10339246E+00 0.14932380E+04</pdfrwt>
<pdfrwt beam="2">  1       -1 0.12760935E+00 0.14932380E+04</pdfrwt>
<totfact> 0.14908312E+01</totfact>
</mgrwt>
</event>
<event>
12    1  0.1489025E-007  0.2095367E+04  0.7818608E-02  0.8563287E-01
         -1   -1    0    0    0  501 -0.00000000000E+00  0.00000000000E+00  0.15764165141E+04  0.15764165141E+04  0.00000000000E+00 0.  1.
          1   -1    0    0  501    0  0.00000000000E+00 -0.00000000000E+00 -0.69628884151E+03  0.69628884151E+03  0.00000000000E+00 0. -1.
         23    2    1    2    0    0 -0.73589573668E+03  0.47419412197E+03  0.64320316392E+03  0.10902384469E+04  0.92233185579E+02 0.  0.
        254    2    1    2    0    0  0.73589573668E+03 -0.47419412197E+03  0.23692450864E+03  0.11824669087E+04  0.75874380834E+03 0.  0.
        -24    2    4    4    0    0  0.88292541319E+03 -0.38008058988E+03  0.19257012485E+03  0.98364684086E+03  0.80369860615E+02 0.  0.
         24    2    4    4    0    0 -0.14702967651E+03 -0.94113532082E+02  0.44354383794E+02  0.19882006779E+03  0.84184471850E+02 0.  0.
         13    1    3    3    0    0 -0.29906325155E+03  0.20583545086E+03  0.32182058241E+03  0.48515517983E+03  0.00000000000E+00 0. -1.
        -13    1    3    3    0    0 -0.43683248513E+03  0.26835867111E+03  0.32138258151E+03  0.60508326710E+03  0.00000000000E+00 0.  1.
          2    1    6    6  502    0 -0.11090101159E+03 -0.10747467179E+03  0.27905347547E+02  0.15693485231E+03  0.00000000000E+00 0. -1.
          1    1    5    5  503    0  0.83246354073E+03 -0.33942269288E+03  0.18958984741E+03  0.91877506568E+03  0.00000000000E+00 0. -1.
         -2    1    5    5    0  503  0.50461872458E+02 -0.40657897008E+02  0.29802774391E+01  0.64871775178E+02  0.00000000000E+00 0.  1.
         -1    1    6    6    0  502 -0.36128664912E+02  0.13361139703E+02  0.16449036247E+02  0.41885215482E+02  0.00000000000E+00 0.  1.
<mgrwt>
<rscale>  0 0.20953675E+04</rscale>
<asrwt>0</asrwt>
<pdfrwt beam="1">  1        1 0.10712136E+00 0.20953675E+04</pdfrwt>
<pdfrwt beam="2">  1       -1 0.24252562E+00 0.20953675E+04</pdfrwt>
<totfact> 0.19717808E+00</totfact>
</mgrwt>
</event>
<event>
12    1  0.1489025E-007  0.2598637E+04  0.7818608E-02  0.8368664E-01
         -1   -1    0    0    0  501 -0.00000000000E+00  0.00000000000E+00  0.12272295492E+04  0.12272295492E+04  0.00000000000E+00 0.  1.
          1   -1    0    0  501    0  0.00000000000E+00 -0.00000000000E+00 -0.13756417000E+04  0.13756417000E+04  0.00000000000E+00 0. -1.
         23    2    1    2    0    0  0.31895748416E+03  0.10813684959E+04  0.81139582827E+02  0.11347913850E+04  0.10038005230E+03 0.  0.
        254    2    1    2    0    0 -0.31895748416E+03 -0.10813684959E+04 -0.22955173363E+03  0.14680798643E+04  0.91185129767E+03 0.  0.
        -24    2    4    4    0    0 -0.12584623179E+03 -0.11100707001E+04  0.46245586352E+02  0.11209798658E+04  0.79768239432E+02 0.  0.
         24    2    4    4    0    0 -0.19311125237E+03  0.28702204253E+02 -0.27579731999E+03  0.34709999849E+03  0.79362931641E+02 0.  0.
         11    1    3    3    0    0  0.16243894475E+03  0.58803036323E+03  0.92893419237E+02  0.61708614163E+03  0.00000000000E+00 0.  1.
        -11    1    3    3    0    0  0.15651853941E+03  0.49333813264E+03 -0.11753836410E+02  0.51770524332E+03  0.00000000000E+00 0. -1.
          4    1    6    6  502    0 -0.17947530039E+03  0.35299733451E+02 -0.20517484268E+03  0.27487118929E+03  0.00000000000E+00 0. -1.
          1    1    5    5  503    0 -0.37225960485E+02 -0.62847986643E+03  0.54264014953E+01  0.62960476529E+03  0.00000000000E+00 0. -1.
         -2    1    5    5    0  503 -0.88620271306E+02 -0.48159083369E+03  0.40819184857E+02  0.49137510055E+03  0.00000000000E+00 0.  1.
         -3    1    6    6    0  502 -0.13635951983E+02 -0.65975291978E+01 -0.70622477305E+02  0.72228809202E+02  0.00000000000E+00 0.  1.
<mgrwt>
<rscale>  0 0.25986367E+04</rscale>
<asrwt>0</asrwt>
<pdfrwt beam="1">  1        1 0.21163718E+00 0.25986367E+04</pdfrwt>
<pdfrwt beam="2">  1       -1 0.18880455E+00 0.25986367E+04</pdfrwt>
<totfact> 0.12683875E+00</totfact>
</mgrwt>
</event>
<event>
12    1  0.1489025E-007  0.1874165E+04  0.7818608E-02  0.8667824E-01
         -1   -1    0    0    0  501 -0.00000000000E+00  0.00000000000E+00  0.34906776455E+03  0.34906776455E+03  0.00000000000E+00 0.  1.
          1   -1    0    0  501    0  0.00000000000E+00 -0.00000000000E+00 -0.25156240000E+04  0.25156240000E+04  0.00000000000E+00 0. -1.
         23    2    1    2    0    0 -0.68529470867E+03  0.72050394073E+02 -0.11494771418E+04  0.13433096879E+04  0.91450101555E+02 0.  0.
        254    2    1    2    0    0  0.68529470867E+03 -0.72050394073E+02 -0.10170790936E+04  0.15213820766E+04  0.89740372372E+03 0.  0.
        -24    2    4    4    0    0 -0.12601154148E+03 -0.14741654544E+02  0.66488006586E+02  0.16425800202E+03  0.80397831082E+02 0.  0.
         24    2    4    4    0    0  0.81130625015E+03 -0.57308739529E+02 -0.10835671002E+04  0.13571240746E+04  0.78523690902E+02 0.  0.
         13    1    3    3    0    0 -0.24969199793E+03  0.47530207464E+02 -0.49998349863E+03  0.56088208507E+03  0.00000000000E+00 0.  1.
        -13    1    3    3    0    0 -0.43560271073E+03  0.24520186609E+02 -0.64949364320E+03  0.78242760286E+03  0.00000000000E+00 0. -1.
          4    1    6    6  502    0  0.39050689334E+03 -0.66030357842E+02 -0.51148995612E+03  0.64689845966E+03  0.00000000000E+00 0. -1.
          3    1    5    5  503    0  0.45043366317E+00  0.17936707045E+02  0.57058960232E+00  0.17951432327E+02  0.00000000000E+00 0. -1.
         -4    1    5    5    0  503 -0.12646197515E+03 -0.32678361589E+02  0.65917416984E+02  0.14630656969E+03  0.00000000000E+00 0.  1.
         -3    1    6    6    0  502  0.42079935681E+03  0.87216183128E+01 -0.57207714406E+03  0.71022561491E+03  0.00000000000E+00 0.  1.
<mgrwt>
<rscale>  0 0.18741646E+04</rscale>
<asrwt>0</asrwt>
<pdfrwt beam="1">  1        1 0.38701907E+00 0.18741646E+04</pdfrwt>
<pdfrwt beam="2">  1       -1 0.53702734E-01 0.18741646E+04</pdfrwt>
<totfact> 0.43392600E+00</totfact>
</mgrwt>
</event>
<event>
12    1  0.1489025E-007  0.1476104E+04  0.7818608E-02  0.8900501E-01
         -2   -1    0    0    0  501 -0.00000000000E+00  0.00000000000E+00  0.39299715182E+03  0.39299715182E+03  0.00000000000E+00 0.  1.
          2   -1    0    0  501    0  0.00000000000E+00 -0.00000000000E+00 -0.13860676202E+04  0.13860676202E+04  0.00000000000E+00 0. -1.
         23    2    1    2    0    0 -0.23048275131E+02  0.27392260595E+03  0.13091249698E+03  0.31966361381E+03  0.97375187240E+02 0.  0.
        254    2    1    2    0    0  0.23048275131E+02 -0.27392260595E+03 -0.11239829653E+04  0.14594011582E+04  0.88935325777E+03 0.  0.
        -24    2    4    4    0    0  0.32639120082E+03  0.12782657910E+03 -0.21726737386E+03  0.41917277611E+03  0.75032354244E+02 0.  0.
         24    2    4    4    0    0 -0.30334292569E+03 -0.40174918506E+03 -0.90671559145E+03  0.10402283821E+04  0.80762521029E+02 0.  0.
         13    1    3    3    0    0 -0.26207633649E+02  0.65021235244E+02 -0.52240219275E+01  0.70298588173E+02  0.00000000000E+00 0. -1.
        -13    1    3    3    0    0  0.31593585172E+01  0.20890137071E+03  0.13613651891E+03  0.24936502564E+03  0.00000000000E+00 0.  1.
          4    1    6    6  502    0 -0.76904877682E+02 -0.67732421098E+02 -0.23901716055E+03  0.26006007789E+03  0.00000000000E+00 0. -1.
          1    1    5    5  503    0  0.67636154184E+02  0.21155875381E+02 -0.11504850742E+02  0.71795417727E+02  0.00000000000E+00 0. -1.
         -2    1    5    5    0  503  0.25875504664E+03  0.10667070372E+03 -0.20576252312E+03  0.34737735838E+03  0.00000000000E+00 0.  1.
         -3    1    6    6    0  502 -0.22643804801E+03 -0.33401676396E+03 -0.66769843090E+03  0.78016830417E+03  0.00000000000E+00 0.  1.
<mgrwt>
<rscale>  0 0.14761038E+04</rscale>
<asrwt>0</asrwt>
<pdfrwt beam="1">  1        2 0.21324117E+00 0.14761038E+04</pdfrwt>
<pdfrwt beam="2">  1       -2 0.60461101E-01 0.14761038E+04</pdfrwt>
<totfact> 0.36351348E+01</totfact>
</mgrwt>
</event>
<event>
12    1  0.1489025E-007  0.2905054E+04  0.7818608E-02  0.8271375E-01
          2   -1    0    0  501    0  0.00000000000E+00  0.00000000000E+00  0.26309160494E+04  0.26309160494E+04  0.00000000000E+00 0.  1.
         -2   -1    0    0    0  501 -0.00000000000E+00 -0.00000000000E+00 -0.80193914351E+03  0.80193914351E+03  0.00000000000E+00 0. -1.
         23    2    1    2    0    0 -0.12182891571E+04  0.32301514029E+03  0.39888239299E+03  0.13250688845E+04  0.90183889811E+02 0.  0.
        254    2    1    2    0    0  0.12182891571E+04 -0.32301514029E+03  0.14300945129E+04  0.21077863084E+04  0.89945847868E+03 0.  0.
        -24    2    4    4    0    0  0.99120507438E+03 -0.11297327589E+03  0.14776722529E+04  0.17847503128E+04  0.81042775526E+02 0.  0.
         24    2    4    4    0    0  0.22708408275E+03 -0.21004186441E+03 -0.47577739914E+02  0.32303599569E+03  0.80024044732E+02 0.  0.
         11    1    3    3    0    0 -0.64356069419E+02  0.69596053395E+01  0.28522620750E+01  0.64794098315E+02  0.00000000000E+00 0.  1.
        -11    1    3    3    0    0 -0.11539330877E+04  0.31605553495E+03  0.39603013091E+03  0.12602747862E+04  0.00000000000E+00 0. -1.
          4    1    6    6  502    0  0.15059541297E+03 -0.10745823870E+03  0.40630567339E+01  0.18504799351E+03  0.00000000000E+00 0. -1.
          1    1    5    5  503    0  0.22909879135E+02  0.75507561238E+01  0.49557298243E+02  0.55116261568E+02  0.00000000000E+00 0. -1.
         -2    1    5    5    0  503  0.96829519525E+03 -0.12052403201E+03  0.14281149546E+04  0.17296340512E+04  0.00000000000E+00 0.  1.
         -3    1    6    6    0  502  0.76488669781E+02 -0.10258362570E+03 -0.51640796648E+02  0.13798800218E+03  0.00000000000E+00 0.  1.
<mgrwt>
<rscale>  0 0.29050539E+04</rscale>
<asrwt>0</asrwt>
<pdfrwt beam="1">  1        2 0.40475631E+00 0.29050539E+04</pdfrwt>
<pdfrwt beam="2">  1       -2 0.12337525E+00 0.29050539E+04</pdfrwt>
<totfact> 0.12470355E+00</totfact>
</mgrwt>
</event>
<event>
12    1  0.1489025E-007  0.1349381E+04  0.7818608E-02  0.8991297E-01
         -2   -1    0    0    0  501 -0.00000000000E+00  0.00000000000E+00  0.67824283122E+03  0.67824283122E+03  0.00000000000E+00 0.  1.
          2   -1    0    0  501    0  0.00000000000E+00 -0.00000000000E+00 -0.67115632070E+03  0.67115632070E+03  0.00000000000E+00 0. -1.
         23    2    1    2    0    0 -0.33840547774E+03  0.11272762663E+03  0.15480287745E+02  0.36878607123E+03  0.92399901796E+02 0.  0.
        254    2    1    2    0    0  0.33840547774E+03 -0.11272762663E+03 -0.83937772250E+01  0.98061308069E+03  0.91340340122E+03 0.  0.
        -24    2    4    4    0    0  0.25425527589E+03 -0.26718157053E+03 -0.39630276067E+03  0.54716044755E+03  0.79353262672E+02 0.  0.
         24    2    4    4    0    0  0.84150201847E+02  0.15445394390E+03  0.38790898345E+03  0.43345263314E+03  0.80439595221E+02 0.  0.
         11    1    3    3    0    0 -0.28326277237E+03  0.86913535462E+02 -0.22293958324E+02  0.29713428183E+03  0.00000000000E+00 0. -1.
        -11    1    3    3    0    0 -0.55142705366E+02  0.25814091171E+02  0.37774246069E+02  0.71651789400E+02  0.00000000000E+00 0.  1.
          2    1    6    6  502    0  0.82287337043E+02  0.13649927404E+03  0.38285690326E+03  0.41470792857E+03  0.00000000000E+00 0. -1.
          1    1    5    5  503    0  0.15603951534E+03 -0.14986756848E+03 -0.17578472318E+03  0.27876313840E+03  0.00000000000E+00 0. -1.
         -2    1    5    5    0  503  0.98215760557E+02 -0.11731400205E+03 -0.22051803749E+03  0.26839730915E+03  0.00000000000E+00 0.  1.
         -1    1    6    6    0  502  0.18628648044E+01  0.17954669859E+02  0.50520801925E+01  0.18744704566E+02  0.00000000000E+00 0.  1.
<mgrwt>
<rscale>  0 0.13493805E+04</rscale>
<asrwt>0</asrwt>
<pdfrwt beam="1">  1        2 0.10325482E+00 0.13493805E+04</pdfrwt>
<pdfrwt beam="2">  1       -2 0.10434505E+00 0.13493805E+04</pdfrwt>
<totfact> 0.31497079E+01</totfact>
</mgrwt>
</event>
<event>
12    1  0.1489025E-007  0.1330156E+04  0.7818608E-02  0.9005987E-01
          2   -1    0    0  501    0  0.00000000000E+00  0.00000000000E+00  0.30096362791E+04  0.30096362791E+04  0.00000000000E+00 0. -1.
         -2   -1    0    0    0  501 -0.00000000000E+00 -0.00000000000E+00 -0.14697089320E+03  0.14697089320E+03  0.00000000000E+00 0.  1.
         23    2    1    2    0    0  0.27387849935E+03 -0.73885331880E+02  0.12854887191E+04  0.13198545444E+04  0.95217103892E+02 0.  0.
        254    2    1    2    0    0 -0.27387849935E+03  0.73885331880E+02  0.15771766669E+04  0.18367526279E+04  0.89761099761E+03 0.  0.
        -24    2    4    4    0    0 -0.32811777898E+03  0.15225438636E+03  0.16525307510E+04  0.16935614762E+04  0.80311366880E+02 0.  0.
         24    2    4    4    0    0  0.54239279626E+02 -0.78369054476E+02 -0.75354084132E+02  0.14319115173E+03  0.75775060430E+02 0.  0.
         13    1    3    3    0    0  0.10438299425E+03 -0.84380557992E+01  0.66907089860E+03  0.67721700926E+03  0.00000000000E+00 0. -1.
        -13    1    3    3    0    0  0.16949550510E+03 -0.65447276081E+02  0.61641782045E+03  0.64263753514E+03  0.00000000000E+00 0.  1.
          2    1    6    6  502    0 -0.14998445607E+00  0.99769583538E+01  0.57404276445E+01  0.11511503067E+02  0.00000000000E+00 0. -1.
          1    1    5    5  503    0 -0.78628709506E+02  0.74280954309E+00  0.34658537804E+03  0.35539337360E+03  0.00000000000E+00 0. -1.
         -2    1    5    5    0  503 -0.24948906947E+03  0.15151157681E+03  0.13059453729E+04  0.13381681026E+04  0.00000000000E+00 0.  1.
         -1    1    6    6    0  502  0.54389264082E+02 -0.88346012829E+02 -0.81094511777E+02  0.13167964866E+03  0.00000000000E+00 0.  1.
<mgrwt>
<rscale>  0 0.13301563E+04</rscale>
<asrwt>0</asrwt>
<pdfrwt beam="1">  1        2 0.46302092E+00 0.13301563E+04</pdfrwt>
<pdfrwt beam="2">  1       -2 0.22610909E-01 0.13301563E+04</pdfrwt>
<totfact> 0.29191129E+01</totfact>
</mgrwt>
</event>
<event>
12    1  0.1489025E-007  0.1323657E+04  0.7818608E-02  0.9011013E-01
          1   -1    0    0  501    0  0.00000000000E+00  0.00000000000E+00  0.34196860292E+04  0.34196860292E+04  0.00000000000E+00 0. -1.
         -1   -1    0    0    0  501 -0.00000000000E+00 -0.00000000000E+00 -0.12808681568E+03  0.12808681568E+03  0.00000000000E+00 0.  1.
         23    2    1    2    0    0 -0.27418757915E+03  0.20505626295E+03  0.82078492117E+03  0.89414283020E+03  0.92610012691E+02 0.  0.
        254    2    1    2    0    0  0.27418757915E+03 -0.20505626295E+03  0.24708142924E+04  0.26536300147E+04  0.90531877697E+03 0.  0.
        -24    2    4    4    0    0 -0.80726171109E+02 -0.37732304338E+03  0.47495266466E+03  0.61759385148E+03  0.83383079554E+02 0.  0.
         24    2    4    4    0    0  0.35491375026E+03  0.17226678042E+03  0.19958616277E+04  0.20360361632E+04  0.79624161849E+02 0.  0.
         13    1    3    3    0    0 -0.26794931535E+02  0.63456747787E+02  0.13768013114E+03  0.15394981555E+03  0.00000000000E+00 0.  1.
        -13    1    3    3    0    0 -0.24739264761E+03  0.14159951516E+03  0.68310479003E+03  0.74019301466E+03  0.00000000000E+00 0. -1.
          2    1    6    6  502    0  0.32662381896E+03  0.17949848354E+03  0.18766762423E+04  0.19133260420E+04  0.00000000000E+00 0. -1.
          1    1    5    5  503    0 -0.65335686397E+02 -0.29034801629E+03  0.41563527952E+03  0.51119801258E+03  0.00000000000E+00 0. -1.
         -2    1    5    5    0  503 -0.15390484711E+02 -0.86975027087E+02  0.59317385137E+02  0.10639583890E+03  0.00000000000E+00 0.  1.
         -1    1    6    6    0  502  0.28289931295E+02 -0.72317031168E+01  0.11918538544E+03  0.12271012120E+03  0.00000000000E+00 0.  1.
<mgrwt>
<rscale>  0 0.13236566E+04</rscale>
<asrwt>0</asrwt>
<pdfrwt beam="1">  1        1 0.52610547E+00 0.13236566E+04</pdfrwt>
<pdfrwt beam="2">  1       -1 0.19705667E-01 0.13236566E+04</pdfrwt>
<totfact> 0.60342167E+00</totfact>
</mgrwt>
</event>
<event>
12    1  0.1489025E-007  0.1549329E+04  0.7818608E-02  0.8852296E-01
          2   -1    0    0  501    0  0.00000000000E+00  0.00000000000E+00  0.56397028024E+03  0.56397028024E+03  0.00000000000E+00 0. -1.
         -2   -1    0    0    0  501 -0.00000000000E+00 -0.00000000000E+00 -0.10640725261E+04  0.10640725261E+04  0.00000000000E+00 0.  1.
         23    2    1    2    0    0  0.44731858015E+03 -0.68599818237E+01 -0.42890416156E+03  0.62613315535E+03  0.89123380292E+02 0.  0.
        254    2    1    2    0    0 -0.44731858015E+03  0.68599818237E+01 -0.71198084250E+02  0.10019096510E+04  0.89365139174E+03 0.  0.
        -24    2    4    4    0    0 -0.26966206374E+03 -0.41411903769E+03  0.95148950530E+02  0.50915266750E+03  0.77271663912E+02 0.  0.
         24    2    4    4    0    0 -0.17765651642E+03  0.42097901951E+03 -0.16634703478E+03  0.49275698345E+03  0.79705307631E+02 0.  0.
         13    1    3    3    0    0  0.96970088902E+02  0.94975751197E+01 -0.48917677342E+02  0.10902449831E+03  0.00000000000E+00 0. -1.
        -13    1    3    3    0    0  0.35034849125E+03 -0.16357556943E+02 -0.37998648422E+03  0.51710865704E+03  0.00000000000E+00 0.  1.
          2    1    6    6  502    0 -0.10961831389E+03  0.15883881558E+03 -0.70950460083E+02  0.20562079627E+03  0.00000000000E+00 0. -1.
          1    1    5    5  503    0 -0.19966533718E+03 -0.35626637397E+03  0.89973750231E+02  0.41819523171E+03  0.00000000000E+00 0. -1.
         -2    1    5    5    0  503 -0.69996726558E+02 -0.57852663714E+02  0.51752002986E+01  0.90957435792E+02  0.00000000000E+00 0.  1.
         -1    1    6    6    0  502 -0.68038202522E+02  0.26214020393E+03 -0.95396574697E+02  0.28713618717E+03  0.00000000000E+00 0.  1.
<mgrwt>
<rscale>  0 0.15493292E+04</rscale>
<asrwt>0</asrwt>
<pdfrwt beam="1">  1        2 0.86764660E-01 0.15493292E+04</pdfrwt>
<pdfrwt beam="2">  1       -2 0.16370346E+00 0.15493292E+04</pdfrwt>
<totfact> 0.12158250E+01</totfact>
</mgrwt>
</event>
<event>
12    1  0.1489025E-007  0.1672972E+04  0.7818608E-02  0.8776931E-01
          1   -1    0    0  501    0  0.00000000000E+00  0.00000000000E+00  0.87374600117E+03  0.87374600117E+03  0.00000000000E+00 0. -1.
         -1   -1    0    0    0  501 -0.00000000000E+00 -0.00000000000E+00 -0.80081536473E+03  0.80081536473E+03  0.00000000000E+00 0.  1.
         23    2    1    2    0    0 -0.30730161928E+03 -0.49699511469E+03 -0.74021964762E+02  0.59598792217E+03  0.91016058329E+02 0.  0.
        254    2    1    2    0    0  0.30730161928E+03  0.49699511469E+03  0.14695260120E+03  0.10785734437E+04  0.89458771357E+03 0.  0.
        -24    2    4    4    0    0  0.43891137121E+03  0.52235966956E+03  0.38961728997E+03  0.78995545035E+03  0.82007101737E+02 0.  0.
         24    2    4    4    0    0 -0.13160975193E+03 -0.25364554877E+02 -0.24266468876E+03  0.28861799337E+03  0.80310070832E+02 0.  0.
         11    1    3    3    0    0 -0.45359718139E+02 -0.45623764640E+02 -0.33528800293E+02  0.72548000515E+02  0.00000000000E+00 0. -1.
        -11    1    3    3    0    0 -0.26194190114E+03 -0.45137135005E+03 -0.40493164469E+02  0.52343992166E+03  0.00000000000E+00 0.  1.
          2    1    6    6  502    0 -0.12471739586E+03 -0.46143249963E+02 -0.22028492037E+03  0.25731124050E+03  0.00000000000E+00 0. -1.
          3    1    5    5  503    0  0.32052843293E+03  0.32135702169E+03  0.25368480707E+03  0.51996614606E+03  0.00000000000E+00 0. -1.
         -4    1    5    5    0  503  0.11838293828E+03  0.20100264787E+03  0.13593248289E+03  0.26998930430E+03  0.00000000000E+00 0.  1.
         -1    1    6    6    0  502 -0.68923560709E+01  0.20778695087E+02 -0.22379768396E+02  0.31306752868E+02  0.00000000000E+00 0.  1.
<mgrwt>
<rscale>  0 0.16729725E+04</rscale>
<asrwt>0</asrwt>
<pdfrwt beam="1">  1        1 0.13442246E+00 0.16729725E+04</pdfrwt>
<pdfrwt beam="2">  1       -1 0.12320236E+00 0.16729725E+04</pdfrwt>
<totfact> 0.10587181E+01</totfact>
</mgrwt>
</event>
<event>
12    1  0.1489025E-007  0.1391300E+04  0.7818608E-02  0.8960140E-01
          2   -1    0    0  501    0  0.00000000000E+00  0.00000000000E+00  0.70556348274E+03  0.70556348274E+03  0.00000000000E+00 0. -1.
         -2   -1    0    0    0  501 -0.00000000000E+00 -0.00000000000E+00 -0.68587609923E+03  0.68587609923E+03  0.00000000000E+00 0.  1.
         23    2    1    2    0    0  0.12272060524E+03  0.22683174049E+02  0.38461650245E+03  0.41433170379E+03  0.90366107972E+02 0.  0.
        254    2    1    2    0    0 -0.12272060524E+03 -0.22683174049E+02 -0.36492911893E+03  0.97710787818E+03  0.89777038848E+03 0.  0.
        -24    2    4    4    0    0 -0.23515281062E+03 -0.85532872755E+02  0.23885445513E+03  0.35515193329E+03  0.80428404923E+02 0.  0.
         24    2    4    4    0    0  0.11243220538E+03  0.62849698706E+02 -0.60378357406E+03  0.62195594490E+03  0.75389041985E+02 0.  0.
         11    1    3    3    0    0  0.12474374951E+03  0.18015544849E+02  0.38817446385E+03  0.40812372791E+03  0.00000000000E+00 0. -1.
        -11    1    3    3    0    0 -0.20231442710E+01  0.46676291998E+01 -0.35579614033E+01  0.62079758726E+01  0.00000000000E+00 0.  1.
          2    1    6    6  502    0  0.36200731217E+02 -0.29166368967E+01 -0.71070707187E+02  0.79812562492E+02  0.00000000000E+00 0. -1.
          1    1    5    5  503    0 -0.22544480807E+02  0.85010716190E+01  0.35118213644E+01  0.24348608232E+02  0.00000000000E+00 0. -1.
         -2    1    5    5    0  503 -0.21260832981E+03 -0.94033944374E+02  0.23534263376E+03  0.33080332505E+03  0.00000000000E+00 0.  1.
         -1    1    6    6    0  502  0.76231474166E+02  0.65766335602E+02 -0.53271286688E+03  0.54214338241E+03  0.00000000000E+00 0.  1.
<mgrwt>
<rscale>  0 0.13913003E+04</rscale>
<asrwt>0</asrwt>
<pdfrwt beam="1">  1        2 0.10854823E+00 0.13913003E+04</pdfrwt>
<pdfrwt beam="2">  1       -2 0.10551940E+00 0.13913003E+04</pdfrwt>
<totfact> 0.28701174E+01</totfact>
</mgrwt>
</event>
<event>
12    1  0.1489025E-007  0.1623002E+04  0.7818608E-02  0.8806540E-01
          1   -1    0    0  501    0  0.00000000000E+00  0.00000000000E+00  0.93859518967E+03  0.93859518967E+03  0.00000000000E+00 0. -1.
         -1   -1    0    0    0  501 -0.00000000000E+00 -0.00000000000E+00 -0.70161638095E+03  0.70161638095E+03  0.00000000000E+00 0.  1.
         23    2    1    2    0    0  0.37966111038E+02 -0.25543110273E+03 -0.41044184356E+03  0.49402580288E+03  0.94406107512E+02 0.  0.
        254    2    1    2    0    0 -0.37966111038E+02  0.25543110273E+03  0.64742065227E+03  0.11461857677E+04  0.90989111401E+03 0.  0.
        -24    2    4    4    0    0 -0.32749370770E+03  0.46523849833E+03  0.45331112745E+03  0.73180534906E+03  0.79681250820E+02 0.  0.
         24    2    4    4    0    0  0.28952759667E+03 -0.20980739560E+03  0.19410952482E+03  0.41438041868E+03  0.78659082627E+02 0.  0.
         13    1    3    3    0    0 -0.19162328994E+02 -0.14494681283E+03 -0.17755539738E+03  0.23000585328E+03  0.00000000000E+00 0. -1.
        -13    1    3    3    0    0  0.57128440031E+02 -0.11048428991E+03 -0.23288644617E+03  0.26401994960E+03  0.00000000000E+00 0.  1.
          4    1    6    6  502    0  0.12156957448E+03 -0.82268245384E+02  0.12395241615E+03  0.19212346839E+03  0.00000000000E+00 0. -1.
          3    1    5    5  503    0 -0.29006438449E+03  0.37120572184E+03  0.34758259333E+03  0.58544401463E+03  0.00000000000E+00 0. -1.
         -4    1    5    5    0  503 -0.37429323211E+02  0.94032776497E+02  0.10572853411E+03  0.14636133443E+03  0.00000000000E+00 0.  1.
         -3    1    6    6    0  502  0.16795802218E+03 -0.12753915022E+03  0.70157108675E+02  0.22225695029E+03  0.00000000000E+00 0.  1.
<mgrwt>
<rscale>  0 0.16230019E+04</rscale>
<asrwt>0</asrwt>
<pdfrwt beam="1">  1        1 0.14439926E+00 0.16230019E+04</pdfrwt>
<pdfrwt beam="2">  1       -1 0.10794098E+00 0.16230019E+04</pdfrwt>
<totfact> 0.12940625E+01</totfact>
</mgrwt>
</event>
<event>
12    1  0.1489025E-007  0.1562316E+04  0.7818608E-02  0.8844039E-01
          2   -1    0    0  501    0  0.00000000000E+00  0.00000000000E+00  0.74623877047E+03  0.74623877047E+03  0.00000000000E+00 0. -1.
         -2   -1    0    0    0  501 -0.00000000000E+00 -0.00000000000E+00 -0.81771122291E+03  0.81771122291E+03  0.00000000000E+00 0.  1.
         23    2    1    2    0    0  0.35922766961E+03  0.35121537570E+03  0.87968729274E+02  0.51794116607E+03  0.90154286850E+02 0.  0.
        254    2    1    2    0    0 -0.35922766961E+03 -0.35121537570E+03 -0.15944118171E+03  0.10460088273E+04  0.90350219571E+03 0.  0.
        -24    2    4    4    0    0  0.12566894489E+03  0.27779171603E+02 -0.36279904292E+03  0.39288426500E+03  0.78552746974E+02 0.  0.
         24    2    4    4    0    0 -0.48489661449E+03 -0.37899454730E+03  0.20335786121E+03  0.65312456231E+03  0.80347249787E+02 0.  0.
         11    1    3    3    0    0  0.31280574523E+03  0.31429432469E+03  0.47125659390E+02  0.44592508850E+03  0.00000000000E+00 0. -1.
        -11    1    3    3    0    0  0.46421924384E+02  0.36921051010E+02  0.40843069884E+02  0.72016077572E+02  0.00000000000E+00 0.  1.
          4    1    6    6  502    0 -0.19300547772E+03 -0.10226221590E+03  0.69384522673E+02  0.22917872330E+03  0.00000000000E+00 0. -1.
          1    1    5    5  503    0 -0.10904310888E+02  0.59276191614E+01 -0.33026585972E+02  0.35281667277E+02  0.00000000000E+00 0. -1.
         -2    1    5    5    0  503  0.13657325577E+03  0.21851552441E+02 -0.32977245695E+03  0.35760259772E+03  0.00000000000E+00 0.  1.
         -3    1    6    6    0  502 -0.29189113678E+03 -0.27673233141E+03  0.13397333853E+03  0.42394583901E+03  0.00000000000E+00 0.  1.
<mgrwt>
<rscale>  0 0.15623160E+04</rscale>
<asrwt>0</asrwt>
<pdfrwt beam="1">  1        2 0.11480596E+00 0.15623160E+04</pdfrwt>
<pdfrwt beam="2">  1       -2 0.12580173E+00 0.15623160E+04</pdfrwt>
<totfact> 0.17124183E+01</totfact>
</mgrwt>
</event>
<event>
12    1  0.1489025E-007  0.1066375E+04  0.7818608E-02  0.9238599E-01
         -1   -1    0    0    0  501 -0.00000000000E+00  0.00000000000E+00  0.32787705544E+03  0.32787705544E+03  0.00000000000E+00 0.  1.
          1   -1    0    0  501    0  0.00000000000E+00 -0.00000000000E+00 -0.86706026712E+03  0.86706026712E+03  0.00000000000E+00 0. -1.
         23    2    1    2    0    0 -0.15241087416E+02  0.11237903924E+03 -0.15446562777E+03  0.21263826230E+03  0.92163231410E+02 0.  0.
        254    2    1    2    0    0  0.15241087416E+02 -0.11237903924E+03 -0.38471758391E+03  0.98229906026E+03  0.89668416135E+03 0.  0.
        -24    2    4    4    0    0  0.23985855981E+02  0.49039588230E+02 -0.65177312153E+03  0.65911842352E+03  0.81539510511E+02 0.  0.
         24    2    4    4    0    0 -0.87447685657E+01 -0.16141862747E+03  0.26705553762E+03  0.32318063674E+03  0.83633841936E+02 0.  0.
         11    1    3    3    0    0 -0.35234994773E+02  0.11971900136E+03 -0.13016439864E+03  0.18032447093E+03  0.00000000000E+00 0.  1.
        -11    1    3    3    0    0  0.19993907357E+02 -0.73399621170E+01 -0.24301229127E+02  0.32313791365E+02  0.00000000000E+00 0. -1.
          2    1    6    6  502    0  0.20988646168E+02 -0.13868852284E+03  0.17833101988E+03  0.22688539461E+03  0.00000000000E+00 0. -1.
          1    1    5    5  503    0  0.41038741124E+02  0.55368702464E+02 -0.60532375574E+03  0.60923453674E+03  0.00000000000E+00 0. -1.
         -2    1    5    5    0  503 -0.17052885143E+02 -0.63291142335E+01 -0.46449365784E+02  0.49883886782E+02  0.00000000000E+00 0.  1.
         -1    1    6    6    0  502 -0.29733414734E+02 -0.22730104628E+02  0.88724517741E+02  0.96295242128E+02  0.00000000000E+00 0.  1.
<mgrwt>
<rscale>  0 0.10663755E+04</rscale>
<asrwt>0</asrwt>
<pdfrwt beam="1">  1        1 0.13339389E+00 0.10663755E+04</pdfrwt>
<pdfrwt beam="2">  1       -1 0.50442624E-01 0.10663755E+04</pdfrwt>
<totfact> 0.76349691E+01</totfact>
</mgrwt>
</event>
<event>
12    1  0.1489025E-007  0.2358667E+04  0.7818608E-02  0.8455142E-01
          2   -1    0    0  501    0  0.00000000000E+00  0.00000000000E+00  0.17450512094E+04  0.17450512094E+04  0.00000000000E+00 0. -1.
         -2   -1    0    0    0  501 -0.00000000000E+00 -0.00000000000E+00 -0.79701265676E+03  0.79701265676E+03  0.00000000000E+00 0.  1.
         23    2    1    2    0    0 -0.84481927573E+03  0.36018099290E+03  0.84503141436E+03  0.12512745391E+04  0.90332300676E+02 0.  0.
        254    2    1    2    0    0  0.84481927573E+03 -0.36018099290E+03  0.10300713827E+03  0.12907893271E+04  0.90115296155E+03 0.  0.
        -24    2    4    4    0    0  0.27415804116E+03 -0.55291688474E+03 -0.13709719328E+03  0.63725550438E+03  0.80120063000E+02 0.  0.
         24    2    4    4    0    0  0.57066123458E+03  0.19273589184E+03  0.24010433156E+03  0.65353382271E+03  0.81578175660E+02 0.  0.
         11    1    3    3    0    0 -0.68482520042E+03  0.27136502254E+03  0.71679036065E+03  0.10278195132E+04  0.00000000000E+00 0. -1.
        -11    1    3    3    0    0 -0.15999407531E+03  0.88815970357E+02  0.12824105371E+03  0.22345502586E+03  0.00000000000E+00 0.  1.
          4    1    6    6  502    0  0.49201232095E+03  0.16048113490E+03  0.17448100285E+03  0.54614461361E+03  0.00000000000E+00 0. -1.
          3    1    5    5  503    0  0.26533751360E+03 -0.54819192789E+03 -0.12530064531E+03  0.62178664962E+03  0.00000000000E+00 0. -1.
         -4    1    5    5    0  503  0.88205275528E+01 -0.47249568502E+01 -0.11796547973E+02  0.15468854761E+02  0.00000000000E+00 0.  1.
         -3    1    6    6    0  502  0.78648913628E+02  0.32254756941E+02  0.65623328706E+02  0.10738920910E+03  0.00000000000E+00 0.  1.
<mgrwt>
<rscale>  0 0.23586673E+04</rscale>
<asrwt>0</asrwt>
<pdfrwt beam="1">  1        2 0.26846942E+00 0.23586673E+04</pdfrwt>
<pdfrwt beam="2">  1       -2 0.12261733E+00 0.23586673E+04</pdfrwt>
<totfact> 0.42032117E+00</totfact>
</mgrwt>
</event>
<event>
12    1  0.1489025E-007  0.2306872E+04  0.7818608E-02  0.8475217E-01
          2   -1    0    0  501    0  0.00000000000E+00  0.00000000000E+00  0.11522134796E+04  0.11522134796E+04  0.00000000000E+00 0. -1.
         -2   -1    0    0    0  501 -0.00000000000E+00 -0.00000000000E+00 -0.11546598364E+04  0.11546598364E+04  0.00000000000E+00 0.  1.
         23    2    1    2    0    0 -0.73151565117E+02 -0.63539811244E+03 -0.72255338690E+03  0.96926344975E+03  0.91139043935E+02 0.  0.
        254    2    1    2    0    0  0.73151565117E+02  0.63539811244E+03  0.72010703015E+03  0.13376098663E+04  0.92820477632E+03 0.  0.
        -24    2    4    4    0    0  0.49125686779E+03  0.28720907102E+03  0.33178850078E+03  0.66439933921E+03  0.86720885973E+02 0.  0.
         24    2    4    4    0    0 -0.41810530267E+03  0.34818904142E+03  0.38831852936E+03  0.67321052709E+03  0.79834083248E+02 0.  0.
         13    1    3    3    0    0 -0.51509904663E+02 -0.42498280055E+03 -0.41687945210E+03  0.59753839092E+03  0.00000000000E+00 0.  1.
        -13    1    3    3    0    0 -0.21641660454E+02 -0.21041531189E+03 -0.30567393480E+03  0.37172505883E+03  0.00000000000E+00 0. -1.
          4    1    6    6  502    0 -0.40505871832E+02  0.76187425752E+01  0.24283153935E+02  0.47837667756E+02  0.00000000000E+00 0. -1.
          1    1    5    5  503    0  0.50592167284E+02  0.60448892652E+02  0.31180031074E+02  0.84769277165E+02  0.00000000000E+00 0. -1.
         -2    1    5    5    0  503  0.44066470051E+03  0.22676017837E+03  0.30060846971E+03  0.57963006204E+03  0.00000000000E+00 0.  1.
         -3    1    6    6    0  502 -0.37759943084E+03  0.34057029885E+03  0.36403537543E+03  0.62537285933E+03  0.00000000000E+00 0.  1.
<mgrwt>
<rscale>  0 0.23068720E+04</rscale>
<asrwt>0</asrwt>
<pdfrwt beam="1">  1        2 0.17726361E+00 0.23068720E+04</pdfrwt>
<pdfrwt beam="2">  1       -2 0.17763997E+00 0.23068720E+04</pdfrwt>
<totfact> 0.34531267E+00</totfact>
</mgrwt>
</event>
<event>
12    1  0.1489025E-007  0.1582576E+04  0.7818608E-02  0.8831324E-01
          2   -1    0    0  501    0  0.00000000000E+00  0.00000000000E+00  0.16000321515E+04  0.16000321515E+04  0.00000000000E+00 0.  1.
         -2   -1    0    0    0  501 -0.00000000000E+00 -0.00000000000E+00 -0.39132775935E+03  0.39132775935E+03  0.00000000000E+00 0. -1.
         23    2    1    2    0    0 -0.19378334028E+03  0.43897732754E+03  0.69187174028E+03  0.84757396388E+03  0.97170171295E+02 0.  0.
        254    2    1    2    0    0  0.19378334028E+03 -0.43897732754E+03  0.51683265185E+03  0.11437859469E+04  0.90048721553E+03 0.  0.
        -24    2    4    4    0    0 -0.22219340189E+03  0.15417546994E+03  0.21405484055E+03  0.35456339822E+03  0.82193340506E+02 0.  0.
         24    2    4    4    0    0  0.41597674217E+03 -0.59315279748E+03  0.30277781130E+03  0.78922254872E+03  0.79567186735E+02 0.  0.
         11    1    3    3    0    0 -0.47349601833E+02  0.10009734780E+03  0.95685448017E+02  0.14634605835E+03  0.00000000000E+00 0. -1.
        -11    1    3    3    0    0 -0.14643373845E+03  0.33887997974E+03  0.59618629226E+03  0.70122790554E+03  0.00000000000E+00 0.  1.
          2    1    6    6  502    0  0.38700292653E+03 -0.51033984906E+03  0.27667217417E+03  0.69768583091E+03  0.00000000000E+00 0. -1.
          3    1    5    5  503    0 -0.10805575950E+03  0.58157994949E+02  0.49091126910E+02  0.13216784132E+03  0.00000000000E+00 0. -1.
         -4    1    5    5    0  503 -0.11413764239E+03  0.96017474989E+02  0.16496371364E+03  0.22239555690E+03  0.00000000000E+00 0.  1.
         -1    1    6    6    0  502  0.28973815641E+02 -0.82812948416E+02  0.26105637129E+02  0.91536717814E+02  0.00000000000E+00 0.  1.
<mgrwt>
<rscale>  0 0.15825764E+04</rscale>
<asrwt>0</asrwt>
<pdfrwt beam="1">  1        2 0.24615879E+00 0.15825764E+04</pdfrwt>
<pdfrwt beam="2">  1       -2 0.60204272E-01 0.15825764E+04</pdfrwt>
<totfact> 0.27529725E+01</totfact>
</mgrwt>
</event>
<event>
12    1  0.1489025E-007  0.2291860E+04  0.7818608E-02  0.8481137E-01
          2   -1    0    0  501    0  0.00000000000E+00  0.00000000000E+00  0.96649728316E+03  0.96649728316E+03  0.00000000000E+00 0. -1.
         -2   -1    0    0    0  501 -0.00000000000E+00 -0.00000000000E+00 -0.13586750951E+04  0.13586750951E+04  0.00000000000E+00 0.  1.
         23    2    1    2    0    0 -0.31037677430E+03  0.67214448994E+03 -0.79916976238E+03  0.10931521059E+04  0.90538721578E+02 0.  0.
        254    2    1    2    0    0  0.31037677430E+03 -0.67214448994E+03  0.40699195049E+03  0.12320202723E+04  0.89672713035E+03 0.  0.
        -24    2    4    4    0    0 -0.26419782888E+02 -0.63744069481E+03 -0.63708778488E+02  0.64589425419E+03  0.78050847627E+02 0.  0.
         24    2    4    4    0    0  0.33679655718E+03 -0.34703795136E+02  0.47070072897E+03  0.58612601815E+03  0.85721984165E+02 0.  0.
         11    1    3    3    0    0 -0.19750026968E+03  0.32783283556E+03 -0.43565969567E+03  0.57989662444E+03  0.00000000000E+00 0.  1.
        -11    1    3    3    0    0 -0.11287650461E+03  0.34431165438E+03 -0.36351006670E+03  0.51325548144E+03  0.00000000000E+00 0. -1.
          2    1    6    6  502    0  0.17687016368E+03 -0.60715140712E+02  0.24147068003E+03  0.30541360877E+03  0.00000000000E+00 0. -1.
          1    1    5    5  503    0 -0.19134579031E+02 -0.61852346595E+03 -0.73880208507E+02  0.62321400438E+03  0.00000000000E+00 0. -1.
         -2    1    5    5    0  503 -0.72852038573E+01 -0.18917228861E+02  0.10171430019E+02  0.22680249815E+02  0.00000000000E+00 0.  1.
         -1    1    6    6    0  502  0.15992639350E+03  0.26011345575E+02  0.22923004895E+03  0.28071240938E+03  0.00000000000E+00 0.  1.
<mgrwt>
<rscale>  0 0.22918602E+04</rscale>
<asrwt>0</asrwt>
<pdfrwt beam="1">  1        2 0.14869189E+00 0.22918602E+04</pdfrwt>
<pdfrwt beam="2">  1       -2 0.20902694E+00 0.22918602E+04</pdfrwt>
<totfact> 0.27902427E+00</totfact>
</mgrwt>
</event>
<event>
12    1  0.1489025E-007  0.2975519E+04  0.7818608E-02  0.8250756E-01
         -1   -1    0    0    0  501 -0.00000000000E+00  0.00000000000E+00  0.19069012525E+04  0.19069012525E+04  0.00000000000E+00 0.  1.
          1   -1    0    0  501    0  0.00000000000E+00 -0.00000000000E+00 -0.11607459374E+04  0.11607459374E+04  0.00000000000E+00 0. -1.
         23    2    1    2    0    0  0.83899132810E+03 -0.10300491730E+03  0.14260507422E+04  0.16611886276E+04  0.10681982779E+03 0.  0.
        254    2    1    2    0    0 -0.83899132810E+03  0.10300491730E+03 -0.67989542708E+03  0.14064585623E+04  0.89518234680E+03 0.  0.
        -24    2    4    4    0    0 -0.32956932008E+03  0.19789488483E+03  0.15329934480E+03  0.42214034522E+03  0.83207329978E+02 0.  0.
         24    2    4    4    0    0 -0.50942200801E+03 -0.94889967536E+02 -0.83319477188E+03  0.98431821706E+03  0.78447028940E+02 0.  0.
         11    1    3    3    0    0  0.57519400329E+03 -0.32539796379E+02  0.10292813062E+04  0.11795452459E+04  0.00000000000E+00 0.  1.
        -11    1    3    3    0    0  0.26379732481E+03 -0.70465120919E+02  0.39676943602E+03  0.48164338177E+03  0.00000000000E+00 0. -1.
          2    1    6    6  502    0 -0.50537590089E+03 -0.84872484159E+02 -0.80670152062E+03  0.95570679768E+03  0.00000000000E+00 0. -1.
          3    1    5    5  503    0 -0.17434822942E+03  0.87375928560E+02  0.11921390731E+03  0.22856905672E+03  0.00000000000E+00 0. -1.
         -4    1    5    5    0  503 -0.15522109066E+03  0.11051895627E+03  0.34085437491E+02  0.19357128850E+03  0.00000000000E+00 0.  1.
         -1    1    6    6    0  502 -0.40461071228E+01 -0.10017483377E+02 -0.26493251264E+02  0.28611419374E+02  0.00000000000E+00 0.  1.
<mgrwt>
<rscale>  0 0.29755187E+04</rscale>
<asrwt>0</asrwt>
<pdfrwt beam="1">  1        1 0.17857630E+00 0.29755187E+04</pdfrwt>
<pdfrwt beam="2">  1       -1 0.29336942E+00 0.29755187E+04</pdfrwt>
<totfact> 0.35509639E-01</totfact>
</mgrwt>
</event>
<event>
12    1  0.1489025E-007  0.1182627E+04  0.7818608E-02  0.9128201E-01
          2   -1    0    0  501    0  0.00000000000E+00  0.00000000000E+00  0.15197474893E+04  0.15197474893E+04  0.00000000000E+00 0.  1.
         -2   -1    0    0    0  501 -0.00000000000E+00 -0.00000000000E+00 -0.23007202101E+03  0.23007202101E+03  0.00000000000E+00 0. -1.
         23    2    1    2    0    0 -0.15576684005E+03 -0.16287417619E+03  0.19340187015E+03  0.31284155971E+03  0.98357777398E+02 0.  0.
        254    2    1    2    0    0  0.15576684005E+03  0.16287417619E+03  0.10962735981E+04  0.14369779506E+04  0.90127605250E+03 0.  0.
        -24    2    4    4    0    0  0.30215817385E+03 -0.66845498632E+02  0.11072830808E+04  0.11524484970E+04  0.79333691299E+02 0.  0.
         24    2    4    4    0    0 -0.14639133380E+03  0.22971967482E+03 -0.11009482654E+02  0.28452945358E+03  0.81450903198E+02 0.  0.
         11    1    3    3    0    0 -0.15825761643E+03 -0.13422048299E+03  0.19400298991E+03  0.28407353151E+03  0.00000000000E+00 0. -1.
        -11    1    3    3    0    0  0.24907763831E+01 -0.28653693203E+02 -0.60111976340E+00  0.28768028193E+02  0.00000000000E+00 0.  1.
          4    1    6    6  502    0 -0.19313954234E+02  0.24304727858E+02  0.25584443840E+02  0.40228253641E+02  0.00000000000E+00 0. -1.
          1    1    5    5  503    0  0.14979522453E+03  0.40542872822E+01  0.57921043018E+03  0.59828067741E+03  0.00000000000E+00 0. -1.
         -2    1    5    5    0  503  0.15236294932E+03 -0.70899785914E+02  0.52807265059E+03  0.55416781959E+03  0.00000000000E+00 0.  1.
         -3    1    6    6    0  502 -0.12707737957E+03  0.20541494696E+03 -0.36593926493E+02  0.24430119994E+03  0.00000000000E+00 0.  1.
<mgrwt>
<rscale>  0 0.11826265E+04</rscale>
<asrwt>0</asrwt>
<pdfrwt beam="1">  1        2 0.23380730E+00 0.11826265E+04</pdfrwt>
<pdfrwt beam="2">  1       -2 0.35395697E-01 0.11826265E+04</pdfrwt>
<totfact> 0.91578122E+01</totfact>
</mgrwt>
</event>
<event>
12    1  0.1489025E-007  0.1850244E+04  0.7818608E-02  0.8680027E-01
         -2   -1    0    0    0  501 -0.00000000000E+00  0.00000000000E+00  0.12961577805E+04  0.12961577805E+04  0.00000000000E+00 0. -1.
          2   -1    0    0  501    0  0.00000000000E+00 -0.00000000000E+00 -0.66029824251E+03  0.66029824251E+03  0.00000000000E+00 0.  1.
         23    2    1    2    0    0 -0.11446355123E+03  0.11234926367E+03  0.96723465774E+03  0.98502773685E+03  0.94934175202E+02 0.  0.
        254    2    1    2    0    0  0.11446355123E+03 -0.11234926367E+03 -0.33137511976E+03  0.97142828615E+03  0.89896561866E+03 0.  0.
        -24    2    4    4    0    0 -0.27217042724E+03  0.18328451522E+03 -0.33788387107E+03  0.47790815619E+03  0.80998397815E+02 0.  0.
         24    2    4    4    0    0  0.38663397846E+03 -0.29563377888E+03  0.65087513079E+01  0.49352012996E+03  0.81452994492E+02 0.  0.
         11    1    3    3    0    0  0.12717096068E+02  0.24579625614E+02  0.23780078111E+03  0.23940571009E+03  0.00000000000E+00 0.  1.
        -11    1    3    3    0    0 -0.12718064729E+03  0.87769638054E+02  0.72943387663E+03  0.74562202676E+03  0.00000000000E+00 0. -1.
          2    1    6    6  502    0  0.74833397093E+02 -0.90213397737E+02 -0.21177208654E+02  0.11910906186E+03  0.00000000000E+00 0. -1.
          3    1    5    5  503    0 -0.19414813544E+02  0.42075991814E+01 -0.47627602471E+00  0.19871228313E+02  0.00000000000E+00 0. -1.
         -4    1    5    5    0  503 -0.25275561369E+03  0.17907691604E+03 -0.33740759504E+03  0.45803692788E+03  0.00000000000E+00 0.  1.
         -1    1    6    6    0  502  0.31180058137E+03 -0.20542038115E+03  0.27685959962E+02  0.37441106809E+03  0.00000000000E+00 0.  1.
<mgrwt>
<rscale>  0 0.18502440E+04</rscale>
<asrwt>0</asrwt>
<pdfrwt beam="1">  1        2 0.10158434E+00 0.18502440E+04</pdfrwt>
<pdfrwt beam="2">  1       -2 0.19940889E+00 0.18502440E+04</pdfrwt>
<totfact> 0.55595685E+00</totfact>
</mgrwt>
</event>
<event>
12    1  0.1489025E-007  0.1764674E+04  0.7818608E-02  0.8725314E-01
         -1   -1    0    0    0  501 -0.00000000000E+00  0.00000000000E+00  0.79204130591E+03  0.79204130591E+03  0.00000000000E+00 0.  1.
          1   -1    0    0  501    0  0.00000000000E+00 -0.00000000000E+00 -0.98292722903E+03  0.98292722903E+03  0.00000000000E+00 0. -1.
         23    2    1    2    0    0 -0.13065847487E+03 -0.22844684961E+03  0.51969655856E+03  0.58982920731E+03  0.92489894976E+02 0.  0.
        254    2    1    2    0    0  0.13065847487E+03  0.22844684961E+03 -0.71058248167E+03  0.11851393276E+04  0.91124539093E+03 0.  0.
        -24    2    4    4    0    0 -0.33830026988E+03 -0.80908426944E+02 -0.40933495714E+03  0.54278158983E+03  0.77868485092E+02 0.  0.
         24    2    4    4    0    0  0.46895874475E+03  0.30935527655E+03 -0.30124752453E+03  0.64235773780E+03  0.79059476770E+02 0.  0.
         13    1    3    3    0    0 -0.65314505271E+02 -0.38339745084E+02  0.11109004123E+03  0.13445042920E+03  0.00000000000E+00 0. -1.
        -13    1    3    3    0    0 -0.65343969603E+02 -0.19010710452E+03  0.40860651732E+03  0.45537877811E+03  0.00000000000E+00 0.  1.
          4    1    6    6  502    0  0.22546941226E+03  0.19418916914E+03 -0.17045951789E+03  0.34293197068E+03  0.00000000000E+00 0. -1.
          3    1    5    5  503    0 -0.13489526529E+03 -0.69806870605E+02 -0.15639551239E+03  0.21801212828E+03  0.00000000000E+00 0. -1.
         -4    1    5    5    0  503 -0.20340500459E+03 -0.11101556339E+02 -0.25293944475E+03  0.32476946155E+03  0.00000000000E+00 0.  1.
         -3    1    6    6    0  502  0.24348933250E+03  0.11516610741E+03 -0.13078800664E+03  0.29942576712E+03  0.00000000000E+00 0.  1.
<mgrwt>
<rscale>  0 0.17646744E+04</rscale>
<asrwt>0</asrwt>
<pdfrwt beam="1">  1        1 0.15121957E+00 0.17646744E+04</pdfrwt>
<pdfrwt beam="2">  1       -1 0.12185251E+00 0.17646744E+04</pdfrwt>
<totfact> 0.88069961E+00</totfact>
</mgrwt>
</event>
<event>
12    1  0.1489025E-007  0.1403881E+04  0.7818608E-02  0.8951014E-01
          2   -1    0    0  501    0  0.00000000000E+00  0.00000000000E+00  0.33710216353E+03  0.33710216353E+03  0.00000000000E+00 0. -1.
         -2   -1    0    0    0  501 -0.00000000000E+00 -0.00000000000E+00 -0.14616364520E+04  0.14616364520E+04  0.00000000000E+00 0.  1.
         23    2    1    2    0    0 -0.93623026719E+02  0.44724001233E+01 -0.83079379850E+03  0.84119235548E+03  0.92741413546E+02 0.  0.
        254    2    1    2    0    0  0.93623026719E+02 -0.44724001233E+01 -0.29374048996E+03  0.95754626005E+03  0.90654624328E+03 0.  0.
        -24    2    4    4    0    0  0.14663464869E+02 -0.38908211113E+03 -0.37616110783E+03  0.54779890071E+03  0.83585585919E+02 0.  0.
         24    2    4    4    0    0  0.78959561850E+02  0.38460971101E+03  0.82420617865E+02  0.40974735934E+03  0.83309651462E+02 0.  0.
         11    1    3    3    0    0 -0.18463937105E+02  0.35413158942E+02 -0.45284908245E+03  0.45460675344E+03  0.00000000000E+00 0. -1.
        -11    1    3    3    0    0 -0.75159089614E+02 -0.30940758818E+02 -0.37794471605E+03  0.38658560203E+03  0.00000000000E+00 0.  1.
          4    1    6    6  502    0  0.32443032348E+01  0.13334865186E+03  0.60332706004E+02  0.14639816894E+03  0.00000000000E+00 0. -1.
          3    1    5    5  503    0  0.37417283893E+02 -0.80089515556E+02 -0.83986187992E+02  0.12193466861E+03  0.00000000000E+00 0. -1.
         -4    1    5    5    0  503 -0.22753819024E+02 -0.30899259558E+03 -0.29217491984E+03  0.42586423210E+03  0.00000000000E+00 0.  1.
         -3    1    6    6    0  502  0.75715258615E+02  0.25126105915E+03  0.22087911861E+02  0.26334919040E+03  0.00000000000E+00 0.  1.
<mgrwt>
<rscale>  0 0.14038815E+04</rscale>
<asrwt>0</asrwt>
<pdfrwt beam="1">  1        2 0.51861871E-01 0.14038815E+04</pdfrwt>
<pdfrwt beam="2">  1       -2 0.22486715E+00 0.14038815E+04</pdfrwt>
<totfact> 0.86335941E+00</totfact>
</mgrwt>
</event>
<event>
12    1  0.1489025E-007  0.1277667E+04  0.7818608E-02  0.9047466E-01
         -2   -1    0    0    0  501 -0.00000000000E+00  0.00000000000E+00  0.15479942113E+03  0.15479942113E+03  0.00000000000E+00 0.  1.
          2   -1    0    0  501    0  0.00000000000E+00 -0.00000000000E+00 -0.26363663920E+04  0.26363663920E+04  0.00000000000E+00 0. -1.
         23    2    1    2    0    0  0.17679739871E+03  0.49658163587E+02 -0.74067939803E+02  0.21830468310E+03  0.91910943611E+02 0.  0.
        254    2    1    2    0    0 -0.17679739871E+03 -0.49658163587E+02 -0.24074990311E+04  0.25728611301E+04  0.88872918061E+03 0.  0.
        -24    2    4    4    0    0 -0.12199774180E+03  0.89127857869E+02 -0.12355517814E+02  0.17182014633E+03  0.80884360737E+02 0.  0.
         24    2    4    4    0    0 -0.54799656906E+02 -0.13878602146E+03 -0.23951435133E+04  0.24010409837E+04  0.77593776891E+02 0.  0.
         13    1    3    3    0    0 -0.83960404622E+01  0.14509515870E+02 -0.78721722115E+01  0.18520006522E+02  0.00000000000E+00 0. -1.
        -13    1    3    3    0    0  0.18519343917E+03  0.35148647716E+02 -0.66195767591E+02  0.19978467658E+03  0.00000000000E+00 0.  1.
          4    1    6    6  502    0 -0.19701951280E+02 -0.23589257991E+02 -0.17834526649E+03  0.18097418064E+03  0.00000000000E+00 0. -1.
          3    1    5    5  503    0 -0.76848520727E+02  0.64747941607E+01 -0.30520413617E+01  0.77181170332E+02  0.00000000000E+00 0. -1.
         -4    1    5    5    0  503 -0.45149221074E+02  0.82653063708E+02 -0.93034764526E+01  0.94638975998E+02  0.00000000000E+00 0.  1.
         -3    1    6    6    0  502 -0.35097705625E+02 -0.11519676346E+03 -0.22167982468E+04  0.22200668031E+04  0.00000000000E+00 0.  1.
<mgrwt>
<rscale>  0 0.12776666E+04</rscale>
<asrwt>0</asrwt>
<pdfrwt beam="1">  1        2 0.40559482E+00 0.12776666E+04</pdfrwt>
<pdfrwt beam="2">  1       -2 0.23815296E-01 0.12776666E+04</pdfrwt>
<totfact> 0.44839526E+01</totfact>
</mgrwt>
</event>
<event>
12    1  0.1489025E-007  0.1564030E+04  0.7818608E-02  0.8842956E-01
         -1   -1    0    0    0  501 -0.00000000000E+00  0.00000000000E+00  0.83399588380E+03  0.83399588380E+03  0.00000000000E+00 0.  1.
          1   -1    0    0  501    0  0.00000000000E+00 -0.00000000000E+00 -0.73327361616E+03  0.73327361616E+03  0.00000000000E+00 0. -1.
         23    2    1    2    0    0  0.51871623863E+03  0.30664051743E+03  0.14656454784E+03  0.62644599576E+03  0.88648044374E+02 0.  0.
        254    2    1    2    0    0 -0.51871623863E+03 -0.30664051743E+03 -0.45842280203E+02  0.94082350420E+03  0.72107725540E+03 0.  0.
        -24    2    4    4    0    0  0.69022290758E+02  0.10860061167E+03 -0.14427292506E+03  0.20966919125E+03  0.81168487577E+02 0.  0.
         24    2    4    4    0    0 -0.58773852939E+03 -0.41524112910E+03  0.98430644862E+02  0.73115431295E+03  0.83882437205E+02 0.  0.
         13    1    3    3    0    0  0.28746540048E+03  0.15828310113E+03  0.35418094498E+02  0.33006717195E+03  0.00000000000E+00 0. -1.
        -13    1    3    3    0    0  0.23125083815E+03  0.14835741630E+03  0.11114645334E+03  0.29637882382E+03  0.00000000000E+00 0.  1.
          4    1    6    6  502    0 -0.50682230954E+03 -0.35061443340E+03  0.11307734602E+03  0.62656669280E+03  0.00000000000E+00 0. -1.
          3    1    5    5  503    0  0.13669907196E+02  0.91358877495E+02 -0.10386676579E+03  0.13900221544E+03  0.00000000000E+00 0. -1.
         -4    1    5    5    0  503  0.55352383562E+02  0.17241734175E+02 -0.40406159271E+02  0.70666975812E+02  0.00000000000E+00 0.  1.
         -3    1    6    6    0  502 -0.80916219854E+02 -0.64626695708E+02 -0.14646701154E+02  0.10458762015E+03  0.00000000000E+00 0.  1.
<mgrwt>
<rscale>  0 0.15640296E+04</rscale>
<asrwt>0</asrwt>
<pdfrwt beam="1">  1        1 0.11281133E+00 0.15640296E+04</pdfrwt>
<pdfrwt beam="2">  1       -1 0.12830706E+00 0.15640296E+04</pdfrwt>
<totfact> 0.12800253E+01</totfact>
</mgrwt>
</event>
<event>
12    1  0.1489025E-007  0.2889664E+04  0.7818608E-02  0.8275959E-01
         -2   -1    0    0    0  501 -0.00000000000E+00  0.00000000000E+00  0.10731617171E+04  0.10731617171E+04  0.00000000000E+00 0.  1.
          2   -1    0    0  501    0  0.00000000000E+00 -0.00000000000E+00 -0.19452237505E+04  0.19452237505E+04  0.00000000000E+00 0. -1.
         23    2    1    2    0    0  0.32910573600E+02  0.31365730192E+03 -0.17082632425E+04  0.17394553287E+04  0.89875057177E+02 0.  0.
        254    2    1    2    0    0 -0.32910573600E+02 -0.31365730192E+03  0.83620120907E+03  0.12789301390E+04  0.91485836575E+03 0.  0.
        -24    2    4    4    0    0 -0.36377766289E+03  0.11724758898E+03  0.50203812317E+03  0.63614960155E+03  0.81011439318E+02 0.  0.
         24    2    4    4    0    0  0.33086708929E+03 -0.43090489089E+03  0.33416308590E+03  0.64278053741E+03  0.79685604238E+02 0.  0.
         11    1    3    3    0    0 -0.17017016833E+02  0.17944206656E+03 -0.80683431831E+03  0.82672283826E+03  0.00000000000E+00 0.  1.
        -11    1    3    3    0    0  0.49927590433E+02  0.13421523536E+03 -0.90142892418E+03  0.91273249040E+03  0.00000000000E+00 0. -1.
          4    1    6    6  502    0  0.35173799317E+02 -0.38988309231E+02  0.74000588436E+01  0.53028721330E+02  0.00000000000E+00 0. -1.
          1    1    5    5  503    0 -0.40191017502E+02 -0.75939567614E+01  0.31640833576E+02  0.51711975562E+02  0.00000000000E+00 0. -1.
         -2    1    5    5    0  503 -0.32358664539E+03  0.12484154574E+03  0.47039728959E+03  0.58443762599E+03  0.00000000000E+00 0.  1.
         -3    1    6    6    0  502  0.29569328997E+03 -0.39191658166E+03  0.32676302705E+03  0.58975181608E+03  0.00000000000E+00 0.  1.
<mgrwt>
<rscale>  0 0.28896641E+04</rscale>
<asrwt>0</asrwt>
<pdfrwt beam="1">  1        2 0.29926519E+00 0.28896641E+04</pdfrwt>
<pdfrwt beam="2">  1       -2 0.16510180E+00 0.28896641E+04</pdfrwt>
<totfact> 0.14309333E+00</totfact>
</mgrwt>
</event>
<event>
12    1  0.1489025E-007  0.1278574E+04  0.7818608E-02  0.9046730E-01
         -1   -1    0    0    0  501 -0.00000000000E+00  0.00000000000E+00  0.44456438996E+03  0.44456438996E+03  0.00000000000E+00 0.  1.
          1   -1    0    0  501    0  0.00000000000E+00 -0.00000000000E+00 -0.91930024988E+03  0.91930024988E+03  0.00000000000E+00 0. -1.
         23    2    1    2    0    0  0.31805773182E+02  0.15583377769E+03 -0.40364050604E+03  0.44227330107E+03  0.85931607994E+02 0.  0.
        254    2    1    2    0    0 -0.31805773182E+02 -0.15583377769E+03 -0.71095353888E+02  0.92159133876E+03  0.90497528854E+03 0.  0.
        -24    2    4    4    0    0 -0.41965880423E+03  0.11017757907E+03 -0.28696778523E+02  0.44212863695E+03  0.80010096938E+02 0.  0.
         24    2    4    4    0    0  0.38785303105E+03 -0.26601135676E+03 -0.42398575365E+02  0.47946270182E+03  0.83035098722E+02 0.  0.
         11    1    3    3    0    0  0.25502709206E+02  0.58402240962E+02 -0.26595568584E+03  0.27348425321E+03  0.00000000000E+00 0. -1.
        -11    1    3    3    0    0  0.63030639763E+01  0.97431536727E+02 -0.13768482020E+03  0.16878904786E+03  0.00000000000E+00 0.  1.
          4    1    6    6  502    0  0.16866419134E+03 -0.14554627894E+03  0.13469812117E+02  0.22318773397E+03  0.00000000000E+00 0. -1.
          1    1    5    5  503    0  0.33482969428E+01  0.25316543927E+01  0.18176865408E+01  0.45743142373E+01  0.00000000000E+00 0. -1.
         -2    1    5    5    0  503 -0.42300710117E+03  0.10764592468E+03 -0.30514465064E+02  0.43755432271E+03  0.00000000000E+00 0.  1.
         -3    1    6    6    0  502  0.21918883971E+03 -0.12046507782E+03 -0.55868387482E+02  0.25627496785E+03  0.00000000000E+00 0.  1.
<mgrwt>
<rscale>  0 0.12785744E+04</rscale>
<asrwt>0</asrwt>
<pdfrwt beam="1">  1        1 0.14143081E+00 0.12785744E+04</pdfrwt>
<pdfrwt beam="2">  1       -1 0.68394522E-01 0.12785744E+04</pdfrwt>
<totfact> 0.37373015E+01</totfact>
</mgrwt>
</event>
<event>
12    1  0.1489025E-007  0.1329481E+04  0.7818608E-02  0.9006508E-01
         -2   -1    0    0    0  501 -0.00000000000E+00  0.00000000000E+00  0.14625420287E+04  0.14625420287E+04  0.00000000000E+00 0.  1.
          2   -1    0    0  501    0  0.00000000000E+00 -0.00000000000E+00 -0.30213140914E+03  0.30213140914E+03  0.00000000000E+00 0. -1.
         23    2    1    2    0    0 -0.91759029621E+02  0.27518001336E+03  0.44424334580E+02  0.30213495652E+03  0.71890550005E+02 0.  0.
        254    2    1    2    0    0  0.91759029621E+02 -0.27518001336E+03  0.11159862850E+04  0.14625384813E+04  0.89969420461E+03 0.  0.
        -24    2    4    4    0    0  0.15433049581E+03 -0.58576158055E+03  0.63957478167E+03  0.88455418385E+03  0.80284940267E+02 0.  0.
         24    2    4    4    0    0 -0.62571466186E+02  0.31058156719E+03  0.47641150331E+03  0.57798429747E+03  0.81986763397E+02 0.  0.
         11    1    3    3    0    0 -0.81948733707E+02  0.24171006798E+03  0.13597057472E+02  0.25558605574E+03  0.00000000000E+00 0. -1.
        -11    1    3    3    0    0 -0.98102959138E+01  0.33469945377E+02  0.30827277108E+02  0.46548900775E+02  0.00000000000E+00 0.  1.
          4    1    6    6  502    0 -0.40873412296E+01  0.21603839422E+03  0.31680567246E+03  0.38347767632E+03  0.00000000000E+00 0. -1.
          1    1    5    5  503    0  0.15043819836E+03 -0.58273378877E+03  0.61881311114E+03  0.86321491334E+03  0.00000000000E+00 0. -1.
         -2    1    5    5    0  503  0.38922974495E+01 -0.30277917760E+01  0.20761670528E+02  0.21339270502E+02  0.00000000000E+00 0.  1.
         -1    1    6    6    0  502 -0.58484124956E+02  0.94543172974E+02  0.15960583085E+03  0.19450662115E+03  0.00000000000E+00 0.  1.
<mgrwt>
<rscale>  0 0.13294809E+04</rscale>
<asrwt>0</asrwt>
<pdfrwt beam="1">  1        2 0.46481756E-01 0.13294809E+04</pdfrwt>
<pdfrwt beam="2">  1       -2 0.22500646E+00 0.13294809E+04</pdfrwt>
<totfact> 0.97920035E+00</totfact>
</mgrwt>
</event>
<event>
12    1  0.1489025E-007  0.1735434E+04  0.7818608E-02  0.8741409E-01
          1   -1    0    0  501    0  0.00000000000E+00  0.00000000000E+00  0.78483335285E+03  0.78483335285E+03  0.00000000000E+00 0. -1.
         -1   -1    0    0    0  501 -0.00000000000E+00 -0.00000000000E+00 -0.95935383880E+03  0.95935383880E+03  0.00000000000E+00 0.  1.
         23    2    1    2    0    0  0.18710748345E+03  0.11677484201E+03  0.52757458944E+03  0.57924253625E+03  0.92419663932E+02 0.  0.
        254    2    1    2    0    0 -0.18710748345E+03 -0.11677484201E+03 -0.70209507540E+03  0.11649446554E+04  0.90305757355E+03 0.  0.
        -24    2    4    4    0    0 -0.31315090483E+03  0.20488823477E+03 -0.41447548381E+01  0.38183472622E+03  0.75748935386E+02 0.  0.
         24    2    4    4    0    0  0.12604342138E+03 -0.32166307678E+03 -0.69795032056E+03  0.78310992918E+03  0.82294788212E+02 0.  0.
         11    1    3    3    0    0  0.25764643621E+02  0.29685700376E+02  0.31505027118E+02  0.50374838972E+02  0.00000000000E+00 0.  1.
        -11    1    3    3    0    0  0.16134283983E+03  0.87089141635E+02  0.49606956233E+03  0.52886769728E+03  0.00000000000E+00 0. -1.
          4    1    6    6  502    0  0.13054554695E+03 -0.26891367962E+03 -0.62672955294E+03  0.69436779839E+03  0.00000000000E+00 0. -1.
          1    1    5    5  503    0 -0.24154384624E+03  0.12015549219E+03 -0.16072653056E+02  0.27025747378E+03  0.00000000000E+00 0. -1.
         -2    1    5    5    0  503 -0.71607058591E+02  0.84732742586E+02  0.11927898218E+02  0.11157725244E+03  0.00000000000E+00 0.  1.
         -3    1    6    6    0  502 -0.45021255696E+01 -0.52749397167E+02 -0.71220767617E+02  0.88742130784E+02  0.00000000000E+00 0.  1.
<mgrwt>
<rscale>  0 0.17354341E+04</rscale>
<asrwt>0</asrwt>
<pdfrwt beam="1">  1        1 0.12074359E+00 0.17354341E+04</pdfrwt>
<pdfrwt beam="2">  1       -1 0.14759290E+00 0.17354341E+04</pdfrwt>
<totfact> 0.78832918E+00</totfact>
</mgrwt>
</event>
<event>
12    1  0.1489025E-007  0.1420635E+04  0.7818608E-02  0.8939016E-01
         -1   -1    0    0    0  501 -0.00000000000E+00  0.00000000000E+00  0.10948342433E+04  0.10948342433E+04  0.00000000000E+00 0.  1.
          1   -1    0    0  501    0  0.00000000000E+00 -0.00000000000E+00 -0.46084668718E+03  0.46084668718E+03  0.00000000000E+00 0. -1.
         23    2    1    2    0    0 -0.12781328881E+03 -0.64814031246E+02 -0.23873339503E+03  0.29274735479E+03  0.90389625456E+02 0.  0.
        254    2    1    2    0    0  0.12781328881E+03  0.64814031246E+02  0.87272095120E+03  0.12629335757E+04  0.90156656027E+03 0.  0.
        -24    2    4    4    0    0 -0.25906952660E+03  0.26775887753E+03  0.67707789503E+03  0.77670536379E+03  0.77620294294E+02 0.  0.
         24    2    4    4    0    0  0.38688281541E+03 -0.20294484629E+03  0.19564305616E+03  0.48622821194E+03  0.85303840281E+02 0.  0.
         13    1    3    3    0    0 -0.12170540089E+03 -0.35772610151E+02 -0.22850939789E+03  0.26135881306E+03  0.00000000000E+00 0. -1.
        -13    1    3    3    0    0 -0.61078879197E+01 -0.29041421095E+02 -0.10223997143E+02  0.31388541725E+02  0.00000000000E+00 0.  1.
          2    1    6    6  502    0  0.22181476476E+03 -0.16288181278E+03  0.12532574532E+03  0.30238852035E+03  0.00000000000E+00 0. -1.
          3    1    5    5  503    0 -0.11723947406E+03  0.16946306987E+03  0.32911232342E+03  0.38830110450E+03  0.00000000000E+00 0. -1.
         -4    1    5    5    0  503 -0.14183005254E+03  0.98295807663E+02  0.34796557161E+03  0.38840425929E+03  0.00000000000E+00 0.  1.
         -1    1    6    6    0  502  0.16506805064E+03 -0.40063033506E+02  0.70317310844E+02  0.18383969158E+03  0.00000000000E+00 0.  1.
<mgrwt>
<rscale>  0 0.14206347E+04</rscale>
<asrwt>0</asrwt>
<pdfrwt beam="1">  1        1 0.70899491E-01 0.14206347E+04</pdfrwt>
<pdfrwt beam="2">  1       -1 0.16843604E+00 0.14206347E+04</pdfrwt>
<totfact> 0.12193182E+01</totfact>
</mgrwt>
</event>
<event>
12    1  0.1489025E-007  0.1840703E+04  0.7818608E-02  0.8684949E-01
         -2   -1    0    0    0  501 -0.00000000000E+00  0.00000000000E+00  0.30906236445E+03  0.30906236445E+03  0.00000000000E+00 0.  1.
          2   -1    0    0  501    0  0.00000000000E+00 -0.00000000000E+00 -0.27406993935E+04  0.27406993935E+04  0.00000000000E+00 0. -1.
         23    2    1    2    0    0 -0.49263868012E+03 -0.21335806904E+03 -0.19483328809E+03  0.57812602035E+03  0.89750490149E+02 0.  0.
        254    2    1    2    0    0  0.49263868012E+03  0.21335806904E+03 -0.22368037410E+04  0.24716357376E+04  0.90414473899E+03 0.  0.
        -24    2    4    4    0    0  0.36886665269E+03  0.55172148267E+03 -0.12410298518E+04  0.14096110641E+04  0.79931577639E+02 0.  0.
         24    2    4    4    0    0  0.12377202742E+03 -0.33836341363E+03 -0.99577388917E+03  0.10620246735E+04  0.80755521886E+02 0.  0.
         11    1    3    3    0    0 -0.46792604585E+03 -0.20355557961E+03 -0.20464125341E+03  0.54978877851E+03  0.00000000000E+00 0.  1.
        -11    1    3    3    0    0 -0.24712634265E+02 -0.98024894293E+01  0.98079653179E+01  0.28337241838E+02  0.00000000000E+00 0. -1.
          4    1    6    6  502    0 -0.38612969974E+01 -0.88827793795E+02 -0.24617948207E+03  0.26174343155E+03  0.00000000000E+00 0. -1.
          1    1    5    5  503    0  0.71404143689E+02  0.10974337774E+03 -0.31744287522E+03  0.34338337136E+03  0.00000000000E+00 0. -1.
         -2    1    5    5    0  503  0.29746250900E+03  0.44197810493E+03 -0.92358697658E+03  0.10662276928E+04  0.00000000000E+00 0.  1.
         -3    1    6    6    0  502  0.12763332442E+03 -0.24953561983E+03 -0.74959440710E+03  0.80028124195E+03  0.00000000000E+00 0.  1.
<mgrwt>
<rscale>  0 0.18407032E+04</rscale>
<asrwt>0</asrwt>
<pdfrwt beam="1">  1        2 0.42164604E+00 0.18407032E+04</pdfrwt>
<pdfrwt beam="2">  1       -2 0.47548059E-01 0.18407032E+04</pdfrwt>
<totfact> 0.99233844E+00</totfact>
</mgrwt>
</event>
<event>
12    1  0.1489025E-007  0.2742247E+04  0.7818608E-02  0.8321426E-01
          2   -1    0    0  501    0  0.00000000000E+00  0.00000000000E+00  0.22432531929E+04  0.22432531929E+04  0.00000000000E+00 0. -1.
         -2   -1    0    0    0  501 -0.00000000000E+00 -0.00000000000E+00 -0.83805975802E+03  0.83805975802E+03  0.00000000000E+00 0.  1.
         23    2    1    2    0    0 -0.77362821376E+03 -0.42035148866E+03 -0.33468436508E+03  0.94638008707E+03  0.91791382087E+02 0.  0.
        254    2    1    2    0    0  0.77362821376E+03  0.42035148866E+03  0.17398778000E+04  0.21349328639E+04  0.86923390822E+03 0.  0.
        -24    2    4    4    0    0  0.54688449931E+03  0.46547751039E+03  0.17464374993E+04  0.18900490122E+04  0.80556573925E+02 0.  0.
         24    2    4    4    0    0  0.22674371446E+03 -0.45126021728E+02 -0.65596992547E+01  0.24488385164E+03  0.80473605975E+02 0.  0.
         13    1    3    3    0    0 -0.66107114121E+03 -0.37895451241E+03 -0.31640851071E+03  0.82506722264E+03  0.00000000000E+00 0.  1.
        -13    1    3    3    0    0 -0.11255707255E+03 -0.41396976250E+02 -0.18275854367E+02  0.12131286444E+03  0.00000000000E+00 0. -1.
          2    1    6    6  502    0  0.11552447628E+02 -0.25835064133E+02  0.39473205678E+01  0.28574305322E+02  0.00000000000E+00 0. -1.
          1    1    5    5  503    0  0.44674190191E+02  0.63253655750E+02  0.14961520834E+03  0.16846815367E+03  0.00000000000E+00 0. -1.
         -2    1    5    5    0  503  0.50221030912E+03  0.40222385464E+03  0.15968222909E+04  0.17215808586E+04  0.00000000000E+00 0.  1.
         -1    1    6    6    0  502  0.21519126683E+03 -0.19290957595E+02 -0.10507019823E+02  0.21630954632E+03  0.00000000000E+00 0.  1.
<mgrwt>
<rscale>  0 0.27422474E+04</rscale>
<asrwt>0</asrwt>
<pdfrwt beam="1">  1        2 0.34511587E+00 0.27422474E+04</pdfrwt>
<pdfrwt beam="2">  1       -2 0.12893227E+00 0.27422474E+04</pdfrwt>
<totfact> 0.18925553E+00</totfact>
</mgrwt>
</event>
<event>
12    1  0.1489025E-007  0.1639296E+04  0.7818608E-02  0.8796764E-01
         -2   -1    0    0    0  501 -0.00000000000E+00  0.00000000000E+00  0.36709616869E+03  0.36709616869E+03  0.00000000000E+00 0.  1.
          2   -1    0    0  501    0  0.00000000000E+00 -0.00000000000E+00 -0.18301010833E+04  0.18301010833E+04  0.00000000000E+00 0. -1.
         23    2    1    2    0    0  0.54688692635E+03 -0.10586442033E+03 -0.67672118958E+03  0.88105549704E+03  0.89524492408E+02 0.  0.
        254    2    1    2    0    0 -0.54688692635E+03  0.10586442033E+03 -0.78628372503E+03  0.13161417550E+04  0.89649006531E+03 0.  0.
        -24    2    4    4    0    0 -0.19150646238E+03  0.28244995575E+03 -0.83829178403E+03  0.90856514744E+03  0.79402829466E+02 0.  0.
         24    2    4    4    0    0 -0.35538046397E+03 -0.17658553542E+03  0.52008059001E+02  0.40757660752E+03  0.77046267318E+02 0.  0.
         13    1    3    3    0    0  0.50584786156E+03 -0.12152665678E+03 -0.62202625088E+03  0.81090532378E+03  0.00000000000E+00 0. -1.
        -13    1    3    3    0    0  0.41039064783E+02  0.15662236449E+02 -0.54694938699E+02  0.70150173258E+02  0.00000000000E+00 0.  1.
          4    1    6    6  502    0 -0.23691800303E+03 -0.80203793733E+02  0.15794717052E+02  0.25062374543E+03  0.00000000000E+00 0. -1.
          1    1    5    5  503    0 -0.10989894438E+03  0.11489721549E+03 -0.31059673422E+03  0.34892618047E+03  0.00000000000E+00 0. -1.
         -2    1    5    5    0  503 -0.81607517999E+02  0.16755274025E+03 -0.52769504981E+03  0.55963896697E+03  0.00000000000E+00 0.  1.
         -3    1    6    6    0  502 -0.11846246094E+03 -0.96381741688E+02  0.36213341949E+02  0.15695286209E+03  0.00000000000E+00 0.  1.
<mgrwt>
<rscale>  0 0.16392963E+04</rscale>
<asrwt>0</asrwt>
<pdfrwt beam="1">  1        2 0.28155401E+00 0.16392963E+04</pdfrwt>
<pdfrwt beam="2">  1       -2 0.56476333E-01 0.16392963E+04</pdfrwt>
<totfact> 0.23350966E+01</totfact>
</mgrwt>
</event>
<event>
12    1  0.1489025E-007  0.2095198E+04  0.7818608E-02  0.8563361E-01
         -1   -1    0    0    0  501 -0.00000000000E+00  0.00000000000E+00  0.45826220166E+03  0.45826220166E+03  0.00000000000E+00 0.  1.
          1   -1    0    0  501    0  0.00000000000E+00 -0.00000000000E+00 -0.23948386697E+04  0.23948386697E+04  0.00000000000E+00 0. -1.
         23    2    1    2    0    0  0.35208363983E+03  0.71071697211E+03 -0.12434715111E+04  0.14775715152E+04  0.88964485874E+02 0.  0.
        254    2    1    2    0    0 -0.35208363983E+03 -0.71071697211E+03 -0.69310495700E+03  0.13755293562E+04  0.88464966201E+03 0.  0.
        -24    2    4    4    0    0 -0.42997993472E+03 -0.67679988232E+03 -0.14940231879E+03  0.81952255354E+03  0.79720373387E+02 0.  0.
         24    2    4    4    0    0  0.77896294894E+02 -0.33917089796E+02 -0.54370263821E+03  0.55600680267E+03  0.79453156501E+02 0.  0.
         13    1    3    3    0    0  0.18155297311E+03  0.46352046837E+03 -0.77429319295E+03  0.92051217009E+03  0.00000000000E+00 0. -1.
        -13    1    3    3    0    0  0.17053066672E+03  0.24719650375E+03 -0.46917831813E+03  0.55705934509E+03  0.00000000000E+00 0.  1.
          2    1    6    6  502    0 -0.38411098114E+01 -0.23184158425E+02 -0.47420286980E+02  0.52923935452E+02  0.00000000000E+00 0. -1.
          3    1    5    5  503    0 -0.10594196787E+03 -0.23583793089E+03 -0.44632668865E+02  0.26236483250E+03  0.00000000000E+00 0. -1.
         -4    1    5    5    0  503 -0.32403796686E+03 -0.44096195143E+03 -0.10476964993E+03  0.55715772104E+03  0.00000000000E+00 0.  1.
         -1    1    6    6    0  502  0.81737404706E+02 -0.10732931371E+02 -0.49628235123E+03  0.50308286722E+03  0.00000000000E+00 0.  1.
<mgrwt>
<rscale>  0 0.20951984E+04</rscale>
<asrwt>0</asrwt>
<pdfrwt beam="1">  1        1 0.36843671E+00 0.20951984E+04</pdfrwt>
<pdfrwt beam="2">  1       -1 0.70501878E-01 0.20951984E+04</pdfrwt>
<totfact> 0.29965796E+00</totfact>
</mgrwt>
</event>
<event>
12    1  0.1489025E-007  0.1656717E+04  0.7818608E-02  0.8786443E-01
         -2   -1    0    0    0  501 -0.00000000000E+00  0.00000000000E+00  0.20378504468E+03  0.20378504468E+03  0.00000000000E+00 0.  1.
          2   -1    0    0  501    0  0.00000000000E+00 -0.00000000000E+00 -0.33671642407E+04  0.33671642407E+04  0.00000000000E+00 0. -1.
         23    2    1    2    0    0  0.54313928172E+03 -0.20687227370E+03 -0.12026814687E+04  0.13389736604E+04  0.92797258304E+02 0.  0.
        254    2    1    2    0    0 -0.54313928172E+03  0.20687227370E+03 -0.19606977273E+04  0.22319756250E+04  0.89419415990E+03 0.  0.
        -24    2    4    4    0    0 -0.42536622598E+03  0.77066956905E+01 -0.24082490521E+03  0.49489216332E+03  0.76979211301E+02 0.  0.
         24    2    4    4    0    0 -0.11777305574E+03  0.19916557801E+03 -0.17198728221E+04  0.17370834617E+04  0.77194614025E+02 0.  0.
         11    1    3    3    0    0  0.30379416609E+03 -0.83846660054E+02 -0.56751151257E+03  0.64914595789E+03  0.00000000000E+00 0.  1.
        -11    1    3    3    0    0  0.23934511564E+03 -0.12302561365E+03 -0.63516995613E+03  0.68982770252E+03  0.00000000000E+00 0. -1.
          4    1    6    6  502    0 -0.48548161898E+02  0.13008580919E+03 -0.12078640442E+04  0.12158185683E+04  0.00000000000E+00 0. -1.
          1    1    5    5  503    0 -0.30092055852E+03  0.39923843850E+02 -0.17664382032E+03  0.35121237892E+03  0.00000000000E+00 0. -1.
         -2    1    5    5    0  503 -0.12444566747E+03 -0.32217148160E+02 -0.64181084892E+02  0.14367978440E+03  0.00000000000E+00 0.  1.
         -3    1    6    6    0  502 -0.69224893841E+02  0.69079768822E+02 -0.51200877794E+03  0.52126489338E+03  0.00000000000E+00 0.  1.
<mgrwt>
<rscale>  0 0.16567169E+04</rscale>
<asrwt>0</asrwt>
<pdfrwt beam="1">  1        2 0.51802528E+00 0.16567169E+04</pdfrwt>
<pdfrwt beam="2">  1       -2 0.31351545E-01 0.16567169E+04</pdfrwt>
<totfact> 0.91309154E+00</totfact>
</mgrwt>
</event>
<event>
12    1  0.1489025E-007  0.1957965E+04  0.7818608E-02  0.8626530E-01
          2   -1    0    0  501    0  0.00000000000E+00  0.00000000000E+00  0.65831291257E+03  0.65831291257E+03  0.00000000000E+00 0.  1.
         -2   -1    0    0    0  501 -0.00000000000E+00 -0.00000000000E+00 -0.14558521834E+04  0.14558521834E+04  0.00000000000E+00 0. -1.
         23    2    1    2    0    0  0.45455982785E+03  0.32688100446E+03 -0.88129234168E+03  0.10480990398E+04  0.91430725791E+02 0.  0.
        254    2    1    2    0    0 -0.45455982785E+03 -0.32688100446E+03  0.83753070809E+02  0.10660660562E+04  0.90333074292E+03 0.  0.
        -24    2    4    4    0    0  0.26865127059E+03 -0.12480595098E+03  0.45217916226E+01  0.30689074424E+03  0.80071541208E+02 0.  0.
         24    2    4    4    0    0 -0.72321109844E+03 -0.20207505348E+03  0.79231279186E+02  0.75917531194E+03  0.78746038074E+02 0.  0.
         13    1    3    3    0    0  0.18968865478E+03  0.17888272837E+03 -0.35260048232E+03  0.43852926515E+03  0.00000000000E+00 0.  1.
        -13    1    3    3    0    0  0.26487117307E+03  0.14799827609E+03 -0.52869185936E+03  0.60956977468E+03  0.00000000000E+00 0. -1.
          4    1    6    6  502    0 -0.11956655022E+02 -0.13408537735E+02 -0.46519464296E+01  0.18557777052E+02  0.00000000000E+00 0. -1.
          1    1    5    5  503    0  0.16537706719E+03 -0.34036803487E+02  0.11374745426E+02  0.16922607121E+03  0.00000000000E+00 0. -1.
         -2    1    5    5    0  503  0.10327420340E+03 -0.90769147498E+02 -0.68529538031E+01  0.13766467304E+03  0.00000000000E+00 0.  1.
         -3    1    6    6    0  502 -0.71125444341E+03 -0.18866651574E+03  0.83883225616E+02  0.74061753488E+03  0.00000000000E+00 0.  1.
<mgrwt>
<rscale>  0 0.19579645E+04</rscale>
<asrwt>0</asrwt>
<pdfrwt beam="1">  1        2 0.10127891E+00 0.19579645E+04</pdfrwt>
<pdfrwt beam="2">  1       -2 0.22397726E+00 0.19579645E+04</pdfrwt>
<totfact> 0.38463759E+00</totfact>
</mgrwt>
</event>
<event>
12    1  0.1489025E-007  0.2165197E+04  0.7818608E-02  0.8533055E-01
          2   -1    0    0  501    0  0.00000000000E+00  0.00000000000E+00  0.67282400243E+03  0.67282400243E+03  0.00000000000E+00 0.  1.
         -2   -1    0    0    0  501 -0.00000000000E+00 -0.00000000000E+00 -0.17419410414E+04  0.17419410414E+04  0.00000000000E+00 0. -1.
         23    2    1    2    0    0  0.84137346026E+03 -0.25181851774E+03 -0.25594709209E+03  0.91928721071E+03  0.90874618707E+02 0.  0.
        254    2    1    2    0    0 -0.84137346026E+03  0.25181851774E+03 -0.81316994693E+03  0.14954778331E+04  0.89659730166E+03 0.  0.
        -24    2    4    4    0    0 -0.93220757762E+03  0.24999052439E+03 -0.91850379170E+03  0.13346992730E+04  0.79162516317E+02 0.  0.
         24    2    4    4    0    0  0.90834117355E+02  0.18279933480E+01  0.10533384477E+03  0.16077856013E+03  0.80624736315E+02 0.  0.
         11    1    3    3    0    0  0.15123874258E+03 -0.39616808054E+02 -0.82288892911E+02  0.17667515568E+03  0.00000000000E+00 0. -1.
        -11    1    3    3    0    0  0.69013471768E+03 -0.21220170968E+03 -0.17365819917E+03  0.74261205503E+03  0.00000000000E+00 0.  1.
          4    1    6    6  502    0  0.94340341877E+02 -0.16540765508E+02  0.63394363448E+02  0.11485879307E+03  0.00000000000E+00 0. -1.
          1    1    5    5  503    0 -0.91539177423E+03  0.23898750531E+03 -0.88417911806E+03  0.12949246468E+04  0.00000000000E+00 0. -1.
         -2    1    5    5    0  503 -0.16815803390E+02  0.11003019081E+02 -0.34324673641E+02  0.39774626247E+02  0.00000000000E+00 0.  1.
         -3    1    6    6    0  502 -0.35062245219E+01  0.18368758856E+02  0.41939481326E+02  0.45919767053E+02  0.00000000000E+00 0.  1.
<mgrwt>
<rscale>  0 0.21651972E+04</rscale>
<asrwt>0</asrwt>
<pdfrwt beam="1">  1        2 0.10351138E+00 0.21651972E+04</pdfrwt>
<pdfrwt beam="2">  1       -2 0.26799093E+00 0.21651972E+04</pdfrwt>
<totfact> 0.19684168E+00</totfact>
</mgrwt>
</event>
<event>
12    1  0.1489025E-007  0.1867534E+04  0.7818608E-02  0.8671188E-01
          1   -1    0    0  501    0  0.00000000000E+00  0.00000000000E+00  0.17531285030E+04  0.17531285030E+04  0.00000000000E+00 0. -1.
         -1   -1    0    0    0  501 -0.00000000000E+00 -0.00000000000E+00 -0.49735127706E+03  0.49735127706E+03  0.00000000000E+00 0.  1.
         23    2    1    2    0    0  0.22532224153E+03 -0.61893154819E+03  0.13041173478E+03  0.67618901152E+03  0.79862286848E+02 0.  0.
        254    2    1    2    0    0 -0.22532224153E+03  0.61893154819E+03  0.11253654912E+04  0.15742907686E+04  0.88209838529E+03 0.  0.
        -24    2    4    4    0    0 -0.34722437695E+03  0.66842516781E+03  0.44836357749E+03  0.88011717651E+03  0.78863006933E+02 0.  0.
         24    2    4    4    0    0  0.12190213541E+03 -0.49493619620E+02  0.67700191369E+03  0.69417359205E+03  0.78966041737E+02 0.  0.
         11    1    3    3    0    0  0.51003037447E+02 -0.10523676525E+03  0.52379030746E+02  0.12813918000E+03  0.00000000000E+00 0. -1.
        -11    1    3    3    0    0  0.17431920408E+03 -0.51369478293E+03  0.78032704031E+02  0.54804983152E+03  0.00000000000E+00 0.  1.
          4    1    6    6  502    0  0.15342196712E+02  0.70364662532E+01  0.19911725939E+02  0.26103097271E+02  0.00000000000E+00 0. -1.
          3    1    5    5  503    0 -0.10072808332E+03  0.12734934215E+03  0.10805316443E+03  0.19503714533E+03  0.00000000000E+00 0. -1.
         -4    1    5    5    0  503 -0.24649629362E+03  0.54107582566E+03  0.34031041306E+03  0.68508003118E+03  0.00000000000E+00 0.  1.
         -3    1    6    6    0  502  0.10655993870E+03 -0.56530085873E+02  0.65709018776E+03  0.66807049478E+03  0.00000000000E+00 0.  1.
<mgrwt>
<rscale>  0 0.18675339E+04</rscale>
<asrwt>0</asrwt>
<pdfrwt beam="1">  1        1 0.26971207E+00 0.18675339E+04</pdfrwt>
<pdfrwt beam="2">  1       -1 0.76515582E-01 0.18675339E+04</pdfrwt>
<totfact> 0.70513651E+00</totfact>
</mgrwt>
</event>
<event>
12    1  0.1489025E-007  0.1589701E+04  0.7818608E-02  0.8826900E-01
          2   -1    0    0  501    0  0.00000000000E+00  0.00000000000E+00  0.27777775265E+04  0.27777775265E+04  0.00000000000E+00 0. -1.
         -2   -1    0    0    0  501 -0.00000000000E+00 -0.00000000000E+00 -0.22744348751E+03  0.22744348751E+03  0.00000000000E+00 0.  1.
         23    2    1    2    0    0  0.39112576339E+03 -0.24185239689E+03  0.37632922654E+03  0.60093777064E+03  0.89613463057E+02 0.  0.
        254    2    1    2    0    0 -0.39112576339E+03  0.24185239689E+03  0.21740048125E+04  0.24042832434E+04  0.91804631970E+03 0.  0.
        -24    2    4    4    0    0 -0.67141787549E+03  0.26441304287E+03  0.14070898363E+04  0.15834944688E+04  0.82684365704E+02 0.  0.
         24    2    4    4    0    0  0.28029211210E+03 -0.22560645975E+02  0.76691497613E+03  0.82078877461E+03  0.80392668002E+02 0.  0.
         11    1    3    3    0    0  0.67913095588E+02 -0.23146814904E+02  0.25423884002E+02  0.76120545651E+02  0.00000000000E+00 0. -1.
        -11    1    3    3    0    0  0.32321266780E+03 -0.21870558199E+03  0.35090534254E+03  0.52481722499E+03  0.00000000000E+00 0.  1.
          2    1    6    6  502    0  0.12343573499E+03 -0.45166685351E+02  0.40214019447E+03  0.42307581607E+03  0.00000000000E+00 0. -1.
          1    1    5    5  503    0 -0.26009605897E+03  0.13776945207E+03  0.52012662859E+03  0.59763039714E+03  0.00000000000E+00 0. -1.
         -4    1    5    5    0  503 -0.41132181652E+03  0.12664359080E+03  0.88696320775E+03  0.98586407163E+03  0.00000000000E+00 0.  1.
         -1    1    6    6    0  502  0.15685637711E+03  0.22606039376E+02  0.36477478166E+03  0.39771295854E+03  0.00000000000E+00 0.  1.
<mgrwt>
<rscale>  0 0.15897011E+04</rscale>
<asrwt>0</asrwt>
<pdfrwt beam="1">  1        2 0.42735036E+00 0.15897011E+04</pdfrwt>
<pdfrwt beam="2">  1       -2 0.34991308E-01 0.15897011E+04</pdfrwt>
<totfact> 0.17615782E+01</totfact>
</mgrwt>
</event>
<event>
12    1  0.1489025E-007  0.1235875E+04  0.7818608E-02  0.9082022E-01
          2   -1    0    0  501    0  0.00000000000E+00  0.00000000000E+00  0.16992045870E+04  0.16992045870E+04  0.00000000000E+00 0. -1.
         -2   -1    0    0    0  501 -0.00000000000E+00 -0.00000000000E+00 -0.22472093324E+03  0.22472093324E+03  0.00000000000E+00 0.  1.
         23    2    1    2    0    0 -0.26420618882E+03  0.60650160584E+01  0.17797754041E+03  0.33150544421E+03  0.91532289474E+02 0.  0.
        254    2    1    2    0    0  0.26420618882E+03 -0.60650160584E+01  0.12965061133E+04  0.15924200760E+04  0.88602026048E+03 0.  0.
        -24    2    4    4    0    0 -0.30394448413E+03  0.12052118737E+03  0.48667883934E+03  0.59180359973E+03  0.80421402347E+02 0.  0.
         24    2    4    4    0    0  0.56815067295E+03 -0.12658620343E+03  0.80982727399E+03  0.10006164763E+04  0.81202616068E+02 0.  0.
         13    1    3    3    0    0 -0.94789643138E+02 -0.12968269878E+02  0.11539915370E+03  0.14990069094E+03  0.00000000000E+00 0. -1.
        -13    1    3    3    0    0 -0.16941654569E+03  0.19033285936E+02  0.62578386710E+02  0.18160475327E+03  0.00000000000E+00 0.  1.
          2    1    6    6  502    0  0.49877346486E+03 -0.13414125044E+03  0.68922487854E+03  0.86127799085E+03  0.00000000000E+00 0. -1.
          1    1    5    5  503    0 -0.27627625116E+03  0.85293731819E+02  0.39238684849E+03  0.48741258345E+03  0.00000000000E+00 0. -1.
         -2    1    5    5    0  503 -0.27668232962E+02  0.35227455549E+02  0.94291990849E+02  0.10439101627E+03  0.00000000000E+00 0.  1.
         -1    1    6    6    0  502  0.69377208084E+02  0.75550470140E+01  0.12060239544E+03  0.13933848544E+03  0.00000000000E+00 0.  1.
<mgrwt>
<rscale>  0 0.12358751E+04</rscale>
<asrwt>0</asrwt>
<pdfrwt beam="1">  1        2 0.26141608E+00 0.12358751E+04</pdfrwt>
<pdfrwt beam="2">  1       -2 0.34572452E-01 0.12358751E+04</pdfrwt>
<totfact> 0.75783649E+01</totfact>
</mgrwt>
</event>
<event>
12    1  0.1489025E-007  0.1980713E+04  0.7818608E-02  0.8615692E-01
         -3   -1    0    0    0  501 -0.00000000000E+00  0.00000000000E+00  0.18372334181E+04  0.18372334181E+04  0.00000000000E+00 0.  1.
          3   -1    0    0  501    0  0.00000000000E+00 -0.00000000000E+00 -0.53384916232E+03  0.53384916232E+03  0.00000000000E+00 0. -1.
         23    2    1    2    0    0  0.48030484238E+03 -0.23534718852E+03  0.11923104908E+04  0.13098642495E+04  0.89771959261E+02 0.  0.
        254    2    1    2    0    0 -0.48030484238E+03  0.23534718852E+03  0.11107376491E+03  0.10612183309E+04  0.90981642319E+03 0.  0.
        -24    2    4    4    0    0 -0.14795139051E+03  0.36705811330E+03  0.41942223646E+03  0.58224626395E+03  0.80463823916E+02 0.  0.
         24    2    4    4    0    0 -0.33235345187E+03 -0.13171092478E+03 -0.30834847155E+03  0.47897206698E+03  0.80801462663E+02 0.  0.
         11    1    3    3    0    0  0.19363338539E+02  0.20736963074E+01  0.84584908555E+02  0.86797729527E+02  0.00000000000E+00 0. -1.
        -11    1    3    3    0    0  0.46094150384E+03 -0.23742088483E+03  0.11077255823E+04  0.12230665199E+04  0.00000000000E+00 0.  1.
          2    1    6    6  502    0 -0.27868240958E+03 -0.12134609701E+03 -0.29303135399E+03  0.42220390227E+03  0.00000000000E+00 0. -1.
          1    1    5    5  503    0 -0.96675571799E+02  0.28042134135E+03  0.26411396056E+03  0.39716303835E+03  0.00000000000E+00 0. -1.
         -2    1    5    5    0  503 -0.51275818711E+02  0.86636771951E+02  0.15530827589E+03  0.18508322560E+03  0.00000000000E+00 0.  1.
         -1    1    6    6    0  502 -0.53671042288E+02 -0.10364827772E+02 -0.15317117561E+02  0.56768164717E+02  0.00000000000E+00 0.  1.
<mgrwt>
<rscale>  0 0.19807125E+04</rscale>
<asrwt>0</asrwt>
<pdfrwt beam="1">  1        3 0.82130641E-01 0.19807125E+04</pdfrwt>
<pdfrwt beam="2">  1       -3 0.28265129E+00 0.19807125E+04</pdfrwt>
<totfact> 0.15886394E-01</totfact>
</mgrwt>
</event>
<event>
12    1  0.1489025E-007  0.2133365E+04  0.7818608E-02  0.8546686E-01
         -2   -1    0    0    0  501 -0.00000000000E+00  0.00000000000E+00  0.55409642301E+03  0.55409642301E+03  0.00000000000E+00 0.  1.
          2   -1    0    0  501    0  0.00000000000E+00 -0.00000000000E+00 -0.20534547608E+04  0.20534547608E+04  0.00000000000E+00 0. -1.
         23    2    1    2    0    0  0.59741414841E+03 -0.62568182950E+03 -0.75059478085E+03  0.11486849005E+04  0.87767073451E+02 0.  0.
        254    2    1    2    0    0 -0.59741414841E+03  0.62568182950E+03 -0.74876355689E+03  0.14588662832E+04  0.90513123454E+03 0.  0.
        -24    2    4    4    0    0 -0.17356772454E+03  0.72622941948E+03 -0.67611235738E+03  0.10099900064E+04  0.73600057904E+02 0.  0.
         24    2    4    4    0    0 -0.42384642387E+03 -0.10054758998E+03 -0.72651199506E+02  0.44887627682E+03  0.80349898719E+02 0.  0.
         11    1    3    3    0    0  0.53994747275E+03 -0.59561662968E+03 -0.70654180629E+03  0.10702820969E+04  0.00000000000E+00 0. -1.
        -11    1    3    3    0    0  0.57466675665E+02 -0.30065199820E+02 -0.44052974563E+02  0.78402803649E+02  0.00000000000E+00 0.  1.
          2    1    6    6  502    0 -0.35160956731E+02 -0.33335332056E+02 -0.10114421465E+02  0.49495845918E+02  0.00000000000E+00 0. -1.
          1    1    5    5  503    0 -0.13531959145E+03  0.46310637963E+03 -0.40063112036E+03  0.62712375596E+03  0.00000000000E+00 0. -1.
         -2    1    5    5    0  503 -0.38248133086E+02  0.26312303985E+03 -0.27548123702E+03  0.38286625045E+03  0.00000000000E+00 0.  1.
         -1    1    6    6    0  502 -0.38868546714E+03 -0.67212257928E+02 -0.62536778041E+02  0.39938043090E+03  0.00000000000E+00 0.  1.
<mgrwt>
<rscale>  0 0.21333654E+04</rscale>
<asrwt>0</asrwt>
<pdfrwt beam="1">  1        2 0.31591611E+00 0.21333654E+04</pdfrwt>
<pdfrwt beam="2">  1       -2 0.85245605E-01 0.21333654E+04</pdfrwt>
<totfact> 0.68621294E+00</totfact>
</mgrwt>
</event>
<event>
12    1  0.1489025E-007  0.1326017E+04  0.7818608E-02  0.9009184E-01
          2   -1    0    0  501    0  0.00000000000E+00  0.00000000000E+00  0.61460326323E+03  0.61460326323E+03  0.00000000000E+00 0. -1.
         -2   -1    0    0    0  501 -0.00000000000E+00 -0.00000000000E+00 -0.71522557084E+03  0.71522557084E+03  0.00000000000E+00 0.  1.
         23    2    1    2    0    0  0.19389729524E+03 -0.23428090657E+03 -0.20746012558E+03  0.38337769543E+03  0.10702826431E+03 0.  0.
        254    2    1    2    0    0 -0.19389729524E+03  0.23428090657E+03  0.10683781797E+03  0.94645113864E+03  0.88987175154E+03 0.  0.
        -24    2    4    4    0    0 -0.23218168183E+03  0.13304025072E+02  0.45926128746E+03  0.52099469352E+03  0.80182355050E+02 0.  0.
         24    2    4    4    0    0  0.38284386586E+02  0.22097688150E+03 -0.35242346949E+03  0.42545644512E+03  0.80711885325E+02 0.  0.
         13    1    3    3    0    0  0.41270193924E+02 -0.12063928048E+03 -0.52154965633E+02  0.13775777779E+03  0.00000000000E+00 0. -1.
        -13    1    3    3    0    0  0.15262710132E+03 -0.11364162610E+03 -0.15530515994E+03  0.24561991764E+03  0.00000000000E+00 0.  1.
          4    1    6    6  502    0  0.72940723926E+01  0.29515431845E+01  0.20645758612E+01  0.81349599092E+01  0.00000000000E+00 0. -1.
          3    1    5    5  503    0 -0.56332369677E+02  0.22372714638E+02  0.63265341239E+02  0.87614939570E+02  0.00000000000E+00 0. -1.
         -4    1    5    5    0  503 -0.17584931215E+03 -0.90686895657E+01  0.39599594622E+03  0.43337975395E+03  0.00000000000E+00 0.  1.
         -3    1    6    6    0  502  0.30990314193E+02  0.21802533832E+03 -0.35448804535E+03  0.41732148521E+03  0.00000000000E+00 0.  1.
<mgrwt>
<rscale>  0 0.13260165E+04</rscale>
<asrwt>0</asrwt>
<pdfrwt beam="1">  1        2 0.94554349E-01 0.13260165E+04</pdfrwt>
<pdfrwt beam="2">  1       -2 0.11003470E+00 0.13260165E+04</pdfrwt>
<totfact> 0.30940919E+01</totfact>
</mgrwt>
</event>
<event>
12    1  0.1489025E-007  0.1211265E+04  0.7818608E-02  0.9103053E-01
          2   -1    0    0  501    0  0.00000000000E+00  0.00000000000E+00  0.94073549912E+03  0.94073549912E+03  0.00000000000E+00 0. -1.
         -2   -1    0    0    0  501 -0.00000000000E+00 -0.00000000000E+00 -0.38989806585E+03  0.38989806585E+03  0.00000000000E+00 0.  1.
         23    2    1    2    0    0  0.32091847636E+01  0.18217018390E+03  0.34571470301E+03  0.40115570011E+03  0.90614375727E+02 0.  0.
        254    2    1    2    0    0 -0.32091847636E+01 -0.18217018390E+03  0.20512273026E+03  0.92947786486E+03  0.88806390087E+03 0.  0.
        -24    2    4    4    0    0 -0.84074587692E+02 -0.10532790541E+02  0.53115043507E+03  0.54395271508E+03  0.81143672569E+02 0.  0.
         24    2    4    4    0    0  0.80865402929E+02 -0.17163739336E+03 -0.32602770481E+03  0.38552514978E+03  0.79605079083E+02 0.  0.
         11    1    3    3    0    0 -0.42861207447E+01  0.58876795774E+01 -0.48104533511E+01  0.87278899677E+01  0.00000000000E+00 0.  1.
        -11    1    3    3    0    0  0.74953055082E+01  0.17628250432E+03  0.35052515636E+03  0.39242781015E+03  0.00000000000E+00 0. -1.
          4    1    6    6  502    0  0.59606349174E+02 -0.11120370030E+03 -0.13848680843E+03  0.18734400426E+03  0.00000000000E+00 0. -1.
          1    1    5    5  503    0 -0.22202571798E+02  0.30775108012E+02  0.11207432120E+03  0.11832461679E+03  0.00000000000E+00 0. -1.
         -2    1    5    5    0  503 -0.61872015894E+02 -0.41307898553E+02  0.41907611387E+03  0.42562809829E+03  0.00000000000E+00 0.  1.
         -3    1    6    6    0  502  0.21259053755E+02 -0.60433693057E+02 -0.18754089638E+03  0.19818114552E+03  0.00000000000E+00 0.  1.
<mgrwt>
<rscale>  0 0.12112654E+04</rscale>
<asrwt>0</asrwt>
<pdfrwt beam="1">  1        2 0.14472854E+00 0.12112654E+04</pdfrwt>
<pdfrwt beam="2">  1       -2 0.59984318E-01 0.12112654E+04</pdfrwt>
<totfact> 0.70369597E+01</totfact>
</mgrwt>
</event>
<event>
12    1  0.1489025E-007  0.1935041E+04  0.7818608E-02  0.8637608E-01
          1   -1    0    0  501    0  0.00000000000E+00  0.00000000000E+00  0.17469453684E+04  0.17469453684E+04  0.00000000000E+00 0. -1.
         -1   -1    0    0    0  501 -0.00000000000E+00 -0.00000000000E+00 -0.53584724394E+03  0.53584724394E+03  0.00000000000E+00 0.  1.
         23    2    1    2    0    0  0.75008500816E+03 -0.55405460828E+02  0.56497246529E+03  0.94505561532E+03  0.90768634265E+02 0.  0.
        254    2    1    2    0    0 -0.75008500816E+03  0.55405460828E+02  0.64612565913E+03  0.13377369970E+04  0.89797807386E+03 0.  0.
        -24    2    4    4    0    0 -0.77322441458E+03  0.33815980268E+02  0.99889336009E+02  0.78474575546E+03  0.82634771444E+02 0.  0.
         24    2    4    4    0    0  0.23139406418E+02  0.21589480560E+02  0.54623632312E+03  0.55299124151E+03  0.80147705458E+02 0.  0.
         13    1    3    3    0    0  0.74614818983E+03 -0.56428398112E+02  0.56844457114E+03  0.93970767569E+03  0.00000000000E+00 0.  1.
        -13    1    3    3    0    0  0.39368183336E+01  0.10229372838E+01 -0.34721058513E+01  0.53479396333E+01  0.00000000000E+00 0. -1.
          2    1    6    6  502    0  0.19680394511E+02  0.54202287217E+01  0.52792345602E+03  0.52831796508E+03  0.00000000000E+00 0. -1.
          3    1    5    5  503    0 -0.60271402140E+03  0.58881264869E+02  0.66817137017E+02  0.60925833991E+03  0.00000000000E+00 0. -1.
         -4    1    5    5    0  503 -0.17051039317E+03 -0.25065284601E+02  0.33072198992E+02  0.17548741556E+03  0.00000000000E+00 0.  1.
         -1    1    6    6    0  502  0.34590119070E+01  0.16169251839E+02  0.18312867095E+02  0.24673276427E+02  0.00000000000E+00 0.  1.
<mgrwt>
<rscale>  0 0.19350409E+04</rscale>
<asrwt>0</asrwt>
<pdfrwt beam="1">  1        1 0.26876082E+00 0.19350409E+04</pdfrwt>
<pdfrwt beam="2">  1       -1 0.82438038E-01 0.19350409E+04</pdfrwt>
<totfact> 0.60403065E+00</totfact>
</mgrwt>
</event>
<event>
12    1  0.1489025E-007  0.1718294E+04  0.7818608E-02  0.8750999E-01
          2   -1    0    0  501    0  0.00000000000E+00  0.00000000000E+00  0.35450626841E+04  0.35450626841E+04  0.00000000000E+00 0. -1.
         -2   -1    0    0    0  501 -0.00000000000E+00 -0.00000000000E+00 -0.20821461708E+03  0.20821461708E+03  0.00000000000E+00 0.  1.
         23    2    1    2    0    0  0.13321569257E+03 -0.25983435817E+03  0.24054855643E+04  0.24250920487E+04  0.97212809697E+02 0.  0.
        254    2    1    2    0    0 -0.13321569257E+03  0.25983435817E+03  0.93136250281E+03  0.13281852525E+04  0.90076614000E+03 0.  0.
        -24    2    4    4    0    0  0.65533257486E+02 -0.29930590165E+03  0.49268015270E+03  0.58580667385E+03  0.80975895571E+02 0.  0.
         24    2    4    4    0    0 -0.19874895005E+03  0.55914025982E+03  0.43868235011E+03  0.74237857868E+03  0.80899780511E+02 0.  0.
         13    1    3    3    0    0  0.29864636421E+02 -0.14274356863E+03  0.93013940284E+03  0.94150248624E+03  0.00000000000E+00 0.  1.
        -13    1    3    3    0    0  0.10335105614E+03 -0.11709078955E+03  0.14753461614E+04  0.14835895625E+04  0.00000000000E+00 0. -1.
          2    1    6    6  502    0 -0.14559172620E+02  0.47358098430E+02  0.68098696307E+02  0.84215149665E+02  0.00000000000E+00 0. -1.
          3    1    5    5  503    0  0.23348215537E+02 -0.14227351836E+03  0.15910466996E+03  0.21471187484E+03  0.00000000000E+00 0. -1.
         -4    1    5    5    0  503  0.42185041949E+02 -0.15703238330E+03  0.33357548274E+03  0.37109479902E+03  0.00000000000E+00 0.  1.
         -1    1    6    6    0  502 -0.18418977743E+03  0.51178216139E+03  0.37058365380E+03  0.65816342901E+03  0.00000000000E+00 0.  1.
<mgrwt>
<rscale>  0 0.17182944E+04</rscale>
<asrwt>0</asrwt>
<pdfrwt beam="1">  1        2 0.54539421E+00 0.17182944E+04</pdfrwt>
<pdfrwt beam="2">  1       -2 0.32033021E-01 0.17182944E+04</pdfrwt>
<totfact> 0.65763547E+00</totfact>
</mgrwt>
</event>
<event>
12    1  0.1489025E-007  0.1048942E+04  0.7818608E-02  0.9256437E-01
          2   -1    0    0  501    0  0.00000000000E+00  0.00000000000E+00  0.18094862170E+04  0.18094862170E+04  0.00000000000E+00 0. -1.
         -2   -1    0    0    0  501 -0.00000000000E+00 -0.00000000000E+00 -0.15201535914E+03  0.15201535914E+03  0.00000000000E+00 0.  1.
         23    2    1    2    0    0  0.91461921427E+01  0.40725807658E+02  0.39569106156E+03  0.40759474459E+03  0.88429719985E+02 0.  0.
        254    2    1    2    0    0 -0.91461921427E+01 -0.40725807658E+02  0.12617797963E+04  0.15539068316E+04  0.90597789299E+03 0.  0.
        -24    2    4    4    0    0 -0.57333880775E+02  0.15958205133E+03  0.13140895729E+04  0.13273568909E+04  0.79317748070E+02 0.  0.
         24    2    4    4    0    0  0.48187688632E+02 -0.20030785898E+03 -0.52309776568E+02  0.22654994071E+03  0.78379022745E+02 0.  0.
         11    1    3    3    0    0 -0.39875531545E+01 -0.27539785766E+02  0.96381848407E+02  0.10031849821E+03  0.00000000000E+00 0.  1.
        -11    1    3    3    0    0  0.13133745297E+02  0.68265593424E+02  0.29930921316E+03  0.30727624638E+03  0.00000000000E+00 0. -1.
          2    1    6    6  502    0 -0.54538274519E+01 -0.11629362534E+03 -0.50375063761E+02  0.12685266484E+03  0.00000000000E+00 0. -1.
          3    1    5    5  503    0  0.18691118893E+02  0.39557189085E+02  0.38281224104E+03  0.38530421880E+03  0.00000000000E+00 0. -1.
         -4    1    5    5    0  503 -0.76024999668E+02  0.12002486224E+03  0.93127733186E+03  0.94205267208E+03  0.00000000000E+00 0.  1.
         -1    1    6    6    0  502  0.53641516084E+02 -0.84014233641E+02 -0.19347128068E+01  0.99697275869E+02  0.00000000000E+00 0.  1.
<mgrwt>
<rscale>  0 0.10489417E+04</rscale>
<asrwt>0</asrwt>
<pdfrwt beam="1">  1        2 0.27838248E+00 0.10489417E+04</pdfrwt>
<pdfrwt beam="2">  1       -2 0.23386980E-01 0.10489417E+04</pdfrwt>
<totfact> 0.13750704E+02</totfact>
</mgrwt>
</event>
<event>
12    1  0.1489025E-007  0.1653646E+04  0.7818608E-02  0.8788253E-01
         -2   -1    0    0    0  501 -0.00000000000E+00  0.00000000000E+00  0.30314034370E+03  0.30314034370E+03  0.00000000000E+00 0.  1.
          2   -1    0    0  501    0  0.00000000000E+00 -0.00000000000E+00 -0.22551794865E+04  0.22551794865E+04  0.00000000000E+00 0. -1.
         23    2    1    2    0    0  0.20381623324E+03 -0.37713355482E+03 -0.89838351414E+02  0.44772312683E+03  0.92813220033E+02 0.  0.
        254    2    1    2    0    0 -0.20381623324E+03  0.37713355482E+03 -0.18622007913E+04  0.21105967033E+04  0.89613385256E+03 0.  0.
        -24    2    4    4    0    0 -0.10002095126E+03  0.64940775211E+03 -0.10198255293E+04  0.12156983812E+04  0.78382553718E+02 0.  0.
         24    2    4    4    0    0 -0.10379528197E+03 -0.27227419729E+03 -0.84237526206E+03  0.89489832211E+03  0.79625534327E+02 0.  0.
         11    1    3    3    0    0  0.69377827233E+02 -0.52468520208E+02 -0.23693461960E+02  0.90153250990E+02  0.00000000000E+00 0. -1.
        -11    1    3    3    0    0  0.13443840600E+03 -0.32466503461E+03 -0.66144889454E+02  0.35756987584E+03  0.00000000000E+00 0.  1.
          2    1    6    6  502    0 -0.11626104542E+03 -0.25778542425E+03 -0.78135276364E+03  0.83095252385E+03  0.00000000000E+00 0. -1.
          1    1    5    5  503    0 -0.11242847992E+03  0.59932035874E+03 -0.95039124284E+03  0.11291893419E+04  0.00000000000E+00 0. -1.
         -2    1    5    5    0  503  0.12407528659E+02  0.50087393365E+02 -0.69434286452E+02  0.86509039277E+02  0.00000000000E+00 0.  1.
         -1    1    6    6    0  502  0.12465763442E+02 -0.14488773035E+02 -0.61022498414E+02  0.63945798259E+02  0.00000000000E+00 0.  1.
<mgrwt>
<rscale>  0 0.16536455E+04</rscale>
<asrwt>0</asrwt>
<pdfrwt beam="1">  1        2 0.34695067E+00 0.16536455E+04</pdfrwt>
<pdfrwt beam="2">  1       -2 0.46636979E-01 0.16536455E+04</pdfrwt>
<totfact> 0.20023683E+01</totfact>
</mgrwt>
</event>
<event>
12    1  0.1489025E-007  0.1059608E+04  0.7818608E-02  0.9245480E-01
         -1   -1    0    0    0  501 -0.00000000000E+00  0.00000000000E+00  0.17966575751E+03  0.17966575751E+03  0.00000000000E+00 0.  1.
          1   -1    0    0  501    0  0.00000000000E+00 -0.00000000000E+00 -0.15623023580E+04  0.15623023580E+04  0.00000000000E+00 0. -1.
         23    2    1    2    0    0  0.43191571113E+02  0.56452060677E+02 -0.39787203157E+02  0.12119369037E+03  0.89735957563E+02 0.  0.
        254    2    1    2    0    0 -0.43191571113E+02 -0.56452060677E+02 -0.13428493973E+04  0.16207744251E+04  0.90477228421E+03 0.  0.
        -24    2    4    4    0    0 -0.32959834186E+03  0.15198996665E+03 -0.20105300632E+03  0.42259885320E+03  0.80196399261E+02 0.  0.
         24    2    4    4    0    0  0.28640677074E+03 -0.20844202733E+03 -0.11417963910E+04  0.11981755719E+04  0.80304331077E+02 0.  0.
         11    1    3    3    0    0  0.26322607469E+02  0.12857044921E+02 -0.62647391020E+02  0.69158360808E+02  0.00000000000E+00 0. -1.
        -11    1    3    3    0    0  0.16868963645E+02  0.43595015756E+02  0.22860187862E+02  0.52035329559E+02  0.00000000000E+00 0.  1.
          2    1    6    6  502    0  0.12714080804E+03 -0.92807824171E+02 -0.37882243870E+03  0.41022495946E+03  0.00000000000E+00 0. -1.
          1    1    5    5  503    0 -0.29780224271E+03  0.16075364279E+03 -0.18795863369E+03  0.38711284842E+03  0.00000000000E+00 0. -1.
         -2    1    5    5    0  503 -0.31796099144E+02 -0.87636761389E+01 -0.13094372636E+02  0.35486004776E+02  0.00000000000E+00 0.  1.
         -1    1    6    6    0  502  0.15926596270E+03 -0.11563420315E+03 -0.76297395229E+03  0.78795061247E+03  0.00000000000E+00 0.  1.
<mgrwt>
<rscale>  0 0.10596079E+04</rscale>
<asrwt>0</asrwt>
<pdfrwt beam="1">  1        1 0.24035421E+00 0.10596079E+04</pdfrwt>
<pdfrwt beam="2">  1       -1 0.27640886E-01 0.10596079E+04</pdfrwt>
<totfact> 0.69691655E+01</totfact>
</mgrwt>
</event>
<event>
12    1  0.1489025E-007  0.1472130E+04  0.7818608E-02  0.8903201E-01
         -1   -1    0    0    0  501 -0.00000000000E+00  0.00000000000E+00  0.56578642556E+03  0.56578642556E+03  0.00000000000E+00 0.  1.
          1   -1    0    0  501    0  0.00000000000E+00 -0.00000000000E+00 -0.95759000595E+03  0.95759000595E+03  0.00000000000E+00 0. -1.
         23    2    1    2    0    0 -0.38795162244E+03 -0.18423018933E+03  0.17525643426E+02  0.43931871628E+03  0.90810584625E+02 0.  0.
        254    2    1    2    0    0  0.38795162244E+03  0.18423018933E+03 -0.40932922382E+03  0.10840577152E+04  0.90729460070E+03 0.  0.
        -24    2    4    4    0    0 -0.22237473080E+03  0.16147415199E+03 -0.36855725681E+03  0.46677867949E+03  0.80767947942E+02 0.  0.
         24    2    4    4    0    0  0.61032635324E+03  0.22756037335E+02 -0.40771967008E+02  0.61727903574E+03  0.79718002828E+02 0.  0.
         11    1    3    3    0    0 -0.11324246860E+03 -0.12200559101E+02  0.17205495712E+02  0.11519001441E+03  0.00000000000E+00 0. -1.
        -11    1    3    3    0    0 -0.27470915384E+03 -0.17202963023E+03  0.32014771369E+00  0.32412870187E+03  0.00000000000E+00 0.  1.
          4    1    6    6  502    0  0.24576409689E+03  0.15416218788E+02 -0.55197310915E+02  0.25235767128E+03  0.00000000000E+00 0. -1.
          1    1    5    5  503    0 -0.16056104908E+02  0.18312542649E+01 -0.11815483055E+01  0.16203334639E+02  0.00000000000E+00 0. -1.
         -2    1    5    5    0  503 -0.20631862590E+03  0.15964289773E+03 -0.36737570851E+03  0.45057534485E+03  0.00000000000E+00 0.  1.
         -3    1    6    6    0  502  0.36456225636E+03  0.73398185468E+01  0.14425343908E+02  0.36492136447E+03  0.00000000000E+00 0.  1.
<mgrwt>
<rscale>  0 0.14721297E+04</rscale>
<asrwt>0</asrwt>
<pdfrwt beam="1">  1        1 0.14732154E+00 0.14721297E+04</pdfrwt>
<pdfrwt beam="2">  1       -1 0.87044066E-01 0.14721297E+04</pdfrwt>
<totfact> 0.20606179E+01</totfact>
</mgrwt>
</event>
<event>
12    1  0.1489025E-007  0.1429038E+04  0.7818608E-02  0.8933064E-01
         -2   -1    0    0    0  501 -0.00000000000E+00  0.00000000000E+00  0.89478378787E+03  0.89478378787E+03  0.00000000000E+00 0.  1.
          2   -1    0    0  501    0  0.00000000000E+00 -0.00000000000E+00 -0.57057064668E+03  0.57057064668E+03  0.00000000000E+00 0. -1.
         23    2    1    2    0    0  0.26589971208E+03  0.18876211068E+03  0.37241317766E+03  0.50410698440E+03  0.95385981732E+02 0.  0.
        254    2    1    2    0    0 -0.26589971208E+03 -0.18876211068E+03 -0.48200036477E+02  0.96124745015E+03  0.90296158589E+03 0.  0.
        -24    2    4    4    0    0 -0.25194497850E+03 -0.14836979827E+03  0.40123499434E+03  0.50305343699E+03  0.81137972367E+02 0.  0.
         24    2    4    4    0    0 -0.13954733579E+02 -0.40392312410E+02 -0.44943503081E+03  0.45819401316E+03  0.78253647090E+02 0.  0.
         11    1    3    3    0    0  0.24305416610E+03  0.15944136389E+03  0.36430392346E+03  0.46606246880E+03  0.00000000000E+00 0.  1.
        -11    1    3    3    0    0  0.22845545978E+02  0.29320746789E+02  0.81092542050E+01  0.38044515598E+02  0.00000000000E+00 0. -1.
          4    1    6    6  502    0 -0.62538700259E+01 -0.32170820493E+02 -0.58170503351E+02  0.66767357605E+02  0.00000000000E+00 0. -1.
          1    1    5    5  503    0 -0.14555009770E+02  0.46286281866E+01  0.42422518753E+01  0.15851473410E+02  0.00000000000E+00 0. -1.
         -2    1    5    5    0  503 -0.23738996873E+03 -0.15299842645E+03  0.39699274246E+03  0.48720196358E+03  0.00000000000E+00 0.  1.
         -3    1    6    6    0  502 -0.77008635528E+01 -0.82214919167E+01 -0.39126452746E+03  0.39142665555E+03  0.00000000000E+00 0.  1.
<mgrwt>
<rscale>  0 0.14290379E+04</rscale>
<asrwt>0</asrwt>
<pdfrwt beam="1">  1        2 0.87780100E-01 0.14290379E+04</pdfrwt>
<pdfrwt beam="2">  1       -2 0.13765904E+00 0.14290379E+04</pdfrwt>
<totfact> 0.19192360E+01</totfact>
</mgrwt>
</event>
<event>
12    1  0.1489025E-007  0.2121213E+04  0.7818608E-02  0.8551956E-01
         -1   -1    0    0    0  501 -0.00000000000E+00  0.00000000000E+00  0.81355478847E+03  0.81355478847E+03  0.00000000000E+00 0.  1.
          1   -1    0    0  501    0  0.00000000000E+00 -0.00000000000E+00 -0.13826797503E+04  0.13826797503E+04  0.00000000000E+00 0. -1.
         23    2    1    2    0    0 -0.70118807712E+03 -0.11099895437E+03  0.28789659170E+03  0.77136710792E+03  0.90206874999E+02 0.  0.
        254    2    1    2    0    0  0.70118807712E+03  0.11099895437E+03 -0.85702155350E+03  0.14248674308E+04  0.88981782680E+03 0.  0.
        -24    2    4    4    0    0  0.65967377585E+03 -0.18536709087E+03 -0.87546017055E+03  0.11146337214E+04  0.80295540669E+02 0.  0.
         24    2    4    4    0    0  0.41514301266E+02  0.29636604524E+03  0.18438617045E+02  0.31023370938E+03  0.79678741522E+02 0.  0.
         13    1    3    3    0    0 -0.65499978025E+02  0.14968140206E+02  0.19732012713E+02  0.70026028505E+02  0.00000000000E+00 0. -1.
        -13    1    3    3    0    0 -0.63568809909E+03 -0.12596709458E+03  0.26816457898E+03  0.70134107941E+03  0.00000000000E+00 0.  1.
          4    1    6    6  502    0 -0.12161998030E+02  0.18402119428E+03  0.38844046798E+00  0.18442305991E+03  0.00000000000E+00 0. -1.
          1    1    5    5  503    0  0.48448954990E+03 -0.11411600500E+03 -0.58590853463E+03  0.76879216796E+03  0.00000000000E+00 0. -1.
         -2    1    5    5    0  503  0.17518422596E+03 -0.71251085867E+02 -0.28955163591E+03  0.34584155349E+03  0.00000000000E+00 0.  1.
         -3    1    6    6    0  502  0.53676299297E+02  0.11234485096E+03  0.18050176577E+02  0.12581064946E+03  0.00000000000E+00 0.  1.
<mgrwt>
<rscale>  0 0.21212126E+04</rscale>
<asrwt>0</asrwt>
<pdfrwt beam="1">  1        1 0.21271996E+00 0.21212126E+04</pdfrwt>
<pdfrwt beam="2">  1       -1 0.12516228E+00 0.21212126E+04</pdfrwt>
<totfact> 0.40464052E+00</totfact>
</mgrwt>
</event>
<event>
12    1  0.1489025E-007  0.1797818E+04  0.7818608E-02  0.8707461E-01
         -1   -1    0    0    0  501 -0.00000000000E+00  0.00000000000E+00  0.13182227673E+04  0.13182227673E+04  0.00000000000E+00 0.  1.
          1   -1    0    0  501    0  0.00000000000E+00 -0.00000000000E+00 -0.61297507037E+03  0.61297507037E+03  0.00000000000E+00 0. -1.
         23    2    1    2    0    0  0.20066209687E+03 -0.18487789233E+03  0.91382631391E+03  0.95811842779E+03  0.92017810713E+02 0.  0.
        254    2    1    2    0    0 -0.20066209687E+03  0.18487789233E+03 -0.20857861700E+03  0.97307940987E+03  0.91045778939E+03 0.  0.
        -24    2    4    4    0    0  0.84035018360E+02 -0.23501537026E+03 -0.35337237781E+03  0.43933792430E+03  0.76496181380E+02 0.  0.
         24    2    4    4    0    0 -0.28469711523E+03  0.41989326259E+03  0.14479376081E+03  0.53374148557E+03  0.80944060068E+02 0.  0.
         13    1    3    3    0    0  0.29613925735E+02 -0.41714109395E+02  0.79878355712E+02  0.94855696884E+02  0.00000000000E+00 0. -1.
        -13    1    3    3    0    0  0.17104817113E+03 -0.14316378293E+03  0.83394795820E+03  0.86326273091E+03  0.00000000000E+00 0.  1.
          4    1    6    6  502    0 -0.71597628967E-01  0.25933918594E+01  0.10855253718E+02  0.11160974009E+02  0.00000000000E+00 0. -1.
          1    1    5    5  503    0  0.11001387366E+02 -0.74715329634E+01 -0.69114189544E+00  0.13316606396E+02  0.00000000000E+00 0. -1.
         -2    1    5    5    0  503  0.73033630995E+02 -0.22754383730E+03 -0.35268123591E+03  0.42602131791E+03  0.00000000000E+00 0.  1.
         -3    1    6    6    0  502 -0.28462551760E+03  0.41729987073E+03  0.13393850709E+03  0.52258051156E+03  0.00000000000E+00 0.  1.
<mgrwt>
<rscale>  0 0.17978183E+04</rscale>
<asrwt>0</asrwt>
<pdfrwt beam="1">  1        1 0.94303857E-01 0.17978183E+04</pdfrwt>
<pdfrwt beam="2">  1       -1 0.20280350E+00 0.17978183E+04</pdfrwt>
<totfact> 0.45099973E+00</totfact>
</mgrwt>
</event>
<event>
12    1  0.1489025E-007  0.2015581E+04  0.7818608E-02  0.8599370E-01
          2   -1    0    0  501    0  0.00000000000E+00  0.00000000000E+00  0.80363730036E+03  0.80363730036E+03  0.00000000000E+00 0. -1.
         -2   -1    0    0    0  501 -0.00000000000E+00 -0.00000000000E+00 -0.12638066641E+04  0.12638066641E+04  0.00000000000E+00 0.  1.
         23    2    1    2    0    0  0.23078342119E+03  0.75075450257E+03  0.10769288818E+01  0.79064543962E+03  0.90695869796E+02 0.  0.
        254    2    1    2    0    0 -0.23078342119E+03 -0.75075450257E+03 -0.46124629259E+03  0.12767985248E+04  0.89474746152E+03 0.  0.
        -24    2    4    4    0    0 -0.37282879198E+03 -0.60429343239E+03 -0.66623152081E+03  0.97697312118E+03  0.80250729765E+02 0.  0.
         24    2    4    4    0    0  0.14204537079E+03 -0.14646107018E+03  0.20498522822E+03  0.29982540363E+03  0.79048064095E+02 0.  0.
         11    1    3    3    0    0  0.69809941705E+02  0.19796097053E+03  0.39566602296E+02  0.21360592181E+03  0.00000000000E+00 0.  1.
        -11    1    3    3    0    0  0.16097347948E+03  0.55279353204E+03 -0.38489673415E+02  0.57703951781E+03  0.00000000000E+00 0. -1.
          2    1    6    6  502    0  0.92602060289E+02 -0.11738278328E+03  0.18759520025E+03  0.23988709539E+03  0.00000000000E+00 0. -1.
          3    1    5    5  503    0 -0.29335450711E+03 -0.52955494586E+03 -0.57016005504E+03  0.83160555307E+03  0.00000000000E+00 0. -1.
         -4    1    5    5    0  503 -0.79474284865E+02 -0.74738486529E+02 -0.96071465766E+02  0.14536756811E+03  0.00000000000E+00 0.  1.
         -1    1    6    6    0  502  0.49443310498E+02 -0.29078286895E+02  0.17390027969E+02  0.59938308239E+02  0.00000000000E+00 0.  1.
<mgrwt>
<rscale>  0 0.20155815E+04</rscale>
<asrwt>0</asrwt>
<pdfrwt beam="1">  1        2 0.12363651E+00 0.20155815E+04</pdfrwt>
<pdfrwt beam="2">  1       -2 0.19443179E+00 0.20155815E+04</pdfrwt>
<totfact> 0.45969941E+00</totfact>
</mgrwt>
</event>
<event>
12    1  0.1489025E-007  0.2082526E+04  0.7818608E-02  0.8568980E-01
         -1   -1    0    0    0  501 -0.00000000000E+00  0.00000000000E+00  0.12691643214E+04  0.12691643214E+04  0.00000000000E+00 0.  1.
          1   -1    0    0  501    0  0.00000000000E+00 -0.00000000000E+00 -0.85428536591E+03  0.85428536591E+03  0.00000000000E+00 0. -1.
         23    2    1    2    0    0  0.15130900049E+03  0.68342380249E+03  0.64449783461E+03  0.95566837115E+03  0.89230428414E+02 0.  0.
        254    2    1    2    0    0 -0.15130900049E+03 -0.68342380249E+03 -0.22961887912E+03  0.11677813162E+04  0.90610477612E+03 0.  0.
        -24    2    4    4    0    0  0.14772625608E+03 -0.47538938819E+03 -0.49771741260E+03  0.70854526536E+03  0.80595614783E+02 0.  0.
         24    2    4    4    0    0 -0.29903525657E+03 -0.20803441429E+03  0.26809853348E+03  0.45923605080E+03  0.79501726417E+02 0.  0.
         11    1    3    3    0    0  0.62669206708E+02  0.22110476494E+03  0.26682839833E+03  0.35215357545E+03  0.00000000000E+00 0.  1.
        -11    1    3    3    0    0  0.88639793783E+02  0.46231903754E+03  0.37766943628E+03  0.60351479569E+03  0.00000000000E+00 0. -1.
          2    1    6    6  502    0 -0.28618425802E+03 -0.19557612911E+03  0.22682188624E+03  0.41424584475E+03  0.00000000000E+00 0. -1.
          3    1    5    5  503    0  0.67570775766E+02 -0.30260395712E+03 -0.34941617336E+03  0.46714732880E+03  0.00000000000E+00 0. -1.
         -4    1    5    5    0  503  0.80155480312E+02 -0.17278543108E+03 -0.14830123924E+03  0.24139793656E+03  0.00000000000E+00 0.  1.
         -1    1    6    6    0  502 -0.12850998549E+02 -0.12458285182E+02  0.41276647239E+02  0.44990206053E+02  0.00000000000E+00 0.  1.
<mgrwt>
<rscale>  0 0.20825259E+04</rscale>
<asrwt>0</asrwt>
<pdfrwt beam="1">  1        1 0.13142852E+00 0.20825259E+04</pdfrwt>
<pdfrwt beam="2">  1       -1 0.19525605E+00 0.20825259E+04</pdfrwt>
<totfact> 0.29698030E+00</totfact>
</mgrwt>
</event>
<event>
12    1  0.1489025E-007  0.1665089E+04  0.7818608E-02  0.8781530E-01
          2   -1    0    0  501    0  0.00000000000E+00  0.00000000000E+00  0.11964678155E+04  0.11964678155E+04  0.00000000000E+00 0.  1.
         -2   -1    0    0    0  501 -0.00000000000E+00 -0.00000000000E+00 -0.57931365511E+03  0.57931365511E+03  0.00000000000E+00 0. -1.
         23    2    1    2    0    0  0.24573694838E+03 -0.28885225005E+03  0.80931659736E+03  0.89839472319E+03  0.91090360296E+02 0.  0.
        254    2    1    2    0    0 -0.24573694838E+03  0.28885225005E+03 -0.19216243701E+03  0.87738674739E+03  0.76750168218E+03 0.  0.
        -24    2    4    4    0    0 -0.31954302414E+03  0.10411113007E+03  0.22249295235E+03  0.41050734142E+03  0.77886403401E+02 0.  0.
         24    2    4    4    0    0  0.73806075765E+02  0.18474111998E+03 -0.41465538936E+03  0.46687940597E+03  0.80378290364E+02 0.  0.
         11    1    3    3    0    0  0.16018228838E+03 -0.14949396762E+03  0.54740480815E+03  0.58962601355E+03  0.00000000000E+00 0.  1.
        -11    1    3    3    0    0  0.85554660001E+02 -0.13935828242E+03  0.26191178921E+03  0.30876870964E+03  0.00000000000E+00 0. -1.
          2    1    6    6  502    0  0.77826617975E+02  0.17016594908E+03 -0.41059762988E+03  0.45122482905E+03  0.00000000000E+00 0. -1.
          3    1    5    5  503    0 -0.27616536571E+03  0.63481058892E+02  0.16547218111E+03  0.32814356123E+03  0.00000000000E+00 0. -1.
         -4    1    5    5    0  503 -0.43377658431E+02  0.40630071175E+02  0.57020771237E+02  0.82363780189E+02  0.00000000000E+00 0.  1.
         -1    1    6    6    0  502 -0.40205422099E+01  0.14575170899E+02 -0.40577594796E+01  0.15654576915E+02  0.00000000000E+00 0.  1.
<mgrwt>
<rscale>  0 0.16650888E+04</rscale>
<asrwt>0</asrwt>
<pdfrwt beam="1">  1        2 0.18407197E+00 0.16650888E+04</pdfrwt>
<pdfrwt beam="2">  1       -2 0.89125178E-01 0.16650888E+04</pdfrwt>
<totfact> 0.19632655E+01</totfact>
</mgrwt>
</event>
<event>
12    1  0.1489025E-007  0.3520651E+04  0.7818608E-02  0.8108913E-01
         -1   -1    0    0    0  501 -0.00000000000E+00  0.00000000000E+00  0.16087830699E+04  0.16087830699E+04  0.00000000000E+00 0.  1.
          1   -1    0    0  501    0  0.00000000000E+00 -0.00000000000E+00 -0.19261427706E+04  0.19261427706E+04  0.00000000000E+00 0. -1.
         23    2    1    2    0    0  0.20564550947E+02  0.54024999455E+03  0.14021856332E+04  0.15056420902E+04  0.92415346750E+02 0.  0.
        254    2    1    2    0    0 -0.20564550947E+02 -0.54024999455E+03 -0.17195453339E+04  0.20292837503E+04  0.93212843894E+03 0.  0.
        -24    2    4    4    0    0 -0.15449007980E+03 -0.11806542870E+03 -0.15257283480E+04  0.15403840911E+04  0.84436521127E+02 0.  0.
         24    2    4    4    0    0  0.13392552885E+03 -0.42218456585E+03 -0.19381698590E+03  0.48889965922E+03  0.72677354381E+02 0.  0.
         13    1    3    3    0    0 -0.14400157474E+02  0.65667430384E+02  0.25408205373E+03  0.26282554286E+03  0.00000000000E+00 0. -1.
        -13    1    3    3    0    0  0.34964708421E+02  0.47458256416E+03  0.11481035795E+04  0.12428165473E+04  0.00000000000E+00 0.  1.
          2    1    6    6  502    0  0.20773845598E+02 -0.15723531148E+02 -0.44331639107E+01  0.26427921502E+02  0.00000000000E+00 0. -1.
          3    1    5    5  503    0 -0.46116106831E+02 -0.81719231749E+01 -0.18647422518E+03  0.19226573354E+03  0.00000000000E+00 0. -1.
         -4    1    5    5    0  503 -0.10837397297E+03 -0.10989350553E+03 -0.13392541228E+04  0.13481183575E+04  0.00000000000E+00 0.  1.
         -1    1    6    6    0  502  0.11315168325E+03 -0.40646103470E+03 -0.18938382199E+03  0.46247173771E+03  0.00000000000E+00 0.  1.
<mgrwt>
<rscale>  0 0.35206510E+04</rscale>
<asrwt>0</asrwt>
<pdfrwt beam="1">  1        1 0.29632966E+00 0.35206510E+04</pdfrwt>
<pdfrwt beam="2">  1       -1 0.24750509E+00 0.35206510E+04</pdfrwt>
<totfact> 0.19719930E-01</totfact>
</mgrwt>
</event>
<event>
12    1  0.1489025E-007  0.1665641E+04  0.7818608E-02  0.8781207E-01
          1   -1    0    0  501    0  0.00000000000E+00  0.00000000000E+00  0.12031765962E+04  0.12031765962E+04  0.00000000000E+00 0. -1.
         -1   -1    0    0    0  501 -0.00000000000E+00 -0.00000000000E+00 -0.57646558233E+03  0.57646558233E+03  0.00000000000E+00 0.  1.
         23    2    1    2    0    0  0.53261061345E+03  0.42380343178E+02  0.47812341553E+03  0.72284444486E+03  0.91825551589E+02 0.  0.
        254    2    1    2    0    0 -0.53261061345E+03 -0.42380343178E+02  0.14858759830E+03  0.10567977336E+04  0.89959602956E+03 0.  0.
        -24    2    4    4    0    0 -0.57634583646E+03 -0.75360794118E+02 -0.25608641365E+03  0.64046457201E+03  0.82224353163E+02 0.  0.
         24    2    4    4    0    0  0.43735223002E+02  0.32980450939E+02  0.40467401196E+03  0.41633316162E+03  0.81066427332E+02 0.  0.
         11    1    3    3    0    0  0.32006652575E+03  0.36973285519E+02  0.22876321656E+03  0.39514834430E+03  0.00000000000E+00 0. -1.
        -11    1    3    3    0    0  0.21254408770E+03  0.54070576597E+01  0.24936019897E+03  0.32769610056E+03  0.00000000000E+00 0.  1.
          4    1    6    6  502    0 -0.13942469945E+02  0.34262286359E+02  0.10965174528E+03  0.11572295355E+03  0.00000000000E+00 0. -1.
          1    1    5    5  503    0 -0.14569689898E+02  0.78510235778E+01  0.19901877783E+01  0.16669591547E+02  0.00000000000E+00 0. -1.
         -2    1    5    5    0  503 -0.56177614656E+03 -0.83211817695E+02 -0.25807660143E+03  0.62379498046E+03  0.00000000000E+00 0.  1.
         -3    1    6    6    0  502  0.57677692947E+02 -0.12818354193E+01  0.29502226668E+03  0.30061020808E+03  0.00000000000E+00 0.  1.
<mgrwt>
<rscale>  0 0.16656409E+04</rscale>
<asrwt>0</asrwt>
<pdfrwt beam="1">  1        1 0.18510409E+00 0.16656409E+04</pdfrwt>
<pdfrwt beam="2">  1       -1 0.88687013E-01 0.16656409E+04</pdfrwt>
<totfact> 0.12657506E+01</totfact>
</mgrwt>
</event>
<event>
12    1  0.1489025E-007  0.1322320E+04  0.7818608E-02  0.9012050E-01
         -1   -1    0    0    0  501 -0.00000000000E+00  0.00000000000E+00  0.52071629682E+03  0.52071629682E+03  0.00000000000E+00 0.  1.
          1   -1    0    0  501    0  0.00000000000E+00 -0.00000000000E+00 -0.83948289511E+03  0.83948289511E+03  0.00000000000E+00 0. -1.
         23    2    1    2    0    0  0.32035123830E+02 -0.63586986091E+02 -0.43403325134E+03  0.44942075200E+03  0.92328733889E+02 0.  0.
        254    2    1    2    0    0 -0.32035123830E+02  0.63586986091E+02  0.11526665306E+03  0.91077843993E+03  0.90064499742E+03 0.  0.
        -24    2    4    4    0    0  0.23908064581E+03  0.98605347685E+02  0.41613919083E+03  0.49646925126E+03  0.80170577602E+02 0.  0.
         24    2    4    4    0    0 -0.27111576964E+03 -0.35018361594E+02 -0.30087253777E+03  0.41430918867E+03  0.79986083978E+02 0.  0.
         13    1    3    3    0    0  0.13944965098E+02 -0.89503155389E+01 -0.61352175582E+01  0.17669496153E+02  0.00000000000E+00 0.  1.
        -13    1    3    3    0    0  0.18090158732E+02 -0.54636670552E+02 -0.42789803378E+03  0.43175125585E+03  0.00000000000E+00 0. -1.
          4    1    6    6  502    0 -0.23941873897E+03 -0.30950369301E+02 -0.29603277577E+03  0.38198777763E+03  0.00000000000E+00 0. -1.
          3    1    5    5  503    0  0.20510748673E+03  0.11262794437E+03  0.35828232090E+03  0.42792564358E+03  0.00000000000E+00 0. -1.
         -4    1    5    5    0  503  0.33973159083E+02 -0.14022596690E+02  0.57856869932E+02  0.68543607684E+02  0.00000000000E+00 0.  1.
         -3    1    6    6    0  502 -0.31697030676E+02 -0.40679922934E+01 -0.48397619973E+01  0.32321411033E+02  0.00000000000E+00 0.  1.
<mgrwt>
<rscale>  0 0.13223198E+04</rscale>
<asrwt>0</asrwt>
<pdfrwt beam="1">  1        1 0.12915121E+00 0.13223198E+04</pdfrwt>
<pdfrwt beam="2">  1       -1 0.80110200E-01 0.13223198E+04</pdfrwt>
<totfact> 0.31199759E+01</totfact>
</mgrwt>
</event>
<event>
12    1  0.1489025E-007  0.1580328E+04  0.7818608E-02  0.8832725E-01
          2   -1    0    0  501    0  0.00000000000E+00  0.00000000000E+00  0.88962239866E+03  0.88962239866E+03  0.00000000000E+00 0. -1.
         -2   -1    0    0    0  501 -0.00000000000E+00 -0.00000000000E+00 -0.70182491879E+03  0.70182491879E+03  0.00000000000E+00 0.  1.
         23    2    1    2    0    0  0.15877328257E+03  0.42827281721E+03 -0.19818876382E+03  0.50572320725E+03  0.88603696458E+02 0.  0.
        254    2    1    2    0    0 -0.15877328257E+03 -0.42827281721E+03  0.38598624369E+03  0.10857241102E+04  0.90619253028E+03 0.  0.
        -24    2    4    4    0    0 -0.12924197910E+03 -0.39093480584E+03  0.66713648301E+03  0.78813719004E+03  0.80966856070E+02 0.  0.
         24    2    4    4    0    0 -0.29531303467E+02 -0.37338011368E+02 -0.28115023932E+03  0.29758692016E+03  0.85125160810E+02 0.  0.
         11    1    3    3    0    0  0.41121086895E+02  0.13910334437E+03 -0.20459921150E+02  0.14648990606E+03  0.00000000000E+00 0. -1.
        -11    1    3    3    0    0  0.11765219567E+03  0.28916947284E+03 -0.17772884267E+03  0.35923330119E+03  0.00000000000E+00 0.  1.
          2    1    6    6  502    0 -0.28315088589E+00 -0.19417611386E+02 -0.60267314058E+01  0.20333354318E+02  0.00000000000E+00 0. -1.
          3    1    5    5  503    0 -0.96790607229E+02 -0.20818258529E+03  0.42498306661E+03  0.48303107289E+03  0.00000000000E+00 0. -1.
         -4    1    5    5    0  503 -0.32451371872E+02 -0.18275222055E+03  0.24215341640E+03  0.30510611715E+03  0.00000000000E+00 0.  1.
         -1    1    6    6    0  502 -0.29248152581E+02 -0.17920399982E+02 -0.27512350791E+03  0.27725356584E+03  0.00000000000E+00 0.  1.
<mgrwt>
<rscale>  0 0.15803280E+04</rscale>
<asrwt>0</asrwt>
<pdfrwt beam="1">  1        2 0.13686498E+00 0.15803280E+04</pdfrwt>
<pdfrwt beam="2">  1       -2 0.10797306E+00 0.15803280E+04</pdfrwt>
<totfact> 0.19672522E+01</totfact>
</mgrwt>
</event>
<event>
12    1  0.1489025E-007  0.1957668E+04  0.7818608E-02  0.8626672E-01
         -2   -1    0    0    0  501 -0.00000000000E+00  0.00000000000E+00  0.54400955389E+03  0.54400955389E+03  0.00000000000E+00 0.  1.
          2   -1    0    0  501    0  0.00000000000E+00 -0.00000000000E+00 -0.17612121233E+04  0.17612121233E+04  0.00000000000E+00 0. -1.
         23    2    1    2    0    0  0.24666595470E+03 -0.57330657976E+03  0.44682148492E+02  0.63223916742E+03  0.90583347341E+02 0.  0.
        254    2    1    2    0    0 -0.24666595470E+03  0.57330657976E+03 -0.12618847179E+04  0.16729825098E+04  0.90387660061E+03 0.  0.
        -24    2    4    4    0    0 -0.12046693519E+03  0.47380846114E+03 -0.11098686762E+03  0.50813689708E+03  0.82935403005E+02 0.  0.
         24    2    4    4    0    0 -0.12619901952E+03  0.99498118626E+02 -0.11508978503E+04  0.11648456127E+04  0.80457264884E+02 0.  0.
         11    1    3    3    0    0  0.13509158626E+03 -0.29462848654E+03 -0.21539159498E+02  0.32483783208E+03  0.00000000000E+00 0. -1.
        -11    1    3    3    0    0  0.11157436845E+03 -0.27867809322E+03  0.66221307990E+02  0.30740133534E+03  0.00000000000E+00 0.  1.
          4    1    6    6  502    0 -0.28991623310E+02 -0.14543984117E+01 -0.86032108958E+02  0.90797319722E+02  0.00000000000E+00 0. -1.
          3    1    5    5  503    0 -0.54794497740E+02  0.19833176286E+03 -0.88695760571E+02  0.22406441726E+03  0.00000000000E+00 0. -1.
         -4    1    5    5    0  503 -0.65672437445E+02  0.27547669828E+03 -0.22291107052E+02  0.28407247982E+03  0.00000000000E+00 0.  1.
         -3    1    6    6    0  502 -0.97207396207E+02  0.10095251704E+03 -0.10648657414E+04  0.10740482930E+04  0.00000000000E+00 0.  1.
<mgrwt>
<rscale>  0 0.19576682E+04</rscale>
<asrwt>0</asrwt>
<pdfrwt beam="1">  1        2 0.27095571E+00 0.19576682E+04</pdfrwt>
<pdfrwt beam="2">  1       -2 0.83693777E-01 0.19576682E+04</pdfrwt>
<totfact> 0.10550049E+01</totfact>
</mgrwt>
</event>
<event>
12    1  0.1489025E-007  0.1657453E+04  0.7818608E-02  0.8786009E-01
          1   -1    0    0  501    0  0.00000000000E+00  0.00000000000E+00  0.70480558514E+03  0.70480558514E+03  0.00000000000E+00 0. -1.
         -1   -1    0    0    0  501 -0.00000000000E+00 -0.00000000000E+00 -0.97443587280E+03  0.97443587280E+03  0.00000000000E+00 0.  1.
         23    2    1    2    0    0 -0.38074718236E+03 -0.37471166762E+03  0.13181158495E+03  0.55714808571E+03  0.87535391436E+02 0.  0.
        254    2    1    2    0    0  0.38074718236E+03  0.37471166762E+03 -0.40144187261E+03  0.11220933722E+04  0.90142149307E+03 0.  0.
        -24    2    4    4    0    0  0.48171610282E+03  0.16880225809E+03 -0.61151807799E+03  0.80141724883E+03  0.88151239165E+02 0.  0.
         24    2    4    4    0    0 -0.10096892045E+03  0.20590940953E+03  0.21007620538E+03  0.32067612339E+03  0.78152135085E+02 0.  0.
         13    1    3    3    0    0 -0.20308841773E+02  0.10205266471E+01  0.12971894476E+01  0.20375800089E+02  0.00000000000E+00 0.  1.
        -13    1    3    3    0    0 -0.36043834059E+03 -0.37573219427E+03  0.13051439551E+03  0.53677228562E+03  0.00000000000E+00 0. -1.
          4    1    6    6  502    0 -0.13822801497E+02 -0.99406255395E+00  0.29378770212E+02  0.32483382533E+02  0.00000000000E+00 0. -1.
          1    1    5    5  503    0  0.23612961846E+03  0.12319489070E+03 -0.28147869366E+03  0.38751055830E+03  0.00000000000E+00 0. -1.
         -2    1    5    5    0  503  0.24558648435E+03  0.45607367394E+02 -0.33003938433E+03  0.41390669053E+03  0.00000000000E+00 0.  1.
         -3    1    6    6    0  502 -0.87146118955E+02  0.20690347208E+03  0.18069743517E+03  0.28819274086E+03  0.00000000000E+00 0.  1.
<mgrwt>
<rscale>  0 0.16574533E+04</rscale>
<asrwt>0</asrwt>
<pdfrwt beam="1">  1        1 0.10843163E+00 0.16574533E+04</pdfrwt>
<pdfrwt beam="2">  1       -1 0.14991321E+00 0.16574533E+04</pdfrwt>
<totfact> 0.89981792E+00</totfact>
</mgrwt>
</event>
<event>
12    1  0.1489025E-007  0.1514013E+04  0.7818608E-02  0.8875188E-01
         -2   -1    0    0    0  501 -0.00000000000E+00  0.00000000000E+00  0.23272053457E+03  0.23272053457E+03  0.00000000000E+00 0.  1.
          2   -1    0    0  501    0  0.00000000000E+00 -0.00000000000E+00 -0.24624328202E+04  0.24624328202E+04  0.00000000000E+00 0. -1.
         23    2    1    2    0    0 -0.14737368861E+03  0.24472928666E+03 -0.14324434758E+04  0.14634156767E+04  0.89887171410E+02 0.  0.
        254    2    1    2    0    0  0.14737368861E+03 -0.24472928666E+03 -0.79726880981E+03  0.12317376781E+04  0.89438734597E+03 0.  0.
        -24    2    4    4    0    0 -0.11769490944E+03 -0.51596285666E+03 -0.57119832576E+03  0.78275705646E+03  0.79820554430E+02 0.  0.
         24    2    4    4    0    0  0.26506859806E+03  0.27123357000E+03 -0.22607048405E+03  0.44898062161E+03  0.81527441100E+02 0.  0.
         11    1    3    3    0    0 -0.93588793924E+02  0.12622920638E+03 -0.57220438132E+03  0.59338901986E+03  0.00000000000E+00 0. -1.
        -11    1    3    3    0    0 -0.53784894688E+02  0.11850008028E+03 -0.86023909452E+03  0.87002665687E+03  0.00000000000E+00 0.  1.
          2    1    6    6  502    0  0.13435833138E+03  0.19224736265E+03 -0.14949114376E+03  0.27813452091E+03  0.00000000000E+00 0. -1.
          3    1    5    5  503    0 -0.26485716317E+02 -0.24390559488E+03 -0.22279673910E+03  0.33140582272E+03  0.00000000000E+00 0. -1.
         -4    1    5    5    0  503 -0.91209193127E+02 -0.27205726179E+03 -0.34840158666E+03  0.45135123373E+03  0.00000000000E+00 0.  1.
         -1    1    6    6    0  502  0.13071026668E+03  0.78986207350E+02 -0.76579340286E+02  0.17084610070E+03  0.00000000000E+00 0.  1.
<mgrwt>
<rscale>  0 0.15140128E+04</rscale>
<asrwt>0</asrwt>
<pdfrwt beam="1">  1        2 0.37883580E+00 0.15140128E+04</pdfrwt>
<pdfrwt beam="2">  1       -2 0.35803161E-01 0.15140128E+04</pdfrwt>
<totfact> 0.25971185E+01</totfact>
</mgrwt>
</event>
<event>
12    1  0.1489025E-007  0.2000255E+04  0.7818608E-02  0.8606501E-01
         -1   -1    0    0    0  501 -0.00000000000E+00  0.00000000000E+00  0.82550991185E+03  0.82550991185E+03  0.00000000000E+00 0.  1.
          1   -1    0    0  501    0  0.00000000000E+00 -0.00000000000E+00 -0.12116819080E+04  0.12116819080E+04  0.00000000000E+00 0. -1.
         23    2    1    2    0    0 -0.26067671788E+03  0.60369899885E+02 -0.90863117339E+03  0.95145012223E+03  0.89720955011E+02 0.  0.
        254    2    1    2    0    0  0.26067671788E+03 -0.60369899885E+02  0.52245917722E+03  0.10857416976E+04  0.91338631810E+03 0.  0.
        -24    2    4    4    0    0  0.52768894530E+02  0.24122385693E+03 -0.16118755913E+03  0.30601687932E+03  0.81800952495E+02 0.  0.
         24    2    4    4    0    0  0.20790782335E+03 -0.30159375681E+03  0.68364673635E+03  0.77972481833E+03  0.80084174690E+02 0.  0.
         11    1    3    3    0    0 -0.24505213615E+03  0.46212469586E+02 -0.72659359228E+03  0.76819554159E+03  0.00000000000E+00 0. -1.
        -11    1    3    3    0    0 -0.15624581728E+02  0.14157430299E+02 -0.18203758111E+03  0.18325458063E+03  0.00000000000E+00 0.  1.
          4    1    6    6  502    0  0.49687593462E+02 -0.98420485203E+02  0.28007410378E+03  0.30099327643E+03  0.00000000000E+00 0. -1.
          3    1    5    5  503    0 -0.12405345543E+02  0.45874491378E+01 -0.17749241798E+01  0.13344948239E+02  0.00000000000E+00 0. -1.
         -4    1    5    5    0  503  0.65174240074E+02  0.23663640779E+03 -0.15941263495E+03  0.29267193108E+03  0.00000000000E+00 0.  1.
         -3    1    6    6    0  502  0.15822022989E+03 -0.20317327161E+03  0.40357263257E+03  0.47873154189E+03  0.00000000000E+00 0.  1.
<mgrwt>
<rscale>  0 0.20002554E+04</rscale>
<asrwt>0</asrwt>
<pdfrwt beam="1">  1        1 0.18641260E+00 0.20002554E+04</pdfrwt>
<pdfrwt beam="2">  1       -1 0.12700153E+00 0.20002554E+04</pdfrwt>
<totfact> 0.52278990E+00</totfact>
</mgrwt>
</event>
<event>
12    1  0.1489025E-007  0.2901834E+04  0.7818608E-02  0.8272332E-01
         -1   -1    0    0    0  501 -0.00000000000E+00  0.00000000000E+00  0.10116354999E+04  0.10116354999E+04  0.00000000000E+00 0.  1.
          1   -1    0    0  501    0  0.00000000000E+00 -0.00000000000E+00 -0.20809472374E+04  0.20809472374E+04  0.00000000000E+00 0. -1.
         23    2    1    2    0    0 -0.10338884573E+04 -0.79881048811E+03 -0.37720801211E+03  0.13629511333E+04  0.91248940600E+02 0.  0.
        254    2    1    2    0    0  0.10338884573E+04  0.79881048811E+03 -0.69210372541E+03  0.17296316040E+04  0.89754909650E+03 0.  0.
        -24    2    4    4    0    0 -0.94295737467E+02 -0.76975774495E+02 -0.99648726491E+01  0.14486706896E+03  0.77911571787E+02 0.  0.
         24    2    4    4    0    0  0.11281841948E+04  0.87578626261E+03 -0.68213885276E+03  0.15847645350E+04  0.79775070191E+02 0.  0.
         11    1    3    3    0    0 -0.78715934413E+02 -0.66257362956E+02 -0.55775566622E+02  0.11703482519E+03  0.00000000000E+00 0. -1.
        -11    1    3    3    0    0 -0.95517252293E+03 -0.73255312516E+03 -0.32143244549E+03  0.12459163081E+04  0.00000000000E+00 0.  1.
          2    1    6    6  502    0  0.80911734352E+03  0.67240452534E+03 -0.50558020150E+03  0.11672232269E+04  0.00000000000E+00 0. -1.
          1    1    5    5  503    0 -0.10302259654E+03 -0.79488650225E+02  0.16368306200E+01  0.13013370097E+03  0.00000000000E+00 0. -1.
         -4    1    5    5    0  503  0.87268590726E+01  0.25128757300E+01 -0.11601703269E+02  0.14733367994E+02  0.00000000000E+00 0.  1.
         -1    1    6    6    0  502  0.31906685130E+03  0.20338173726E+03 -0.17655865125E+03  0.41754130811E+03  0.00000000000E+00 0.  1.
<mgrwt>
<rscale>  0 0.29018340E+04</rscale>
<asrwt>0</asrwt>
<pdfrwt beam="1">  1        1 0.32014573E+00 0.29018340E+04</pdfrwt>
<pdfrwt beam="2">  1       -1 0.15563623E+00 0.29018340E+04</pdfrwt>
<totfact> 0.71097418E-01</totfact>
</mgrwt>
</event>
<event>
12    1  0.1489025E-007  0.1735777E+04  0.7818608E-02  0.8741218E-01
          1   -1    0    0  501    0  0.00000000000E+00  0.00000000000E+00  0.27793071821E+04  0.27793071821E+04  0.00000000000E+00 0. -1.
         -1   -1    0    0    0  501 -0.00000000000E+00 -0.00000000000E+00 -0.27101377715E+03  0.27101377715E+03  0.00000000000E+00 0.  1.
         23    2    1    2    0    0 -0.37834537471E+03  0.35958176834E+03  0.29873387532E+03  0.60822750380E+03  0.90854264822E+02 0.  0.
        254    2    1    2    0    0  0.37834537471E+03 -0.35958176834E+03  0.22095595297E+04  0.24420934555E+04  0.89956815170E+03 0.  0.
        -24    2    4    4    0    0  0.43207160576E+03 -0.61132388183E+03  0.18036685056E+04  0.19544594340E+04  0.79302207840E+02 0.  0.
         24    2    4    4    0    0 -0.53726231054E+02  0.25174211349E+03  0.40589102404E+03  0.48763402145E+03  0.82333564628E+02 0.  0.
         13    1    3    3    0    0 -0.60651402824E+01  0.19915122716E+02 -0.27218435233E+01  0.20995391675E+02  0.00000000000E+00 0. -1.
        -13    1    3    3    0    0 -0.37228023442E+03  0.33966664562E+03  0.30145571885E+03  0.58723211213E+03  0.00000000000E+00 0.  1.
          2    1    6    6  502    0 -0.87315230397E+01  0.60748083276E+02  0.17034799512E+03  0.18106630984E+03  0.00000000000E+00 0. -1.
          3    1    5    5  503    0  0.37195532081E+01 -0.32382944649E+02  0.75692543574E+02  0.82412689150E+02  0.00000000000E+00 0. -1.
         -4    1    5    5    0  503  0.42835205255E+03 -0.57894093718E+03  0.17279759620E+04  0.18720467449E+04  0.00000000000E+00 0.  1.
         -1    1    6    6    0  502 -0.44994708015E+02  0.19099403022E+03  0.23554302892E+03  0.30656771161E+03  0.00000000000E+00 0.  1.
<mgrwt>
<rscale>  0 0.17357771E+04</rscale>
<asrwt>0</asrwt>
<pdfrwt beam="1">  1        1 0.42758570E+00 0.17357771E+04</pdfrwt>
<pdfrwt beam="2">  1       -1 0.41694429E-01 0.17357771E+04</pdfrwt>
<totfact> 0.46278243E+00</totfact>
</mgrwt>
</event>
<event>
12    1  0.1489025E-007  0.1788083E+04  0.7818608E-02  0.8712662E-01
          2   -1    0    0  501    0  0.00000000000E+00  0.00000000000E+00  0.11834162569E+04  0.11834162569E+04  0.00000000000E+00 0. -1.
         -2   -1    0    0    0  501 -0.00000000000E+00 -0.00000000000E+00 -0.67542645162E+03  0.67542645162E+03  0.00000000000E+00 0.  1.
         23    2    1    2    0    0  0.38305852483E+03  0.47708416661E+03  0.45121535533E+03  0.76687063571E+03  0.10075782620E+03 0.  0.
        254    2    1    2    0    0 -0.38305852483E+03 -0.47708416661E+03  0.56774449950E+02  0.10919720728E+04  0.90268296437E+03 0.  0.
        -24    2    4    4    0    0 -0.20474851292E+03 -0.67788654227E+03 -0.16890224143E+03  0.73227414424E+03  0.79027447336E+02 0.  0.
         24    2    4    4    0    0 -0.17831001191E+03  0.20080237566E+03  0.22567669138E+03  0.35969792857E+03  0.79602615330E+02 0.  0.
         13    1    3    3    0    0  0.91789732471E+02  0.10488221903E+03  0.53913267223E+02  0.14943987165E+03  0.00000000000E+00 0.  1.
        -13    1    3    3    0    0  0.29126879236E+03  0.37220194758E+03  0.39730208811E+03  0.61743076406E+03  0.00000000000E+00 0. -1.
          4    1    6    6  502    0 -0.12267936051E+03  0.87650773724E+02  0.14980639845E+03  0.21254373820E+03  0.00000000000E+00 0. -1.
          1    1    5    5  503    0 -0.16161949432E+03 -0.51977913273E+03 -0.16330035544E+03  0.56829412618E+03  0.00000000000E+00 0. -1.
         -2    1    5    5    0  503 -0.43129018603E+02 -0.15810740954E+03 -0.56018859931E+01  0.16398001806E+03  0.00000000000E+00 0.  1.
         -3    1    6    6    0  502 -0.55630651400E+02  0.11315160193E+03  0.75870292937E+02  0.14715419038E+03  0.00000000000E+00 0.  1.
<mgrwt>
<rscale>  0 0.17880835E+04</rscale>
<asrwt>0</asrwt>
<pdfrwt beam="1">  1        2 0.18206404E+00 0.17880835E+04</pdfrwt>
<pdfrwt beam="2">  1       -2 0.10391176E+00 0.17880835E+04</pdfrwt>
<totfact> 0.13805047E+01</totfact>
</mgrwt>
</event>
<event>
12    1  0.1489025E-007  0.1425398E+04  0.7818608E-02  0.8935637E-01
          1   -1    0    0  501    0  0.00000000000E+00  0.00000000000E+00  0.49486236356E+03  0.49486236356E+03  0.00000000000E+00 0. -1.
         -1   -1    0    0    0  501 -0.00000000000E+00 -0.00000000000E+00 -0.10264258951E+04  0.10264258951E+04  0.00000000000E+00 0.  1.
         23    2    1    2    0    0 -0.37076761236E+03 -0.20280779164E+03 -0.22871869052E+03  0.48940060746E+03  0.92742074974E+02 0.  0.
        254    2    1    2    0    0  0.37076761236E+03  0.20280779164E+03 -0.30284484098E+03  0.10318876512E+04  0.89133467574E+03 0.  0.
        -24    2    4    4    0    0 -0.18758858506E+01 -0.27338100931E+03  0.98484749349E+02  0.30164390648E+03  0.80926542392E+02 0.  0.
         24    2    4    4    0    0  0.37264349821E+03  0.47618880094E+03 -0.40132959033E+03  0.73024374467E+03  0.81065008872E+02 0.  0.
         13    1    3    3    0    0 -0.20681451580E+03 -0.13316663752E+03 -0.17976580445E+03  0.30466595108E+03  0.00000000000E+00 0. -1.
        -13    1    3    3    0    0 -0.16395309655E+03 -0.69641154115E+02 -0.48952886073E+02  0.18473465639E+03  0.00000000000E+00 0.  1.
          2    1    6    6  502    0  0.24765606241E+03  0.36015669654E+03 -0.31733882440E+03  0.54013914947E+03  0.00000000000E+00 0. -1.
          3    1    5    5  503    0  0.14743539756E+01 -0.27250733514E+03  0.10675693612E+03  0.29267638244E+03  0.00000000000E+00 0. -1.
         -4    1    5    5    0  503 -0.33502398263E+01 -0.87367416387E+00 -0.82721867718E+01  0.89675240410E+01  0.00000000000E+00 0.  1.
         -1    1    6    6    0  502  0.12498743579E+03  0.11603210440E+03 -0.83990765926E+02  0.19010459521E+03  0.00000000000E+00 0.  1.
<mgrwt>
<rscale>  0 0.14253976E+04</rscale>
<asrwt>0</asrwt>
<pdfrwt beam="1">  1        1 0.76132672E-01 0.14253976E+04</pdfrwt>
<pdfrwt beam="2">  1       -1 0.15791167E+00 0.14253976E+04</pdfrwt>
<totfact> 0.13262357E+01</totfact>
</mgrwt>
</event>
<event>
12    1  0.1489025E-007  0.1212519E+04  0.7818608E-02  0.9101968E-01
          1   -1    0    0  501    0  0.00000000000E+00  0.00000000000E+00  0.24244252578E+04  0.24244252578E+04  0.00000000000E+00 0. -1.
         -1   -1    0    0    0  501 -0.00000000000E+00 -0.00000000000E+00 -0.15160329213E+03  0.15160329213E+03  0.00000000000E+00 0.  1.
         23    2    1    2    0    0  0.71398333284E+02 -0.67970891113E+02  0.10404181843E+04  0.10489496907E+04  0.90042720356E+02 0.  0.
        254    2    1    2    0    0 -0.71398333284E+02  0.67970891113E+02  0.12324037814E+04  0.15270788592E+04  0.89634424065E+03 0.  0.
        -24    2    4    4    0    0  0.22112704931E+03  0.47704484529E+01 -0.21056929421E+02  0.23579655921E+03  0.78972741770E+02 0.  0.
         24    2    4    4    0    0 -0.29252538259E+03  0.63200442660E+02  0.12534607108E+04  0.12912823000E+04  0.81736339933E+02 0.  0.
         11    1    3    3    0    0  0.58531853860E+02 -0.81746963735E+02  0.99052209758E+03  0.99561165612E+03  0.00000000000E+00 0. -1.
        -11    1    3    3    0    0  0.12866479424E+02  0.13776072623E+02  0.49896086682E+02  0.53338034608E+02  0.00000000000E+00 0.  1.
          2    1    6    6  502    0 -0.22289119312E+03  0.70080452317E+02  0.10629819078E+04  0.10883576113E+04  0.00000000000E+00 0. -1.
          3    1    5    5  503    0  0.19017819469E+03 -0.21373685618E+02 -0.31519718330E+02  0.19395379041E+03  0.00000000000E+00 0. -1.
         -4    1    5    5    0  503  0.30948854622E+02  0.26144134071E+02  0.10462788910E+02  0.41842768795E+02  0.00000000000E+00 0.  1.
         -1    1    6    6    0  502 -0.69634189475E+02 -0.68800096570E+01  0.19047880302E+03  0.20292468869E+03  0.00000000000E+00 0.  1.
<mgrwt>
<rscale>  0 0.12125194E+04</rscale>
<asrwt>0</asrwt>
<pdfrwt beam="1">  1        1 0.37298847E+00 0.12125194E+04</pdfrwt>
<pdfrwt beam="2">  1       -1 0.23323585E-01 0.12125194E+04</pdfrwt>
<totfact> 0.23963656E+01</totfact>
</mgrwt>
</event>
<event>
12    1  0.1489025E-007  0.1421408E+04  0.7818608E-02  0.8938466E-01
         -1   -1    0    0    0  501 -0.00000000000E+00  0.00000000000E+00  0.86557952555E+03  0.86557952555E+03  0.00000000000E+00 0.  1.
          1   -1    0    0  501    0  0.00000000000E+00 -0.00000000000E+00 -0.58353995701E+03  0.58353995701E+03  0.00000000000E+00 0. -1.
         23    2    1    2    0    0  0.26014548915E+03 -0.68805116124E+02  0.45762452792E+03  0.53859332239E+03  0.90844586205E+02 0.  0.
        254    2    1    2    0    0 -0.26014548915E+03  0.68805116124E+02 -0.17558495938E+03  0.91052616017E+03  0.85194952366E+03 0.  0.
        -24    2    4    4    0    0 -0.90235169099E+02 -0.18376890657E+02 -0.50570027071E+03  0.52067582175E+03  0.83008744751E+02 0.  0.
         24    2    4    4    0    0 -0.16991032005E+03  0.87182006781E+02  0.33011531133E+03  0.38985033842E+03  0.80851397196E+02 0.  0.
         13    1    3    3    0    0  0.67229822201E+02 -0.52786321579E+02  0.18955494132E+03  0.20793585674E+03  0.00000000000E+00 0. -1.
        -13    1    3    3    0    0  0.19291566694E+03 -0.16018794545E+02  0.26806958660E+03  0.33065746565E+03  0.00000000000E+00 0.  1.
          4    1    6    6  502    0 -0.54869232447E+02 -0.97979319254E+01  0.71620047685E+02  0.90752759571E+02  0.00000000000E+00 0. -1.
          1    1    5    5  503    0 -0.81211804503E+01  0.28109043945E+02 -0.13734071995E+03  0.14042273776E+03  0.00000000000E+00 0. -1.
         -2    1    5    5    0  503 -0.82113988649E+02 -0.46485934602E+02 -0.36835955076E+03  0.38025308399E+03  0.00000000000E+00 0.  1.
         -3    1    6    6    0  502 -0.11504108760E+03  0.96979938707E+02  0.25849526364E+03  0.29909757885E+03  0.00000000000E+00 0.  1.
<mgrwt>
<rscale>  0 0.14214081E+04</rscale>
<asrwt>0</asrwt>
<pdfrwt beam="1">  1        1 0.89775378E-01 0.14214081E+04</pdfrwt>
<pdfrwt beam="2">  1       -1 0.13316608E+00 0.14214081E+04</pdfrwt>
<totfact> 0.16559593E+01</totfact>
</mgrwt>
</event>
<event>
12    1  0.1489025E-007  0.2144682E+04  0.7818608E-02  0.8541812E-01
          1   -1    0    0  501    0  0.00000000000E+00  0.00000000000E+00  0.23118166892E+04  0.23118166892E+04  0.00000000000E+00 0. -1.
         -1   -1    0    0    0  501 -0.00000000000E+00 -0.00000000000E+00 -0.49740739546E+03  0.49740739546E+03  0.00000000000E+00 0.  1.
         23    2    1    2    0    0 -0.41278189694E+03 -0.69431302911E+03  0.12216667028E+04  0.14673872483E+04  0.91084174959E+02 0.  0.
        254    2    1    2    0    0  0.41278189694E+03  0.69431302911E+03  0.59274259092E+03  0.13418368363E+04  0.89259332254E+03 0.  0.
        -24    2    4    4    0    0  0.15705497717E+02  0.56213109398E+02  0.57715425372E+03  0.58577191802E+03  0.81333455804E+02 0.  0.
         24    2    4    4    0    0  0.39707639922E+03  0.63809991972E+03  0.15588337207E+02  0.75606491832E+03  0.80932009129E+02 0.  0.
         11    1    3    3    0    0 -0.31924732505E+03 -0.60217412755E+03  0.10219438383E+04  0.12283736170E+04  0.00000000000E+00 0. -1.
        -11    1    3    3    0    0 -0.93534571884E+02 -0.92138901565E+02  0.19972286452E+03  0.23901363127E+03  0.00000000000E+00 0.  1.
          4    1    6    6  502    0  0.13286332754E+03  0.16968642893E+03 -0.23849298906E+02  0.21682928083E+03  0.00000000000E+00 0. -1.
          3    1    5    5  503    0  0.17955852904E+02  0.53650690861E+02  0.18172808042E+03  0.19033103924E+03  0.00000000000E+00 0. -1.
         -2    1    5    5    0  503 -0.22503551870E+01  0.25624185371E+01  0.39542617329E+03  0.39544087878E+03  0.00000000000E+00 0.  1.
         -3    1    6    6    0  502  0.26421307168E+03  0.46841349079E+03  0.39437636113E+02  0.53923563749E+03  0.00000000000E+00 0.  1.
<mgrwt>
<rscale>  0 0.21446815E+04</rscale>
<asrwt>0</asrwt>
<pdfrwt beam="1">  1        1 0.35566410E+00 0.21446815E+04</pdfrwt>
<pdfrwt beam="2">  1       -1 0.76524216E-01 0.21446815E+04</pdfrwt>
<totfact> 0.28681709E+00</totfact>
</mgrwt>
</event>
<event>
12    1  0.1794804E-007  0.2278824E+04  0.7818608E-02  0.8486317E-01
         -2   -1    0    0    0  501 -0.00000000000E+00  0.00000000000E+00  0.73881665906E+03  0.73881665906E+03  0.00000000000E+00 0.  1.
          2   -1    0    0  501    0  0.00000000000E+00 -0.00000000000E+00 -0.17572156180E+04  0.17572156180E+04  0.00000000000E+00 0. -1.
         23    2    1    2    0    0  0.35362304847E+03  0.87864861871E+03 -0.26980066549E+03  0.98976071568E+03  0.98798884798E+02 0.  0.
        254    2    1    2    0    0 -0.35362304847E+03 -0.87864861871E+03 -0.74859829345E+03  0.15062715614E+04  0.90076742620E+03 0.  0.
        -24    2    4    4    0    0 -0.77665788448E+02 -0.91982555049E+03 -0.78164709518E+03  0.12124675929E+04  0.83632914560E+02 0.  0.
         24    2    4    4    0    0 -0.27595726003E+03  0.41176931779E+02  0.33048801725E+02  0.29380396849E+03  0.85910415733E+02 0.  0.
         11    1    3    3    0    0  0.26211665028E+03  0.66435681917E+03 -0.24671651293E+03  0.75560846957E+03  0.00000000000E+00 0.  1.
        -11    1    3    3    0    0  0.91506398193E+02  0.21429179954E+03 -0.23084152556E+02  0.23415224611E+03  0.00000000000E+00 0. -1.
          2    1    6    6  502    0 -0.27103744837E+03  0.46688110489E+02  0.46042846488E+02  0.27885663305E+03  0.00000000000E+00 0. -1.
          1    1    5    5  503    0 -0.78098567394E+02 -0.81612534930E+03 -0.72427773174E+03  0.10939553029E+04  0.00000000000E+00 0. -1.
         -2    1    5    5    0  503  0.43277894639E+00 -0.10370020119E+03 -0.57369363434E+02  0.11851229002E+03  0.00000000000E+00 0.  1.
         -1    1    6    6    0  502 -0.49198116537E+01 -0.55111787100E+01 -0.12994044763E+02  0.14947335441E+02  0.00000000000E+00 0.  1.
<mgrwt>
<rscale>  0 0.22788244E+04</rscale>
<asrwt>0</asrwt>
<pdfrwt beam="1">  1        2 0.27034086E+00 0.22788244E+04</pdfrwt>
<pdfrwt beam="2">  1       -2 0.11366410E+00 0.22788244E+04</pdfrwt>
<totfact> 0.50222414E+00</totfact>
</mgrwt>
</event>
<event>
12    1  0.1489025E-007  0.1444051E+04  0.7818608E-02  0.8922536E-01
          2   -1    0    0  501    0  0.00000000000E+00  0.00000000000E+00  0.54797524781E+03  0.54797524781E+03  0.00000000000E+00 0. -1.
         -2   -1    0    0    0  501 -0.00000000000E+00 -0.00000000000E+00 -0.95135773892E+03  0.95135773892E+03  0.00000000000E+00 0.  1.
         23    2    1    2    0    0  0.38041940560E+03 -0.10719220451E+03  0.75251164959E+02  0.41264562806E+03  0.91676516400E+02 0.  0.
        254    2    1    2    0    0 -0.38041940560E+03  0.10719220451E+03 -0.47863365606E+03  0.10866873587E+04  0.89195860100E+03 0.  0.
        -24    2    4    4    0    0 -0.55655731952E+03  0.26262997766E+03 -0.92428867401E+02  0.62762558600E+03  0.81487579334E+02 0.  0.
         24    2    4    4    0    0  0.17613791392E+03 -0.15543777315E+03 -0.38620478866E+03  0.45906177267E+03  0.79988163496E+02 0.  0.
         11    1    3    3    0    0  0.28962567669E+03 -0.10747721299E+03  0.87380722031E+02  0.32104481695E+03  0.00000000000E+00 0. -1.
        -11    1    3    3    0    0  0.90793728915E+02  0.28500848009E+00 -0.12129557072E+02  0.91600811104E+02  0.00000000000E+00 0.  1.
          4    1    6    6  502    0  0.16499906300E+03 -0.14432775911E+03 -0.30070857265E+03  0.37213013652E+03  0.00000000000E+00 0. -1.
          3    1    5    5  503    0 -0.36887385896E+03  0.21571831852E+03 -0.64793375207E+02  0.43220423209E+03  0.00000000000E+00 0. -1.
         -4    1    5    5    0  503 -0.18768346056E+03  0.46911659146E+02 -0.27635492195E+02  0.19542135390E+03  0.00000000000E+00 0.  1.
         -3    1    6    6    0  502  0.11138850922E+02 -0.11110014042E+02 -0.85496216009E+02  0.86931636150E+02  0.00000000000E+00 0.  1.
<mgrwt>
<rscale>  0 0.14440505E+04</rscale>
<asrwt>0</asrwt>
<pdfrwt beam="1">  1        2 0.84303885E-01 0.14440505E+04</pdfrwt>
<pdfrwt beam="2">  1       -2 0.14636273E+00 0.14440505E+04</pdfrwt>
<totfact> 0.17137933E+01</totfact>
</mgrwt>
</event>
<event>
12    1  0.1489025E-007  0.3255879E+04  0.7818608E-02  0.8174214E-01
          1   -1    0    0  501    0  0.00000000000E+00  0.00000000000E+00  0.12576595387E+04  0.12576595387E+04  0.00000000000E+00 0. -1.
         -1   -1    0    0    0  501 -0.00000000000E+00 -0.00000000000E+00 -0.21072366869E+04  0.21072366869E+04  0.00000000000E+00 0.  1.
         23    2    1    2    0    0 -0.58009288608E+03 -0.13786106935E+04 -0.23539550005E+03  0.15168023576E+04  0.90571242982E+02 0.  0.
        254    2    1    2    0    0  0.58009288608E+03  0.13786106935E+04 -0.61418164816E+03  0.18480938680E+04  0.89507354309E+03 0.  0.
        -24    2    4    4    0    0  0.51409712214E+03  0.12432382586E+04 -0.15305538964E+03  0.13565189729E+04  0.82344113271E+02 0.  0.
         24    2    4    4    0    0  0.65995763938E+02  0.13537243484E+03 -0.46112625852E+03  0.49157489508E+03  0.79544416601E+02 0.  0.
         11    1    3    3    0    0 -0.51191597735E+03 -0.11695121144E+04 -0.22730911240E+03  0.12967212446E+04  0.00000000000E+00 0. -1.
        -11    1    3    3    0    0 -0.68176908722E+02 -0.20909857906E+03 -0.80863876436E+01  0.22008111303E+03  0.00000000000E+00 0.  1.
          2    1    6    6  502    0 -0.12563648004E+02  0.18099126844E+02 -0.25755779972E+02  0.33893713955E+02  0.00000000000E+00 0. -1.
          3    1    5    5  503    0  0.10954434569E+03  0.36132841815E+03 -0.39920702841E+02  0.37967334901E+03  0.00000000000E+00 0. -1.
         -2    1    5    5    0  503  0.40455277645E+03  0.88190984047E+03 -0.11313468680E+03  0.97684562393E+03  0.00000000000E+00 0.  1.
         -1    1    6    6    0  502  0.78559411942E+02  0.11727330799E+03 -0.43537047854E+03  0.45768118113E+03  0.00000000000E+00 0.  1.
<mgrwt>
<rscale>  0 0.32558786E+04</rscale>
<asrwt>0</asrwt>
<pdfrwt beam="1">  1        1 0.19348609E+00 0.32558786E+04</pdfrwt>
<pdfrwt beam="2">  1       -1 0.32419025E+00 0.32558786E+04</pdfrwt>
<totfact> 0.18560415E-01</totfact>
</mgrwt>
</event>
<event>
12    1  0.1489025E-007  0.1164343E+04  0.7818608E-02  0.9144652E-01
          1   -1    0    0  501    0  0.00000000000E+00  0.00000000000E+00  0.18560585204E+04  0.18560585204E+04  0.00000000000E+00 0. -1.
         -1   -1    0    0    0  501 -0.00000000000E+00 -0.00000000000E+00 -0.18260404898E+03  0.18260404898E+03  0.00000000000E+00 0.  1.
         23    2    1    2    0    0  0.15907611230E+03  0.86790612421E+02  0.13321700764E+03  0.24325466190E+03  0.92672754920E+02 0.  0.
        254    2    1    2    0    0 -0.15907611230E+03 -0.86790612421E+02  0.15402374638E+04  0.17954079075E+04  0.90461057338E+03 0.  0.
        -24    2    4    4    0    0  0.34396733144E+03 -0.17570691069E+03  0.79884721276E+03  0.89162666259E+03  0.87491671311E+02 0.  0.
         24    2    4    4    0    0 -0.50304344374E+03  0.88916298270E+02  0.74139025104E+03  0.90378124490E+03  0.78754173881E+02 0.  0.
         13    1    3    3    0    0  0.10431553788E+03  0.62613810962E+02  0.13706233690E+03  0.18327112419E+03  0.00000000000E+00 0. -1.
        -13    1    3    3    0    0  0.54760574413E+02  0.24176801458E+02 -0.38453292592E+01  0.59983537708E+02  0.00000000000E+00 0.  1.
          2    1    6    6  502    0 -0.17980051721E+02  0.11082216684E+02  0.11754224115E+02  0.24171461914E+02  0.00000000000E+00 0. -1.
          1    1    5    5  503    0  0.24717746521E+02 -0.78973520373E+00  0.10736916683E+03  0.11018043683E+03  0.00000000000E+00 0. -1.
         -2    1    5    5    0  503  0.31924958492E+03 -0.17491717549E+03  0.69147804593E+03  0.78144622576E+03  0.00000000000E+00 0.  1.
         -3    1    6    6    0  502 -0.48506339202E+03  0.77834081586E+02  0.72963602693E+03  0.87960978298E+03  0.00000000000E+00 0.  1.
<mgrwt>
<rscale>  0 0.11643433E+04</rscale>
<asrwt>0</asrwt>
<pdfrwt beam="1">  1        1 0.28554745E+00 0.11643433E+04</pdfrwt>
<pdfrwt beam="2">  1       -1 0.28092932E-01 0.11643433E+04</pdfrwt>
<totfact> 0.42438466E+01</totfact>
</mgrwt>
</event>
<event>
12    1  0.1489025E-007  0.1793738E+04  0.7818608E-02  0.8709636E-01
         -1   -1    0    0    0  501 -0.00000000000E+00  0.00000000000E+00  0.12174962076E+04  0.12174962076E+04  0.00000000000E+00 0.  1.
          1   -1    0    0  501    0  0.00000000000E+00 -0.00000000000E+00 -0.66067912975E+03  0.66067912975E+03  0.00000000000E+00 0. -1.
         23    2    1    2    0    0 -0.51729905015E+03  0.40913393491E+03  0.60130762064E+02  0.66871793273E+03  0.92623328740E+02 0.  0.
        254    2    1    2    0    0  0.51729905015E+03 -0.40913393491E+03  0.49668631581E+03  0.12094574046E+04  0.88379920421E+03 0.  0.
        -24    2    4    4    0    0 -0.99423451458E+02  0.79331890192E+00  0.44313165597E+03  0.46301851536E+03  0.90193286823E+02 0.  0.
         24    2    4    4    0    0  0.61672250161E+03 -0.40992725381E+03  0.53554659833E+02  0.74643888928E+03  0.76914994844E+02 0.  0.
         11    1    3    3    0    0 -0.35749200965E+02  0.40643298423E+02  0.29352329668E+02  0.61574689064E+02  0.00000000000E+00 0.  1.
        -11    1    3    3    0    0 -0.48154984918E+03  0.36849063649E+03  0.30778432395E+02  0.60714324367E+03  0.00000000000E+00 0. -1.
          4    1    6    6  502    0  0.59453106657E+03 -0.39735696752E+03  0.37036507497E+02  0.71605268776E+03  0.00000000000E+00 0. -1.
          1    1    5    5  503    0 -0.98591172924E+02 -0.26729146194E+02  0.29083188163E+03  0.30824965532E+03  0.00000000000E+00 0. -1.
         -2    1    5    5    0  503 -0.83227853347E+00  0.27522465096E+02  0.15229977434E+03  0.15476886004E+03  0.00000000000E+00 0.  1.
         -1    1    6    6    0  502  0.22191435038E+02 -0.12570286293E+02  0.16518152336E+02  0.30386201525E+02  0.00000000000E+00 0.  1.
<mgrwt>
<rscale>  0 0.17937384E+04</rscale>
<asrwt>0</asrwt>
<pdfrwt beam="1">  1        1 0.10164294E+00 0.17937384E+04</pdfrwt>
<pdfrwt beam="2">  1       -1 0.18730711E+00 0.17937384E+04</pdfrwt>
<totfact> 0.51798145E+00</totfact>
</mgrwt>
</event>
<event>
12    1  0.1489025E-007  0.1522145E+04  0.7818608E-02  0.8869859E-01
         -2   -1    0    0    0  501 -0.00000000000E+00  0.00000000000E+00  0.42697325396E+03  0.42697325396E+03  0.00000000000E+00 0.  1.
          2   -1    0    0  501    0  0.00000000000E+00 -0.00000000000E+00 -0.13565995235E+04  0.13565995235E+04  0.00000000000E+00 0. -1.
         23    2    1    2    0    0  0.76912821118E+02  0.45930118675E+03 -0.16556266197E+03  0.50225433516E+03  0.89304310909E+02 0.  0.
        254    2    1    2    0    0 -0.76912821118E+02 -0.45930118675E+03 -0.76406360759E+03  0.12813184423E+04  0.91712081647E+03 0.  0.
        -24    2    4    4    0    0  0.12731316213E+03  0.58123620858E+02 -0.69612258824E+03  0.71525501123E+03  0.86116645766E+02 0.  0.
         24    2    4    4    0    0 -0.20422598325E+03 -0.51742480761E+03 -0.67941019351E+02  0.56606343109E+03  0.79844487261E+02 0.  0.
         13    1    3    3    0    0  0.96538859906E+02  0.38840936892E+03 -0.14720557916E+03  0.42643999798E+03  0.00000000000E+00 0. -1.
        -13    1    3    3    0    0 -0.19626038788E+02  0.70891817830E+02 -0.18357082816E+02  0.75814337188E+02  0.00000000000E+00 0.  1.
          4    1    6    6  502    0 -0.20196215159E+03 -0.52039934533E+03 -0.67857381485E+02  0.56232447352E+03  0.00000000000E+00 0. -1.
          1    1    5    5  503    0  0.40925247938E+02  0.15676991721E+02 -0.43060612534E+03  0.43283054324E+03  0.00000000000E+00 0. -1.
         -2    1    5    5    0  503  0.86387914197E+02  0.42446629137E+02 -0.26551646291E+03  0.28242446799E+03  0.00000000000E+00 0.  1.
         -3    1    6    6    0  502 -0.22638316583E+01  0.29745377224E+01 -0.83637865543E-01  0.37389575729E+01  0.00000000000E+00 0.  1.
<mgrwt>
<rscale>  0 0.15221455E+04</rscale>
<asrwt>0</asrwt>
<pdfrwt beam="1">  1        2 0.20870762E+00 0.15221455E+04</pdfrwt>
<pdfrwt beam="2">  1       -2 0.65688193E-01 0.15221455E+04</pdfrwt>
<totfact> 0.31550224E+01</totfact>
</mgrwt>
</event>
<event>
12    1  0.1489025E-007  0.1198683E+04  0.7818608E-02  0.9114010E-01
          1   -1    0    0  501    0  0.00000000000E+00  0.00000000000E+00  0.63877291746E+03  0.63877291746E+03  0.00000000000E+00 0. -1.
         -1   -1    0    0    0  501 -0.00000000000E+00 -0.00000000000E+00 -0.56234375771E+03  0.56234375771E+03  0.00000000000E+00 0.  1.
         23    2    1    2    0    0 -0.39593820377E+02  0.14419167683E+03  0.21317571297E+03  0.27685074854E+03  0.94040108930E+02 0.  0.
        254    2    1    2    0    0  0.39593820377E+02 -0.14419167683E+03 -0.13674655322E+03  0.92426592663E+03  0.90178100060E+03 0.  0.
        -24    2    4    4    0    0  0.43252092035E+03 -0.34157010257E+02 -0.23098348798E+03  0.49776344925E+03  0.78575007503E+02 0.  0.
         24    2    4    4    0    0 -0.39292709997E+03 -0.11003466657E+03  0.94236934762E+02  0.42650247738E+03  0.80773941330E+02 0.  0.
         11    1    3    3    0    0  0.21338920604E+02  0.59976442221E+02  0.40967742190E+02  0.75702569667E+02  0.00000000000E+00 0.  1.
        -11    1    3    3    0    0 -0.60932740980E+02  0.84215234609E+02  0.17220797078E+03  0.20114817887E+03  0.00000000000E+00 0. -1.
          2    1    6    6  502    0 -0.35376185376E+03 -0.12131305182E+03  0.74985763100E+02  0.38142780495E+03  0.00000000000E+00 0. -1.
          1    1    5    5  503    0  0.31129345090E+03 -0.58779095315E+02 -0.15615894180E+03  0.35319146326E+03  0.00000000000E+00 0. -1.
         -2    1    5    5    0  503  0.12122746945E+03  0.24622085058E+02 -0.74824546180E+02  0.14457198599E+03  0.00000000000E+00 0.  1.
         -1    1    6    6    0  502 -0.39165246209E+02  0.11278385250E+02  0.19251171663E+02  0.45074672432E+02  0.00000000000E+00 0.  1.
<mgrwt>
<rscale>  0 0.11986825E+04</rscale>
<asrwt>0</asrwt>
<pdfrwt beam="1">  1        1 0.98272756E-01 0.11986825E+04</pdfrwt>
<pdfrwt beam="2">  1       -1 0.86514425E-01 0.11986825E+04</pdfrwt>
<totfact> 0.40775930E+01</totfact>
</mgrwt>
</event>
<event>
12    1  0.1489025E-007  0.2041627E+04  0.7818608E-02  0.8587402E-01
         -2   -1    0    0    0  501 -0.00000000000E+00  0.00000000000E+00  0.44655043854E+03  0.44655043854E+03  0.00000000000E+00 0.  1.
          2   -1    0    0  501    0  0.00000000000E+00 -0.00000000000E+00 -0.23335786644E+04  0.23335786644E+04  0.00000000000E+00 0. -1.
         23    2    1    2    0    0  0.46218383217E+03  0.64846535290E+03 -0.10340909568E+04  0.13082936183E+04  0.90370769773E+02 0.  0.
        254    2    1    2    0    0 -0.46218383217E+03 -0.64846535290E+03 -0.85293726912E+03  0.14718354847E+04  0.89703762488E+03 0.  0.
        -24    2    4    4    0    0 -0.48435136512E+03 -0.28940120779E+03 -0.93407464616E+03  0.10942461391E+04  0.80807576705E+02 0.  0.
         24    2    4    4    0    0  0.22167532953E+02 -0.35906414511E+03  0.81137377040E+02  0.37758934560E+03  0.81067750293E+02 0.  0.
         13    1    3    3    0    0  0.43156683488E+03  0.62850184052E+03 -0.96213152040E+03  0.12275836261E+04  0.00000000000E+00 0. -1.
        -13    1    3    3    0    0  0.30616997287E+02  0.19963512373E+02 -0.71959436379E+02  0.80709992152E+02  0.00000000000E+00 0.  1.
          4    1    6    6  502    0 -0.16895653796E+02 -0.25978001214E+02 -0.48653471739E+01  0.31368635090E+02  0.00000000000E+00 0. -1.
          3    1    5    5  503    0 -0.14431113004E+03 -0.57424668958E+02 -0.20778287825E+03  0.25941669058E+03  0.00000000000E+00 0. -1.
         -2    1    5    5    0  503 -0.34004023508E+03 -0.23197653883E+03 -0.72629176792E+03  0.83482944856E+03  0.00000000000E+00 0.  1.
         -3    1    6    6    0  502  0.39063186750E+02 -0.33308614389E+03  0.86002724214E+02  0.34622071051E+03  0.00000000000E+00 0.  1.
<mgrwt>
<rscale>  0 0.20416274E+04</rscale>
<asrwt>0</asrwt>
<pdfrwt beam="1">  1        2 0.35901209E+00 0.20416274E+04</pdfrwt>
<pdfrwt beam="2">  1       -2 0.68700070E-01 0.20416274E+04</pdfrwt>
<totfact> 0.77806554E+00</totfact>
</mgrwt>
</event>
<event>
12    1  0.1489025E-007  0.1576968E+04  0.7818608E-02  0.8834824E-01
          2   -1    0    0  501    0  0.00000000000E+00  0.00000000000E+00  0.17862395071E+04  0.17862395071E+04  0.00000000000E+00 0. -1.
         -2   -1    0    0    0  501 -0.00000000000E+00 -0.00000000000E+00 -0.34805361984E+03  0.34805361984E+03  0.00000000000E+00 0.  1.
         23    2    1    2    0    0  0.63189480095E+02  0.58664325475E+02  0.11835348071E+04  0.11900119947E+04  0.89103840593E+02 0.  0.
        254    2    1    2    0    0 -0.63189480095E+02 -0.58664325475E+02  0.25465108017E+03  0.94428113227E+03  0.90519902267E+03 0.  0.
        -24    2    4    4    0    0 -0.32036960787E+03  0.28182679343E+03  0.26796348835E+03  0.51023076473E+03  0.80423721877E+02 0.  0.
         24    2    4    4    0    0  0.25718012778E+03 -0.34049111890E+03 -0.13312408182E+02  0.43405036754E+03  0.78400772822E+02 0.  0.
         11    1    3    3    0    0  0.49864999540E+02  0.38365524028E+02  0.11233943003E+04  0.11251547385E+04  0.00000000000E+00 0. -1.
        -11    1    3    3    0    0  0.13324480555E+02  0.20298801447E+02  0.60140506743E+02  0.64857256136E+02  0.00000000000E+00 0.  1.
          2    1    6    6  502    0  0.98007958891E+02 -0.16787962195E+03 -0.37605114426E+02  0.19799816187E+03  0.00000000000E+00 0. -1.
          3    1    5    5  503    0 -0.20539080582E+03  0.20800397098E+03  0.21834009473E+03  0.36486083926E+03  0.00000000000E+00 0. -1.
         -4    1    5    5    0  503 -0.11497880205E+03  0.73822822442E+02  0.49623393627E+02  0.14536992547E+03  0.00000000000E+00 0.  1.
         -1    1    6    6    0  502  0.15917216888E+03 -0.17261149695E+03  0.24292706244E+02  0.23605220567E+03  0.00000000000E+00 0.  1.
<mgrwt>
<rscale>  0 0.15769681E+04</rscale>
<asrwt>0</asrwt>
<pdfrwt beam="1">  1        2 0.27480607E+00 0.15769681E+04</pdfrwt>
<pdfrwt beam="2">  1       -2 0.53546712E-01 0.15769681E+04</pdfrwt>
<totfact> 0.27725153E+01</totfact>
</mgrwt>
</event>
<event>
12    1  0.1489025E-007  0.1744702E+04  0.7818608E-02  0.8736272E-01
         -1   -1    0    0    0  501 -0.00000000000E+00  0.00000000000E+00  0.46874049176E+03  0.46874049176E+03  0.00000000000E+00 0.  1.
          1   -1    0    0  501    0  0.00000000000E+00 -0.00000000000E+00 -0.16234921689E+04  0.16234921689E+04  0.00000000000E+00 0. -1.
         23    2    1    2    0    0  0.17322470915E+03 -0.52131588143E+03 -0.81330018179E+03  0.98534153331E+03  0.87542581020E+02 0.  0.
        254    2    1    2    0    0 -0.17322470915E+03  0.52131588143E+03 -0.34145149540E+03  0.11068911274E+04  0.89824372867E+03 0.  0.
        -24    2    4    4    0    0  0.28547071764E+03  0.50696538248E+03 -0.19605634051E+03  0.61889782177E+03  0.78032015752E+02 0.  0.
         24    2    4    4    0    0 -0.45869542679E+03  0.14350498952E+02 -0.14539515489E+03  0.48799330562E+03  0.79939251217E+02 0.  0.
         11    1    3    3    0    0  0.16699226927E+03 -0.49711631428E+03 -0.80122728066E+03  0.95758874429E+03  0.00000000000E+00 0. -1.
        -11    1    3    3    0    0  0.62324398824E+01 -0.24199567148E+02 -0.12072901128E+02  0.27752789025E+02  0.00000000000E+00 0.  1.
          2    1    6    6  502    0 -0.11708614254E+03 -0.30662570659E+02 -0.44607670297E+02  0.12899303184E+03  0.00000000000E+00 0. -1.
          1    1    5    5  503    0  0.72027126903E+02  0.20455772092E+03 -0.74048869873E+02  0.22916152235E+03  0.00000000000E+00 0. -1.
         -2    1    5    5    0  503  0.21344359074E+03  0.30240766156E+03 -0.12200747064E+03  0.38973629942E+03  0.00000000000E+00 0.  1.
         -1    1    6    6    0  502 -0.34160928425E+03  0.45013069610E+02 -0.10078748459E+03  0.35900027378E+03  0.00000000000E+00 0.  1.
<mgrwt>
<rscale>  0 0.17447023E+04</rscale>
<asrwt>0</asrwt>
<pdfrwt beam="1">  1        1 0.24976803E+00 0.17447023E+04</pdfrwt>
<pdfrwt beam="2">  1       -1 0.72113920E-01 0.17447023E+04</pdfrwt>
<totfact> 0.98895646E+00</totfact>
</mgrwt>
</event>
<event>
12    1  0.1489025E-007  0.2198259E+04  0.7818608E-02  0.8519153E-01
          2   -1    0    0  501    0  0.00000000000E+00  0.00000000000E+00  0.11033091454E+04  0.11033091454E+04  0.00000000000E+00 0. -1.
         -2   -1    0    0    0  501 -0.00000000000E+00 -0.00000000000E+00 -0.10949658040E+04  0.10949658040E+04  0.00000000000E+00 0.  1.
         23    2    1    2    0    0  0.19935907981E+03  0.33306002821E+02 -0.88124799948E+03  0.90883234415E+03  0.92330171965E+02 0.  0.
        254    2    1    2    0    0 -0.19935907981E+03 -0.33306002821E+02  0.88959134093E+03  0.12894426053E+04  0.91128269261E+03 0.  0.
        -24    2    4    4    0    0 -0.45966936318E+03 -0.73243398908E+02  0.14112221476E+03  0.49281415357E+03  0.79308205969E+02 0.  0.
         24    2    4    4    0    0  0.26031028337E+03  0.39937396087E+02  0.74846912617E+03  0.79662845168E+03  0.71094429971E+02 0.  0.
         11    1    3    3    0    0  0.82618253200E+01 -0.19885204886E+02 -0.13328244769E+03  0.13501070325E+03  0.00000000000E+00 0. -1.
        -11    1    3    3    0    0  0.19109725449E+03  0.53191207707E+02 -0.74796555179E+03  0.77382164090E+03  0.00000000000E+00 0.  1.
          2    1    6    6  502    0  0.40484249999E+01  0.14632987428E+02  0.37131299722E+02  0.40115427021E+02  0.00000000000E+00 0. -1.
          1    1    5    5  503    0 -0.28425535067E+02 -0.19920467547E+02  0.25783767038E+02  0.43239319072E+02  0.00000000000E+00 0. -1.
         -2    1    5    5    0  503 -0.43124382811E+03 -0.53322931361E+02  0.11533844773E+03  0.44957483450E+03  0.00000000000E+00 0.  1.
         -1    1    6    6    0  502  0.25626185837E+03  0.25304408659E+02  0.71133782644E+03  0.75651302466E+03  0.00000000000E+00 0.  1.
<mgrwt>
<rscale>  0 0.21982591E+04</rscale>
<asrwt>0</asrwt>
<pdfrwt beam="1">  1        2 0.16973987E+00 0.21982591E+04</pdfrwt>
<pdfrwt beam="2">  1       -2 0.16845628E+00 0.21982591E+04</pdfrwt>
<totfact> 0.43332676E+00</totfact>
</mgrwt>
</event>
<event>
12    1  0.1489025E-007  0.1916835E+04  0.7818608E-02  0.8646522E-01
          1   -1    0    0  501    0  0.00000000000E+00  0.00000000000E+00  0.24943369383E+04  0.24943369383E+04  0.00000000000E+00 0. -1.
         -1   -1    0    0    0  501 -0.00000000000E+00 -0.00000000000E+00 -0.36825971203E+03  0.36825971203E+03  0.00000000000E+00 0.  1.
         23    2    1    2    0    0  0.63343128572E+03 -0.32803371916E+03  0.52330105779E+03  0.88983853874E+03  0.95536973506E+02 0.  0.
        254    2    1    2    0    0 -0.63343128572E+03  0.32803371916E+03  0.16027761685E+04  0.19727581116E+04  0.90224265358E+03 0.  0.
        -24    2    4    4    0    0 -0.15214533770E+03  0.44039170616E+03  0.25814499738E+03  0.53802980322E+03  0.75790308324E+02 0.  0.
         24    2    4    4    0    0 -0.48128594802E+03 -0.11235798700E+03  0.13446311711E+04  0.14347283084E+04  0.78433739742E+02 0.  0.
         11    1    3    3    0    0  0.13686374870E+03 -0.97009907358E+02  0.83271132405E+02  0.18728771804E+03  0.00000000000E+00 0. -1.
        -11    1    3    3    0    0  0.49656753701E+03 -0.23102381180E+03  0.44002992538E+03  0.70255082070E+03  0.00000000000E+00 0.  1.
          4    1    6    6  502    0 -0.47389561481E+03 -0.10983000878E+03  0.12747942715E+04  0.13644559792E+04  0.00000000000E+00 0. -1.
          3    1    5    5  503    0 -0.19166213497E+02  0.98754407421E+02  0.88874502281E+02  0.13423283458E+03  0.00000000000E+00 0. -1.
         -4    1    5    5    0  503 -0.13297912420E+03  0.34163729874E+03  0.16927049510E+03  0.40379696863E+03  0.00000000000E+00 0.  1.
         -3    1    6    6    0  502 -0.73903332139E+01 -0.25279782185E+01  0.69836899599E+02  0.70272329153E+02  0.00000000000E+00 0.  1.
<mgrwt>
<rscale>  0 0.19168347E+04</rscale>
<asrwt>0</asrwt>
<pdfrwt beam="1">  1        1 0.38374413E+00 0.19168347E+04</pdfrwt>
<pdfrwt beam="2">  1       -1 0.56655342E-01 0.19168347E+04</pdfrwt>
<totfact> 0.40303573E+00</totfact>
</mgrwt>
</event>
<event>
12    1  0.1489025E-007  0.1879586E+04  0.7818608E-02  0.8665085E-01
         -2   -1    0    0    0  501 -0.00000000000E+00  0.00000000000E+00  0.43669878150E+03  0.43669878150E+03  0.00000000000E+00 0.  1.
          2   -1    0    0  501    0  0.00000000000E+00 -0.00000000000E+00 -0.20224724694E+04  0.20224724694E+04  0.00000000000E+00 0. -1.
         23    2    1    2    0    0  0.54721107903E+03  0.40619208600E+03 -0.83398242874E+03  0.10803648551E+04  0.85026777600E+02 0.  0.
        254    2    1    2    0    0 -0.54721107903E+03 -0.40619208600E+03 -0.75179125919E+03  0.13788063958E+04  0.93353361165E+03 0.  0.
        -24    2    4    4    0    0 -0.21970271601E+03  0.97527637282E+02  0.14929163264E+03  0.29282475445E+03  0.75348668127E+02 0.  0.
         24    2    4    4    0    0 -0.32750836303E+03 -0.50371972328E+03 -0.90108289183E+03  0.10859816414E+04  0.80065348386E+02 0.  0.
         13    1    3    3    0    0  0.45493980634E+03  0.34827072785E+03 -0.64927350946E+03  0.86592079162E+03  0.00000000000E+00 0. -1.
        -13    1    3    3    0    0  0.92271272692E+02  0.57921358147E+02 -0.18470891928E+03  0.21444406346E+03  0.00000000000E+00 0.  1.
          4    1    6    6  502    0 -0.26451697585E+03 -0.34081128600E+03 -0.64824305142E+03  0.77867876361E+03  0.00000000000E+00 0. -1.
          1    1    5    5  503    0 -0.18841411356E+03  0.70889407243E+02  0.15107791943E+03  0.25169371066E+03  0.00000000000E+00 0. -1.
         -2    1    5    5    0  503 -0.31288602445E+02  0.26638230039E+02 -0.17862867890E+01  0.41131043788E+02  0.00000000000E+00 0.  1.
         -3    1    6    6    0  502 -0.62991387179E+02 -0.16290843727E+03 -0.25283984041E+03  0.30730287778E+03  0.00000000000E+00 0.  1.
<mgrwt>
<rscale>  0 0.18795864E+04</rscale>
<asrwt>0</asrwt>
<pdfrwt beam="1">  1        2 0.31114962E+00 0.18795864E+04</pdfrwt>
<pdfrwt beam="2">  1       -2 0.67184426E-01 0.18795864E+04</pdfrwt>
<totfact> 0.12377879E+01</totfact>
</mgrwt>
</event>
<event>
12    1  0.1489025E-007  0.1312979E+04  0.7818608E-02  0.9019335E-01
         -1   -1    0    0    0  501 -0.00000000000E+00  0.00000000000E+00  0.14929062850E+04  0.14929062850E+04  0.00000000000E+00 0.  1.
          1   -1    0    0  501    0  0.00000000000E+00 -0.00000000000E+00 -0.28868442141E+03  0.28868442141E+03  0.00000000000E+00 0. -1.
         23    2    1    2    0    0 -0.43843633332E+02  0.29901546199E+03 -0.20690882593E+02  0.31708155207E+03  0.93702120287E+02 0.  0.
        254    2    1    2    0    0  0.43843633332E+02 -0.29901546199E+03  0.12249127462E+04  0.14645091543E+04  0.74366882192E+03 0.  0.
        -24    2    4    4    0    0  0.19189370686E+03 -0.33690014506E+03  0.23659389737E+03  0.46134954617E+03  0.80881573907E+02 0.  0.
         24    2    4    4    0    0 -0.14805007353E+03  0.37884683075E+02  0.98831884882E+03  0.10031596082E+04  0.78746295589E+02 0.  0.
         11    1    3    3    0    0 -0.12465540898E+01  0.21150380125E+03 -0.46138695894E+02  0.21648138742E+03  0.00000000000E+00 0. -1.
        -11    1    3    3    0    0 -0.42597079242E+02  0.87511660741E+02  0.25447813301E+02  0.10060016465E+03  0.00000000000E+00 0.  1.
          4    1    6    6  502    0 -0.14817228221E+03  0.17147847823E+02  0.80803883394E+03  0.82169083666E+03  0.00000000000E+00 0. -1.
          1    1    5    5  503    0  0.18830996638E+03 -0.29189116265E+03  0.18783636412E+03  0.39489694093E+03  0.00000000000E+00 0. -1.
         -2    1    5    5    0  503  0.35837404810E+01 -0.45008982419E+02  0.48757533252E+02  0.66452605239E+02  0.00000000000E+00 0.  1.
         -3    1    6    6    0  502  0.12220868033E+00  0.20736835252E+02  0.18028001488E+03  0.18146877152E+03  0.00000000000E+00 0.  1.
<mgrwt>
<rscale>  0 0.13129795E+04</rscale>
<asrwt>0</asrwt>
<pdfrwt beam="1">  1        1 0.44412989E-01 0.13129795E+04</pdfrwt>
<pdfrwt beam="2">  1       -1 0.22967789E+00 0.13129795E+04</pdfrwt>
<totfact> 0.85897839E+00</totfact>
</mgrwt>
</event>
<event>
12    1  0.1489025E-007  0.1314459E+04  0.7818608E-02  0.9018177E-01
         -2   -1    0    0    0  501 -0.00000000000E+00  0.00000000000E+00  0.50072585174E+03  0.50072585174E+03  0.00000000000E+00 0.  1.
          2   -1    0    0  501    0  0.00000000000E+00 -0.00000000000E+00 -0.86264881884E+03  0.86264881884E+03  0.00000000000E+00 0. -1.
         23    2    1    2    0    0 -0.31720857698E+03  0.80853229978E+02 -0.19016259016E+03  0.38921496847E+03  0.90376738564E+02 0.  0.
        254    2    1    2    0    0  0.31720857698E+03 -0.80853229978E+02 -0.17176037694E+03  0.97415970212E+03  0.90129183511E+03 0.  0.
        -24    2    4    4    0    0 -0.11995781624E+03  0.18349287765E+03 -0.35585242050E+03  0.42519765696E+03  0.78119066025E+02 0.  0.
         24    2    4    4    0    0  0.43716639323E+03 -0.26434610763E+03  0.18409204356E+03  0.54896204516E+03  0.80474384357E+02 0.  0.
         11    1    3    3    0    0 -0.83333599744E+00 -0.97917390274E+01 -0.17143752339E+01  0.99755543459E+01  0.00000000000E+00 0.  1.
        -11    1    3    3    0    0 -0.31637524099E+03  0.90644969006E+02 -0.18844821493E+03  0.37923941412E+03  0.00000000000E+00 0. -1.
          4    1    6    6  502    0  0.18607401262E+03 -0.72056164044E+02  0.51861120684E+02  0.20616790436E+03  0.00000000000E+00 0. -1.
          3    1    5    5  503    0 -0.14082690111E+02 -0.48741854731E+01 -0.12215697354E+02  0.19269226934E+02  0.00000000000E+00 0. -1.
         -4    1    5    5    0  503 -0.10587512613E+03  0.18836706312E+03 -0.34363672315E+03  0.40592843002E+03  0.00000000000E+00 0.  1.
         -3    1    6    6    0  502  0.25109238061E+03 -0.19228994358E+03  0.13223092288E+03  0.34279414080E+03  0.00000000000E+00 0.  1.
<mgrwt>
<rscale>  0 0.13144589E+04</rscale>
<asrwt>0</asrwt>
<pdfrwt beam="1">  1        2 0.13271520E+00 0.13144589E+04</pdfrwt>
<pdfrwt beam="2">  1       -2 0.77034748E-01 0.13144589E+04</pdfrwt>
<totfact> 0.45834713E+01</totfact>
</mgrwt>
</event>
<event>
12    1  0.1693074E-007  0.1569512E+04  0.7818608E-02  0.8839500E-01
         -2   -1    0    0    0  501 -0.00000000000E+00  0.00000000000E+00  0.36127937103E+03  0.36127937103E+03  0.00000000000E+00 0.  1.
          2   -1    0    0  501    0  0.00000000000E+00 -0.00000000000E+00 -0.17046140809E+04  0.17046140809E+04  0.00000000000E+00 0. -1.
         23    2    1    2    0    0  0.24955097350E+03  0.22086288413E+03 -0.98389887945E+03  0.10428569240E+04  0.91855630945E+02 0.  0.
        254    2    1    2    0    0 -0.24955097350E+03 -0.22086288413E+03 -0.35943583045E+03  0.10230365280E+04  0.89797189232E+03 0.  0.
        -24    2    4    4    0    0 -0.53872232597E+02  0.18940894566E+03 -0.49782936259E+03  0.54114433930E+03  0.78899654981E+02 0.  0.
         24    2    4    4    0    0 -0.19567874090E+03 -0.41027182980E+03  0.13839353215E+03  0.48189218867E+03  0.80337835401E+02 0.  0.
         11    1    3    3    0    0  0.23628979177E+03  0.17524848668E+03 -0.89430200373E+03  0.94144621283E+03  0.00000000000E+00 0. -1.
        -11    1    3    3    0    0  0.13261181731E+02  0.45614397453E+02 -0.89596875721E+02  0.10141071114E+03  0.00000000000E+00 0.  1.
          4    1    6    6  502    0 -0.19834814815E+03 -0.38629544333E+03  0.11719853221E+03  0.44977956085E+03  0.00000000000E+00 0. -1.
          1    1    5    5  503    0 -0.25462146735E+02  0.14383101345E+03 -0.43291358172E+03  0.45689150855E+03  0.00000000000E+00 0. -1.
         -2    1    5    5    0  503 -0.28410085863E+02  0.45577932212E+02 -0.64915780874E+02  0.84252830753E+02  0.00000000000E+00 0.  1.
         -3    1    6    6    0  502  0.26694072402E+01 -0.23976386467E+02  0.21194999940E+02  0.32112627819E+02  0.00000000000E+00 0.  1.
<mgrwt>
<rscale>  0 0.15695119E+04</rscale>
<asrwt>0</asrwt>
<pdfrwt beam="1">  1        2 0.26224832E+00 0.15695119E+04</pdfrwt>
<pdfrwt beam="2">  1       -2 0.55581442E-01 0.15695119E+04</pdfrwt>
<totfact> 0.28497504E+01</totfact>
</mgrwt>
</event>
<event>
12    1  0.2698658E-007  0.1872531E+04  0.7818608E-02  0.8668651E-01
          1   -1    0    0  501    0  0.00000000000E+00  0.00000000000E+00  0.14040907641E+04  0.14040907641E+04  0.00000000000E+00 0. -1.
         -1   -1    0    0    0  501 -0.00000000000E+00 -0.00000000000E+00 -0.62431386105E+03  0.62431386105E+03  0.00000000000E+00 0.  1.
         23    2    1    2    0    0  0.17169100504E+03  0.43095061408E+03 -0.28985907001E+03  0.56056065269E+03  0.12253053452E+03 0.  0.
        254    2    1    2    0    0 -0.17169100504E+03 -0.43095061408E+03  0.10696359730E+04  0.14678439724E+04  0.89176711063E+03 0.  0.
        -24    2    4    4    0    0  0.64704771005E+02  0.24464599195E+03  0.16784038920E+03  0.31391989658E+03  0.79604877079E+02 0.  0.
         24    2    4    4    0    0 -0.23639577604E+03 -0.67559660603E+03  0.90179558381E+03  0.11539240758E+04  0.77406464800E+02 0.  0.
         11    1    3    3    0    0  0.42262381293E+02  0.24019244597E+03 -0.10701258008E+03  0.26632726535E+03  0.00000000000E+00 0. -1.
        -11    1    3    3    0    0  0.12942862374E+03  0.19075816811E+03 -0.18284648993E+03  0.29423338734E+03  0.00000000000E+00 0.  1.
          4    1    6    6  502    0 -0.50237026703E+02 -0.80847665625E+02  0.95209083232E+02  0.13462865007E+03  0.00000000000E+00 0. -1.
          1    1    5    5  503    0  0.44259832661E+01  0.76618881047E+01  0.34052048827E+02  0.35182891958E+02  0.00000000000E+00 0. -1.
         -4    1    5    5    0  503  0.60278787739E+02  0.23698410385E+03  0.13378834037E+03  0.27873700462E+03  0.00000000000E+00 0.  1.
         -3    1    6    6    0  502 -0.18615874934E+03 -0.59474894041E+03  0.80658650058E+03  0.10192954258E+04  0.00000000000E+00 0.  1.
<mgrwt>
<rscale>  0 0.18725313E+04</rscale>
<asrwt>0</asrwt>
<pdfrwt beam="1">  1        1 0.21601396E+00 0.18725313E+04</pdfrwt>
<pdfrwt beam="2">  1       -1 0.96048287E-01 0.18725313E+04</pdfrwt>
<totfact> 0.74767131E+00</totfact>
</mgrwt>
</event>
<event>
12    1  0.1489025E-007  0.1365215E+04  0.7818608E-02  0.8979390E-01
          1   -1    0    0  501    0  0.00000000000E+00  0.00000000000E+00  0.10973008852E+04  0.10973008852E+04  0.00000000000E+00 0. -1.
         -1   -1    0    0    0  501 -0.00000000000E+00 -0.00000000000E+00 -0.42463532211E+03  0.42463532211E+03  0.00000000000E+00 0.  1.
         23    2    1    2    0    0 -0.26283901682E+03  0.28742478752E+02  0.14523273856E+03  0.31471863292E+03  0.89692757293E+02 0.  0.
        254    2    1    2    0    0  0.26283901682E+03 -0.28742478752E+02  0.52743282457E+03  0.12072175744E+04  0.10532228675E+04 0.  0.
        -24    2    4    4    0    0  0.25191490417E+02  0.37293114643E+03 -0.12399613839E+03  0.40196088143E+03  0.80531091506E+02 0.  0.
         24    2    4    4    0    0  0.23764752640E+03 -0.40167362518E+03  0.65142896295E+03  0.80525669299E+03  0.79123952467E+02 0.  0.
         13    1    3    3    0    0 -0.31275222652E+02  0.23720175347E+02 -0.35783391445E+01  0.39415615959E+02  0.00000000000E+00 0.  1.
        -13    1    3    3    0    0 -0.23156379417E+03  0.50223034052E+01  0.14881107770E+03  0.27530301696E+03  0.00000000000E+00 0. -1.
          2    1    6    6  502    0  0.26795354998E+02 -0.74993093773E+02  0.15900814817E+03  0.17783572855E+03  0.00000000000E+00 0. -1.
          3    1    5    5  503    0  0.32839081416E+02  0.53146016482E+02 -0.21225367794E+02  0.65980456001E+02  0.00000000000E+00 0. -1.
         -4    1    5    5    0  503 -0.76475909993E+01  0.31978512995E+03 -0.10277077059E+03  0.33598042543E+03  0.00000000000E+00 0.  1.
         -1    1    6    6    0  502  0.21085217141E+03 -0.32668053141E+03  0.49242081478E+03  0.62742096444E+03  0.00000000000E+00 0.  1.
<mgrwt>
<rscale>  0 0.13652146E+04</rscale>
<asrwt>0</asrwt>
<pdfrwt beam="1">  1        1 0.16881552E+00 0.13652146E+04</pdfrwt>
<pdfrwt beam="2">  1       -1 0.65328511E-01 0.13652146E+04</pdfrwt>
<totfact> 0.29584767E+01</totfact>
</mgrwt>
</event>
<event>
12    1  0.1489025E-007  0.2465045E+04  0.7818608E-02  0.8415545E-01
         -1   -1    0    0    0  501 -0.00000000000E+00  0.00000000000E+00  0.63549878645E+03  0.63549878645E+03  0.00000000000E+00 0.  1.
          1   -1    0    0  501    0  0.00000000000E+00 -0.00000000000E+00 -0.23904234968E+04  0.23904234968E+04  0.00000000000E+00 0. -1.
         23    2    1    2    0    0  0.45849036481E+03  0.91892251077E+03 -0.10840705687E+04  0.14960802264E+04  0.91733584964E+02 0.  0.
        254    2    1    2    0    0 -0.45849036481E+03 -0.91892251077E+03 -0.67085414166E+03  0.15298420568E+04  0.91418786035E+03 0.  0.
        -24    2    4    4    0    0 -0.51554810236E+03 -0.62502890164E+03 -0.26617671475E+02  0.81464726096E+03  0.80564791466E+02 0.  0.
         24    2    4    4    0    0  0.57057737551E+02 -0.29389360913E+03 -0.64423647019E+03  0.71519479586E+03  0.82667572860E+02 0.  0.
         11    1    3    3    0    0  0.16273015687E+03  0.41456882445E+03 -0.50153364536E+03  0.67073423320E+03  0.00000000000E+00 0. -1.
        -11    1    3    3    0    0  0.29576020794E+03  0.50435368631E+03 -0.58253692331E+03  0.82534599322E+03  0.00000000000E+00 0.  1.
          2    1    6    6  502    0  0.36959522952E+02 -0.28650260077E+03 -0.60715836523E+03  0.67237714644E+03  0.00000000000E+00 0. -1.
          3    1    5    5  503    0 -0.28393500431E+03 -0.36612362723E+03  0.22182954280E+02  0.46385092492E+03  0.00000000000E+00 0. -1.
         -4    1    5    5    0  503 -0.23161309805E+03 -0.25890527441E+03 -0.48800625755E+02  0.35079633604E+03  0.00000000000E+00 0.  1.
         -1    1    6    6    0  502  0.20098214599E+02 -0.73910083613E+01 -0.37078104954E+02  0.42817649417E+02  0.00000000000E+00 0.  1.
<mgrwt>
<rscale>  0 0.24650446E+04</rscale>
<asrwt>0</asrwt>
<pdfrwt beam="1">  1        1 0.36775746E+00 0.24650446E+04</pdfrwt>
<pdfrwt beam="2">  1       -1 0.97769044E-01 0.24650446E+04</pdfrwt>
<totfact> 0.14418829E+00</totfact>
</mgrwt>
</event>
<event>
12    1  0.1489025E-007  0.1222708E+04  0.7818608E-02  0.9093209E-01
          2   -1    0    0  501    0  0.00000000000E+00  0.00000000000E+00  0.14936910369E+04  0.14936910369E+04  0.00000000000E+00 0. -1.
         -2   -1    0    0    0  501 -0.00000000000E+00 -0.00000000000E+00 -0.25022169489E+03  0.25022169489E+03  0.00000000000E+00 0.  1.
         23    2    1    2    0    0  0.22534011629E+02  0.22886346117E+03  0.84987676363E+02  0.26186652082E+03  0.92004913219E+02 0.  0.
        254    2    1    2    0    0 -0.22534011629E+02 -0.22886346117E+03  0.11584816657E+04  0.14820462110E+04  0.89526249576E+03 0.  0.
        -24    2    4    4    0    0  0.35803604084E+03 -0.13016962267E+02  0.18393842200E+03  0.41048943223E+03  0.79429106962E+02 0.  0.
         24    2    4    4    0    0 -0.38057005247E+03 -0.21584649890E+03  0.97454324368E+03  0.10715567788E+04  0.84119679186E+02 0.  0.
         13    1    3    3    0    0  0.30434012893E+02  0.23513023640E+03  0.77977951731E+02  0.24958569303E+03  0.00000000000E+00 0.  1.
        -13    1    3    3    0    0 -0.79000012637E+01 -0.62667752327E+01  0.70097246327E+01  0.12280827790E+02  0.00000000000E+00 0. -1.
          2    1    6    6  502    0 -0.16812684779E+03 -0.10938722897E+03  0.35098328330E+03  0.40425421205E+03  0.00000000000E+00 0. -1.
          1    1    5    5  503    0  0.77126800267E+02  0.25572562662E+02  0.22982311420E+02  0.84443388840E+02  0.00000000000E+00 0. -1.
         -2    1    5    5    0  503  0.28090924058E+03 -0.38589524929E+02  0.16095611058E+03  0.32604604339E+03  0.00000000000E+00 0.  1.
         -1    1    6    6    0  502 -0.21244320468E+03 -0.10645926993E+03  0.62355996039E+03  0.66730256674E+03  0.00000000000E+00 0.  1.
<mgrwt>
<rscale>  0 0.12227083E+04</rscale>
<asrwt>0</asrwt>
<pdfrwt beam="1">  1        2 0.22979862E+00 0.12227083E+04</pdfrwt>
<pdfrwt beam="2">  1       -2 0.38495646E-01 0.12227083E+04</pdfrwt>
<totfact> 0.80337891E+01</totfact>
</mgrwt>
</event>
<event>
12    1  0.1489025E-007  0.1726890E+04  0.7818608E-02  0.8746175E-01
         -2   -1    0    0    0  501 -0.00000000000E+00  0.00000000000E+00  0.51000283338E+03  0.51000283338E+03  0.00000000000E+00 0.  1.
          2   -1    0    0  501    0  0.00000000000E+00 -0.00000000000E+00 -0.14618289016E+04  0.14618289016E+04  0.00000000000E+00 0. -1.
         23    2    1    2    0    0  0.43387738435E+03 -0.42992167233E+03 -0.23665196601E+03  0.66129328747E+03  0.90677616053E+02 0.  0.
        254    2    1    2    0    0 -0.43387738435E+03  0.42992167233E+03 -0.71517410221E+03  0.13105384475E+04  0.91266357272E+03 0.  0.
        -24    2    4    4    0    0 -0.45485216280E+03  0.51354084562E+03 -0.87309564247E+03  0.11132956299E+04  0.80724646919E+02 0.  0.
         24    2    4    4    0    0  0.20974778454E+02 -0.83619173288E+02  0.15792154025E+03  0.19724281758E+03  0.80829504137E+02 0.  0.
         13    1    3    3    0    0  0.35282793726E+03 -0.32661766242E+03 -0.22067169936E+03  0.52902046237E+03  0.00000000000E+00 0.  1.
        -13    1    3    3    0    0  0.81049447087E+02 -0.10330400991E+03 -0.15980266655E+02  0.13227282510E+03  0.00000000000E+00 0. -1.
          2    1    6    6  502    0 -0.27693297184E+00  0.11582284193E+02  0.51890232774E+02  0.53167868646E+02  0.00000000000E+00 0. -1.
          3    1    5    5  503    0 -0.24593769180E+03  0.21765942672E+03 -0.40476214030E+03  0.52124213616E+03  0.00000000000E+00 0. -1.
         -2    1    5    5    0  503 -0.20891447100E+03  0.29588141890E+03 -0.46833350217E+03  0.59205349378E+03  0.00000000000E+00 0.  1.
         -3    1    6    6    0  502  0.21251711426E+02 -0.95201457481E+02  0.10603130748E+03  0.14407494894E+03  0.00000000000E+00 0.  1.
<mgrwt>
<rscale>  0 0.17268896E+04</rscale>
<asrwt>0</asrwt>
<pdfrwt beam="1">  1        2 0.22489675E+00 0.17268896E+04</pdfrwt>
<pdfrwt beam="2">  1       -2 0.78461976E-01 0.17268896E+04</pdfrwt>
<totfact> 0.18292517E+01</totfact>
</mgrwt>
</event>
<event>
12    1  0.1489025E-007  0.1932716E+04  0.7818608E-02  0.8638741E-01
         -2   -1    0    0    0  501 -0.00000000000E+00  0.00000000000E+00  0.38373273140E+03  0.38373273140E+03  0.00000000000E+00 0.  1.
          2   -1    0    0  501    0  0.00000000000E+00 -0.00000000000E+00 -0.24335896520E+04  0.24335896520E+04  0.00000000000E+00 0. -1.
         23    2    1    2    0    0  0.59696233198E+03 -0.69036676771E+02 -0.14283397375E+03  0.62435437912E+03  0.91031632510E+02 0.  0.
        254    2    1    2    0    0 -0.59696233198E+03  0.69036676771E+02 -0.19070229468E+04  0.21929680042E+04  0.90068976869E+03 0.  0.
        -24    2    4    4    0    0 -0.10914643378E+03  0.35098406912E+03 -0.27845592378E+03  0.46784268765E+03  0.78970362204E+02 0.  0.
         24    2    4    4    0    0 -0.48781589820E+03 -0.28194739235E+03 -0.16285670230E+04  0.17251253166E+04  0.79800544351E+02 0.  0.
         11    1    3    3    0    0  0.58229571842E+02 -0.34793611348E+02 -0.20252840732E+02  0.70791637820E+02  0.00000000000E+00 0. -1.
        -11    1    3    3    0    0  0.53873276014E+03 -0.34243065423E+02 -0.12258113302E+03  0.55356274130E+03  0.00000000000E+00 0.  1.
          4    1    6    6  502    0 -0.13542077480E+03 -0.40567193375E+02 -0.37287031671E+03  0.39876905160E+03  0.00000000000E+00 0. -1.
          3    1    5    5  503    0 -0.20520505819E+02  0.93291864298E+01 -0.22444324408E+02  0.31809944619E+02  0.00000000000E+00 0. -1.
         -4    1    5    5    0  503 -0.88625927960E+02  0.34165488269E+03 -0.25601159938E+03  0.43603274303E+03  0.00000000000E+00 0.  1.
         -3    1    6    6    0  502 -0.35239512340E+03 -0.24138019898E+03 -0.12556967063E+04  0.13263562650E+04  0.00000000000E+00 0.  1.
<mgrwt>
<rscale>  0 0.19327162E+04</rscale>
<asrwt>0</asrwt>
<pdfrwt beam="1">  1        2 0.37439841E+00 0.19327162E+04</pdfrwt>
<pdfrwt beam="2">  1       -2 0.59035805E-01 0.19327162E+04</pdfrwt>
<totfact> 0.95256218E+00</totfact>
</mgrwt>
</event>
<event>
12    1  0.1489025E-007  0.2223714E+04  0.7818608E-02  0.8508622E-01
         -1   -1    0    0    0  501 -0.00000000000E+00  0.00000000000E+00  0.91872554994E+03  0.91872554994E+03  0.00000000000E+00 0.  1.
          1   -1    0    0  501    0  0.00000000000E+00 -0.00000000000E+00 -0.13455876610E+04  0.13455876610E+04  0.00000000000E+00 0. -1.
         23    2    1    2    0    0 -0.36469794629E+03 -0.20854871360E+03 -0.10783676810E+04  0.11607654056E+04  0.89455651519E+02 0.  0.
        254    2    1    2    0    0  0.36469794629E+03  0.20854871360E+03  0.65150556989E+03  0.11035478053E+04  0.78540505033E+03 0.  0.
        -24    2    4    4    0    0  0.55340176942E+03  0.14596965948E+01  0.26346605481E+03  0.61810181027E+03  0.79873880028E+02 0.  0.
         24    2    4    4    0    0 -0.18870382313E+03  0.20708901701E+03  0.38803951508E+03  0.48544599506E+03  0.81167450580E+02 0.  0.
         13    1    3    3    0    0 -0.33511279505E+03 -0.17011985045E+03 -0.88669132404E+03  0.96304872829E+03  0.00000000000E+00 0. -1.
        -13    1    3    3    0    0 -0.29585151239E+02 -0.38428863150E+02 -0.19167635692E+03  0.19771667734E+03  0.00000000000E+00 0.  1.
          2    1    6    6  502    0 -0.44956980567E+02  0.19521478537E+02  0.11080419696E+03  0.12116017617E+03  0.00000000000E+00 0. -1.
          1    1    5    5  503    0  0.25645874907E+03  0.64307038025E+01  0.78728910982E+02  0.26834806753E+03  0.00000000000E+00 0. -1.
         -2    1    5    5    0  503  0.29694302035E+03 -0.49710072078E+01  0.18473714383E+03  0.34975374274E+03  0.00000000000E+00 0.  1.
         -1    1    6    6    0  502 -0.14374684256E+03  0.18756753847E+03  0.27723531812E+03  0.36428581889E+03  0.00000000000E+00 0.  1.
<mgrwt>
<rscale>  0 0.22237138E+04</rscale>
<asrwt>0</asrwt>
<pdfrwt beam="1">  1        1 0.20701349E+00 0.22237138E+04</pdfrwt>
<pdfrwt beam="2">  1       -1 0.14134239E+00 0.22237138E+04</pdfrwt>
<totfact> 0.31221212E+00</totfact>
</mgrwt>
</event>
<event>
12    1  0.1489025E-007  0.2029614E+04  0.7818608E-02  0.8592899E-01
         -1   -1    0    0    0  501 -0.00000000000E+00  0.00000000000E+00  0.71291381265E+03  0.71291381265E+03  0.00000000000E+00 0.  1.
          1   -1    0    0  501    0  0.00000000000E+00 -0.00000000000E+00 -0.14445416862E+04  0.14445416862E+04  0.00000000000E+00 0. -1.
         23    2    1    2    0    0  0.13202384809E+03  0.73159251893E+03 -0.14108507571E+02  0.74915864419E+03  0.91551700987E+02 0.  0.
        254    2    1    2    0    0 -0.13202384809E+03 -0.73159251893E+03 -0.71751936596E+03  0.14082968546E+04  0.95697862046E+03 0.  0.
        -24    2    4    4    0    0  0.28809873708E+03  0.54921140203E+02 -0.10262748667E+03  0.32224053716E+03  0.85377683414E+02 0.  0.
         24    2    4    4    0    0 -0.42012258517E+03 -0.78651365913E+03 -0.61489187929E+03  0.10860563175E+04  0.79495779297E+02 0.  0.
         11    1    3    3    0    0  0.42150843911E+02  0.34414753355E+03  0.34662399062E+02  0.34844755761E+03  0.00000000000E+00 0.  1.
        -11    1    3    3    0    0  0.89873004181E+02  0.38744498538E+03 -0.48770906633E+02  0.40071108658E+03  0.00000000000E+00 0. -1.
          2    1    6    6  502    0 -0.17510079813E+03 -0.37222366459E+03 -0.24266208495E+03  0.47759358607E+03  0.00000000000E+00 0. -1.
          3    1    5    5  503    0  0.10502543878E+03  0.58825805593E+02 -0.58715420337E+02  0.13393400905E+03  0.00000000000E+00 0. -1.
         -4    1    5    5    0  503  0.18307329830E+03 -0.39046653897E+01 -0.43912066332E+02  0.18830652811E+03  0.00000000000E+00 0.  1.
         -1    1    6    6    0  502 -0.24502178704E+03 -0.41428999454E+03 -0.37222979434E+03  0.60846273139E+03  0.00000000000E+00 0.  1.
<mgrwt>
<rscale>  0 0.20296145E+04</rscale>
<asrwt>0</asrwt>
<pdfrwt beam="1">  1        1 0.22223718E+00 0.20296145E+04</pdfrwt>
<pdfrwt beam="2">  1       -1 0.10967905E+00 0.20296145E+04</pdfrwt>
<totfact> 0.50840361E+00</totfact>
</mgrwt>
</event>
<event>
12    1  0.1489025E-007  0.1945510E+04  0.7818608E-02  0.8632529E-01
          2   -1    0    0  501    0  0.00000000000E+00  0.00000000000E+00  0.18532918048E+04  0.18532918048E+04  0.00000000000E+00 0. -1.
         -2   -1    0    0    0  501 -0.00000000000E+00 -0.00000000000E+00 -0.51057925544E+03  0.51057925544E+03  0.00000000000E+00 0.  1.
         23    2    1    2    0    0  0.24699623581E+03 -0.23855709671E+03  0.13556986507E+04  0.14031937465E+04  0.11453047450E+03 0.  0.
        254    2    1    2    0    0 -0.24699623581E+03  0.23855709671E+03 -0.12986101385E+02  0.96067731379E+03  0.89711517293E+03 0.  0.
        -24    2    4    4    0    0 -0.86024838322E+01  0.54967305308E+03  0.41442920584E+02  0.55723279358E+03  0.81095021825E+02 0.  0.
         24    2    4    4    0    0 -0.23839375198E+03 -0.31111595638E+03 -0.54429021969E+02  0.40344452020E+03  0.78614522535E+02 0.  0.
         11    1    3    3    0    0  0.22902968855E+03 -0.19750377569E+03  0.12798482123E+04  0.13150945921E+04  0.00000000000E+00 0. -1.
        -11    1    3    3    0    0  0.17966547261E+02 -0.41053321020E+02  0.75850438461E+02  0.88099154378E+02  0.00000000000E+00 0.  1.
          2    1    6    6  502    0 -0.21313793818E+03 -0.29015958949E+03 -0.27652280504E+02  0.36108865488E+03  0.00000000000E+00 0. -1.
          3    1    5    5  503    0 -0.10499651110E+02  0.41742635425E+03  0.65910647365E+02  0.42272830203E+03  0.00000000000E+00 0. -1.
         -4    1    5    5    0  503  0.18971672779E+01  0.13224669883E+03 -0.24467726781E+02  0.13450449156E+03  0.00000000000E+00 0.  1.
         -1    1    6    6    0  502 -0.25255813801E+02 -0.20956366882E+02 -0.26776741464E+02  0.42355865321E+02  0.00000000000E+00 0.  1.
<mgrwt>
<rscale>  0 0.19455101E+04</rscale>
<asrwt>0</asrwt>
<pdfrwt beam="1">  1        2 0.28512181E+00 0.19455101E+04</pdfrwt>
<pdfrwt beam="2">  1       -2 0.78550656E-01 0.19455101E+04</pdfrwt>
<totfact> 0.10832328E+01</totfact>
</mgrwt>
</event>
<event>
12    1  0.1489025E-007  0.1478023E+04  0.7818608E-02  0.8899200E-01
         -1   -1    0    0    0  501 -0.00000000000E+00  0.00000000000E+00  0.30572600610E+03  0.30572600610E+03  0.00000000000E+00 0.  1.
          1   -1    0    0  501    0  0.00000000000E+00 -0.00000000000E+00 -0.17863649811E+04  0.17863649811E+04  0.00000000000E+00 0. -1.
         23    2    1    2    0    0  0.11600990566E+03  0.64258763034E+02  0.14924135338E+03  0.22003544494E+03  0.92493938374E+02 0.  0.
        254    2    1    2    0    0 -0.11600990566E+03 -0.64258763034E+02 -0.16298803284E+04  0.18720555423E+04  0.91131475443E+03 0.  0.
        -24    2    4    4    0    0 -0.43354898388E+03  0.13014941409E+03 -0.49614298600E+03  0.67625696118E+03  0.79132948793E+02 0.  0.
         24    2    4    4    0    0  0.31753907822E+03 -0.19440817713E+03 -0.11337373424E+04  0.11957985811E+04  0.77125089762E+02 0.  0.
         11    1    3    3    0    0  0.50230322416E+02 -0.69643100801E+01  0.98076490706E+02  0.11041098195E+03  0.00000000000E+00 0. -1.
        -11    1    3    3    0    0  0.65779583246E+02  0.71223073114E+02  0.51164862671E+02  0.10962446300E+03  0.00000000000E+00 0.  1.
          4    1    6    6  502    0 -0.41749889872E+01 -0.62936304018E+01 -0.22194808448E+02  0.23444612147E+02  0.00000000000E+00 0. -1.
          1    1    5    5  503    0 -0.17196011209E+02 -0.10280258775E+02 -0.18913692916E+02  0.27552028994E+02  0.00000000000E+00 0. -1.
         -2    1    5    5    0  503 -0.41635297267E+03  0.14042967287E+03 -0.47722929308E+03  0.64870493219E+03  0.00000000000E+00 0.  1.
         -3    1    6    6    0  502  0.32171406721E+03 -0.18811454672E+03 -0.11115425339E+04  0.11723539689E+04  0.00000000000E+00 0.  1.
<mgrwt>
<rscale>  0 0.14780233E+04</rscale>
<asrwt>0</asrwt>
<pdfrwt beam="1">  1        1 0.27482538E+00 0.14780233E+04</pdfrwt>
<pdfrwt beam="2">  1       -1 0.47034770E-01 0.14780233E+04</pdfrwt>
<totfact> 0.18182101E+01</totfact>
</mgrwt>
</event>
<event>
12    1  0.1489025E-007  0.1164158E+04  0.7818608E-02  0.9144821E-01
         -1   -1    0    0    0  501 -0.00000000000E+00  0.00000000000E+00  0.19349171939E+03  0.19349171939E+03  0.00000000000E+00 0.  1.
          1   -1    0    0  501    0  0.00000000000E+00 -0.00000000000E+00 -0.17510619754E+04  0.17510619754E+04  0.00000000000E+00 0. -1.
         23    2    1    2    0    0 -0.15229642537E+02 -0.18427018486E+03 -0.39913847388E+03  0.44961390034E+03  0.93025238522E+02 0.  0.
        254    2    1    2    0    0  0.15229642537E+02  0.18427018486E+03 -0.11584317821E+04  0.14949397944E+04  0.92665708444E+03 0.  0.
        -24    2    4    4    0    0  0.26513630207E+03  0.68384822372E+02 -0.11738584428E+04  0.12086375101E+04  0.88810159772E+02 0.  0.
         24    2    4    4    0    0 -0.24990665953E+03  0.11588536249E+03  0.15426660706E+02  0.28630228432E+03  0.76473919907E+02 0.  0.
         11    1    3    3    0    0  0.13382053028E+02 -0.12543165869E+03 -0.17237654355E+03  0.21360209060E+03  0.00000000000E+00 0.  1.
        -11    1    3    3    0    0 -0.28611695566E+02 -0.58838526178E+02 -0.22676193033E+03  0.23601180973E+03  0.00000000000E+00 0. -1.
          2    1    6    6  502    0 -0.19132281857E+03  0.11687468336E+03 -0.49977486209E+01  0.22425229098E+03  0.00000000000E+00 0. -1.
          3    1    5    5  503    0  0.65836644292E+02 -0.20162915850E+02 -0.24243096063E+03  0.25201939921E+03  0.00000000000E+00 0. -1.
         -4    1    5    5    0  503  0.19929965778E+03  0.88547738223E+02 -0.93142748220E+03  0.95661811091E+03  0.00000000000E+00 0.  1.
         -1    1    6    6    0  502 -0.58583840960E+02 -0.98932086443E+00  0.20424409326E+02  0.62049993342E+02  0.00000000000E+00 0.  1.
<mgrwt>
<rscale>  0 0.11641581E+04</rscale>
<asrwt>0</asrwt>
<pdfrwt beam="1">  1        1 0.26939415E+00 0.11641581E+04</pdfrwt>
<pdfrwt beam="2">  1       -1 0.29767957E-01 0.11641581E+04</pdfrwt>
<totfact> 0.45176453E+01</totfact>
</mgrwt>
</event>
<event>
12    1  0.1489025E-007  0.1977218E+04  0.7818608E-02  0.8617347E-01
         -2   -1    0    0    0  501 -0.00000000000E+00  0.00000000000E+00  0.31829237645E+03  0.31829237645E+03  0.00000000000E+00 0.  1.
          2   -1    0    0  501    0  0.00000000000E+00 -0.00000000000E+00 -0.30705983403E+04  0.30705983403E+04  0.00000000000E+00 0. -1.
         23    2    1    2    0    0  0.65475200644E+03 -0.26730009478E+03 -0.51657201203E+03  0.88065310499E+03  0.92486307697E+02 0.  0.
        254    2    1    2    0    0 -0.65475200644E+03  0.26730009478E+03 -0.22357339519E+04  0.25082376118E+04  0.89028090122E+03 0.  0.
        -24    2    4    4    0    0  0.18770868384E+03  0.15948913992E+03 -0.76715214322E+03  0.80975318225E+03  0.80662690144E+02 0.  0.
         24    2    4    4    0    0 -0.84246069028E+03  0.10781095486E+03 -0.14685818086E+04  0.16984844295E+04  0.82180362901E+02 0.  0.
         11    1    3    3    0    0  0.47447207737E+03 -0.15917640040E+03 -0.39703564223E+03  0.63882562554E+03  0.00000000000E+00 0. -1.
        -11    1    3    3    0    0  0.18027992908E+03 -0.10812369438E+03 -0.11953636980E+03  0.24182747946E+03  0.00000000000E+00 0.  1.
          2    1    6    6  502    0 -0.47192314644E+03  0.77021303813E+02 -0.75124194065E+03  0.89051007337E+03  0.00000000000E+00 0. -1.
          3    1    5    5  503    0  0.13164075767E+03  0.13254472573E+03 -0.65922435089E+03  0.68518182857E+03  0.00000000000E+00 0. -1.
         -4    1    5    5    0  503  0.56067926168E+02  0.26944414190E+02 -0.10792779233E+03  0.12457135368E+03  0.00000000000E+00 0.  1.
         -1    1    6    6    0  502 -0.37053754384E+03  0.30789651049E+02 -0.71733986799E+03  0.80797435617E+03  0.00000000000E+00 0.  1.
<mgrwt>
<rscale>  0 0.19772183E+04</rscale>
<asrwt>0</asrwt>
<pdfrwt beam="1">  1        2 0.47239975E+00 0.19772183E+04</pdfrwt>
<pdfrwt beam="2">  1       -2 0.48968057E-01 0.19772183E+04</pdfrwt>
<totfact> 0.57917394E+00</totfact>
</mgrwt>
</event>
<event>
12    1  0.1489025E-007  0.1734922E+04  0.7818608E-02  0.8741694E-01
          2   -1    0    0  501    0  0.00000000000E+00  0.00000000000E+00  0.64184225700E+03  0.64184225700E+03  0.00000000000E+00 0. -1.
         -2   -1    0    0    0  501 -0.00000000000E+00 -0.00000000000E+00 -0.11723892609E+04  0.11723892609E+04  0.00000000000E+00 0.  1.
         23    2    1    2    0    0  0.16892460251E+03 -0.38886295711E+03 -0.59793426743E+03  0.73877211674E+03  0.92243870017E+02 0.  0.
        254    2    1    2    0    0 -0.16892460251E+03  0.38886295711E+03  0.67387263507E+02  0.10754594012E+04  0.98606387197E+03 0.  0.
        -24    2    4    4    0    0 -0.40554596554E+03  0.47484028265E+03  0.32270076248E+03  0.70744927102E+03  0.80049139779E+02 0.  0.
         24    2    4    4    0    0  0.23662136303E+03 -0.85977325542E+02 -0.25531349897E+03  0.36801013017E+03  0.82853504468E+02 0.  0.
         11    1    3    3    0    0  0.15652153104E+03 -0.36873322639E+03 -0.59130512631E+03  0.71421630780E+03  0.00000000000E+00 0.  1.
        -11    1    3    3    0    0  0.12403071470E+02 -0.20129730713E+02 -0.66291411182E+01  0.24555808935E+02  0.00000000000E+00 0. -1.
          4    1    6    6  502    0  0.46306599124E+02 -0.67477074563E+01 -0.10494502628E+02  0.47957973933E+02  0.00000000000E+00 0. -1.
          1    1    5    5  503    0 -0.11451821072E+03  0.85267682379E+02  0.85323418247E+02  0.16632824158E+03  0.00000000000E+00 0. -1.
         -2    1    5    5    0  503 -0.29102775481E+03  0.38957260027E+03  0.23737734423E+03  0.54112102944E+03  0.00000000000E+00 0.  1.
         -3    1    6    6    0  502  0.19031476390E+03 -0.79229618086E+02 -0.24481899634E+03  0.32005215624E+03  0.00000000000E+00 0.  1.
<mgrwt>
<rscale>  0 0.17349224E+04</rscale>
<asrwt>0</asrwt>
<pdfrwt beam="1">  1        2 0.98744963E-01 0.17349224E+04</pdfrwt>
<pdfrwt beam="2">  1       -2 0.18036758E+00 0.17349224E+04</pdfrwt>
<totfact> 0.78061773E+00</totfact>
</mgrwt>
</event>
<event>
12    1  0.1489025E-007  0.1518723E+04  0.7818608E-02  0.8872097E-01
          1   -1    0    0  501    0  0.00000000000E+00  0.00000000000E+00  0.14174106540E+04  0.14174106540E+04  0.00000000000E+00 0. -1.
         -1   -1    0    0    0  501 -0.00000000000E+00 -0.00000000000E+00 -0.40681930123E+03  0.40681930123E+03  0.00000000000E+00 0.  1.
         23    2    1    2    0    0  0.56282095925E+02  0.14417013580E+03 -0.20608512414E+03  0.27323059332E+03  0.90725830708E+02 0.  0.
        254    2    1    2    0    0 -0.56282095925E+02 -0.14417013580E+03  0.12166764769E+04  0.15509993619E+04  0.94939173620E+03 0.  0.
        -24    2    4    4    0    0  0.29960409126E+02  0.25162868127E+03  0.10850043966E+04  0.11171396836E+04  0.80943885799E+02 0.  0.
         24    2    4    4    0    0 -0.86242505051E+02 -0.39579881707E+03  0.13167208025E+03  0.43385967826E+03  0.82475514157E+02 0.  0.
         13    1    3    3    0    0  0.64756479682E+02  0.13020763434E+03 -0.21092394206E+03  0.25619589972E+03  0.00000000000E+00 0.  1.
        -13    1    3    3    0    0 -0.84743837569E+01  0.13962501466E+02  0.48388179207E+01  0.17034693602E+02  0.00000000000E+00 0. -1.
          4    1    6    6  502    0 -0.24012697659E+02 -0.13533590547E+03  0.86171269455E+02  0.16222794038E+03  0.00000000000E+00 0. -1.
          3    1    5    5  503    0  0.39055863606E+02  0.46679535635E+02  0.24520256735E+03  0.25264330302E+03  0.00000000000E+00 0. -1.
         -4    1    5    5    0  503 -0.90954544794E+01  0.20494914563E+03  0.83980182927E+03  0.86449638057E+03  0.00000000000E+00 0.  1.
         -3    1    6    6    0  502 -0.62229807392E+02 -0.26046291160E+03  0.45500810792E+02  0.27163173789E+03  0.00000000000E+00 0.  1.
<mgrwt>
<rscale>  0 0.15187232E+04</rscale>
<asrwt>0</asrwt>
<pdfrwt beam="1">  1        1 0.21806318E+00 0.15187232E+04</pdfrwt>
<pdfrwt beam="2">  1       -1 0.62587585E-01 0.15187232E+04</pdfrwt>
<totfact> 0.18680166E+01</totfact>
</mgrwt>
</event>
<event>
12    1  0.1489025E-007  0.3155624E+04  0.7818608E-02  0.8200636E-01
         -2   -1    0    0    0  501 -0.00000000000E+00  0.00000000000E+00  0.13901470403E+04  0.13901470403E+04  0.00000000000E+00 0.  1.
          2   -1    0    0  501    0  0.00000000000E+00 -0.00000000000E+00 -0.17908108937E+04  0.17908108937E+04  0.00000000000E+00 0. -1.
         23    2    1    2    0    0  0.10442616118E+04  0.88558024223E+03 -0.66719470869E+03  0.15260128936E+04  0.93978150581E+02 0.  0.
        254    2    1    2    0    0 -0.10442616118E+04 -0.88558024223E+03  0.26653085521E+03  0.16549450404E+04  0.89054461462E+03 0.  0.
        -24    2    4    4    0    0 -0.45599842184E+03  0.81431787439E+02 -0.60878493625E+02  0.47395928890E+03  0.79784207868E+02 0.  0.
         24    2    4    4    0    0 -0.58826318999E+03 -0.96701202967E+03  0.32740934884E+03  0.11809857515E+04  0.79778551857E+02 0.  0.
         11    1    3    3    0    0  0.52401488071E+03  0.50189385436E+03 -0.37134166524E+03  0.81509733688E+03  0.00000000000E+00 0. -1.
        -11    1    3    3    0    0  0.52024673111E+03  0.38368638787E+03 -0.29585304346E+03  0.71091555672E+03  0.00000000000E+00 0.  1.
          4    1    6    6  502    0 -0.33293080580E+03 -0.55013618291E+03  0.22699598497E+03  0.68192368957E+03  0.00000000000E+00 0. -1.
          1    1    5    5  503    0 -0.14660086495E+02 -0.11815613977E+02 -0.45810605742E+01  0.19378157438E+02  0.00000000000E+00 0. -1.
         -2    1    5    5    0  503 -0.44133833534E+03  0.93247401416E+02 -0.56297433051E+02  0.45458113146E+03  0.00000000000E+00 0.  1.
         -3    1    6    6    0  502 -0.25533238418E+03 -0.41687584676E+03  0.10041336386E+03  0.49906206194E+03  0.00000000000E+00 0.  1.
<mgrwt>
<rscale>  0 0.31556238E+04</rscale>
<asrwt>0</asrwt>
<pdfrwt beam="1">  1        2 0.27550937E+00 0.31556238E+04</pdfrwt>
<pdfrwt beam="2">  1       -2 0.21386878E+00 0.31556238E+04</pdfrwt>
<totfact> 0.79799835E-01</totfact>
</mgrwt>
</event>
<event>
12    1  0.1489025E-007  0.1702118E+04  0.7818608E-02  0.8760157E-01
          3   -1    0    0  501    0  0.00000000000E+00  0.00000000000E+00  0.31451380991E+04  0.31451380991E+04  0.00000000000E+00 0. -1.
         -3   -1    0    0    0  501 -0.00000000000E+00 -0.00000000000E+00 -0.23029232933E+03  0.23029232933E+03  0.00000000000E+00 0.  1.
         23    2    1    2    0    0  0.47458725586E+03  0.17534936546E+03  0.38229878915E+03  0.64050650494E+03  0.90087486902E+02 0.  0.
        254    2    1    2    0    0 -0.47458725586E+03 -0.17534936546E+03  0.25325469806E+04  0.27349239234E+04  0.90001899695E+03 0.  0.
        -24    2    4    4    0    0 -0.56825515029E+03  0.64480206602E+02  0.82947008537E+03  0.10106521148E+04  0.79532771002E+02 0.  0.
         24    2    4    4    0    0  0.93667894432E+02 -0.23982957206E+03  0.17030768952E+04  0.17242718087E+04  0.79689781057E+02 0.  0.
         11    1    3    3    0    0  0.30968615900E+03  0.86395827099E+02  0.28369673087E+03  0.42878151910E+03  0.00000000000E+00 0.  1.
        -11    1    3    3    0    0  0.16490109686E+03  0.88953538361E+02  0.98602058280E+02  0.21172498584E+03  0.00000000000E+00 0. -1.
          4    1    6    6  502    0  0.26733865033E+02 -0.17057783565E+03  0.11450852391E+04  0.11580292321E+04  0.00000000000E+00 0. -1.
          1    1    5    5  503    0 -0.33775885854E+03  0.76933585750E+02  0.48596101394E+03  0.59678968675E+03  0.00000000000E+00 0. -1.
         -2    1    5    5    0  503 -0.23049629175E+03 -0.12453379147E+02  0.34350907143E+03  0.41386242801E+03  0.00000000000E+00 0.  1.
         -3    1    6    6    0  502  0.66934029399E+02 -0.69251736409E+02  0.55799165606E+03  0.56624257657E+03  0.00000000000E+00 0.  1.
<mgrwt>
<rscale>  0 0.17021177E+04</rscale>
<asrwt>0</asrwt>
<pdfrwt beam="1">  1        3 0.48386737E+00 0.17021177E+04</pdfrwt>
<pdfrwt beam="2">  1       -3 0.35429591E-01 0.17021177E+04</pdfrwt>
<totfact> 0.81506055E-02</totfact>
</mgrwt>
</event>
<event>
12    1  0.1489025E-007  0.1305816E+04  0.7818608E-02  0.9024965E-01
         -2   -1    0    0    0  501 -0.00000000000E+00  0.00000000000E+00  0.34560511380E+03  0.34560511380E+03  0.00000000000E+00 0. -1.
          2   -1    0    0  501    0  0.00000000000E+00 -0.00000000000E+00 -0.12334569673E+04  0.12334569673E+04  0.00000000000E+00 0.  1.
         23    2    1    2    0    0  0.22725437692E+03  0.51733690157E+02 -0.52670576408E+03  0.58311942693E+03  0.91040527340E+02 0.  0.
        254    2    1    2    0    0 -0.22725437692E+03 -0.51733690157E+02 -0.36114608943E+03  0.99594265418E+03  0.89841769015E+03 0.  0.
        -24    2    4    4    0    0 -0.52068258095E+03 -0.63688068896E+02 -0.43111237998E+03  0.68356502312E+03  0.78973010810E+02 0.  0.
         24    2    4    4    0    0  0.29342820404E+03  0.11954378739E+02  0.69966290549E+02  0.31237763106E+03  0.80258859172E+02 0.  0.
         11    1    3    3    0    0  0.18290140498E+03  0.22364851802E+02 -0.47256458368E+03  0.50721829254E+03  0.00000000000E+00 0.  1.
        -11    1    3    3    0    0  0.44352971938E+02  0.29368838355E+02 -0.54141180407E+02  0.75901134391E+02  0.00000000000E+00 0. -1.
          2    1    6    6  502    0  0.36918320857E+02 -0.22482619773E+02  0.24239816944E+02  0.49558040036E+02  0.00000000000E+00 0. -1.
          1    1    5    5  503    0 -0.14297076905E+03 -0.29002656140E+02 -0.16489246065E+03  0.22016202771E+03  0.00000000000E+00 0. -1.
         -2    1    5    5    0  503 -0.37771181190E+03 -0.34685412756E+02 -0.26621991933E+03  0.46340299541E+03  0.00000000000E+00 0.  1.
         -1    1    6    6    0  502  0.25650988318E+03  0.34436998512E+02  0.45726473605E+02  0.26281959102E+03  0.00000000000E+00 0.  1.
<mgrwt>
<rscale>  0 0.13058163E+04</rscale>
<asrwt>0</asrwt>
<pdfrwt beam="1">  1        2 0.18976261E+00 0.13058163E+04</pdfrwt>
<pdfrwt beam="2">  1       -2 0.53170018E-01 0.13058163E+04</pdfrwt>
<totfact> 0.59105397E+01</totfact>
</mgrwt>
</event>
<event>
12    1  0.1489025E-007  0.1654585E+04  0.7818608E-02  0.8787699E-01
          2   -1    0    0  501    0  0.00000000000E+00  0.00000000000E+00  0.27814623730E+04  0.27814623730E+04  0.00000000000E+00 0. -1.
         -2   -1    0    0    0  501 -0.00000000000E+00 -0.00000000000E+00 -0.24606214657E+03  0.24606214657E+03  0.00000000000E+00 0.  1.
         23    2    1    2    0    0 -0.16181442798E+03  0.22838845115E+03  0.18297991308E+04  0.18532962412E+04  0.90536758722E+02 0.  0.
        254    2    1    2    0    0  0.16181442798E+03 -0.22838845115E+03  0.70560109564E+03  0.11742282784E+04  0.89587607959E+03 0.  0.
        -24    2    4    4    0    0  0.46538797974E+03  0.18587214122E+02  0.16144096811E+03  0.49943144046E+03  0.80231672812E+02 0.  0.
         24    2    4    4    0    0 -0.30357355176E+03 -0.24697566527E+03  0.54416012753E+03  0.67479683797E+03  0.78016969823E+02 0.  0.
         11    1    3    3    0    0  0.37327281132E+01 -0.42392435243E+01  0.12664064152E+02  0.13866613345E+02  0.00000000000E+00 0.  1.
        -11    1    3    3    0    0 -0.16554715609E+03  0.23262769467E+03  0.18171350667E+04  0.18394296278E+04  0.00000000000E+00 0. -1.
          4    1    6    6  502    0 -0.30082384005E+03 -0.23335804848E+03  0.53915638526E+03  0.66003073360E+03  0.00000000000E+00 0. -1.
          1    1    5    5  503    0  0.37495859333E+03  0.36144160474E+02  0.10368812396E+03  0.39070650634E+03  0.00000000000E+00 0. -1.
         -2    1    5    5    0  503  0.90429386406E+02 -0.17556946352E+02  0.57752844149E+02  0.10872493411E+03  0.00000000000E+00 0.  1.
         -3    1    6    6    0  502 -0.27497117074E+01 -0.13617616791E+02  0.50037422695E+01  0.14766104369E+02  0.00000000000E+00 0.  1.
<mgrwt>
<rscale>  0 0.16545847E+04</rscale>
<asrwt>0</asrwt>
<pdfrwt beam="1">  1        2 0.42791727E+00 0.16545847E+04</pdfrwt>
<pdfrwt beam="2">  1       -2 0.37855717E-01 0.16545847E+04</pdfrwt>
<totfact> 0.14975593E+01</totfact>
</mgrwt>
</event>
<event>
12    1  0.1489025E-007  0.1547046E+04  0.7818608E-02  0.8853757E-01
          2   -1    0    0  501    0  0.00000000000E+00  0.00000000000E+00  0.57382871110E+03  0.57382871110E+03  0.00000000000E+00 0. -1.
         -2   -1    0    0    0  501 -0.00000000000E+00 -0.00000000000E+00 -0.10427112058E+04  0.10427112058E+04  0.00000000000E+00 0.  1.
         23    2    1    2    0    0  0.38273769333E+03 -0.22651326862E+02 -0.48939247297E+03  0.62844173344E+03  0.91830252211E+02 0.  0.
        254    2    1    2    0    0 -0.38273769333E+03  0.22651326862E+02  0.20509978288E+02  0.98809818346E+03  0.91044831618E+03 0.  0.
        -24    2    4    4    0    0  0.12597667525E+03 -0.33077028618E+03  0.62735502525E+01  0.36308858349E+03  0.80714664694E+02 0.  0.
         24    2    4    4    0    0 -0.50871436858E+03  0.35342161304E+03  0.14236428035E+02  0.62500959997E+03  0.82080319240E+02 0.  0.
         11    1    3    3    0    0 -0.32104285239E+01  0.48150395195E+01 -0.16159625002E+02  0.17164642062E+02  0.00000000000E+00 0. -1.
        -11    1    3    3    0    0  0.38594812185E+03 -0.27466366382E+02 -0.47323284797E+03  0.61127709138E+03  0.00000000000E+00 0.  1.
          2    1    6    6  502    0 -0.14149056410E+02  0.13967570402E+02 -0.14280354548E+02  0.24478916362E+02  0.00000000000E+00 0. -1.
          1    1    5    5  503    0  0.70365566335E+02 -0.25322415713E+03 -0.21518751951E+02  0.26369839470E+03  0.00000000000E+00 0. -1.
         -2    1    5    5    0  503  0.55611108918E+02 -0.77546129052E+02  0.27792302203E+02  0.99390188790E+02  0.00000000000E+00 0.  1.
         -1    1    6    6    0  502 -0.49456531217E+03  0.33945404264E+03  0.28516782583E+02  0.60053068361E+03  0.00000000000E+00 0.  1.
<mgrwt>
<rscale>  0 0.15470457E+04</rscale>
<asrwt>0</asrwt>
<pdfrwt beam="1">  1        2 0.88281340E-01 0.15470457E+04</pdfrwt>
<pdfrwt beam="2">  1       -2 0.16041711E+00 0.15470457E+04</pdfrwt>
<totfact> 0.12591467E+01</totfact>
</mgrwt>
</event>
<event>
12    1  0.1489025E-007  0.1218761E+04  0.7818608E-02  0.9096592E-01
         -2   -1    0    0    0  501 -0.00000000000E+00  0.00000000000E+00  0.43115388660E+03  0.43115388660E+03  0.00000000000E+00 0.  1.
          2   -1    0    0  501    0  0.00000000000E+00 -0.00000000000E+00 -0.86128068214E+03  0.86128068214E+03  0.00000000000E+00 0. -1.
         23    2    1    2    0    0  0.15546773329E+02 -0.24426939901E+03 -0.21072610005E+03  0.33509339302E+03  0.89290824568E+02 0.  0.
        254    2    1    2    0    0 -0.15546773329E+02  0.24426939901E+03 -0.21940069549E+03  0.95734117571E+03  0.89914193545E+03 0.  0.
        -24    2    4    4    0    0  0.20342647627E+03 -0.12969810256E+03  0.21961219243E+03  0.33532001897E+03  0.77498845178E+02 0.  0.
         24    2    4    4    0    0 -0.21897324959E+03  0.37396750157E+03 -0.43901288792E+03  0.62202115675E+03  0.79856292283E+02 0.  0.
         13    1    3    3    0    0 -0.24193250808E+02 -0.17716033508E+03 -0.17164396710E+03  0.24785630747E+03  0.00000000000E+00 0. -1.
        -13    1    3    3    0    0  0.39740024137E+02 -0.67109063933E+02 -0.39082132947E+02  0.87237085554E+02  0.00000000000E+00 0.  1.
          4    1    6    6  502    0 -0.71810725530E+02  0.80702607942E+02 -0.72533136546E+02  0.13011820444E+03  0.00000000000E+00 0. -1.
          1    1    5    5  503    0  0.22229349658E+02 -0.17079589438E+02 -0.14887523019E+01  0.28072633382E+02  0.00000000000E+00 0. -1.
         -2    1    5    5    0  503  0.18119712661E+03 -0.11261851312E+03  0.22110094473E+03  0.30724738558E+03  0.00000000000E+00 0.  1.
         -3    1    6    6    0  502 -0.14716252406E+03  0.29326489363E+03 -0.36647975137E+03  0.49190295231E+03  0.00000000000E+00 0.  1.
<mgrwt>
<rscale>  0 0.12187609E+04</rscale>
<asrwt>0</asrwt>
<pdfrwt beam="1">  1        2 0.13250472E+00 0.12187609E+04</pdfrwt>
<pdfrwt beam="2">  1       -2 0.66331369E-01 0.12187609E+04</pdfrwt>
<totfact> 0.64216792E+01</totfact>
</mgrwt>
</event>
<event>
12    1  0.1489025E-007  0.1496519E+04  0.7818608E-02  0.8886771E-01
         -2   -1    0    0    0  501 -0.00000000000E+00  0.00000000000E+00  0.77293876634E+03  0.77293876634E+03  0.00000000000E+00 0.  1.
          2   -1    0    0  501    0  0.00000000000E+00 -0.00000000000E+00 -0.72436861430E+03  0.72436861430E+03  0.00000000000E+00 0. -1.
         23    2    1    2    0    0 -0.40230723777E+03 -0.15356895442E+03 -0.24377107131E+03  0.50335233595E+03  0.92220938910E+02 0.  0.
        254    2    1    2    0    0  0.40230723777E+03  0.15356895442E+03  0.29234122336E+03  0.99395504470E+03  0.84678728302E+03 0.  0.
        -24    2    4    4    0    0  0.55680711402E+03 -0.73068983178E+02 -0.25095240167E+02  0.56801611816E+03  0.81481905228E+02 0.  0.
         24    2    4    4    0    0 -0.15449987625E+03  0.22663793760E+03  0.31743646352E+03  0.42593892654E+03  0.73641661106E+02 0.  0.
         13    1    3    3    0    0 -0.38048567726E+02 -0.14743061590E+02  0.47093145521E+01  0.41075893351E+02  0.00000000000E+00 0.  1.
        -13    1    3    3    0    0 -0.36425867004E+03 -0.13882589283E+03 -0.24848038586E+03  0.46227644260E+03  0.00000000000E+00 0. -1.
          2    1    6    6  502    0 -0.89729642507E+02  0.73630642768E+02  0.10747860151E+03  0.15819143492E+03  0.00000000000E+00 0. -1.
          3    1    5    5  503    0  0.53994292923E+03 -0.79595871275E+02 -0.35888297902E+02  0.54695688996E+03  0.00000000000E+00 0. -1.
         -4    1    5    5    0  503  0.16864184788E+02  0.65268880972E+01  0.10793057735E+02  0.21059228192E+02  0.00000000000E+00 0.  1.
         -1    1    6    6    0  502 -0.64770233744E+02  0.15300729483E+03  0.20995786201E+03  0.26774749163E+03  0.00000000000E+00 0.  1.
<mgrwt>
<rscale>  0 0.14965194E+04</rscale>
<asrwt>0</asrwt>
<pdfrwt beam="1">  1        2 0.11144133E+00 0.14965194E+04</pdfrwt>
<pdfrwt beam="2">  1       -2 0.11891366E+00 0.14965194E+04</pdfrwt>
<totfact> 0.20586457E+01</totfact>
</mgrwt>
</event>
<event>
12    1  0.1489025E-007  0.2154160E+04  0.7818608E-02  0.8537754E-01
         -2   -1    0    0    0  501 -0.00000000000E+00  0.00000000000E+00  0.84211320574E+03  0.84211320574E+03  0.00000000000E+00 0.  1.
          2   -1    0    0  501    0  0.00000000000E+00 -0.00000000000E+00 -0.13776076624E+04  0.13776076624E+04  0.00000000000E+00 0. -1.
         23    2    1    2    0    0  0.45768596243E+03  0.13579599574E+03 -0.98917766678E+03  0.11034862949E+04  0.10626642933E+03 0.  0.
        254    2    1    2    0    0 -0.45768596243E+03 -0.13579599574E+03  0.45368321012E+03  0.11162345732E+04  0.90124035339E+03 0.  0.
        -24    2    4    4    0    0 -0.44604165607E+03  0.30983220849E+03  0.13925074071E+03  0.56528031359E+03  0.72124252341E+02 0.  0.
         24    2    4    4    0    0 -0.11644306364E+02 -0.44562820423E+03  0.31443246942E+03  0.55095425961E+03  0.77218728815E+02 0.  0.
         13    1    3    3    0    0  0.19224401076E+03  0.89312433875E+02 -0.34093076582E+03  0.40145766601E+03  0.00000000000E+00 0.  1.
        -13    1    3    3    0    0  0.26544195167E+03  0.46483561863E+02 -0.64824690097E+03  0.70202862893E+03  0.00000000000E+00 0. -1.
          4    1    6    6  502    0  0.75146553360E+01 -0.22087071865E+03  0.11150097868E+03  0.24753345764E+03  0.00000000000E+00 0. -1.
          1    1    5    5  503    0 -0.15894565774E+03  0.14161589141E+03  0.79317797036E+02  0.22717855476E+03  0.00000000000E+00 0. -1.
         -2    1    5    5    0  503 -0.28709599832E+03  0.16821631708E+03  0.59932943670E+02  0.33810175883E+03  0.00000000000E+00 0.  1.
         -3    1    6    6    0  502 -0.19158961700E+02 -0.22475748558E+03  0.20293149073E+03  0.30342080197E+03  0.00000000000E+00 0.  1.
<mgrwt>
<rscale>  0 0.21541603E+04</rscale>
<asrwt>0</asrwt>
<pdfrwt beam="1">  1        2 0.21193964E+00 0.21541603E+04</pdfrwt>
<pdfrwt beam="2">  1       -2 0.12955588E+00 0.21541603E+04</pdfrwt>
<totfact> 0.59920608E+00</totfact>
</mgrwt>
</event>
<event>
12    1  0.1489025E-007  0.3564639E+04  0.7818608E-02  0.8098640E-01
         -1   -1    0    0    0  501 -0.00000000000E+00  0.00000000000E+00  0.17834013887E+04  0.17834013887E+04  0.00000000000E+00 0.  1.
          1   -1    0    0  501    0  0.00000000000E+00 -0.00000000000E+00 -0.17812381671E+04  0.17812381671E+04  0.00000000000E+00 0. -1.
         23    2    1    2    0    0 -0.66744770694E+03 -0.44086680851E+03  0.14633499664E+04  0.16701353630E+04  0.90050109667E+02 0.  0.
        254    2    1    2    0    0  0.66744770694E+03  0.44086680851E+03 -0.14611867447E+04  0.18945041928E+04  0.90234663478E+03 0.  0.
        -24    2    4    4    0    0  0.86874427786E+03  0.22691983365E+03 -0.10963300062E+04  0.14193551431E+04  0.80126828062E+02 0.  0.
         24    2    4    4    0    0 -0.20129657092E+03  0.21394697486E+03 -0.36485673857E+03  0.47514904974E+03  0.79702962766E+02 0.  0.
         11    1    3    3    0    0 -0.46985308801E+03 -0.28546974116E+03  0.10769149714E+04  0.12091322314E+04  0.00000000000E+00 0.  1.
        -11    1    3    3    0    0 -0.19759461893E+03 -0.15539706735E+03  0.38643499499E+03  0.46100313158E+03  0.00000000000E+00 0. -1.
          2    1    6    6  502    0 -0.77128782166E+02  0.33382375910E+02 -0.82909622219E+02  0.11805607785E+03  0.00000000000E+00 0. -1.
          3    1    5    5  503    0  0.29564314185E+03  0.98411381850E+02 -0.43159959473E+03  0.53232309509E+03  0.00000000000E+00 0. -1.
         -4    1    5    5    0  503  0.57310113601E+03  0.12850845180E+03 -0.66473041142E+03  0.88703204798E+03  0.00000000000E+00 0.  1.
         -1    1    6    6    0  502 -0.12416778875E+03  0.18056459895E+03 -0.28194711635E+03  0.35709297190E+03  0.00000000000E+00 0.  1.
<mgrwt>
<rscale>  0 0.35646389E+04</rscale>
<asrwt>0</asrwt>
<pdfrwt beam="1">  1        1 0.27403664E+00 0.35646389E+04</pdfrwt>
<pdfrwt beam="2">  1       -1 0.27436944E+00 0.35646389E+04</pdfrwt>
<totfact> 0.16479452E-01</totfact>
</mgrwt>
</event>
<event>
12    1  0.1489025E-007  0.2596788E+04  0.7818608E-02  0.8369293E-01
         -2   -1    0    0    0  501 -0.00000000000E+00  0.00000000000E+00  0.95315802068E+03  0.95315802068E+03  0.00000000000E+00 0.  1.
          2   -1    0    0  501    0  0.00000000000E+00 -0.00000000000E+00 -0.17686758648E+04  0.17686758648E+04  0.00000000000E+00 0. -1.
         23    2    1    2    0    0  0.56147787244E+02 -0.37372090107E+03  0.76651499686E+03  0.85935032555E+03  0.90099143708E+02 0.  0.
        254    2    1    2    0    0 -0.56147787244E+02  0.37372090107E+03 -0.15820328410E+04  0.18624835599E+04  0.90730216310E+03 0.  0.
        -24    2    4    4    0    0  0.20879267204E+03 -0.30202443023E+02 -0.17902901889E+02  0.22336605003E+03  0.71170997941E+02 0.  0.
         24    2    4    4    0    0 -0.26494045929E+03  0.40392334409E+03 -0.15641299391E+04  0.16391175099E+04  0.82802355175E+02 0.  0.
         13    1    3    3    0    0  0.50265776363E+01 -0.62096561573E+01  0.67391510248E+02  0.67863406677E+02  0.00000000000E+00 0. -1.
        -13    1    3    3    0    0  0.51121209608E+02 -0.36751124491E+03  0.69912348661E+03  0.79148691887E+03  0.00000000000E+00 0.  1.
          4    1    6    6  502    0 -0.21293675214E+02  0.89759256483E+02 -0.27331426801E+03  0.28846288120E+03  0.00000000000E+00 0. -1.
          3    1    5    5  503    0  0.42494471793E+02 -0.36717400235E+02 -0.22364717928E+01  0.56204532016E+02  0.00000000000E+00 0. -1.
         -4    1    5    5    0  503  0.16629820025E+03  0.65149572125E+01 -0.15666430096E+02  0.16716151802E+03  0.00000000000E+00 0.  1.
         -3    1    6    6    0  502 -0.24364678407E+03  0.31416408761E+03 -0.12908156711E+04  0.13506546287E+04  0.00000000000E+00 0.  1.
<mgrwt>
<rscale>  0 0.25967885E+04</rscale>
<asrwt>0</asrwt>
<pdfrwt beam="1">  1        2 0.27210398E+00 0.25967885E+04</pdfrwt>
<pdfrwt beam="2">  1       -2 0.14663970E+00 0.25967885E+04</pdfrwt>
<totfact> 0.25283912E+00</totfact>
</mgrwt>
</event>
<event>
12    1  0.1489025E-007  0.1677277E+04  0.7818608E-02  0.8774431E-01
         -2   -1    0    0    0  501 -0.00000000000E+00  0.00000000000E+00  0.23011823057E+03  0.23011823057E+03  0.00000000000E+00 0.  1.
          2   -1    0    0  501    0  0.00000000000E+00 -0.00000000000E+00 -0.30563192305E+04  0.30563192305E+04  0.00000000000E+00 0. -1.
         23    2    1    2    0    0 -0.42218410449E+03  0.16199950479E+03 -0.27034870685E+03  0.53997187376E+03  0.11831290510E+03 0.  0.
        254    2    1    2    0    0  0.42218410449E+03 -0.16199950479E+03 -0.25558522931E+04  0.27464655873E+04  0.89789143029E+03 0.  0.
        -24    2    4    4    0    0  0.44103749302E+03 -0.29391384826E+03 -0.25360706642E+04  0.25921041790E+04  0.80313389710E+02 0.  0.
         24    2    4    4    0    0 -0.18853388532E+02  0.13191434347E+03 -0.19781628835E+02  0.15436140826E+03  0.75361045957E+02 0.  0.
         11    1    3    3    0    0 -0.10386329184E+03  0.56355525885E+02 -0.13199805102E+03  0.17716380602E+03  0.00000000000E+00 0. -1.
        -11    1    3    3    0    0 -0.31832081265E+03  0.10564397890E+03 -0.13835065583E+03  0.36280806774E+03  0.00000000000E+00 0.  1.
          4    1    6    6  502    0 -0.34005620491E+01  0.30051131243E+02 -0.39208631290E+02  0.49517179633E+02  0.00000000000E+00 0. -1.
          1    1    5    5  503    0  0.92404376884E+02 -0.87345195981E+02 -0.74401772831E+03  0.75480469803E+03  0.00000000000E+00 0. -1.
         -2    1    5    5    0  503  0.34863311614E+03 -0.20656865227E+03 -0.17920529359E+04  0.18372994810E+04  0.00000000000E+00 0.  1.
         -1    1    6    6    0  502 -0.15452826483E+02  0.10186321223E+03  0.19427002455E+02  0.10484422862E+03  0.00000000000E+00 0.  1.
<mgrwt>
<rscale>  0 0.16772773E+04</rscale>
<asrwt>0</asrwt>
<pdfrwt beam="1">  1        2 0.47020289E+00 0.16772773E+04</pdfrwt>
<pdfrwt beam="2">  1       -2 0.35402810E-01 0.16772773E+04</pdfrwt>
<totfact> 0.11526187E+01</totfact>
</mgrwt>
</event>
<event>
12    1  0.1489025E-007  0.1467862E+04  0.7818608E-02  0.8906110E-01
          2   -1    0    0  501    0  0.00000000000E+00  0.00000000000E+00  0.14422599414E+04  0.14422599414E+04  0.00000000000E+00 0.  1.
         -2   -1    0    0    0  501 -0.00000000000E+00 -0.00000000000E+00 -0.37347980029E+03  0.37347980029E+03  0.00000000000E+00 0. -1.
         23    2    1    2    0    0  0.28206486694E+03  0.46502205501E+02  0.76314223249E+03  0.81998305508E+03  0.90901591418E+02 0.  0.
        254    2    1    2    0    0 -0.28206486694E+03 -0.46502205501E+02  0.30563790862E+03  0.99575668662E+03  0.90354513085E+03 0.  0.
        -24    2    4    4    0    0  0.18214783710E+03  0.19789514170E+02 -0.21290099823E+03  0.29216771660E+03  0.80409453102E+02 0.  0.
         24    2    4    4    0    0 -0.46421270403E+03 -0.66291719671E+02  0.51853890685E+03  0.70358897002E+03  0.79163211956E+02 0.  0.
         13    1    3    3    0    0  0.18207529582E+03 -0.13786693040E+02  0.49087553721E+03  0.52373684163E+03  0.00000000000E+00 0.  1.
        -13    1    3    3    0    0  0.99989571120E+02  0.60288898540E+02  0.27226669528E+03  0.29624621345E+03  0.00000000000E+00 0. -1.
          4    1    6    6  502    0 -0.44911060262E+03 -0.68482364648E+02  0.47421436727E+03  0.65671107329E+03  0.00000000000E+00 0. -1.
          1    1    5    5  503    0  0.14383535507E+03 -0.87900572723E+01 -0.19184308590E+03  0.23993675017E+03  0.00000000000E+00 0. -1.
         -2    1    5    5    0  503  0.38312482028E+02  0.28579571443E+02 -0.21057912332E+02  0.52230966435E+02  0.00000000000E+00 0.  1.
         -3    1    6    6    0  502 -0.15102101412E+02  0.21906449775E+01  0.44324539582E+02  0.46877896728E+02  0.00000000000E+00 0.  1.
<mgrwt>
<rscale>  0 0.14678623E+04</rscale>
<asrwt>0</asrwt>
<pdfrwt beam="1">  1        2 0.22188614E+00 0.14678623E+04</pdfrwt>
<pdfrwt beam="2">  1       -2 0.57458432E-01 0.14678623E+04</pdfrwt>
<totfact> 0.37609799E+01</totfact>
</mgrwt>
</event>
<event>
12    1  0.1489025E-007  0.1653813E+04  0.7818608E-02  0.8788154E-01
          1   -1    0    0  501    0  0.00000000000E+00  0.00000000000E+00  0.15626487305E+04  0.15626487305E+04  0.00000000000E+00 0. -1.
         -1   -1    0    0    0  501 -0.00000000000E+00 -0.00000000000E+00 -0.43757395511E+03  0.43757395511E+03  0.00000000000E+00 0.  1.
         23    2    1    2    0    0 -0.33469059398E+03 -0.42915808971E+03  0.42384894196E+03  0.69680347820E+03  0.98451520875E+02 0.  0.
        254    2    1    2    0    0  0.33469059398E+03  0.42915808971E+03  0.70122583338E+03  0.13034192074E+04  0.95445769999E+03 0.  0.
        -24    2    4    4    0    0  0.54549611617E+03  0.25124322120E+03  0.79656452543E+03  0.10006940137E+04  0.78640300813E+02 0.  0.
         24    2    4    4    0    0 -0.21080552219E+03  0.17791486851E+03 -0.95338692046E+02  0.30272519368E+03  0.80376663669E+02 0.  0.
         13    1    3    3    0    0 -0.27873077876E+02 -0.80190858796E+02  0.38849600730E+02  0.93363664140E+02  0.00000000000E+00 0.  1.
        -13    1    3    3    0    0 -0.30681751611E+03 -0.34896723091E+03  0.38499934123E+03  0.60343981406E+03  0.00000000000E+00 0. -1.
          2    1    6    6  502    0 -0.49183149351E+02  0.60599047481E+02 -0.63237304802E+02  0.10044990520E+03  0.00000000000E+00 0. -1.
          1    1    5    5  503    0  0.38778714129E+03  0.21602469153E+03  0.59548222113E+03  0.74272781689E+03  0.00000000000E+00 0. -1.
         -2    1    5    5    0  503  0.15770897488E+03  0.35218529665E+02  0.20108230430E+03  0.25796619680E+03  0.00000000000E+00 0.  1.
         -3    1    6    6    0  502 -0.16162237284E+03  0.11731582103E+03 -0.32101387244E+02  0.20227528848E+03  0.00000000000E+00 0.  1.
<mgrwt>
<rscale>  0 0.16538130E+04</rscale>
<asrwt>0</asrwt>
<pdfrwt beam="1">  1        1 0.24040749E+00 0.16538130E+04</pdfrwt>
<pdfrwt beam="2">  1       -1 0.67319071E-01 0.16538130E+04</pdfrwt>
<totfact> 0.12639757E+01</totfact>
</mgrwt>
</event>
<event>
12    1  0.1489025E-007  0.1441819E+04  0.7818608E-02  0.8924092E-01
         -1   -1    0    0    0  501 -0.00000000000E+00  0.00000000000E+00  0.12658439111E+04  0.12658439111E+04  0.00000000000E+00 0.  1.
          1   -1    0    0  501    0  0.00000000000E+00 -0.00000000000E+00 -0.41056421974E+03  0.41056421974E+03  0.00000000000E+00 0. -1.
         23    2    1    2    0    0  0.10833895889E+03  0.36844527746E+03  0.30150766531E+02  0.39568221402E+03  0.90366438882E+02 0.  0.
        254    2    1    2    0    0 -0.10833895889E+03 -0.36844527746E+03  0.82512892479E+03  0.12807259168E+04  0.90107262686E+03 0.  0.
        -24    2    4    4    0    0  0.20030288038E+03 -0.35637426300E+03  0.86459852820E+03  0.95959987965E+03  0.78596786505E+02 0.  0.
         24    2    4    4    0    0 -0.30864183927E+03 -0.12071014455E+02 -0.39469603402E+02  0.32112603712E+03  0.78476670342E+02 0.  0.
         11    1    3    3    0    0  0.11017935367E+03  0.26495301485E+03 -0.30952683455E+01  0.28696545217E+03  0.00000000000E+00 0. -1.
        -11    1    3    3    0    0 -0.18403947766E+01  0.10349226261E+03  0.33246034877E+02  0.10871676185E+03  0.00000000000E+00 0.  1.
          2    1    6    6  502    0 -0.12662036513E+03  0.26337095608E+02  0.65248236513E+01  0.12949491417E+03  0.00000000000E+00 0. -1.
          1    1    5    5  503    0  0.14355050684E+03 -0.24124736797E+03  0.67054827048E+03  0.72694017884E+03  0.00000000000E+00 0. -1.
         -2    1    5    5    0  503  0.56752373537E+02 -0.11512689504E+03  0.19405025772E+03  0.23265970082E+03  0.00000000000E+00 0.  1.
         -1    1    6    6    0  502 -0.18202147414E+03 -0.38408110062E+02 -0.45994427053E+02  0.19163112296E+03  0.00000000000E+00 0.  1.
<mgrwt>
<rscale>  0 0.14418186E+04</rscale>
<asrwt>0</asrwt>
<pdfrwt beam="1">  1        1 0.63163727E-01 0.14418186E+04</pdfrwt>
<pdfrwt beam="2">  1       -1 0.19474521E+00 0.14418186E+04</pdfrwt>
<totfact> 0.92160719E+00</totfact>
</mgrwt>
</event>
<event>
12    1  0.1489025E-007  0.1429589E+04  0.7818608E-02  0.8932675E-01
         -1   -1    0    0    0  501 -0.00000000000E+00  0.00000000000E+00  0.88818369441E+03  0.88818369441E+03  0.00000000000E+00 0.  1.
          1   -1    0    0  501    0  0.00000000000E+00 -0.00000000000E+00 -0.57525386462E+03  0.57525386462E+03  0.00000000000E+00 0. -1.
         23    2    1    2    0    0 -0.10824752766E+03  0.19727068494E+03 -0.27946164799E+03  0.37014846375E+03  0.90982537521E+02 0.  0.
        254    2    1    2    0    0  0.10824752766E+03 -0.19727068494E+03  0.59239147778E+03  0.10932890953E+04  0.89090972188E+03 0.  0.
        -24    2    4    4    0    0 -0.71633711531E+02  0.31688912444E+03  0.88745839183E+02  0.34631874758E+03  0.80689188460E+02 0.  0.
         24    2    4    4    0    0  0.17988123919E+03 -0.51415980938E+03  0.50364563860E+03  0.74697034771E+03  0.87110282291E+02 0.  0.
         11    1    3    3    0    0 -0.94883250127E+02  0.80427165479E+02 -0.12931547436E+03  0.17942645293E+03  0.00000000000E+00 0.  1.
        -11    1    3    3    0    0 -0.13364277536E+02  0.11684351946E+03 -0.15014617363E+03  0.19072201082E+03  0.00000000000E+00 0. -1.
          2    1    6    6  502    0  0.96391320547E+02 -0.15302560634E+03  0.15770829861E+03  0.23995839290E+03  0.00000000000E+00 0. -1.
          1    1    5    5  503    0 -0.67209999300E+02  0.13328332206E+03  0.21875856521E+02  0.15086477735E+03  0.00000000000E+00 0. -1.
         -2    1    5    5    0  503 -0.44237122316E+01  0.18360580238E+03  0.66869982662E+02  0.19545397023E+03  0.00000000000E+00 0.  1.
         -1    1    6    6    0  502  0.83489918648E+02 -0.36113420304E+03  0.34593733999E+03  0.50701195481E+03  0.00000000000E+00 0.  1.
<mgrwt>
<rscale>  0 0.14295889E+04</rscale>
<asrwt>0</asrwt>
<pdfrwt beam="1">  1        1 0.88500594E-01 0.14295889E+04</pdfrwt>
<pdfrwt beam="2">  1       -1 0.13664365E+00 0.14295889E+04</pdfrwt>
<totfact> 0.15809755E+01</totfact>
</mgrwt>
</event>
<event>
12    1  0.1489025E-007  0.1790648E+04  0.7818608E-02  0.8711289E-01
          2   -1    0    0  501    0  0.00000000000E+00  0.00000000000E+00  0.20019855520E+04  0.20019855520E+04  0.00000000000E+00 0. -1.
         -2   -1    0    0    0  501 -0.00000000000E+00 -0.00000000000E+00 -0.40040480124E+03  0.40040480124E+03  0.00000000000E+00 0.  1.
         23    2    1    2    0    0 -0.16043564302E+03  0.57093556181E+03  0.20113105018E+03  0.63235690756E+03  0.87832499104E+02 0.  0.
        254    2    1    2    0    0  0.16043564302E+03 -0.57093556181E+03  0.14004497006E+04  0.17700334457E+04  0.90556723866E+03 0.  0.
        -24    2    4    4    0    0  0.36401797543E+03 -0.11221358362E+03  0.14469716938E+03  0.41539326728E+03  0.80705147838E+02 0.  0.
         24    2    4    4    0    0 -0.20358233241E+03 -0.45872197819E+03  0.12557525312E+04  0.13546401784E+04  0.79145271553E+02 0.  0.
         11    1    3    3    0    0  0.60030252684E+01  0.69828944038E+02  0.99573564911E+01  0.70790300791E+02  0.00000000000E+00 0.  1.
        -11    1    3    3    0    0 -0.16643866829E+03  0.50110661777E+03  0.19117369369E+03  0.56156660677E+03  0.00000000000E+00 0. -1.
          4    1    6    6  502    0 -0.17503201513E+03 -0.39467243840E+03  0.11434249194E+04  0.12222205554E+04  0.00000000000E+00 0. -1.
          1    1    5    5  503    0  0.28145753524E+03 -0.11944361920E+03  0.10313666030E+03  0.32267986148E+03  0.00000000000E+00 0. -1.
         -2    1    5    5    0  503  0.82560440196E+02  0.72300355733E+01  0.41560509078E+02  0.92713405797E+02  0.00000000000E+00 0.  1.
         -3    1    6    6    0  502 -0.28550317287E+02 -0.64049539788E+02  0.11232761187E+03  0.13241962299E+03  0.00000000000E+00 0.  1.
<mgrwt>
<rscale>  0 0.17906475E+04</rscale>
<asrwt>0</asrwt>
<pdfrwt beam="1">  1        2 0.30799777E+00 0.17906475E+04</pdfrwt>
<pdfrwt beam="2">  1       -2 0.61600740E-01 0.17906475E+04</pdfrwt>
<totfact> 0.15420435E+01</totfact>
</mgrwt>
</event>
<event>
12    1  0.1489025E-007  0.1500269E+04  0.7818608E-02  0.8884274E-01
         -2   -1    0    0    0  501 -0.00000000000E+00  0.00000000000E+00  0.22932248794E+03  0.22932248794E+03  0.00000000000E+00 0.  1.
          2   -1    0    0  501    0  0.00000000000E+00 -0.00000000000E+00 -0.24537583046E+04  0.24537583046E+04  0.00000000000E+00 0. -1.
         23    2    1    2    0    0  0.47404951274E+03 -0.26175081589E+02 -0.64476695567E+03  0.80387634496E+03  0.71306910099E+02 0.  0.
        254    2    1    2    0    0 -0.47404951274E+03  0.26175081589E+02 -0.15796688610E+04  0.18792044476E+04  0.90035968926E+03 0.  0.
        -24    2    4    4    0    0 -0.18483182493E+03  0.45204169266E+03 -0.77729962388E+03  0.92229190017E+03  0.89012069017E+02 0.  0.
         24    2    4    4    0    0 -0.28921768781E+03 -0.42586661107E+03 -0.80236923711E+03  0.95691254742E+03  0.82921585770E+02 0.  0.
         13    1    3    3    0    0  0.25671177942E+03 -0.29184009478E+02 -0.40359536876E+03  0.47920962614E+03  0.00000000000E+00 0.  1.
        -13    1    3    3    0    0  0.21733773332E+03  0.30089278885E+01 -0.24117158691E+03  0.32466671882E+03  0.00000000000E+00 0. -1.
          4    1    6    6  502    0 -0.70709400983E+02 -0.94883792301E+02 -0.12611539725E+03  0.17293885293E+03  0.00000000000E+00 0. -1.
          3    1    5    5  503    0 -0.76548120799E+02  0.98945380056E+02 -0.23410727406E+03  0.26543552663E+03  0.00000000000E+00 0. -1.
         -4    1    5    5    0  503 -0.10828370413E+03  0.35309631260E+03 -0.54319234982E+03  0.65685637354E+03  0.00000000000E+00 0.  1.
         -3    1    6    6    0  502 -0.21850828682E+03 -0.33098281877E+03 -0.67625383985E+03  0.78397369448E+03  0.00000000000E+00 0.  1.
<mgrwt>
<rscale>  0 0.15002693E+04</rscale>
<asrwt>0</asrwt>
<pdfrwt beam="1">  1        2 0.37750126E+00 0.15002693E+04</pdfrwt>
<pdfrwt beam="2">  1       -2 0.35280384E-01 0.15002693E+04</pdfrwt>
<totfact> 0.27054166E+01</totfact>
</mgrwt>
</event>
<event>
12    1  0.1489025E-007  0.1930851E+04  0.7818608E-02  0.8639651E-01
          2   -1    0    0  501    0  0.00000000000E+00  0.00000000000E+00  0.15470733403E+04  0.15470733403E+04  0.00000000000E+00 0. -1.
         -2   -1    0    0    0  501 -0.00000000000E+00 -0.00000000000E+00 -0.60245765455E+03  0.60245765455E+03  0.00000000000E+00 0.  1.
         23    2    1    2    0    0 -0.55838489246E+03  0.45363913209E+03  0.13126103726E+03  0.73712881898E+03  0.92451530963E+02 0.  0.
        254    2    1    2    0    0  0.55838489246E+03 -0.45363913209E+03  0.81335464847E+03  0.14124021758E+04  0.90318988693E+03 0.  0.
        -24    2    4    4    0    0  0.49792620807E+03  0.15392381223E+03  0.27615342351E+03  0.59512030548E+03  0.79274308744E+02 0.  0.
         24    2    4    4    0    0  0.60458684388E+02 -0.60756294432E+03  0.53720122496E+03  0.81728187036E+03  0.81095719284E+02 0.  0.
         13    1    3    3    0    0 -0.32706880328E+03  0.23396608876E+03  0.11248617099E+03  0.41757307316E+03  0.00000000000E+00 0. -1.
        -13    1    3    3    0    0 -0.23131608918E+03  0.21967304332E+03  0.18774866263E+02  0.31955574581E+03  0.00000000000E+00 0.  1.
          2    1    6    6  502    0  0.24698453496E+02 -0.52931630340E+03  0.46135403368E+03  0.70259042624E+03  0.00000000000E+00 0. -1.
          3    1    5    5  503    0  0.17235109015E+03  0.81475572705E+02  0.70388399106E+02  0.20321834059E+03  0.00000000000E+00 0. -1.
         -4    1    5    5    0  503  0.32557511792E+03  0.72448239530E+02  0.20576502440E+03  0.39190196489E+03  0.00000000000E+00 0.  1.
         -1    1    6    6    0  502  0.35760230892E+02 -0.78246640924E+02  0.75847191283E+02  0.11469144412E+03  0.00000000000E+00 0.  1.
<mgrwt>
<rscale>  0 0.19308508E+04</rscale>
<asrwt>0</asrwt>
<pdfrwt beam="1">  1        2 0.23801128E+00 0.19308508E+04</pdfrwt>
<pdfrwt beam="2">  1       -2 0.92685794E-01 0.19308508E+04</pdfrwt>
<totfact> 0.11013814E+01</totfact>
</mgrwt>
</event>
<event>
12    1  0.1489025E-007  0.2242622E+04  0.7818608E-02  0.8500894E-01
          1   -1    0    0  501    0  0.00000000000E+00  0.00000000000E+00  0.14866681776E+04  0.14866681776E+04  0.00000000000E+00 0. -1.
         -1   -1    0    0    0  501 -0.00000000000E+00 -0.00000000000E+00 -0.84574231369E+03  0.84574231369E+03  0.00000000000E+00 0.  1.
         23    2    1    2    0    0  0.84861477793E+03 -0.14209567722E+03  0.64600207555E+03  0.10814739475E+04  0.10921993752E+03 0.  0.
        254    2    1    2    0    0 -0.84861477793E+03  0.14209567722E+03 -0.50762116169E+01  0.12509365438E+04  0.90800784460E+03 0.  0.
        -24    2    4    4    0    0  0.59523852889E+02  0.25767372966E+03  0.15668224609E+03  0.31794138442E+03  0.81231506586E+02 0.  0.
         24    2    4    4    0    0 -0.90813863082E+03 -0.11557805244E+03 -0.16175845771E+03  0.93299515938E+03  0.78994365500E+02 0.  0.
         11    1    3    3    0    0  0.20722343603E+03 -0.39625146755E+02  0.10253677731E+03  0.23457513806E+03  0.00000000000E+00 0. -1.
        -11    1    3    3    0    0  0.64139134190E+03 -0.10247053046E+03  0.54346529824E+03  0.84689880946E+03  0.00000000000E+00 0.  1.
          4    1    6    6  502    0 -0.91866838532E+02  0.11926416524E+02 -0.13165059791E+02  0.93568553651E+02  0.00000000000E+00 0. -1.
          1    1    5    5  503    0  0.32823841349E+02  0.41942630683E+02  0.63319188358E+01  0.53634709150E+02  0.00000000000E+00 0. -1.
         -2    1    5    5    0  503  0.26700011540E+02  0.21573109898E+03  0.15035032726E+03  0.26430667527E+03  0.00000000000E+00 0.  1.
         -3    1    6    6    0  502 -0.81627179229E+03 -0.12750446897E+03 -0.14859339792E+03  0.83942660572E+03  0.00000000000E+00 0.  1.
<mgrwt>
<rscale>  0 0.22426218E+04</rscale>
<asrwt>0</asrwt>
<pdfrwt beam="1">  1        1 0.22871818E+00 0.22426218E+04</pdfrwt>
<pdfrwt beam="2">  1       -1 0.13011420E+00 0.22426218E+04</pdfrwt>
<totfact> 0.30717044E+00</totfact>
</mgrwt>
</event>
<event>
12    1  0.1489025E-007  0.1282745E+04  0.7818608E-02  0.9043361E-01
         -2   -1    0    0    0  501 -0.00000000000E+00  0.00000000000E+00  0.10195537114E+04  0.10195537114E+04  0.00000000000E+00 0. -1.
          2   -1    0    0  501    0  0.00000000000E+00 -0.00000000000E+00 -0.40346962491E+03  0.40346962491E+03  0.00000000000E+00 0.  1.
         23    2    1    2    0    0  0.58644991737E+02 -0.22585863392E+03 -0.82870730810E+02  0.26410934315E+03  0.91841328073E+02 0.  0.
        254    2    1    2    0    0 -0.58644991737E+02  0.22585863392E+03  0.69895481731E+03  0.11589139932E+04  0.89447887028E+03 0.  0.
        -24    2    4    4    0    0 -0.14981363909E+03  0.49088363815E+03  0.15523523661E+03  0.54212411159E+03  0.79935605515E+02 0.  0.
         24    2    4    4    0    0  0.91168647354E+02 -0.26502500423E+03  0.54371958070E+03  0.61678988159E+03  0.79049354579E+02 0.  0.
         13    1    3    3    0    0  0.57141532857E+01 -0.11715674779E+03  0.41291855299E+00  0.11729674165E+03  0.00000000000E+00 0. -1.
        -13    1    3    3    0    0  0.52930838451E+02 -0.10870188613E+03 -0.83283649363E+02  0.14681260150E+03  0.00000000000E+00 0.  1.
          2    1    6    6  502    0  0.44498336070E+02 -0.62606961978E+02  0.21102875637E+03  0.22457263772E+03  0.00000000000E+00 0. -1.
          3    1    5    5  503    0 -0.13742933642E+03  0.36429798594E+03  0.91990295715E+02  0.40007756695E+03  0.00000000000E+00 0. -1.
         -4    1    5    5    0  503 -0.12384302669E+02  0.12658565221E+03  0.63244940894E+02  0.14204654465E+03  0.00000000000E+00 0.  1.
         -1    1    6    6    0  502  0.46670311284E+02 -0.20241804225E+03  0.33269082434E+03  0.39221724386E+03  0.00000000000E+00 0.  1.
<mgrwt>
<rscale>  0 0.12827454E+04</rscale>
<asrwt>0</asrwt>
<pdfrwt beam="1">  1        2 0.62072250E-01 0.12827454E+04</pdfrwt>
<pdfrwt beam="2">  1       -2 0.15685442E+00 0.12827454E+04</pdfrwt>
<totfact> 0.20520887E+01</totfact>
</mgrwt>
</event>
<event>
12    1  0.1489025E-007  0.1252637E+04  0.7818608E-02  0.9067991E-01
          1   -1    0    0  501    0  0.00000000000E+00  0.00000000000E+00  0.20801751833E+04  0.20801751833E+04  0.00000000000E+00 0. -1.
         -1   -1    0    0    0  501 -0.00000000000E+00 -0.00000000000E+00 -0.18857781951E+03  0.18857781951E+03  0.00000000000E+00 0.  1.
         23    2    1    2    0    0  0.24210469872E+03  0.12776622305E+03  0.70584761925E+03  0.76259627143E+03  0.91615057170E+02 0.  0.
        254    2    1    2    0    0 -0.24210469872E+03 -0.12776622305E+03  0.11857497446E+04  0.15061567314E+04  0.88744957600E+03 0.  0.
        -24    2    4    4    0    0  0.21089448271E+03 -0.13029967254E+03  0.29757517663E+02  0.26203175040E+03  0.79502458210E+02 0.  0.
         24    2    4    4    0    0 -0.45299918142E+03  0.25334494908E+01  0.11559922269E+04  0.12441249810E+04  0.79462336832E+02 0.  0.
         13    1    3    3    0    0 -0.12874105482E+01  0.23682647066E+02  0.67135237727E+02  0.71201582444E+02  0.00000000000E+00 0.  1.
        -13    1    3    3    0    0  0.24339210926E+03  0.10408357598E+03  0.63871238152E+03  0.69139468898E+03  0.00000000000E+00 0. -1.
          2    1    6    6  502    0 -0.40179469207E+03  0.14448580230E+02  0.95095087834E+03  0.10324511170E+04  0.00000000000E+00 0. -1.
          1    1    5    5  503    0  0.90778987470E+02 -0.66899187406E+02 -0.25141123787E+02  0.11553528442E+03  0.00000000000E+00 0. -1.
         -4    1    5    5    0  503  0.12011549524E+03 -0.63400485130E+02  0.54898641450E+02  0.14649646598E+03  0.00000000000E+00 0.  1.
         -1    1    6    6    0  502 -0.51204489351E+02 -0.11915130740E+02  0.20504134855E+03  0.21167386396E+03  0.00000000000E+00 0.  1.
<mgrwt>
<rscale>  0 0.12526371E+04</rscale>
<asrwt>0</asrwt>
<pdfrwt beam="1">  1        1 0.32002693E+00 0.12526371E+04</pdfrwt>
<pdfrwt beam="2">  1       -1 0.29011974E-01 0.12526371E+04</pdfrwt>
<totfact> 0.28103659E+01</totfact>
</mgrwt>
</event>
<event>
12    1  0.1489025E-007  0.2093098E+04  0.7818608E-02  0.8564290E-01
          2   -1    0    0  501    0  0.00000000000E+00  0.00000000000E+00  0.57598726369E+03  0.57598726369E+03  0.00000000000E+00 0. -1.
         -2   -1    0    0    0  501 -0.00000000000E+00 -0.00000000000E+00 -0.19015429793E+04  0.19015429793E+04  0.00000000000E+00 0.  1.
         23    2    1    2    0    0 -0.11653371213E+03 -0.59237984207E+02  0.45121991220E+03  0.47784955846E+03  0.87473118858E+02 0.  0.
        254    2    1    2    0    0  0.11653371213E+03  0.59237984207E+02 -0.17767756279E+04  0.19996806846E+04  0.90813102782E+03 0.  0.
        -24    2    4    4    0    0  0.42779634743E+02 -0.13778803961E+03 -0.17664837289E+04  0.17741984096E+04  0.80620040384E+02 0.  0.
         24    2    4    4    0    0  0.73754077387E+02  0.19702602382E+03 -0.10291898913E+02  0.22548227500E+03  0.80482390397E+02 0.  0.
         13    1    3    3    0    0 -0.12378134203E+03 -0.58022516712E+02  0.34095595939E+03  0.36734098508E+03  0.00000000000E+00 0. -1.
        -13    1    3    3    0    0  0.72476299039E+01 -0.12154674950E+01  0.11026395281E+03  0.11050857338E+03  0.00000000000E+00 0.  1.
          4    1    6    6  502    0  0.60544132997E+01  0.84029011059E+02  0.27193766515E+02  0.88527010325E+02  0.00000000000E+00 0. -1.
          3    1    5    5  503    0  0.21978638132E+02 -0.19872388321E+02 -0.76637125453E+03  0.76694385200E+03  0.00000000000E+00 0. -1.
         -4    1    5    5    0  503  0.20800996612E+02 -0.11791565129E+03 -0.10001124744E+04  0.10072545576E+04  0.00000000000E+00 0.  1.
         -3    1    6    6    0  502  0.67699664087E+02  0.11299701276E+03 -0.37485665427E+02  0.13695526467E+03  0.00000000000E+00 0.  1.
<mgrwt>
<rscale>  0 0.20930977E+04</rscale>
<asrwt>0</asrwt>
<pdfrwt beam="1">  1        2 0.88613427E-01 0.20930977E+04</pdfrwt>
<pdfrwt beam="2">  1       -2 0.29254507E+00 0.20930977E+04</pdfrwt>
<totfact> 0.16969879E+00</totfact>
</mgrwt>
</event>
<event>
12    1  0.1489025E-007  0.1381615E+04  0.7818608E-02  0.8967235E-01
         -3   -1    0    0    0  501 -0.00000000000E+00  0.00000000000E+00  0.82684283798E+03  0.82684283798E+03  0.00000000000E+00 0.  1.
          3   -1    0    0  501    0  0.00000000000E+00 -0.00000000000E+00 -0.57715283227E+03  0.57715283227E+03  0.00000000000E+00 0. -1.
         23    2    1    2    0    0  0.35626484212E+03  0.32763501913E+02 -0.93793105316E+02  0.38135886937E+03  0.92948135265E+02 0.  0.
        254    2    1    2    0    0 -0.35626484212E+03 -0.32763501913E+02  0.34348311103E+03  0.10226368009E+04  0.89431945867E+03 0.  0.
        -24    2    4    4    0    0 -0.44258443804E+03 -0.38549746513E+02  0.59380623145E+03  0.74577286499E+03  0.78767111785E+02 0.  0.
         24    2    4    4    0    0  0.86319595920E+02  0.57862446006E+01 -0.25032312042E+03  0.27686393589E+03  0.80668588139E+02 0.  0.
         11    1    3    3    0    0  0.31273009494E+03  0.58616344489E+02 -0.89609672996E+02  0.33055390123E+03  0.00000000000E+00 0. -1.
        -11    1    3    3    0    0  0.43534747179E+02 -0.25852842576E+02 -0.41834323200E+01  0.50804968135E+02  0.00000000000E+00 0.  1.
          4    1    6    6  502    0  0.47812382668E+02  0.29554285992E+01 -0.22646579468E+03  0.23147681235E+03  0.00000000000E+00 0. -1.
          1    1    5    5  503    0 -0.29570040700E+03 -0.92797455169E+01  0.44710890976E+03  0.53612612468E+03  0.00000000000E+00 0. -1.
         -2    1    5    5    0  503 -0.14688403104E+03 -0.29270000997E+02  0.14669732169E+03  0.20964674031E+03  0.00000000000E+00 0.  1.
         -3    1    6    6    0  502  0.38507213252E+02  0.28308160014E+01 -0.23857325737E+02  0.45387123537E+02  0.00000000000E+00 0.  1.
<mgrwt>
<rscale>  0 0.13816145E+04</rscale>
<asrwt>0</asrwt>
<pdfrwt beam="1">  1        3 0.88792743E-01 0.13816145E+04</pdfrwt>
<pdfrwt beam="2">  1       -3 0.12720659E+00 0.13816145E+04</pdfrwt>
<totfact> 0.14389863E+00</totfact>
</mgrwt>
</event>
<event>
12    1  0.1489025E-007  0.1512324E+04  0.7818608E-02  0.8876299E-01
          2   -1    0    0  501    0  0.00000000000E+00  0.00000000000E+00  0.36279780053E+04  0.36279780053E+04  0.00000000000E+00 0. -1.
         -2   -1    0    0    0  501 -0.00000000000E+00 -0.00000000000E+00 -0.15760317897E+03  0.15760317897E+03  0.00000000000E+00 0.  1.
         23    2    1    2    0    0  0.36068886578E+03  0.26240366819E+03  0.15892651409E+04  0.16532395441E+04  0.92114923036E+02 0.  0.
        254    2    1    2    0    0 -0.36068886578E+03 -0.26240366819E+03  0.18811096854E+04  0.21323416401E+04  0.89964163917E+03 0.  0.
        -24    2    4    4    0    0 -0.22337213911E+03  0.25875861091E+03  0.12511978603E+04  0.12994591218E+04  0.79036652923E+02 0.  0.
         24    2    4    4    0    0 -0.13731672666E+03 -0.52116227910E+03  0.62991182508E+03  0.83288251829E+03  0.80239499814E+02 0.  0.
         11    1    3    3    0    0  0.24807351703E+03  0.18275862056E+03  0.93051724020E+03  0.98020585468E+03  0.00000000000E+00 0.  1.
        -11    1    3    3    0    0  0.11261534875E+03  0.79645047630E+02  0.65874790075E+03  0.67303368944E+03  0.00000000000E+00 0. -1.
          2    1    6    6  502    0 -0.38882723959E+02 -0.50368789593E+02  0.82504883773E+02  0.10419182806E+03  0.00000000000E+00 0. -1.
          1    1    5    5  503    0 -0.25833286184E+01  0.72394400526E+01  0.51607059439E+01  0.92582916818E+01  0.00000000000E+00 0. -1.
         -4    1    5    5    0  503 -0.22078881049E+03  0.25151917086E+03  0.12460371543E+04  0.12902008302E+04  0.00000000000E+00 0.  1.
         -1    1    6    6    0  502 -0.98434002706E+02 -0.47079348951E+03  0.54740694130E+03  0.72869069024E+03  0.00000000000E+00 0.  1.
<mgrwt>
<rscale>  0 0.15123239E+04</rscale>
<asrwt>0</asrwt>
<pdfrwt beam="1">  1        2 0.55815040E+00 0.15123239E+04</pdfrwt>
<pdfrwt beam="2">  1       -2 0.24246646E-01 0.15123239E+04</pdfrwt>
<totfact> 0.98022995E+00</totfact>
</mgrwt>
</event>
<event>
12    1  0.1489025E-007  0.1402026E+04  0.7818608E-02  0.8952354E-01
         -2   -1    0    0    0  501 -0.00000000000E+00  0.00000000000E+00  0.33379160377E+03  0.33379160377E+03  0.00000000000E+00 0.  1.
          2   -1    0    0  501    0  0.00000000000E+00 -0.00000000000E+00 -0.14722328386E+04  0.14722328386E+04  0.00000000000E+00 0. -1.
         23    2    1    2    0    0  0.20881482749E+03 -0.19655280772E+02  0.11188159542E+03  0.25562139884E+03  0.93993861030E+02 0.  0.
        254    2    1    2    0    0 -0.20881482749E+03  0.19655280772E+02 -0.12503228303E+04  0.15504030436E+04  0.89244184980E+03 0.  0.
        -24    2    4    4    0    0  0.33555912056E+03  0.10564631094E+01 -0.65381710364E+03  0.73920751897E+03  0.79686332438E+02 0.  0.
         24    2    4    4    0    0 -0.54437394805E+03  0.18598817662E+02 -0.59650572664E+03  0.81119552458E+03  0.74365219340E+02 0.  0.
         13    1    3    3    0    0 -0.90645678597E+01  0.42480278288E+01  0.12230996588E+01  0.10085043564E+02  0.00000000000E+00 0. -1.
        -13    1    3    3    0    0  0.21787939535E+03 -0.23903308601E+02  0.11065849577E+03  0.24553635528E+03  0.00000000000E+00 0.  1.
          2    1    6    6  502    0 -0.11735186594E+03 -0.26310954900E+02 -0.12411512047E+03  0.17282444826E+03  0.00000000000E+00 0. -1.
          3    1    5    5  503    0  0.20992390341E+03  0.11274987937E+02 -0.32508664838E+03  0.38713886337E+03  0.00000000000E+00 0. -1.
         -4    1    5    5    0  503  0.12563521715E+03 -0.10218524828E+02 -0.32873045526E+03  0.35206865560E+03  0.00000000000E+00 0.  1.
         -1    1    6    6    0  502 -0.42702208211E+03  0.44909772563E+02 -0.47239060617E+03  0.63837107632E+03  0.00000000000E+00 0.  1.
<mgrwt>
<rscale>  0 0.14020256E+04</rscale>
<asrwt>0</asrwt>
<pdfrwt beam="1">  1        2 0.22649736E+00 0.14020256E+04</pdfrwt>
<pdfrwt beam="2">  1       -2 0.51352553E-01 0.14020256E+04</pdfrwt>
<totfact> 0.45881801E+01</totfact>
</mgrwt>
</event>
<event>
12    1  0.1489025E-007  0.2248311E+04  0.7818608E-02  0.8498585E-01
          2   -1    0    0  501    0  0.00000000000E+00  0.00000000000E+00  0.13294522370E+04  0.13294522370E+04  0.00000000000E+00 0. -1.
         -2   -1    0    0    0  501 -0.00000000000E+00 -0.00000000000E+00 -0.95056069411E+03  0.95056069411E+03  0.00000000000E+00 0.  1.
         23    2    1    2    0    0  0.75774740211E+03  0.52213930222E+03  0.22747284475E+01  0.92473997613E+03  0.91259370680E+02 0.  0.
        254    2    1    2    0    0 -0.75774740211E+03 -0.52213930222E+03  0.37661681441E+03  0.13552729550E+04  0.92093104043E+03 0.  0.
        -24    2    4    4    0    0 -0.49374794852E+03  0.10957962835E+03 -0.94562464279E+02  0.52038658122E+03  0.77880694957E+02 0.  0.
         24    2    4    4    0    0 -0.26399945359E+03 -0.63171893056E+03  0.47117927868E+03  0.83488637373E+03  0.79125379370E+02 0.  0.
         13    1    3    3    0    0  0.15022174070E+03  0.13597210708E+03  0.27205731398E+02  0.20443859006E+03  0.00000000000E+00 0. -1.
        -13    1    3    3    0    0  0.60752566141E+03  0.38616719513E+03 -0.24931002950E+02  0.72030138607E+03  0.00000000000E+00 0.  1.
          2    1    6    6  502    0 -0.84970549381E+02 -0.14268745408E+03  0.14446922004E+03  0.22011601339E+03  0.00000000000E+00 0. -1.
          3    1    5    5  503    0 -0.29685813829E+03  0.75723757784E+02 -0.19544497660E+02  0.30698669214E+03  0.00000000000E+00 0. -1.
         -4    1    5    5    0  503 -0.19688981023E+03  0.33855870563E+02 -0.75017966619E+02  0.21339988908E+03  0.00000000000E+00 0.  1.
         -1    1    6    6    0  502 -0.17902890421E+03 -0.48903147649E+03  0.32671005864E+03  0.61477036034E+03  0.00000000000E+00 0.  1.
<mgrwt>
<rscale>  0 0.22483105E+04</rscale>
<asrwt>0</asrwt>
<pdfrwt beam="1">  1        2 0.20453111E+00 0.22483105E+04</pdfrwt>
<pdfrwt beam="2">  1       -2 0.14624011E+00 0.22483105E+04</pdfrwt>
<totfact> 0.46365881E+00</totfact>
</mgrwt>
</event>
<event>
12    1  0.1489025E-007  0.1850133E+04  0.7818608E-02  0.8680084E-01
          2   -1    0    0  501    0  0.00000000000E+00  0.00000000000E+00  0.12022116069E+04  0.12022116069E+04  0.00000000000E+00 0. -1.
         -2   -1    0    0    0  501 -0.00000000000E+00 -0.00000000000E+00 -0.71181145579E+03  0.71181145579E+03  0.00000000000E+00 0.  1.
         23    2    1    2    0    0 -0.29035975347E+03 -0.57184661933E+03  0.48311982659E+03  0.80806114017E+03  0.90778284484E+02 0.  0.
        254    2    1    2    0    0  0.29035975347E+03  0.57184661933E+03  0.72803245057E+01  0.11059619225E+04  0.90098913891E+03 0.  0.
        -24    2    4    4    0    0  0.10783797197E+03  0.47126390100E+03 -0.40575357499E+03  0.63623911358E+03  0.80284204247E+02 0.  0.
         24    2    4    4    0    0  0.18252178149E+03  0.10058271833E+03  0.41303389949E+03  0.46972280893E+03  0.81310707460E+02 0.  0.
         13    1    3    3    0    0 -0.88564957445E+02 -0.97310758481E+02  0.11112970835E+03  0.17222934558E+03  0.00000000000E+00 0.  1.
        -13    1    3    3    0    0 -0.20179479602E+03 -0.47453586085E+03  0.37199011824E+03  0.63583179458E+03  0.00000000000E+00 0. -1.
          2    1    6    6  502    0  0.69928788291E+02  0.79545621617E+02  0.23851078934E+03  0.26096922804E+03  0.00000000000E+00 0. -1.
          3    1    5    5  503    0  0.11917159862E+03  0.41518879053E+03 -0.34528592123E+03  0.55299725958E+03  0.00000000000E+00 0. -1.
         -4    1    5    5    0  503 -0.11333626650E+02  0.56075110469E+02 -0.60467653756E+02  0.83241854004E+02  0.00000000000E+00 0.  1.
         -1    1    6    6    0  502  0.11259299320E+03  0.21037096715E+02  0.17452311015E+03  0.20875358089E+03  0.00000000000E+00 0.  1.
<mgrwt>
<rscale>  0 0.18501330E+04</rscale>
<asrwt>0</asrwt>
<pdfrwt beam="1">  1        2 0.18495563E+00 0.18501330E+04</pdfrwt>
<pdfrwt beam="2">  1       -2 0.10950945E+00 0.18501330E+04</pdfrwt>
<totfact> 0.11795005E+01</totfact>
</mgrwt>
</event>
<event>
12    1  0.1489025E-007  0.3978908E+04  0.7818608E-02  0.8008815E-01
         -1   -1    0    0    0  501 -0.00000000000E+00  0.00000000000E+00  0.15083145349E+04  0.15083145349E+04  0.00000000000E+00 0.  1.
          1   -1    0    0  501    0  0.00000000000E+00 -0.00000000000E+00 -0.26240732173E+04  0.26240732173E+04  0.00000000000E+00 0. -1.
         23    2    1    2    0    0 -0.16797035272E+04  0.44963680899E+03 -0.12878568141E+04  0.21655267805E+04  0.85754675328E+02 0.  0.
        254    2    1    2    0    0  0.16797035272E+04 -0.44963680899E+03  0.17209813169E+03  0.19668609717E+04  0.90296573351E+03 0.  0.
        -24    2    4    4    0    0  0.96708801056E+03 -0.65956470894E+03 -0.85760326612E+02  0.11765103656E+04  0.80851600685E+02 0.  0.
         24    2    4    4    0    0  0.71261551661E+03  0.20992789995E+03  0.25785845830E+03  0.79035060609E+03  0.79199105653E+02 0.  0.
         11    1    3    3    0    0 -0.14747358280E+03  0.21638219483E+02 -0.13172552268E+03  0.19891778073E+03  0.00000000000E+00 0.  1.
        -11    1    3    3    0    0 -0.15322299444E+04  0.42799858950E+03 -0.11561312914E+04  0.19666089998E+04  0.00000000000E+00 0. -1.
          2    1    6    6  502    0  0.24067683960E+02  0.23782995021E+02  0.11379530730E+02  0.35698431100E+02  0.00000000000E+00 0. -1.
          3    1    5    5  503    0  0.10686163903E+03 -0.94840410468E+02  0.87737656248E+01  0.14314710027E+03  0.00000000000E+00 0. -1.
         -4    1    5    5    0  503  0.86022637153E+03 -0.56472429847E+03 -0.94534092237E+02  0.10333632653E+04  0.00000000000E+00 0.  1.
         -1    1    6    6    0  502  0.68854783265E+03  0.18614490493E+03  0.24647892757E+03  0.75465217499E+03  0.00000000000E+00 0.  1.
<mgrwt>
<rscale>  0 0.39789083E+04</rscale>
<asrwt>0</asrwt>
<pdfrwt beam="1">  1        1 0.40370356E+00 0.39789083E+04</pdfrwt>
<pdfrwt beam="2">  1       -1 0.23204840E+00 0.39789083E+04</pdfrwt>
<totfact> 0.79600469E-02</totfact>
</mgrwt>
</event>
<event>
12    1  0.1489025E-007  0.1337800E+04  0.7818608E-02  0.9000115E-01
          2   -1    0    0  501    0  0.00000000000E+00  0.00000000000E+00  0.29262327031E+04  0.29262327031E+04  0.00000000000E+00 0. -1.
         -2   -1    0    0    0  501 -0.00000000000E+00 -0.00000000000E+00 -0.15290213289E+03  0.15290213289E+03  0.00000000000E+00 0.  1.
         23    2    1    2    0    0  0.56659919083E+02  0.81977489690E+02 -0.24657284387E+02  0.13805991957E+03  0.92314161817E+02 0.  0.
        254    2    1    2    0    0 -0.56659919083E+02 -0.81977489690E+02  0.27979878546E+04  0.29410749164E+04  0.90069693806E+03 0.  0.
        -24    2    4    4    0    0 -0.46599740797E+03  0.12491587920E+02  0.13050192070E+04  0.13880764342E+04  0.79821253394E+02 0.  0.
         24    2    4    4    0    0  0.40933748889E+03 -0.94469077610E+02  0.14929686476E+04  0.15529984822E+04  0.79795467660E+02 0.  0.
         13    1    3    3    0    0  0.57646337708E+02  0.99907978045E+02 -0.30258905020E+02  0.11924892310E+03  0.00000000000E+00 0.  1.
        -13    1    3    3    0    0 -0.98641862501E+00 -0.17930488355E+02  0.56016206326E+01  0.18810996467E+02  0.00000000000E+00 0. -1.
          2    1    6    6  502    0  0.45796964931E+02 -0.22531090184E+02  0.11045440619E+03  0.12167657075E+03  0.00000000000E+00 0. -1.
          1    1    5    5  503    0 -0.55610675870E+02  0.24351902289E+02  0.21091114359E+03  0.21947453817E+03  0.00000000000E+00 0. -1.
         -2    1    5    5    0  503 -0.41038673210E+03 -0.11860314369E+02  0.10941080634E+04  0.11686018960E+04  0.00000000000E+00 0.  1.
         -1    1    6    6    0  502  0.36354052396E+03 -0.71937987426E+02  0.13825142414E+04  0.14313219115E+04  0.00000000000E+00 0.  1.
<mgrwt>
<rscale>  0 0.13378000E+04</rscale>
<asrwt>0</asrwt>
<pdfrwt beam="1">  1        2 0.45018961E+00 0.13378000E+04</pdfrwt>
<pdfrwt beam="2">  1       -2 0.23523407E-01 0.13378000E+04</pdfrwt>
<totfact> 0.30590392E+01</totfact>
</mgrwt>
</event>
<event>
12    1  0.1489025E-007  0.1549681E+04  0.7818608E-02  0.8852071E-01
         -2   -1    0    0    0  501 -0.00000000000E+00  0.00000000000E+00  0.33382037718E+03  0.33382037718E+03  0.00000000000E+00 0.  1.
          2   -1    0    0  501    0  0.00000000000E+00 -0.00000000000E+00 -0.17985057902E+04  0.17985057902E+04  0.00000000000E+00 0. -1.
         23    2    1    2    0    0  0.69465242287E+02 -0.13066688674E+03 -0.10643619725E+04  0.10786167553E+04  0.92996995449E+02 0.  0.
        254    2    1    2    0    0 -0.69465242287E+02  0.13066688674E+03 -0.40032344055E+03  0.10537094121E+04  0.96340303764E+03 0.  0.
        -24    2    4    4    0    0  0.12267120712E+02 -0.40627566085E+03 -0.92072618740E+02  0.42437383776E+03  0.80033694182E+02 0.  0.
         24    2    4    4    0    0 -0.81732362999E+02  0.53694254758E+03 -0.30825082181E+03  0.62933557435E+03  0.77828127463E+02 0.  0.
         11    1    3    3    0    0  0.50767075230E+02 -0.60243715719E+02 -0.81580450765E+03  0.81959965588E+03  0.00000000000E+00 0. -1.
        -11    1    3    3    0    0  0.18698167058E+02 -0.70423171017E+02 -0.24855746482E+03  0.25901709941E+03  0.00000000000E+00 0.  1.
          2    1    6    6  502    0 -0.26439833980E+02  0.40163937105E+03 -0.22544362670E+03  0.46134377423E+03  0.00000000000E+00 0. -1.
          3    1    5    5  503    0  0.33248042430E+02 -0.16219226890E+03 -0.65124025967E+02  0.17791262792E+03  0.00000000000E+00 0. -1.
         -4    1    5    5    0  503 -0.20980921719E+02 -0.24408339195E+03 -0.26948592772E+02  0.24646120984E+03  0.00000000000E+00 0.  1.
         -1    1    6    6    0  502 -0.55292529019E+02  0.13530317653E+03 -0.82807195114E+02  0.16799180012E+03  0.00000000000E+00 0.  1.
<mgrwt>
<rscale>  0 0.15496811E+04</rscale>
<asrwt>0</asrwt>
<pdfrwt beam="1">  1        2 0.27669320E+00 0.15496811E+04</pdfrwt>
<pdfrwt beam="2">  1       -2 0.51356981E-01 0.15496811E+04</pdfrwt>
<totfact> 0.29809878E+01</totfact>
</mgrwt>
</event>
<event>
12    1  0.1489025E-007  0.1815808E+04  0.7818608E-02  0.8697938E-01
          1   -1    0    0  501    0  0.00000000000E+00  0.00000000000E+00  0.20232917792E+04  0.20232917792E+04  0.00000000000E+00 0. -1.
         -1   -1    0    0    0  501 -0.00000000000E+00 -0.00000000000E+00 -0.40740028737E+03  0.40740028737E+03  0.00000000000E+00 0.  1.
         23    2    1    2    0    0  0.26939749807E+03 -0.54889653094E+03  0.85998854739E+03  0.10593589711E+04  0.93801462792E+02 0.  0.
        254    2    1    2    0    0 -0.26939749807E+03  0.54889653094E+03  0.75590294443E+03  0.13713330954E+04  0.96711053328E+03 0.  0.
        -24    2    4    4    0    0  0.31704840442E+03  0.15094510709E+03  0.49239290019E+03  0.60995747837E+03  0.79329951286E+02 0.  0.
         24    2    4    4    0    0 -0.58644590249E+03  0.39795142385E+03  0.26351004424E+03  0.76137561705E+03  0.89281322432E+02 0.  0.
         13    1    3    3    0    0  0.55376997543E+02 -0.46300899447E+02  0.93124710703E+02  0.11782443248E+03  0.00000000000E+00 0. -1.
        -13    1    3    3    0    0  0.21402050052E+03 -0.50259563149E+03  0.76686383668E+03  0.94153453864E+03  0.00000000000E+00 0.  1.
          2    1    6    6  502    0 -0.20259865878E+03  0.10391570944E+03  0.51678835194E+02  0.23348531692E+03  0.00000000000E+00 0. -1.
          3    1    5    5  503    0  0.85546552769E+01  0.76492149974E+01 -0.27899721469E-01  0.11475774282E+02  0.00000000000E+00 0. -1.
         -4    1    5    5    0  503  0.30849374914E+03  0.14329589209E+03  0.49242079991E+03  0.59848170409E+03  0.00000000000E+00 0.  1.
         -1    1    6    6    0  502 -0.38384724370E+03  0.29403571441E+03  0.21183120905E+03  0.52789030013E+03  0.00000000000E+00 0.  1.
<mgrwt>
<rscale>  0 0.18158080E+04</rscale>
<asrwt>0</asrwt>
<pdfrwt beam="1">  1        1 0.31127565E+00 0.18158080E+04</pdfrwt>
<pdfrwt beam="2">  1       -1 0.62676968E-01 0.18158080E+04</pdfrwt>
<totfact> 0.69919938E+00</totfact>
</mgrwt>
</event>
<event>
12    1  0.1489025E-007  0.2872827E+04  0.7818608E-02  0.8281008E-01
          2   -1    0    0  501    0  0.00000000000E+00  0.00000000000E+00  0.18274777448E+04  0.18274777448E+04  0.00000000000E+00 0. -1.
         -2   -1    0    0    0  501 -0.00000000000E+00 -0.00000000000E+00 -0.11290339105E+04  0.11290339105E+04  0.00000000000E+00 0.  1.
         23    2    1    2    0    0 -0.10867850231E+04  0.69223523946E+03  0.46538701035E+03  0.13731536362E+04  0.93137135135E+02 0.  0.
        254    2    1    2    0    0  0.10867850231E+04 -0.69223523946E+03  0.23305682393E+03  0.15833580191E+04  0.89017740942E+03 0.  0.
        -24    2    4    4    0    0  0.33071807128E+03 -0.66898997096E+03  0.32406510254E+03  0.81726537701E+03  0.77346505182E+02 0.  0.
         24    2    4    4    0    0  0.75606695182E+03 -0.23245268499E+02 -0.91008278612E+02  0.76609264207E+03  0.80236221989E+02 0.  0.
         13    1    3    3    0    0 -0.90378248531E+03  0.55359009404E+03  0.34963292251E+03  0.11160322368E+04  0.00000000000E+00 0. -1.
        -13    1    3    3    0    0 -0.18300253779E+03  0.13864514542E+03  0.11575408784E+03  0.25712139941E+03  0.00000000000E+00 0.  1.
          2    1    6    6  502    0  0.44002145863E+03 -0.53086150142E+02 -0.51736802431E+02  0.44622160427E+03  0.00000000000E+00 0. -1.
          1    1    5    5  503    0  0.31897988775E+03 -0.60757544741E+03  0.28198200992E+03  0.74189618344E+03  0.00000000000E+00 0. -1.
         -2    1    5    5    0  503  0.11738183532E+02 -0.61414523554E+02  0.42083092620E+02  0.75369193577E+02  0.00000000000E+00 0.  1.
         -1    1    6    6    0  502  0.31604549319E+03  0.29840881643E+02 -0.39271476180E+02  0.31987103780E+03  0.00000000000E+00 0.  1.
<mgrwt>
<rscale>  0 0.28728274E+04</rscale>
<asrwt>0</asrwt>
<pdfrwt beam="1">  1        2 0.28115042E+00 0.28728274E+04</pdfrwt>
<pdfrwt beam="2">  1       -2 0.17369752E+00 0.28728274E+04</pdfrwt>
<totfact> 0.14462705E+00</totfact>
</mgrwt>
</event>
<event>
12    1  0.1489025E-007  0.2610154E+04  0.7818608E-02  0.8364760E-01
          2   -1    0    0  501    0  0.00000000000E+00  0.00000000000E+00  0.13051403064E+04  0.13051403064E+04  0.00000000000E+00 0. -1.
         -2   -1    0    0    0  501 -0.00000000000E+00 -0.00000000000E+00 -0.13050135017E+04  0.13050135017E+04  0.00000000000E+00 0.  1.
         23    2    1    2    0    0 -0.71352782111E+02  0.11449778721E+04  0.16540946065E+02  0.11508307064E+04  0.89845226863E+02 0.  0.
        254    2    1    2    0    0  0.71352782111E+02 -0.11449778721E+04 -0.16414141354E+02  0.14593231017E+04  0.90182534019E+03 0.  0.
        -24    2    4    4    0    0 -0.11244085134E+03 -0.15043502128E+03 -0.33784931229E+03  0.39509826153E+03  0.81773087059E+02 0.  0.
         24    2    4    4    0    0  0.18379363345E+03 -0.99454285079E+03  0.32143517094E+03  0.10642248402E+04  0.79739323228E+02 0.  0.
         13    1    3    3    0    0  0.44744075085E+01  0.98595821460E+01 -0.70811887051E+01  0.12937345791E+02  0.00000000000E+00 0.  1.
        -13    1    3    3    0    0 -0.75827189620E+02  0.11351182899E+04  0.23622134770E+02  0.11378933606E+04  0.00000000000E+00 0. -1.
          2    1    6    6  502    0  0.15141888736E+02 -0.17231976743E+03  0.81770736173E+02  0.19133696019E+03  0.00000000000E+00 0. -1.
          1    1    5    5  503    0 -0.14234105796E+01 -0.36855551960E+02 -0.25975483787E+02  0.45111900491E+02  0.00000000000E+00 0. -1.
         -2    1    5    5    0  503 -0.11101744076E+03 -0.11357946932E+03 -0.31187382851E+03  0.34998636103E+03  0.00000000000E+00 0.  1.
         -1    1    6    6    0  502  0.16865174471E+03 -0.82222308336E+03  0.23966443477E+03  0.87288788003E+03  0.00000000000E+00 0.  1.
<mgrwt>
<rscale>  0 0.26101538E+04</rscale>
<asrwt>0</asrwt>
<pdfrwt beam="1">  1        2 0.20079082E+00 0.26101538E+04</pdfrwt>
<pdfrwt beam="2">  1       -2 0.20077131E+00 0.26101538E+04</pdfrwt>
<totfact> 0.19075601E+00</totfact>
</mgrwt>
</event>
<event>
12    1  0.1489025E-007  0.1398975E+04  0.7818608E-02  0.8954561E-01
          2   -1    0    0  501    0  0.00000000000E+00  0.00000000000E+00  0.20892695991E+04  0.20892695991E+04  0.00000000000E+00 0. -1.
         -2   -1    0    0    0  501 -0.00000000000E+00 -0.00000000000E+00 -0.23418854179E+03  0.23418854179E+03  0.00000000000E+00 0.  1.
         23    2    1    2    0    0 -0.19123250365E+03  0.32017202372E+03  0.79411420945E+03  0.88209762982E+03  0.91645270809E+02 0.  0.
        254    2    1    2    0    0  0.19123250365E+03 -0.32017202372E+03  0.10609668479E+04  0.14413605111E+04  0.90154837662E+03 0.  0.
        -24    2    4    4    0    0  0.27175561687E+03 -0.58534215451E+03  0.90183288097E+03  0.11118215385E+04  0.79799968967E+02 0.  0.
         24    2    4    4    0    0 -0.80523113226E+02  0.26517013079E+03  0.15913396691E+03  0.32953897262E+03  0.80455857595E+02 0.  0.
         13    1    3    3    0    0 -0.11137535943E+03  0.13223994518E+03  0.28207415389E+03  0.33084392405E+03  0.00000000000E+00 0.  1.
        -13    1    3    3    0    0 -0.79857144219E+02  0.18793207854E+03  0.51204005556E+03  0.55125370576E+03  0.00000000000E+00 0. -1.
          2    1    6    6  502    0 -0.16106945814E+02  0.14383030993E+03  0.46886292719E+02  0.15213453324E+03  0.00000000000E+00 0. -1.
          3    1    5    5  503    0  0.26646417624E+03 -0.53746661150E+03  0.80800748425E+03  0.10063546146E+04  0.00000000000E+00 0. -1.
         -4    1    5    5    0  503  0.52914406295E+01 -0.47875543010E+02  0.93825396717E+02  0.10546692387E+03  0.00000000000E+00 0.  1.
         -1    1    6    6    0  502 -0.64416167412E+02  0.12133982086E+03  0.11224767419E+03  0.17740443938E+03  0.00000000000E+00 0.  1.
<mgrwt>
<rscale>  0 0.13989753E+04</rscale>
<asrwt>0</asrwt>
<pdfrwt beam="1">  1        2 0.32142608E+00 0.13989753E+04</pdfrwt>
<pdfrwt beam="2">  1       -2 0.36029008E-01 0.13989753E+04</pdfrwt>
<totfact> 0.42061811E+01</totfact>
</mgrwt>
</event>
<event>
12    1  0.1489025E-007  0.2352777E+04  0.7818608E-02  0.8457398E-01
          2   -1    0    0  501    0  0.00000000000E+00  0.00000000000E+00  0.34692768126E+04  0.34692768126E+04  0.00000000000E+00 0. -1.
         -2   -1    0    0    0  501 -0.00000000000E+00 -0.00000000000E+00 -0.39889859181E+03  0.39889859181E+03  0.00000000000E+00 0.  1.
         23    2    1    2    0    0 -0.65370302982E+03  0.69324789019E+03  0.18183941922E+04  0.20548195463E+04  0.88349540067E+02 0.  0.
        254    2    1    2    0    0  0.65370302982E+03 -0.69324789019E+03  0.12519840286E+04  0.18133558581E+04  0.90159590274E+03 0.  0.
        -24    2    4    4    0    0  0.29767464984E+03  0.17630703321E+03  0.23093040262E+03  0.42350194622E+03  0.79565573446E+02 0.  0.
         24    2    4    4    0    0  0.35602837999E+03 -0.86955492340E+03  0.10210536260E+04  0.13898539119E+04  0.79129116840E+02 0.  0.
         13    1    3    3    0    0 -0.62781246799E+03  0.65965980926E+03  0.16919978653E+04  0.19214984609E+04  0.00000000000E+00 0. -1.
        -13    1    3    3    0    0 -0.25890561834E+02  0.33588080927E+02  0.12639632686E+03  0.13332108541E+03  0.00000000000E+00 0.  1.
          2    1    6    6  502    0  0.25969861428E+03 -0.71522708385E+03  0.83209747633E+03  0.11275545937E+04  0.00000000000E+00 0. -1.
          1    1    5    5  503    0  0.24815005807E+03  0.17803285450E+03  0.19654749260E+03  0.36318736962E+03  0.00000000000E+00 0. -1.
         -2    1    5    5    0  503  0.49524591763E+02 -0.17258212882E+01  0.34382910018E+02  0.60314576594E+02  0.00000000000E+00 0.  1.
         -3    1    6    6    0  502  0.96329765702E+02 -0.15432783955E+03  0.18895614966E+03  0.26229931818E+03  0.00000000000E+00 0.  1.
<mgrwt>
<rscale>  0 0.23527768E+04</rscale>
<asrwt>0</asrwt>
<pdfrwt beam="1">  1        2 0.53373487E+00 0.23527768E+04</pdfrwt>
<pdfrwt beam="2">  1       -2 0.61369016E-01 0.23527768E+04</pdfrwt>
<totfact> 0.19076957E+00</totfact>
</mgrwt>
</event>
<event>
12    1  0.1489025E-007  0.1796574E+04  0.7818608E-02  0.8708123E-01
         -2   -1    0    0    0  501 -0.00000000000E+00  0.00000000000E+00  0.27835415839E+03  0.27835415839E+03  0.00000000000E+00 0. -1.
          2   -1    0    0  501    0  0.00000000000E+00 -0.00000000000E+00 -0.28988952705E+04  0.28988952705E+04  0.00000000000E+00 0.  1.
         23    2    1    2    0    0 -0.62309120827E+03  0.26771938480E+02 -0.56011731273E+03  0.84322881270E+03  0.91345695206E+02 0.  0.
        254    2    1    2    0    0  0.62309120827E+03 -0.26771938480E+02 -0.20604237994E+04  0.23340206162E+04  0.90185731313E+03 0.  0.
        -24    2    4    4    0    0  0.73269624874E+03 -0.14936158830E+03 -0.20064670806E+04  0.21427959225E+04  0.80694131982E+02 0.  0.
         24    2    4    4    0    0 -0.10960504047E+03  0.12258964982E+03 -0.53956718779E+02  0.19122469370E+03  0.81326925675E+02 0.  0.
         13    1    3    3    0    0 -0.96693413483E+02 -0.11253891540E+02 -0.12989481827E+03  0.16232353526E+03  0.00000000000E+00 0.  1.
        -13    1    3    3    0    0 -0.52639779479E+03  0.38025830021E+02 -0.43022249446E+03  0.68090527744E+03  0.00000000000E+00 0. -1.
          2    1    6    6  502    0 -0.39676349332E+02  0.10078869423E+03 -0.18648316207E+02  0.10991056946E+03  0.00000000000E+00 0. -1.
          3    1    5    5  503    0  0.72304561143E+03 -0.13875060447E+03 -0.19450810607E+04  0.20797564808E+04  0.00000000000E+00 0. -1.
         -4    1    5    5    0  503  0.96506373096E+01 -0.10610983828E+02 -0.61386019892E+02  0.63039441752E+02  0.00000000000E+00 0.  1.
         -1    1    6    6    0  502 -0.69928691137E+02  0.21800955587E+02 -0.35308402573E+02  0.81314124240E+02  0.00000000000E+00 0.  1.
<mgrwt>
<rscale>  0 0.17965740E+04</rscale>
<asrwt>0</asrwt>
<pdfrwt beam="1">  1        2 0.44598384E+00 0.17965740E+04</pdfrwt>
<pdfrwt beam="2">  1       -2 0.42823721E-01 0.17965740E+04</pdfrwt>
<totfact> 0.98550358E+00</totfact>
</mgrwt>
</event>
<event>
12    1  0.1489025E-007  0.1683221E+04  0.7818608E-02  0.8770992E-01
         -2   -1    0    0    0  501 -0.00000000000E+00  0.00000000000E+00  0.21975696429E+03  0.21975696429E+03  0.00000000000E+00 0.  1.
          2   -1    0    0  501    0  0.00000000000E+00 -0.00000000000E+00 -0.32231432409E+04  0.32231432409E+04  0.00000000000E+00 0. -1.
         23    2    1    2    0    0  0.31400695034E+03 -0.20455953789E+03 -0.13086269246E+03  0.40764165329E+03  0.92745370855E+02 0.  0.
        254    2    1    2    0    0 -0.31400695034E+03  0.20455953789E+03 -0.28725235841E+04  0.30352585519E+04  0.90606719726E+03 0.  0.
        -24    2    4    4    0    0 -0.34737879574E+03  0.81433014628E+02 -0.34124950698E+03  0.49948828275E+03  0.75722882880E+02 0.  0.
         24    2    4    4    0    0  0.33371845401E+02  0.12312652327E+03 -0.25312740772E+04  0.25357702691E+04  0.80675791331E+02 0.  0.
         13    1    3    3    0    0  0.42462976425E+02 -0.45315811148E+02 -0.57009471885E+02  0.84301287010E+02  0.00000000000E+00 0. -1.
        -13    1    3    3    0    0  0.27154397392E+03 -0.15924372675E+03 -0.73853220572E+02  0.32334036628E+03  0.00000000000E+00 0.  1.
          2    1    6    6  502    0 -0.28933611708E+01  0.25518651484E+02 -0.14721889517E+03  0.14944221696E+03  0.00000000000E+00 0. -1.
          1    1    5    5  503    0  0.32565132970E+01  0.27372497104E+01 -0.95115980354E+01  0.10419592699E+02  0.00000000000E+00 0. -1.
         -2    1    5    5    0  503 -0.35063530904E+03  0.78695764917E+02 -0.33173790894E+03  0.48906869005E+03  0.00000000000E+00 0.  1.
         -3    1    6    6    0  502  0.36265206572E+02  0.97607871783E+02 -0.23840551820E+04  0.23863280522E+04  0.00000000000E+00 0.  1.
<mgrwt>
<rscale>  0 0.16832209E+04</rscale>
<asrwt>0</asrwt>
<pdfrwt beam="1">  1        2 0.49586815E+00 0.16832209E+04</pdfrwt>
<pdfrwt beam="2">  1       -2 0.33808766E-01 0.16832209E+04</pdfrwt>
<totfact> 0.98355030E+00</totfact>
</mgrwt>
</event>
<event>
12    1  0.1489025E-007  0.2530457E+04  0.7818608E-02  0.8392215E-01
          2   -1    0    0  501    0  0.00000000000E+00  0.00000000000E+00  0.22974139950E+04  0.22974139950E+04  0.00000000000E+00 0. -1.
         -2   -1    0    0    0  501 -0.00000000000E+00 -0.00000000000E+00 -0.69678495683E+03  0.69678495683E+03  0.00000000000E+00 0.  1.
         23    2    1    2    0    0 -0.68383225949E+02 -0.87405122718E+03  0.15075628031E+04  0.17464250749E+04  0.92806915661E+02 0.  0.
        254    2    1    2    0    0  0.68383225949E+02  0.87405122718E+03  0.93066235144E+02  0.12477738770E+04  0.88297027734E+03 0.  0.
        -24    2    4    4    0    0 -0.39174239293E+03  0.53148087906E+03  0.59466080479E+02  0.66777191449E+03  0.80306212943E+02 0.  0.
         24    2    4    4    0    0  0.46012561887E+03  0.34257034812E+03  0.33600154665E+02  0.58000196251E+03  0.78760888520E+02 0.  0.
         11    1    3    3    0    0 -0.71643007759E+02 -0.57501140538E+03  0.92324980733E+03  0.10900280013E+04  0.00000000000E+00 0. -1.
        -11    1    3    3    0    0  0.32597818099E+01 -0.29903982180E+03  0.58431299572E+03  0.65639707356E+03  0.00000000000E+00 0.  1.
          2    1    6    6  502    0  0.12121618665E+03  0.90249455804E+02 -0.25846396332E+02  0.15331785409E+03  0.00000000000E+00 0. -1.
          1    1    5    5  503    0 -0.26655626917E+02  0.47671792403E+02 -0.16188455433E+02  0.56966554456E+02  0.00000000000E+00 0. -1.
         -2    1    5    5    0  503 -0.36508676601E+03  0.48380908666E+03  0.75654535913E+02  0.61080536004E+03  0.00000000000E+00 0.  1.
         -1    1    6    6    0  502  0.33890943223E+03  0.25232089232E+03  0.59446550997E+02  0.42668410842E+03  0.00000000000E+00 0.  1.
<mgrwt>
<rscale>  0 0.25304573E+04</rscale>
<asrwt>0</asrwt>
<pdfrwt beam="1">  1        2 0.35344830E+00 0.25304573E+04</pdfrwt>
<pdfrwt beam="2">  1       -2 0.10719769E+00 0.25304573E+04</pdfrwt>
<totfact> 0.28296922E+00</totfact>
</mgrwt>
</event>
<event>
12    1  0.1489025E-007  0.1730951E+04  0.7818608E-02  0.8743906E-01
          1   -1    0    0  501    0  0.00000000000E+00  0.00000000000E+00  0.65533194229E+03  0.65533194229E+03  0.00000000000E+00 0. -1.
         -1   -1    0    0    0  501 -0.00000000000E+00 -0.00000000000E+00 -0.11430056833E+04  0.11430056833E+04  0.00000000000E+00 0.  1.
         23    2    1    2    0    0 -0.94872230341E+02  0.31630466860E+03  0.37472916655E+03  0.50805010178E+03  0.92970824398E+02 0.  0.
        254    2    1    2    0    0  0.94872230341E+02 -0.31630466860E+03 -0.86240290754E+03  0.12902875238E+04  0.90114024193E+03 0.  0.
        -24    2    4    4    0    0 -0.32194678700E+03  0.50923729569E+02 -0.56208611735E+03  0.65464460795E+03  0.79848603660E+02 0.  0.
         24    2    4    4    0    0  0.41681901734E+03 -0.36722839817E+03 -0.30031679019E+03  0.63564291584E+03  0.72504843635E+02 0.  0.
         11    1    3    3    0    0 -0.17512580600E+01 -0.20059313258E+01  0.28429357185E+02  0.28553791609E+02  0.00000000000E+00 0.  1.
        -11    1    3    3    0    0 -0.93120972281E+02  0.31831059992E+03  0.34629980937E+03  0.47949631017E+03  0.00000000000E+00 0. -1.
          2    1    6    6  502    0  0.37962957465E+03 -0.31082425096E+03 -0.24546916935E+03  0.54862140136E+03  0.00000000000E+00 0. -1.
          3    1    5    5  503    0 -0.18031024769E+03 -0.21428729604E+01 -0.25482064459E+03  0.31216972665E+03  0.00000000000E+00 0. -1.
         -4    1    5    5    0  503 -0.14163653931E+03  0.53066602530E+02 -0.30726547275E+03  0.34247488130E+03  0.00000000000E+00 0.  1.
         -1    1    6    6    0  502  0.37189442689E+02 -0.56404147206E+02 -0.54847620840E+02  0.87021514474E+02  0.00000000000E+00 0.  1.
<mgrwt>
<rscale>  0 0.17309513E+04</rscale>
<asrwt>0</asrwt>
<pdfrwt beam="1">  1        1 0.10082030E+00 0.17309513E+04</pdfrwt>
<pdfrwt beam="2">  1       -1 0.17584703E+00 0.17309513E+04</pdfrwt>
<totfact> 0.63680084E+00</totfact>
</mgrwt>
</event>
<event>
12    1  0.1489025E-007  0.2230224E+04  0.7818608E-02  0.8505952E-01
         -2   -1    0    0    0  501 -0.00000000000E+00  0.00000000000E+00  0.16262598328E+04  0.16262598328E+04  0.00000000000E+00 0.  1.
          2   -1    0    0  501    0  0.00000000000E+00 -0.00000000000E+00 -0.76462264973E+03  0.76462264973E+03  0.00000000000E+00 0. -1.
         23    2    1    2    0    0  0.20263706179E+03  0.35880561693E+03  0.12621659143E+04  0.13308117243E+04  0.90519615395E+02 0.  0.
        254    2    1    2    0    0 -0.20263706179E+03 -0.35880561693E+03 -0.40052873118E+03  0.10600707583E+04  0.89079935927E+03 0.  0.
        -24    2    4    4    0    0  0.26481325729E+03 -0.30493607983E+03 -0.41234857638E+03  0.58296922269E+03  0.81912710555E+02 0.  0.
         24    2    4    4    0    0 -0.46745031909E+03 -0.53869537109E+02  0.11819845199E+02  0.47710153557E+03  0.77938685262E+02 0.  0.
         11    1    3    3    0    0  0.16138271808E+03  0.19604879046E+03  0.77117031740E+03  0.81190095971E+03  0.00000000000E+00 0.  1.
        -11    1    3    3    0    0  0.41254343714E+02  0.16275682648E+03  0.49099559685E+03  0.51891076456E+03  0.00000000000E+00 0. -1.
          2    1    6    6  502    0 -0.26863987752E+03 -0.61035232305E+02 -0.17363267066E+02  0.27603290822E+03  0.00000000000E+00 0. -1.
          3    1    5    5  503    0  0.11653327384E+03 -0.79979592659E+02 -0.12009229306E+03  0.18546939911E+03  0.00000000000E+00 0. -1.
         -4    1    5    5    0  503  0.14827998346E+03 -0.22495648717E+03 -0.29225628332E+03  0.39749982359E+03  0.00000000000E+00 0.  1.
         -1    1    6    6    0  502 -0.19881044157E+03  0.71656951952E+01  0.29183112265E+02  0.20106862735E+03  0.00000000000E+00 0.  1.
<mgrwt>
<rscale>  0 0.22302243E+04</rscale>
<asrwt>0</asrwt>
<pdfrwt beam="1">  1        2 0.11763425E+00 0.22302243E+04</pdfrwt>
<pdfrwt beam="2">  1       -2 0.25019382E+00 0.22302243E+04</pdfrwt>
<totfact> 0.21362761E+00</totfact>
</mgrwt>
</event>
<event>
12    1  0.1489025E-007  0.1146650E+04  0.7818608E-02  0.9160880E-01
         -1   -1    0    0    0  501 -0.00000000000E+00  0.00000000000E+00  0.21733697634E+04  0.21733697634E+04  0.00000000000E+00 0.  1.
          1   -1    0    0  501    0  0.00000000000E+00 -0.00000000000E+00 -0.15124039068E+03  0.15124039068E+03  0.00000000000E+00 0. -1.
         23    2    1    2    0    0 -0.12492074173E+03 -0.82895982618E+02  0.61194278485E+03  0.63709815813E+03  0.94568258496E+02 0.  0.
        254    2    1    2    0    0  0.12492074173E+03  0.82895982618E+02  0.14101865878E+04  0.16875119959E+04  0.91465490116E+03 0.  0.
        -24    2    4    4    0    0 -0.17748836180E+03 -0.34535579972E+03  0.56063818499E+03  0.68665580853E+03  0.80051720435E+02 0.  0.
         24    2    4    4    0    0  0.30240910353E+03  0.42825178233E+03  0.84954840285E+03  0.10008561874E+04  0.71622371496E+02 0.  0.
         13    1    3    3    0    0 -0.10226477085E+02  0.78821148742E+01  0.19156037631E+03  0.19199501645E+03  0.00000000000E+00 0. -1.
        -13    1    3    3    0    0 -0.11469426464E+03 -0.90778097492E+02  0.42038240854E+03  0.44510314168E+03  0.00000000000E+00 0.  1.
          4    1    6    6  502    0  0.27841855647E+03  0.41366599652E+03  0.77893188497E+03  0.92486287129E+03  0.00000000000E+00 0. -1.
          3    1    5    5  503    0 -0.10347097482E+03 -0.27425416865E+03  0.39686349554E+03  0.49337837989E+03  0.00000000000E+00 0. -1.
         -4    1    5    5    0  503 -0.74017386980E+02 -0.71101631063E+02  0.16377468945E+03  0.19327742864E+03  0.00000000000E+00 0.  1.
         -3    1    6    6    0  502  0.23990547054E+02  0.14585785812E+02  0.70616517873E+02  0.75993316102E+02  0.00000000000E+00 0.  1.
<mgrwt>
<rscale>  0 0.11466495E+04</rscale>
<asrwt>0</asrwt>
<pdfrwt beam="1">  1        1 0.23267754E-01 0.11466495E+04</pdfrwt>
<pdfrwt beam="2">  1       -1 0.33436456E+00 0.11466495E+04</pdfrwt>
<totfact> 0.42523334E+00</totfact>
</mgrwt>
</event>
<event>
12    1  0.1489025E-007  0.1342567E+04  0.7818608E-02  0.8996474E-01
         -2   -1    0    0    0  501 -0.00000000000E+00  0.00000000000E+00  0.66664128654E+03  0.66664128654E+03  0.00000000000E+00 0.  1.
          2   -1    0    0  501    0  0.00000000000E+00 -0.00000000000E+00 -0.67595775366E+03  0.67595775366E+03  0.00000000000E+00 0. -1.
         23    2    1    2    0    0 -0.25136285613E+03  0.23609201334E+03  0.87642007069E+02  0.36701943575E+03  0.89996781143E+02 0.  0.
        254    2    1    2    0    0  0.25136285613E+03 -0.23609201334E+03 -0.96958474183E+02  0.97557960445E+03  0.90743148210E+03 0.  0.
        -24    2    4    4    0    0  0.18143990701E+02  0.28989635633E+03  0.15924413404E+03  0.34054444162E+03  0.79010889638E+02 0.  0.
         24    2    4    4    0    0  0.23321886542E+03 -0.52598836966E+03 -0.25620260822E+03  0.63503516283E+03  0.81086850776E+02 0.  0.
         13    1    3    3    0    0 -0.69935701937E+02  0.74533304281E+02  0.69110585211E+02  0.12337945064E+03  0.00000000000E+00 0. -1.
        -13    1    3    3    0    0 -0.18142715419E+03  0.16155870905E+03  0.18531421858E+02  0.24363998511E+03  0.00000000000E+00 0.  1.
          2    1    6    6  502    0  0.69538454966E+02 -0.14481596442E+03 -0.33115854088E+02  0.16402414475E+03  0.00000000000E+00 0. -1.
          3    1    5    5  503    0  0.10481630872E+02  0.60435190147E+02  0.35785419970E+00  0.61338445150E+02  0.00000000000E+00 0. -1.
         -4    1    5    5    0  503  0.76623598290E+01  0.22946116618E+03  0.15888627984E+03  0.27920599647E+03  0.00000000000E+00 0.  1.
         -1    1    6    6    0  502  0.16368041046E+03 -0.38117240524E+03 -0.22308675413E+03  0.47101101808E+03  0.00000000000E+00 0.  1.
<mgrwt>
<rscale>  0 0.13425667E+04</rscale>
<asrwt>0</asrwt>
<pdfrwt beam="1">  1        2 0.10399350E+00 0.13425667E+04</pdfrwt>
<pdfrwt beam="2">  1       -2 0.10256020E+00 0.13425667E+04</pdfrwt>
<totfact> 0.32550792E+01</totfact>
</mgrwt>
</event>
<event>
12    1  0.1489025E-007  0.2275956E+04  0.7818608E-02  0.8487462E-01
          2   -1    0    0  501    0  0.00000000000E+00  0.00000000000E+00  0.10708132535E+04  0.10708132535E+04  0.00000000000E+00 0. -1.
         -2   -1    0    0    0  501 -0.00000000000E+00 -0.00000000000E+00 -0.12093552953E+04  0.12093552953E+04  0.00000000000E+00 0.  1.
         23    2    1    2    0    0 -0.94789847920E+02 -0.29351377317E+03  0.80005482284E+03  0.86240223564E+03  0.92273756714E+02 0.  0.
        254    2    1    2    0    0  0.94789847920E+02  0.29351377317E+03 -0.93859686460E+03  0.14177663132E+04  0.10168391192E+04 0.  0.
        -24    2    4    4    0    0 -0.43696061864E+03  0.55419655184E+01 -0.31226779920E+03  0.54369153549E+03  0.84403860853E+02 0.  0.
         24    2    4    4    0    0  0.53175046656E+03  0.28797180765E+03 -0.62632906541E+03  0.87407477770E+03  0.77667870762E+02 0.  0.
         11    1    3    3    0    0 -0.87083557688E+02 -0.29946355006E+03  0.76816527474E+03  0.82905961978E+03  0.00000000000E+00 0. -1.
        -11    1    3    3    0    0 -0.77062902319E+01  0.59497768947E+01  0.31889548094E+02  0.33342615853E+02  0.00000000000E+00 0.  1.
          2    1    6    6  502    0  0.53281784372E+03  0.28109400725E+03 -0.61588213148E+03  0.86152161631E+03  0.00000000000E+00 0. -1.
          1    1    5    5  503    0 -0.19130665773E+03  0.27063798225E+02 -0.17902061090E+03  0.26339906149E+03  0.00000000000E+00 0. -1.
         -2    1    5    5    0  503 -0.24565396091E+03 -0.21521832707E+02 -0.13324718829E+03  0.28029247400E+03  0.00000000000E+00 0.  1.
         -1    1    6    6    0  502 -0.10673771590E+01  0.68778003954E+01 -0.10446933933E+02  0.12553161389E+02  0.00000000000E+00 0.  1.
<mgrwt>
<rscale>  0 0.22759558E+04</rscale>
<asrwt>0</asrwt>
<pdfrwt beam="1">  1        2 0.16474050E+00 0.22759558E+04</pdfrwt>
<pdfrwt beam="2">  1       -2 0.18605466E+00 0.22759558E+04</pdfrwt>
<totfact> 0.34002261E+00</totfact>
</mgrwt>
</event>
<event>
12    1  0.1489025E-007  0.1305848E+04  0.7818608E-02  0.9024940E-01
          2   -1    0    0  501    0  0.00000000000E+00  0.00000000000E+00  0.39822596955E+03  0.39822596955E+03  0.00000000000E+00 0. -1.
         -2   -1    0    0    0  501 -0.00000000000E+00 -0.00000000000E+00 -0.10705225923E+04  0.10705225923E+04  0.00000000000E+00 0.  1.
         23    2    1    2    0    0  0.23411024331E+03  0.25402462076E+03 -0.19542175905E+03  0.40718143141E+03  0.90944709551E+02 0.  0.
        254    2    1    2    0    0 -0.23411024331E+03 -0.25402462076E+03 -0.47687486371E+03  0.10615671305E+04  0.88327743255E+03 0.  0.
        -24    2    4    4    0    0 -0.14616796581E+03 -0.50361351761E+03 -0.23817613524E+02  0.53082736502E+03  0.78859136368E+02 0.  0.
         24    2    4    4    0    0 -0.87942277495E+02  0.24958889684E+03 -0.45305725019E+03  0.53073976544E+03  0.79971026467E+02 0.  0.
         13    1    3    3    0    0  0.18077699563E+03  0.17956073183E+03 -0.96745307256E+02  0.27254730423E+03  0.00000000000E+00 0. -1.
        -13    1    3    3    0    0  0.53333247679E+02  0.74463888932E+02 -0.98676451793E+02  0.13463412718E+03  0.00000000000E+00 0.  1.
          4    1    6    6  502    0 -0.60920516995E+02  0.21343786707E+03 -0.41913355258E+03  0.47427836488E+03  0.00000000000E+00 0. -1.
          1    1    5    5  503    0 -0.12607941946E+03 -0.44092560339E+03 -0.47085720388E+02  0.46100810492E+03  0.00000000000E+00 0. -1.
         -4    1    5    5    0  503 -0.20088546349E+02 -0.62687914222E+02  0.23268106864E+02  0.69819260100E+02  0.00000000000E+00 0.  1.
         -3    1    6    6    0  502 -0.27021760501E+02  0.36151029777E+02 -0.33923697602E+02  0.56461400562E+02  0.00000000000E+00 0.  1.
<mgrwt>
<rscale>  0 0.13058482E+04</rscale>
<asrwt>0</asrwt>
<pdfrwt beam="1">  1        2 0.61265535E-01 0.13058482E+04</pdfrwt>
<pdfrwt beam="2">  1       -2 0.16469578E+00 0.13058482E+04</pdfrwt>
<totfact> 0.18199748E+01</totfact>
</mgrwt>
</event>
<event>
12    1  0.1489025E-007  0.2466323E+04  0.7818608E-02  0.8415082E-01
         -1   -1    0    0    0  501 -0.00000000000E+00  0.00000000000E+00  0.19754313614E+04  0.19754313614E+04  0.00000000000E+00 0.  1.
          1   -1    0    0  501    0  0.00000000000E+00 -0.00000000000E+00 -0.76980019701E+03  0.76980019701E+03  0.00000000000E+00 0. -1.
         23    2    1    2    0    0 -0.22801444528E+03 -0.91344953255E+03  0.95381407056E+03  0.13432481526E+04  0.90408420121E+02 0.  0.
        254    2    1    2    0    0  0.22801444528E+03  0.91344953255E+03  0.25181709385E+03  0.14019834059E+04  0.10078516685E+04 0.  0.
        -24    2    4    4    0    0 -0.23067339753E+03 -0.90689557348E+02  0.11975232908E+03  0.28744002552E+03  0.82742587645E+02 0.  0.
         24    2    4    4    0    0  0.45868784281E+03  0.10041390899E+04  0.13206476477E+03  0.11145433803E+04  0.77948672450E+02 0.  0.
         13    1    3    3    0    0 -0.19642718284E+02 -0.18983225586E+02  0.24773343902E+02  0.36877063377E+02  0.00000000000E+00 0. -1.
        -13    1    3    3    0    0 -0.20837172699E+03 -0.89446630697E+03  0.92904072666E+03  0.13063710892E+04  0.00000000000E+00 0.  1.
          2    1    6    6  502    0  0.93775465769E+02  0.15671188950E+03  0.10317283624E+01  0.18262945752E+03  0.00000000000E+00 0. -1.
          1    1    5    5  503    0 -0.22984261755E+02  0.34940188498E+01  0.39217479833E+02  0.45590516345E+02  0.00000000000E+00 0. -1.
         -2    1    5    5    0  503 -0.20768913578E+03 -0.94183576198E+02  0.80534849248E+02  0.24184950918E+03  0.00000000000E+00 0.  1.
         -1    1    6    6    0  502  0.36491237704E+03  0.84742720040E+03  0.13103303641E+03  0.93191392281E+03  0.00000000000E+00 0.  1.
<mgrwt>
<rscale>  0 0.24663231E+04</rscale>
<asrwt>0</asrwt>
<pdfrwt beam="1">  1        1 0.11843080E+00 0.24663231E+04</pdfrwt>
<pdfrwt beam="2">  1       -1 0.30391252E+00 0.24663231E+04</pdfrwt>
<totfact> 0.65257811E-01</totfact>
</mgrwt>
</event>
<event>
12    1  0.1489025E-007  0.4684795E+04  0.7818608E-02  0.7879060E-01
          1   -1    0    0  501    0  0.00000000000E+00  0.00000000000E+00  0.31022604917E+04  0.31022604917E+04  0.00000000000E+00 0. -1.
         -1   -1    0    0    0  501 -0.00000000000E+00 -0.00000000000E+00 -0.17686543201E+04  0.17686543201E+04  0.00000000000E+00 0.  1.
         23    2    1    2    0    0  0.18562048090E+04  0.57217650366E+03 -0.55248732420E+03  0.20208672119E+04  0.76025000100E+02 0.  0.
        254    2    1    2    0    0 -0.18562048090E+04 -0.57217650366E+03  0.18860934958E+04  0.28500475998E+04  0.89024738258E+03 0.  0.
        -24    2    4    4    0    0 -0.14328297834E+04 -0.37205781862E+03  0.84720266212E+03  0.17076792137E+04  0.83592688867E+02 0.  0.
         24    2    4    4    0    0 -0.42337502561E+03 -0.20011868504E+03  0.10388908337E+04  0.11423683861E+04  0.80109081657E+02 0.  0.
         13    1    3    3    0    0  0.14386206374E+04  0.43591790211E+03 -0.39511959035E+03  0.15542757948E+04  0.00000000000E+00 0.  1.
        -13    1    3    3    0    0  0.41758417155E+03  0.13625860155E+03 -0.15736773385E+03  0.46659141707E+03  0.00000000000E+00 0. -1.
          4    1    6    6  502    0 -0.35866585172E+03 -0.17620234874E+03  0.94357796516E+03  0.10247086597E+04  0.00000000000E+00 0. -1.
          1    1    5    5  503    0 -0.13582399010E+04 -0.33339777975E+03  0.80440415470E+03  0.16133926219E+04  0.00000000000E+00 0. -1.
         -2    1    5    5    0  503 -0.74589882307E+02 -0.38660038869E+02  0.42798507417E+02  0.94286591756E+02  0.00000000000E+00 0.  1.
         -3    1    6    6    0  502 -0.64709173888E+02 -0.23916336294E+02  0.95312868512E+02  0.11765972646E+03  0.00000000000E+00 0.  1.
<mgrwt>
<rscale>  0 0.46847952E+04</rscale>
<asrwt>0</asrwt>
<pdfrwt beam="1">  1        1 0.47727085E+00 0.46847952E+04</pdfrwt>
<pdfrwt beam="2">  1       -1 0.27210066E+00 0.46847952E+04</pdfrwt>
<totfact> 0.18628034E-02</totfact>
</mgrwt>
</event>
<event>
12    1  0.1489025E-007  0.1903998E+04  0.7818608E-02  0.8652869E-01
         -1   -1    0    0    0  501 -0.00000000000E+00  0.00000000000E+00  0.10831074536E+04  0.10831074536E+04  0.00000000000E+00 0.  1.
          1   -1    0    0  501    0  0.00000000000E+00 -0.00000000000E+00 -0.83676072111E+03  0.83676072111E+03  0.00000000000E+00 0. -1.
         23    2    1    2    0    0 -0.74550096229E+03 -0.68895958906E+01  0.11128890898E+03  0.75924318702E+03  0.90806632276E+02 0.  0.
        254    2    1    2    0    0  0.74550096229E+03  0.68895958906E+01  0.13505782354E+03  0.11606249877E+04  0.87919883707E+03 0.  0.
        -24    2    4    4    0    0  0.56108522977E+03 -0.25910819801E+02  0.49140650367E+03  0.75010741137E+03  0.75450454632E+02 0.  0.
         24    2    4    4    0    0  0.18441573252E+03  0.32800415691E+02 -0.35634868013E+03  0.41051757634E+03  0.80344688578E+02 0.  0.
         13    1    3    3    0    0 -0.48426626379E+03  0.16963711337E+02  0.33915348599E+02  0.48574873404E+03  0.00000000000E+00 0. -1.
        -13    1    3    3    0    0 -0.26123469850E+03 -0.23853307228E+02  0.77373560379E+02  0.27349445298E+03  0.00000000000E+00 0.  1.
          4    1    6    6  502    0  0.69957182797E+01 -0.17323810347E+02 -0.23520840045E+02  0.30038049131E+02  0.00000000000E+00 0. -1.
          1    1    5    5  503    0  0.29599221905E+03  0.23488245646E+02  0.24893059755E+03  0.38746552598E+03  0.00000000000E+00 0. -1.
         -2    1    5    5    0  503  0.26509301071E+03 -0.49399065447E+02  0.24247590611E+03  0.36264188539E+03  0.00000000000E+00 0.  1.
         -3    1    6    6    0  502  0.17742001424E+03  0.50124226038E+02 -0.33282784009E+03  0.38047952721E+03  0.00000000000E+00 0.  1.
<mgrwt>
<rscale>  0 0.19039977E+04</rscale>
<asrwt>0</asrwt>
<pdfrwt beam="1">  1        1 0.12873242E+00 0.19039977E+04</pdfrwt>
<pdfrwt beam="2">  1       -1 0.16663192E+00 0.19039977E+04</pdfrwt>
<totfact> 0.50092802E+00</totfact>
</mgrwt>
</event>
<event>
12    1  0.1489025E-007  0.3150036E+04  0.7818608E-02  0.8202139E-01
         -1   -1    0    0    0  501 -0.00000000000E+00  0.00000000000E+00  0.72310929110E+03  0.72310929110E+03  0.00000000000E+00 0.  1.
          1   -1    0    0  501    0  0.00000000000E+00 -0.00000000000E+00 -0.34305759729E+04  0.34305759729E+04  0.00000000000E+00 0. -1.
         23    2    1    2    0    0  0.58492990193E+03  0.42912668749E+03 -0.28923455958E+04  0.29828764694E+04  0.74808304308E+02 0.  0.
        254    2    1    2    0    0 -0.58492990193E+03 -0.42912668749E+03  0.18487891401E+03  0.11708087945E+04  0.90017793598E+03 0.  0.
        -24    2    4    4    0    0 -0.40232010164E+03 -0.37042012877E+03 -0.31004610735E+03  0.63404244457E+03  0.82514828051E+02 0.  0.
         24    2    4    4    0    0 -0.18260980029E+03 -0.58706558715E+02  0.49492502135E+03  0.53676634996E+03  0.79840706986E+02 0.  0.
         11    1    3    3    0    0  0.63290522905E+02  0.25264500401E+02 -0.22042682368E+03  0.23072054497E+03  0.00000000000E+00 0.  1.
        -11    1    3    3    0    0  0.52163937902E+03  0.40386218709E+03 -0.26719187721E+04  0.27521559245E+04  0.00000000000E+00 0. -1.
          4    1    6    6  502    0 -0.98820282429E+01 -0.14132338650E+02  0.96911689038E+01  0.19781209079E+02  0.00000000000E+00 0. -1.
          1    1    5    5  503    0 -0.14378462584E+03 -0.14798391181E+03 -0.73705022894E+02  0.21910200177E+03  0.00000000000E+00 0. -1.
         -2    1    5    5    0  503 -0.25853547580E+03 -0.22243621697E+03 -0.23634108445E+03  0.41494044280E+03  0.00000000000E+00 0.  1.
         -3    1    6    6    0  502 -0.17272777204E+03 -0.44574220065E+02  0.48523385245E+03  0.51698514088E+03  0.00000000000E+00 0.  1.
<mgrwt>
<rscale>  0 0.31500358E+04</rscale>
<asrwt>0</asrwt>
<pdfrwt beam="1">  1        1 0.52778091E+00 0.31500358E+04</pdfrwt>
<pdfrwt beam="2">  1       -1 0.11124759E+00 0.31500358E+04</pdfrwt>
<totfact> 0.17664289E-01</totfact>
</mgrwt>
</event>
<event>
12    1  0.1489025E-007  0.1046450E+04  0.7818608E-02  0.9259017E-01
          4   -1    0    0  501    0  0.00000000000E+00  0.00000000000E+00  0.30334399649E+04  0.30334399649E+04  0.00000000000E+00 0. -1.
         -4   -1    0    0    0  501 -0.00000000000E+00 -0.00000000000E+00 -0.90248852775E+02  0.90248852775E+02  0.00000000000E+00 0.  1.
         23    2    1    2    0    0  0.64899242859E+01  0.20529810052E+02  0.64229892951E+03  0.64926418281E+03  0.92371380929E+02 0.  0.
        254    2    1    2    0    0 -0.64899242859E+01 -0.20529810052E+02  0.23008921826E+04  0.24744246348E+04  0.91005980318E+03 0.  0.
        -24    2    4    4    0    0  0.19100034445E+03 -0.33807538760E+03  0.18090728324E+04  0.18519329818E+04  0.78327243394E+02 0.  0.
         24    2    4    4    0    0 -0.19749026874E+03  0.31754557755E+03  0.49181935021E+03  0.62249165301E+03  0.75973579316E+02 0.  0.
         11    1    3    3    0    0  0.27068567748E+02  0.22324851601E+02  0.60945623168E+03  0.61046540007E+03  0.00000000000E+00 0. -1.
        -11    1    3    3    0    0 -0.20578643462E+02 -0.17950415490E+01  0.32842697831E+02  0.38798782735E+02  0.00000000000E+00 0.  1.
          2    1    6    6  502    0 -0.65009582416E+02  0.64132901500E+02  0.16204863383E+03  0.18600815732E+03  0.00000000000E+00 0. -1.
          1    1    5    5  503    0  0.32076481998E+02 -0.10676661414E+03  0.64078486760E+03  0.65041006845E+03  0.00000000000E+00 0. -1.
         -2    1    5    5    0  503  0.15892386246E+03 -0.23130877346E+03  0.11682879648E+04  0.12015229134E+04  0.00000000000E+00 0.  1.
         -3    1    6    6    0  502 -0.13248068632E+03  0.25341267605E+03  0.32977071638E+03  0.43648349569E+03  0.00000000000E+00 0.  1.
<mgrwt>
<rscale>  0 0.10464501E+04</rscale>
<asrwt>0</asrwt>
<pdfrwt beam="1">  1        4 0.46668299E+00 0.10464501E+04</pdfrwt>
<pdfrwt beam="2">  1       -4 0.13884441E-01 0.10464501E+04</pdfrwt>
<totfact> 0.20582636E-01</totfact>
</mgrwt>
</event>
<event>
12    1  0.1489025E-007  0.1367922E+04  0.7818608E-02  0.8977371E-01
          2   -1    0    0  501    0  0.00000000000E+00  0.00000000000E+00  0.74847450374E+03  0.74847450374E+03  0.00000000000E+00 0. -1.
         -2   -1    0    0    0  501 -0.00000000000E+00 -0.00000000000E+00 -0.62500828428E+03  0.62500828428E+03  0.00000000000E+00 0.  1.
         23    2    1    2    0    0  0.30216748247E+03  0.23035070336E+03  0.12773766571E+02  0.39088359586E+03  0.90885545607E+02 0.  0.
        254    2    1    2    0    0 -0.30216748247E+03 -0.23035070336E+03  0.11069245290E+03  0.98259919216E+03  0.89937851837E+03 0.  0.
        -24    2    4    4    0    0 -0.16812260895E+03 -0.31538577196E+03  0.46177778497E+03  0.58918612432E+03  0.78537695447E+02 0.  0.
         24    2    4    4    0    0 -0.13404487352E+03  0.85035068597E+02 -0.35108533207E+03  0.39341306784E+03  0.79460307989E+02 0.  0.
         13    1    3    3    0    0  0.14861824042E+03  0.14275521893E+03 -0.31950793377E+02  0.20853605711E+03  0.00000000000E+00 0.  1.
        -13    1    3    3    0    0  0.15354924204E+03  0.87595484435E+02  0.44724559949E+02  0.18234753875E+03  0.00000000000E+00 0. -1.
          4    1    6    6  502    0 -0.11227177419E+03  0.72916908532E+02 -0.34134602884E+03  0.36665915812E+03  0.00000000000E+00 0. -1.
          1    1    5    5  503    0 -0.17049451548E+03 -0.31872617519E+03  0.45331458767E+03  0.57978346816E+03  0.00000000000E+00 0. -1.
         -2    1    5    5    0  503  0.23719065251E+01  0.33404032323E+01  0.84631972950E+01  0.94026561552E+01  0.00000000000E+00 0.  1.
         -3    1    6    6    0  502 -0.21773099329E+02  0.12118160065E+02 -0.97393032258E+01  0.26753909716E+02  0.00000000000E+00 0.  1.
<mgrwt>
<rscale>  0 0.13679222E+04</rscale>
<asrwt>0</asrwt>
<pdfrwt beam="1">  1        2 0.11514992E+00 0.13679222E+04</pdfrwt>
<pdfrwt beam="2">  1       -2 0.96155121E-01 0.13679222E+04</pdfrwt>
<totfact> 0.33240887E+01</totfact>
</mgrwt>
</event>
<event>
12    1  0.1489025E-007  0.1696837E+04  0.7818608E-02  0.8763170E-01
         -1   -1    0    0    0  501 -0.00000000000E+00  0.00000000000E+00  0.16524365617E+04  0.16524365617E+04  0.00000000000E+00 0.  1.
          1   -1    0    0  501    0  0.00000000000E+00 -0.00000000000E+00 -0.43560765640E+03  0.43560765640E+03  0.00000000000E+00 0. -1.
         23    2    1    2    0    0 -0.25155859363E+03  0.30343183459E+03  0.10034178489E+04  0.10818857230E+04  0.90976556575E+02 0.  0.
        254    2    1    2    0    0  0.25155859363E+03 -0.30343183459E+03  0.21341105642E+03  0.10061584951E+04  0.90080965472E+03 0.  0.
        -24    2    4    4    0    0 -0.26508936124E+03  0.65594328249E+02  0.23053182177E+03  0.36606436382E+03  0.79266716001E+02 0.  0.
         24    2    4    4    0    0  0.51664795487E+03 -0.36902616284E+03 -0.17120765353E+02  0.64009413131E+03  0.79510742610E+02 0.  0.
         11    1    3    3    0    0 -0.62311820896E+02  0.93197373587E+02  0.18906273140E+03  0.21980270670E+03  0.00000000000E+00 0. -1.
        -11    1    3    3    0    0 -0.18924677273E+03  0.21023446101E+03  0.81435511746E+03  0.86208301626E+03  0.00000000000E+00 0.  1.
          4    1    6    6  502    0  0.47276196455E+03 -0.32693101838E+03  0.65702858969E+01  0.57483122267E+03  0.00000000000E+00 0. -1.
          3    1    5    5  503    0 -0.26890001883E+03  0.64993507364E+02  0.23282346882E+03  0.36157729984E+03  0.00000000000E+00 0. -1.
         -4    1    5    5    0  503  0.38106575873E+01  0.60082088513E+00 -0.22916470449E+01  0.44870639801E+01  0.00000000000E+00 0.  1.
         -3    1    6    6    0  502  0.43885990325E+02 -0.42095144459E+02 -0.23691051250E+02  0.65262908632E+02  0.00000000000E+00 0.  1.
<mgrwt>
<rscale>  0 0.16968371E+04</rscale>
<asrwt>0</asrwt>
<pdfrwt beam="1">  1        1 0.67016564E-01 0.16968371E+04</pdfrwt>
<pdfrwt beam="2">  1       -1 0.25422100E+00 0.16968371E+04</pdfrwt>
<totfact> 0.33336263E+00</totfact>
</mgrwt>
</event>
<event>
12    1  0.1489025E-007  0.3101913E+04  0.7818608E-02  0.8215213E-01
         -1   -1    0    0    0  501 -0.00000000000E+00  0.00000000000E+00  0.78671582818E+03  0.78671582818E+03  0.00000000000E+00 0.  1.
          1   -1    0    0  501    0  0.00000000000E+00 -0.00000000000E+00 -0.30576056142E+04  0.30576056142E+04  0.00000000000E+00 0. -1.
         23    2    1    2    0    0 -0.83734968267E+03 -0.90142696822E+03 -0.16808726785E+03  0.12451199971E+04  0.91353201476E+02 0.  0.
        254    2    1    2    0    0  0.83734968267E+03  0.90142696822E+03 -0.21028025182E+04  0.25992014453E+04  0.90572879643E+03 0.  0.
        -24    2    4    4    0    0  0.17577864907E+03 -0.17460122461E+03 -0.31050336230E+03  0.40514349951E+03  0.79656739178E+02 0.  0.
         24    2    4    4    0    0  0.66157103360E+03  0.10760281928E+04 -0.17922991559E+04  0.21940579458E+04  0.77724520131E+02 0.  0.
         11    1    3    3    0    0 -0.59625363007E+03 -0.63463234866E+03 -0.77115050185E+02  0.87419868468E+03  0.00000000000E+00 0.  1.
        -11    1    3    3    0    0 -0.24109605260E+03 -0.26679461957E+03 -0.90972217661E+02  0.37092131241E+03  0.00000000000E+00 0. -1.
          4    1    6    6  502    0  0.12053967061E+02  0.28045133666E+02 -0.26566894727E+02  0.40467610996E+02  0.00000000000E+00 0. -1.
          1    1    5    5  503    0  0.25232920297E+02 -0.15386767220E+02 -0.62646558891E+01  0.30210905078E+02  0.00000000000E+00 0. -1.
         -2    1    5    5    0  503  0.15054572877E+03 -0.15921445739E+03 -0.30423870641E+03  0.37493259443E+03  0.00000000000E+00 0.  1.
         -3    1    6    6    0  502  0.64951706654E+03  0.10479830592E+04 -0.17657322612E+04  0.21535903348E+04  0.00000000000E+00 0.  1.
<mgrwt>
<rscale>  0 0.31019134E+04</rscale>
<asrwt>0</asrwt>
<pdfrwt beam="1">  1        1 0.47040084E+00 0.31019134E+04</pdfrwt>
<pdfrwt beam="2">  1       -1 0.12103321E+00 0.31019134E+04</pdfrwt>
<totfact> 0.27713675E-01</totfact>
</mgrwt>
</event>
<event>
12    1  0.1489025E-007  0.1750320E+04  0.7818608E-02  0.8733174E-01
          1   -1    0    0  501    0  0.00000000000E+00  0.00000000000E+00  0.27716903881E+04  0.27716903881E+04  0.00000000000E+00 0. -1.
         -1   -1    0    0    0  501 -0.00000000000E+00 -0.00000000000E+00 -0.27633144548E+03  0.27633144548E+03  0.00000000000E+00 0.  1.
         23    2    1    2    0    0 -0.24786302409E+03  0.34326827557E+03  0.84459071988E+02  0.44119824153E+03  0.90848036636E+02 0.  0.
        254    2    1    2    0    0  0.24786302409E+03 -0.34326827557E+03  0.24108998706E+04  0.26068235920E+04  0.89656113349E+03 0.  0.
        -24    2    4    4    0    0  0.15394081344E+03  0.29468907761E+03  0.83575348745E+03  0.90285803753E+03  0.78289958743E+02 0.  0.
         24    2    4    4    0    0  0.93922210650E+02 -0.63795735318E+03  0.15751463832E+04  0.17039655545E+04  0.81249716282E+02 0.  0.
         13    1    3    3    0    0 -0.57259005812E+00  0.43372962917E+02 -0.22691106574E+00  0.43377335790E+02  0.00000000000E+00 0. -1.
        -13    1    3    3    0    0 -0.24729043403E+03  0.29989531265E+03  0.84685983054E+02  0.39782090574E+03  0.00000000000E+00 0.  1.
          2    1    6    6  502    0  0.18994879322E+02 -0.21728956397E+02  0.59875185745E+02  0.66467968635E+02  0.00000000000E+00 0. -1.
          1    1    5    5  503    0  0.59918674281E+02  0.65104942620E+02  0.29347907929E+03  0.30652711310E+03  0.00000000000E+00 0. -1.
         -4    1    5    5    0  503  0.94022139160E+02  0.22958413499E+03  0.54227440816E+03  0.59633092443E+03  0.00000000000E+00 0.  1.
         -1    1    6    6    0  502  0.74927331328E+02 -0.61622839678E+03  0.15152711974E+04  0.16374975859E+04  0.00000000000E+00 0.  1.
<mgrwt>
<rscale>  0 0.17503202E+04</rscale>
<asrwt>0</asrwt>
<pdfrwt beam="1">  1        1 0.42641389E+00 0.17503202E+04</pdfrwt>
<pdfrwt beam="2">  1       -1 0.42512532E-01 0.17503202E+04</pdfrwt>
<totfact> 0.45144380E+00</totfact>
</mgrwt>
</event>
<event>
12    1  0.1489025E-007  0.1828142E+04  0.7818608E-02  0.8691476E-01
         -1   -1    0    0    0  501 -0.00000000000E+00  0.00000000000E+00  0.79563277281E+03  0.79563277281E+03  0.00000000000E+00 0.  1.
          1   -1    0    0  501    0  0.00000000000E+00 -0.00000000000E+00 -0.10501397514E+04  0.10501397514E+04  0.00000000000E+00 0. -1.
         23    2    1    2    0    0 -0.12858653840E+03 -0.18592622140E+03 -0.75318012104E+03  0.79191943097E+03  0.93557644061E+02 0.  0.
        254    2    1    2    0    0  0.12858653840E+03  0.18592622140E+03  0.49867314243E+03  0.10538530933E+04  0.90046009435E+03 0.  0.
        -24    2    4    4    0    0 -0.24613853593E+03  0.39237689145E+03  0.14179247115E+03  0.49083341885E+03  0.79174089015E+02 0.  0.
         24    2    4    4    0    0  0.37472507433E+03 -0.20645067005E+03  0.35688067127E+03  0.56301967440E+03  0.81157746033E+02 0.  0.
         11    1    3    3    0    0 -0.12018018270E+03 -0.19287668266E+03 -0.74307992687E+03  0.77705371033E+03  0.00000000000E+00 0. -1.
        -11    1    3    3    0    0 -0.84063557002E+01  0.69504612584E+01 -0.10100194170E+02  0.14865720640E+02  0.00000000000E+00 0.  1.
          2    1    6    6  502    0  0.36990763439E+03 -0.18619219308E+03  0.33354314411E+03  0.53174262546E+03  0.00000000000E+00 0. -1.
          3    1    5    5  503    0 -0.56333751578E+02  0.40451810522E+02  0.30677670662E+02  0.75835084351E+02  0.00000000000E+00 0. -1.
         -4    1    5    5    0  503 -0.18980478435E+03  0.35192508093E+03  0.11111480049E+03  0.41499833450E+03  0.00000000000E+00 0.  1.
         -1    1    6    6    0  502  0.48174399382E+01 -0.20258476970E+02  0.23337527164E+02  0.31277048946E+02  0.00000000000E+00 0.  1.
<mgrwt>
<rscale>  0 0.18281418E+04</rscale>
<asrwt>0</asrwt>
<pdfrwt beam="1">  1        1 0.16155996E+00 0.18281418E+04</pdfrwt>
<pdfrwt beam="2">  1       -1 0.12240504E+00 0.18281418E+04</pdfrwt>
<totfact> 0.76795866E+00</totfact>
</mgrwt>
</event>
<event>
12    1  0.1489025E-007  0.2308306E+04  0.7818608E-02  0.8474653E-01
         -2   -1    0    0    0  501 -0.00000000000E+00  0.00000000000E+00  0.15353422483E+04  0.15353422483E+04  0.00000000000E+00 0.  1.
          2   -1    0    0  501    0  0.00000000000E+00 -0.00000000000E+00 -0.86760408946E+03  0.86760408946E+03  0.00000000000E+00 0. -1.
         23    2    1    2    0    0  0.29323017958E+03 -0.15769017932E+03 -0.67487377151E+03  0.75571425185E+03  0.69276923322E+02 0.  0.
        254    2    1    2    0    0 -0.29323017958E+03  0.15769017932E+03  0.13426119303E+04  0.16472320859E+04  0.89438057810E+03 0.  0.
        -24    2    4    4    0    0 -0.22945094490E+03  0.23018651177E+03  0.14462354971E+04  0.14844185228E+04  0.79168626649E+02 0.  0.
         24    2    4    4    0    0 -0.63779234675E+02 -0.72496332449E+02 -0.10362356679E+03  0.16281356308E+03  0.80292613205E+02 0.  0.
         11    1    3    3    0    0  0.14650897754E+03 -0.64187971868E+02 -0.39517054447E+03  0.42631530050E+03  0.00000000000E+00 0. -1.
        -11    1    3    3    0    0  0.14672120204E+03 -0.93502207455E+02 -0.27970322704E+03  0.32939895134E+03  0.00000000000E+00 0.  1.
          2    1    6    6  502    0  0.18491065051E+02 -0.52516982730E+01 -0.18302102590E+02  0.26541793095E+02  0.00000000000E+00 0. -1.
          1    1    5    5  503    0 -0.43525076234E+02  0.71069094841E+02  0.50815834648E+03  0.51494674832E+03  0.00000000000E+00 0. -1.
         -2    1    5    5    0  503 -0.18592586867E+03  0.15911741693E+03  0.93807715062E+03  0.96947177449E+03  0.00000000000E+00 0.  1.
         -1    1    6    6    0  502 -0.82270299726E+02 -0.67244634176E+02 -0.85321464199E+02  0.13627176999E+03  0.00000000000E+00 0.  1.
<mgrwt>
<rscale>  0 0.23083061E+04</rscale>
<asrwt>0</asrwt>
<pdfrwt beam="1">  1        2 0.13347755E+00 0.23083061E+04</pdfrwt>
<pdfrwt beam="2">  1       -2 0.23620650E+00 0.23083061E+04</pdfrwt>
<totfact> 0.21857388E+00</totfact>
</mgrwt>
</event>
<event>
12    1  0.1489025E-007  0.1300419E+04  0.7818608E-02  0.9029233E-01
          2   -1    0    0  501    0  0.00000000000E+00  0.00000000000E+00  0.39571450327E+03  0.39571450327E+03  0.00000000000E+00 0. -1.
         -2   -1    0    0    0  501 -0.00000000000E+00 -0.00000000000E+00 -0.10683778438E+04  0.10683778438E+04  0.00000000000E+00 0.  1.
         23    2    1    2    0    0  0.30900734174E+03 -0.76198751255E+02 -0.76660441825E+02  0.33952554312E+03  0.90049898102E+02 0.  0.
        254    2    1    2    0    0 -0.30900734174E+03  0.76198751255E+02 -0.59600289872E+03  0.11245668040E+04  0.89896565805E+03 0.  0.
        -24    2    4    4    0    0 -0.96677825784E+02 -0.40328524381E+03 -0.25835725581E+03  0.49505097257E+03  0.79632932529E+02 0.  0.
         24    2    4    4    0    0 -0.21232951596E+03  0.47948399506E+03 -0.33764564292E+03  0.62951583140E+03  0.85421759127E+02 0.  0.
         13    1    3    3    0    0  0.23684692804E+03 -0.35615180333E+02 -0.89619740823E+02  0.25572760183E+03  0.00000000000E+00 0. -1.
        -13    1    3    3    0    0  0.72160413707E+02 -0.40583570922E+02  0.12959298998E+02  0.83797941297E+02  0.00000000000E+00 0.  1.
          4    1    6    6  502    0  0.15899239287E+01 -0.27540200598E+01 -0.34486706246E-01  0.31802002959E+01  0.00000000000E+00 0. -1.
          1    1    5    5  503    0 -0.74316416182E+02 -0.23457679986E+03 -0.19308338015E+03  0.31277851020E+03  0.00000000000E+00 0. -1.
         -2    1    5    5    0  503 -0.22361409602E+02 -0.16870844394E+03 -0.65273875653E+02  0.18227246237E+03  0.00000000000E+00 0.  1.
         -3    1    6    6    0  502 -0.21391943989E+03  0.48223801512E+03 -0.33761115621E+03  0.62633563110E+03  0.00000000000E+00 0.  1.
<mgrwt>
<rscale>  0 0.13004193E+04</rscale>
<asrwt>0</asrwt>
<pdfrwt beam="1">  1        2 0.60879155E-01 0.13004193E+04</pdfrwt>
<pdfrwt beam="2">  1       -2 0.16436582E+00 0.13004193E+04</pdfrwt>
<totfact> 0.18438622E+01</totfact>
</mgrwt>
</event>
<event>
12    1  0.1489025E-007  0.2476429E+04  0.7818608E-02  0.8411431E-01
          1   -1    0    0  501    0  0.00000000000E+00  0.00000000000E+00  0.10286840390E+04  0.10286840390E+04  0.00000000000E+00 0.  1.
         -1   -1    0    0    0  501 -0.00000000000E+00 -0.00000000000E+00 -0.14904240629E+04  0.14904240629E+04  0.00000000000E+00 0. -1.
         23    2    1    2    0    0  0.10118933543E+04 -0.36172731893E+03 -0.67399809044E+02  0.10803802410E+04  0.88903976701E+02 0.  0.
        254    2    1    2    0    0 -0.10118933543E+04  0.36172731893E+03 -0.39434021479E+03  0.14387278609E+04  0.87158409743E+03 0.  0.
        -24    2    4    4    0    0 -0.48024847402E+03  0.55902201805E+03  0.19123579153E+01  0.74124585882E+03  0.79357120934E+02 0.  0.
         24    2    4    4    0    0 -0.53164488030E+03 -0.19729469912E+03 -0.39625257271E+03  0.69748200206E+03  0.88845735796E+02 0.  0.
         13    1    3    3    0    0  0.18006913037E+03 -0.46578119189E+02 -0.41026181985E+02  0.19046669134E+03  0.00000000000E+00 0. -1.
        -13    1    3    3    0    0  0.83182422395E+03 -0.31514919974E+03 -0.26373627059E+02  0.88991354965E+03  0.00000000000E+00 0.  1.
          4    1    6    6  502    0 -0.48783013327E+03 -0.15718567607E+03 -0.33584806061E+03  0.61276381706E+03  0.00000000000E+00 0. -1.
          3    1    5    5  503    0 -0.29319514012E+03  0.39476132292E+03 -0.12497949912E+02  0.49189032417E+03  0.00000000000E+00 0. -1.
         -4    1    5    5    0  503 -0.18705333390E+03  0.16426069513E+03  0.14410307827E+02  0.24935553465E+03  0.00000000000E+00 0.  1.
         -3    1    6    6    0  502 -0.43814747034E+02 -0.40109023042E+02 -0.60404512105E+02  0.84718185000E+02  0.00000000000E+00 0.  1.
<mgrwt>
<rscale>  0 0.24764292E+04</rscale>
<asrwt>0</asrwt>
<pdfrwt beam="1">  1        1 0.15825908E+00 0.24764292E+04</pdfrwt>
<pdfrwt beam="2">  1       -1 0.22929601E+00 0.24764292E+04</pdfrwt>
<totfact> 0.12207600E+00</totfact>
</mgrwt>
</event>
<event>
12    1  0.1489025E-007  0.1508024E+04  0.7818608E-02  0.8879134E-01
          2   -1    0    0  501    0  0.00000000000E+00  0.00000000000E+00  0.86335824117E+03  0.86335824117E+03  0.00000000000E+00 0. -1.
         -2   -1    0    0    0  501 -0.00000000000E+00 -0.00000000000E+00 -0.65851502703E+03  0.65851502703E+03  0.00000000000E+00 0.  1.
         23    2    1    2    0    0  0.17986904890E+03  0.15063680114E+03 -0.35206360193E+03  0.43341287412E+03  0.94093671637E+02 0.  0.
        254    2    1    2    0    0 -0.17986904890E+03 -0.15063680114E+03  0.55690681607E+03  0.10884603941E+04  0.90529360270E+03 0.  0.
        -24    2    4    4    0    0 -0.24226782594E+03 -0.32534383978E+02  0.77839461346E+03  0.81953225929E+03  0.77348329897E+02 0.  0.
         24    2    4    4    0    0  0.62398777042E+02 -0.11810241716E+03 -0.22148779739E+03  0.26892813478E+03  0.73645834711E+02 0.  0.
         11    1    3    3    0    0  0.34001887890E+02  0.36220801726E+02 -0.20914324172E+02  0.53902539953E+02  0.00000000000E+00 0. -1.
        -11    1    3    3    0    0  0.14586716101E+03  0.11441599941E+03 -0.33114927776E+03  0.37951033417E+03  0.00000000000E+00 0.  1.
          4    1    6    6  502    0  0.53907229122E+02 -0.28877909452E+02 -0.11024857039E+03  0.12607406664E+03  0.00000000000E+00 0. -1.
          1    1    5    5  503    0 -0.17646898519E+02 -0.26196080136E+02  0.10337409085E+03  0.10809186047E+03  0.00000000000E+00 0. -1.
         -2    1    5    5    0  503 -0.22462092742E+03 -0.63383038418E+01  0.67502052261E+03  0.71144039882E+03  0.00000000000E+00 0.  1.
         -3    1    6    6    0  502  0.84915479199E+01 -0.89224507708E+02 -0.11123922700E+03  0.14285406814E+03  0.00000000000E+00 0.  1.
<mgrwt>
<rscale>  0 0.15080244E+04</rscale>
<asrwt>0</asrwt>
<pdfrwt beam="1">  1        2 0.13282435E+00 0.15080244E+04</pdfrwt>
<pdfrwt beam="2">  1       -2 0.10131000E+00 0.15080244E+04</pdfrwt>
<totfact> 0.24027781E+01</totfact>
</mgrwt>
</event>
<event>
12    1  0.1489025E-007  0.1247706E+04  0.7818608E-02  0.9072094E-01
          1   -1    0    0  501    0  0.00000000000E+00  0.00000000000E+00  0.13292733151E+04  0.13292733151E+04  0.00000000000E+00 0. -1.
         -1   -1    0    0    0  501 -0.00000000000E+00 -0.00000000000E+00 -0.29278613144E+03  0.29278613144E+03  0.00000000000E+00 0.  1.
         23    2    1    2    0    0 -0.53941309453E+02  0.16353352672E+03 -0.72153949171E+02  0.21414036065E+03  0.10486668896E+03 0.  0.
        254    2    1    2    0    0  0.53941309453E+02 -0.16353352672E+03  0.11086411328E+04  0.14079190859E+04  0.85058692195E+03 0.  0.
        -24    2    4    4    0    0 -0.31438604936E+03 -0.29394742586E+03  0.39422703006E+03  0.58962629264E+03  0.83669209052E+02 0.  0.
         24    2    4    4    0    0  0.36832735881E+03  0.13041389914E+03  0.71441410278E+03  0.81829279326E+03  0.80887309887E+02 0.  0.
         11    1    3    3    0    0 -0.18349849141E+02  0.10649324360E+03  0.93707184419E+01  0.10846814399E+03  0.00000000000E+00 0. -1.
        -11    1    3    3    0    0 -0.35591460312E+02  0.57040283120E+02 -0.81524667613E+02  0.10567221667E+03  0.00000000000E+00 0.  1.
          4    1    6    6  502    0  0.32408489346E+02 -0.10732477148E+02  0.50338467569E+02  0.60823166348E+02  0.00000000000E+00 0. -1.
          3    1    5    5  503    0 -0.70455899840E+02 -0.11303403310E+03  0.97802141148E+02  0.16524522769E+03  0.00000000000E+00 0. -1.
         -4    1    5    5    0  503 -0.24393014952E+03 -0.18091339277E+03  0.29642488891E+03  0.42438106495E+03  0.00000000000E+00 0.  1.
         -3    1    6    6    0  502  0.33591886947E+03  0.14114637629E+03  0.66407563522E+03  0.75746962691E+03  0.00000000000E+00 0.  1.
<mgrwt>
<rscale>  0 0.12477064E+04</rscale>
<asrwt>0</asrwt>
<pdfrwt beam="1">  1        1 0.20450358E+00 0.12477064E+04</pdfrwt>
<pdfrwt beam="2">  1       -1 0.45044021E-01 0.12477064E+04</pdfrwt>
<totfact> 0.41553238E+01</totfact>
</mgrwt>
</event>
<event>
12    1  0.1489025E-007  0.2069932E+04  0.7818608E-02  0.8574605E-01
         -1   -1    0    0    0  501 -0.00000000000E+00  0.00000000000E+00  0.71048723572E+03  0.71048723572E+03  0.00000000000E+00 0.  1.
          1   -1    0    0  501    0  0.00000000000E+00 -0.00000000000E+00 -0.15076345957E+04  0.15076345957E+04  0.00000000000E+00 0. -1.
         23    2    1    2    0    0  0.24217007946E+03 -0.36879607070E+03  0.43929441717E+03  0.62948301223E+03  0.92802955637E+02 0.  0.
        254    2    1    2    0    0 -0.24217007946E+03  0.36879607070E+03 -0.12364417772E+04  0.15886388192E+04  0.89461060826E+03 0.  0.
        -24    2    4    4    0    0 -0.31169505181E+03  0.47644723131E+03 -0.31629627679E+03  0.65620839109E+03  0.80064650637E+02 0.  0.
         24    2    4    4    0    0  0.69524972344E+02 -0.10765116060E+03 -0.92014550036E+03  0.93243042810E+03  0.79600673754E+02 0.  0.
         13    1    3    3    0    0  0.19081694003E+02 -0.34146059937E+02  0.83155784084E+01  0.39990165035E+02  0.00000000000E+00 0. -1.
        -13    1    3    3    0    0  0.22308838546E+03 -0.33465001077E+03  0.43097883876E+03  0.58949284719E+03  0.00000000000E+00 0.  1.
          2    1    6    6  502    0  0.18908695246E+02 -0.89952631466E+02 -0.69144774777E+03  0.69753064633E+03  0.00000000000E+00 0. -1.
          3    1    5    5  503    0 -0.24303829181E+03  0.41140502389E+03 -0.24011688166E+03  0.53476894246E+03  0.00000000000E+00 0. -1.
         -4    1    5    5    0  503 -0.68656760001E+02  0.65042207419E+02 -0.76179395136E+02  0.12143944863E+03  0.00000000000E+00 0.  1.
         -1    1    6    6    0  502  0.50616277098E+02 -0.17698529138E+02 -0.22869775259E+03  0.23489978178E+03  0.00000000000E+00 0.  1.
<mgrwt>
<rscale>  0 0.20699325E+04</rscale>
<asrwt>0</asrwt>
<pdfrwt beam="1">  1        1 0.23194378E+00 0.20699325E+04</pdfrwt>
<pdfrwt beam="2">  1       -1 0.10930573E+00 0.20699325E+04</pdfrwt>
<totfact> 0.46161320E+00</totfact>
</mgrwt>
</event>
<event>
12    1  0.1489025E-007  0.2005609E+04  0.7818608E-02  0.8604003E-01
          2   -1    0    0  501    0  0.00000000000E+00  0.00000000000E+00  0.15249417297E+04  0.15249417297E+04  0.00000000000E+00 0. -1.
         -2   -1    0    0    0  501 -0.00000000000E+00 -0.00000000000E+00 -0.65944631139E+03  0.65944631139E+03  0.00000000000E+00 0.  1.
         23    2    1    2    0    0 -0.45979146315E+03 -0.53789853995E+03 -0.40207179625E+02  0.71430875138E+03  0.88754414796E+02 0.  0.
        254    2    1    2    0    0  0.45979146315E+03  0.53789853995E+03  0.90570259795E+03  0.14700792897E+04  0.91656581504E+03 0.  0.
        -24    2    4    4    0    0  0.70716654835E+03  0.34862647094E+03  0.44618017877E+03  0.90969813715E+03  0.82758718424E+02 0.  0.
         24    2    4    4    0    0 -0.24737508520E+03  0.18927206901E+03  0.45952241918E+03  0.56038115258E+03  0.76471128889E+02 0.  0.
         11    1    3    3    0    0 -0.24693226267E+03 -0.28631526975E+03 -0.65774435819E+02  0.38376848809E+03  0.00000000000E+00 0. -1.
        -11    1    3    3    0    0 -0.21285920048E+03 -0.25158327019E+03  0.25567256194E+02  0.33054026330E+03  0.00000000000E+00 0.  1.
          4    1    6    6  502    0 -0.24852126263E+03  0.18817656634E+03  0.46206523080E+03  0.55738453119E+03  0.00000000000E+00 0. -1.
          1    1    5    5  503    0  0.58559642997E+03  0.25561240281E+03  0.34417927932E+03  0.72575495560E+03  0.00000000000E+00 0. -1.
         -2    1    5    5    0  503  0.12157011837E+03  0.93014068125E+02  0.10200089945E+03  0.18394318155E+03  0.00000000000E+00 0.  1.
         -3    1    6    6    0  502  0.11461774372E+01  0.10955026757E+01 -0.25428116171E+01  0.29966213891E+01  0.00000000000E+00 0.  1.
<mgrwt>
<rscale>  0 0.20056093E+04</rscale>
<asrwt>0</asrwt>
<pdfrwt beam="1">  1        2 0.23460642E+00 0.20056093E+04</pdfrwt>
<pdfrwt beam="2">  1       -2 0.10145328E+00 0.20056093E+04</pdfrwt>
<totfact> 0.91090463E+00</totfact>
</mgrwt>
</event>
<event>
12    1  0.1489025E-007  0.2073503E+04  0.7818608E-02  0.8573006E-01
          1   -1    0    0  501    0  0.00000000000E+00  0.00000000000E+00  0.25169599100E+04  0.25169599100E+04  0.00000000000E+00 0. -1.
         -1   -1    0    0    0  501 -0.00000000000E+00 -0.00000000000E+00 -0.42704432435E+03  0.42704432435E+03  0.00000000000E+00 0.  1.
         23    2    1    2    0    0 -0.56415186440E+03  0.19810038787E+03  0.96987927442E+01  0.60488836612E+03  0.91020761959E+02 0.  0.
        254    2    1    2    0    0  0.56415186440E+03 -0.19810038787E+03  0.20802167929E+04  0.23391158683E+04  0.88693294548E+03 0.  0.
        -24    2    4    4    0    0 -0.33364207727E+02  0.25296644380E+03  0.27414097831E+03  0.38244024845E+03  0.77473063735E+02 0.  0.
         24    2    4    4    0    0  0.59751607213E+03 -0.45106683167E+03  0.18060758146E+04  0.19566756198E+04  0.78631354371E+02 0.  0.
         13    1    3    3    0    0 -0.20415764378E+03  0.89859296357E+02 -0.36922366503E+02  0.22609355985E+03  0.00000000000E+00 0. -1.
        -13    1    3    3    0    0 -0.35999422061E+03  0.10824109151E+03  0.46621159247E+02  0.37879480627E+03  0.00000000000E+00 0.  1.
          2    1    6    6  502    0  0.98393825893E+01 -0.19239118941E+02  0.32610722638E+02  0.39120536529E+02  0.00000000000E+00 0. -1.
          3    1    5    5  503    0  0.87187801901E+00  0.19394751041E+03  0.23138935237E+03  0.30192288644E+03  0.00000000000E+00 0. -1.
         -4    1    5    5    0  503 -0.34236085746E+02  0.59018933393E+02  0.42751625940E+02  0.80517362019E+02  0.00000000000E+00 0.  1.
         -1    1    6    6    0  502  0.58767668954E+03 -0.43182771273E+03  0.17734650920E+04  0.19175550833E+04  0.00000000000E+00 0.  1.
<mgrwt>
<rscale>  0 0.20735028E+04</rscale>
<asrwt>0</asrwt>
<pdfrwt beam="1">  1        1 0.38722459E+00 0.20735028E+04</pdfrwt>
<pdfrwt beam="2">  1       -1 0.65699128E-01 0.20735028E+04</pdfrwt>
<totfact> 0.28549915E+00</totfact>
</mgrwt>
</event>
<event>
12    1  0.1489025E-007  0.1498748E+04  0.7818608E-02  0.8885286E-01
         -4   -1    0    0    0  501 -0.00000000000E+00  0.00000000000E+00  0.88638226433E+03  0.88638226433E+03  0.00000000000E+00 0.  1.
          4   -1    0    0  501    0  0.00000000000E+00 -0.00000000000E+00 -0.63354346052E+03  0.63354346052E+03  0.00000000000E+00 0. -1.
         23    2    1    2    0    0 -0.21289387408E+03 -0.30992297087E+03 -0.20841825565E+03  0.43928462788E+03  0.90314813345E+02 0.  0.
        254    2    1    2    0    0  0.21289387408E+03  0.30992297087E+03  0.46125705947E+03  0.10806410970E+04  0.90202608390E+03 0.  0.
        -24    2    4    4    0    0  0.47876537027E+02  0.11594627942E+03 -0.26613795149E+03  0.30483214261E+03  0.79734079515E+02 0.  0.
         24    2    4    4    0    0  0.16501733706E+03  0.19397669145E+03  0.72739501097E+03  0.77580895435E+03  0.88985129770E+02 0.  0.
         11    1    3    3    0    0 -0.63303021369E+02 -0.82119544776E+02 -0.10563215851E+03  0.14801704314E+03  0.00000000000E+00 0.  1.
        -11    1    3    3    0    0 -0.14959085272E+03 -0.22780342610E+03 -0.10278609715E+03  0.29126758475E+03  0.00000000000E+00 0. -1.
          2    1    6    6  502    0  0.17153591283E+03  0.19525454037E+03  0.68044904392E+03  0.72839536400E+03  0.00000000000E+00 0. -1.
          3    1    5    5  503    0  0.38860309322E+02  0.53665292290E+02 -0.21101759821E+03  0.22117530149E+03  0.00000000000E+00 0. -1.
         -4    1    5    5    0  503  0.90162277044E+01  0.62280987131E+02 -0.55120353288E+02  0.83656841122E+02  0.00000000000E+00 0.  1.
         -1    1    6    6    0  502 -0.65185757768E+01 -0.12778489232E+01  0.46945967049E+02  0.47413590353E+02  0.00000000000E+00 0.  1.
<mgrwt>
<rscale>  0 0.14987484E+04</rscale>
<asrwt>0</asrwt>
<pdfrwt beam="1">  1        4 0.97468224E-01 0.14987484E+04</pdfrwt>
<pdfrwt beam="2">  1       -4 0.13636650E+00 0.14987484E+04</pdfrwt>
<totfact> 0.64890364E-01</totfact>
</mgrwt>
</event>
<event>
12    1  0.1489025E-007  0.1491938E+04  0.7818608E-02  0.8889832E-01
         -1   -1    0    0    0  501 -0.00000000000E+00  0.00000000000E+00  0.15425410254E+04  0.15425410254E+04  0.00000000000E+00 0.  1.
          1   -1    0    0  501    0  0.00000000000E+00 -0.00000000000E+00 -0.36074893851E+03  0.36074893851E+03  0.00000000000E+00 0. -1.
         23    2    1    2    0    0 -0.29218800349E+03 -0.31799071972E+03  0.61108712135E+03  0.75357394132E+03  0.89186814844E+02 0.  0.
        254    2    1    2    0    0  0.29218800349E+03  0.31799071972E+03  0.57070496551E+03  0.11497160226E+04  0.89980600557E+03 0.  0.
        -24    2    4    4    0    0  0.26281189463E+02  0.17905354126E+03  0.76054831335E+03  0.78575180195E+03  0.78875127738E+02 0.  0.
         24    2    4    4    0    0  0.26590681403E+03  0.13893717845E+03 -0.18984334784E+03  0.36396422060E+03  0.80121681534E+02 0.  0.
         11    1    3    3    0    0 -0.13915464748E+03 -0.87786359816E+02  0.22783484392E+03  0.28103234153E+03  0.00000000000E+00 0. -1.
        -11    1    3    3    0    0 -0.15303335602E+03 -0.23020435990E+03  0.38325227743E+03  0.47254159978E+03  0.00000000000E+00 0.  1.
          2    1    6    6  502    0  0.11399822621E+02 -0.12237801158E+01  0.66082278794E+01  0.13233377092E+02  0.00000000000E+00 0. -1.
          1    1    5    5  503    0  0.46878655042E+01  0.51642391696E+02  0.99615085809E+02  0.11230350851E+03  0.00000000000E+00 0. -1.
         -2    1    5    5    0  503  0.21593323959E+02  0.12741114957E+03  0.66093322754E+03  0.67344829344E+03  0.00000000000E+00 0.  1.
         -1    1    6    6    0  502  0.25450699141E+03  0.14016095857E+03 -0.19645157572E+03  0.35073084351E+03  0.00000000000E+00 0.  1.
<mgrwt>
<rscale>  0 0.14919384E+04</rscale>
<asrwt>0</asrwt>
<pdfrwt beam="1">  1        1 0.55499837E-01 0.14919384E+04</pdfrwt>
<pdfrwt beam="2">  1       -1 0.23731400E+00 0.14919384E+04</pdfrwt>
<totfact> 0.56268348E+00</totfact>
</mgrwt>
</event>
<event>
12    1  0.1489025E-007  0.1902154E+04  0.7818608E-02  0.8653785E-01
         -2   -1    0    0    0  501 -0.00000000000E+00  0.00000000000E+00  0.11627650587E+04  0.11627650587E+04  0.00000000000E+00 0.  1.
          2   -1    0    0  501    0  0.00000000000E+00 -0.00000000000E+00 -0.77792816957E+03  0.77792816957E+03  0.00000000000E+00 0. -1.
         23    2    1    2    0    0  0.64317584314E+03  0.20961945712E+03 -0.14033375378E+03  0.69736501452E+03  0.94915325578E+02 0.  0.
        254    2    1    2    0    0 -0.64317584314E+03 -0.20961945712E+03  0.52517064287E+03  0.12433282137E+04  0.90135751004E+03 0.  0.
        -24    2    4    4    0    0 -0.40196504323E+03 -0.55395595516E+03  0.40307699263E+03  0.79832864544E+03  0.80090373367E+02 0.  0.
         24    2    4    4    0    0 -0.24121079991E+03  0.34433649804E+03  0.12209365024E+03  0.44499956828E+03  0.79796506602E+02 0.  0.
         13    1    3    3    0    0  0.60808587384E+03  0.19118029505E+03 -0.15339621187E+03  0.65562850227E+03  0.00000000000E+00 0.  1.
        -13    1    3    3    0    0  0.35089969297E+02  0.18439162070E+02  0.13062458090E+02  0.41736512246E+02  0.00000000000E+00 0. -1.
          2    1    6    6  502    0 -0.58281740457E+02  0.33659820198E+02  0.15944684338E+02  0.69166304839E+02  0.00000000000E+00 0. -1.
          1    1    5    5  503    0 -0.54802694269E+02 -0.40224859994E+02  0.26934409546E+02  0.73122069707E+02  0.00000000000E+00 0. -1.
         -2    1    5    5    0  503 -0.34716234896E+03 -0.51373109516E+03  0.37614258309E+03  0.72520657573E+03  0.00000000000E+00 0.  1.
         -1    1    6    6    0  502 -0.18292905945E+03  0.31067667784E+03  0.10614896590E+03  0.37583326345E+03  0.00000000000E+00 0.  1.
<mgrwt>
<rscale>  0 0.19021542E+04</rscale>
<asrwt>0</asrwt>
<pdfrwt beam="1">  1        2 0.11968126E+00 0.19021542E+04</pdfrwt>
<pdfrwt beam="2">  1       -2 0.17888693E+00 0.19021542E+04</pdfrwt>
<totfact> 0.61750794E+00</totfact>
</mgrwt>
</event>
<event>
12    1  0.1489025E-007  0.1448430E+04  0.7818608E-02  0.8919490E-01
         -2   -1    0    0    0  501 -0.00000000000E+00  0.00000000000E+00  0.42858461670E+03  0.42858461670E+03  0.00000000000E+00 0.  1.
          2   -1    0    0  501    0  0.00000000000E+00 -0.00000000000E+00 -0.12237657719E+04  0.12237657719E+04  0.00000000000E+00 0. -1.
         23    2    1    2    0    0 -0.33709240369E+03  0.18301362426E+03 -0.48594862978E+03  0.62587343205E+03  0.91903247380E+02 0.  0.
        254    2    1    2    0    0  0.33709240369E+03 -0.18301362426E+03 -0.30923252542E+03  0.10264769565E+04  0.90050258870E+03 0.  0.
        -24    2    4    4    0    0 -0.30363444615E+03 -0.50097936513E+02 -0.13271975488E+03  0.34426938364E+03  0.78760364672E+02 0.  0.
         24    2    4    4    0    0  0.64072684984E+03 -0.13291568774E+03 -0.17651277054E+03  0.68220757291E+03  0.77800631239E+02 0.  0.
         13    1    3    3    0    0 -0.52418832668E+01  0.14684693661E+02 -0.24765821541E+01  0.15787685938E+02  0.00000000000E+00 0.  1.
        -13    1    3    3    0    0 -0.33185052042E+03  0.16832893060E+03 -0.48347204763E+03  0.61008574612E+03  0.00000000000E+00 0. -1.
          4    1    6    6  502    0  0.14641245811E+03  0.13259802862E+01 -0.48404254744E+02  0.15421199042E+03  0.00000000000E+00 0. -1.
          1    1    5    5  503    0 -0.66484243623E+02 -0.38993279698E+02 -0.54150364651E+02  0.94196032314E+02  0.00000000000E+00 0. -1.
         -2    1    5    5    0  503 -0.23715020253E+03 -0.11104656815E+02 -0.78569390227E+02  0.25007335132E+03  0.00000000000E+00 0.  1.
         -3    1    6    6    0  502  0.49431439173E+03 -0.13424166803E+03 -0.12810851579E+03  0.52799558249E+03  0.00000000000E+00 0.  1.
<mgrwt>
<rscale>  0 0.14484297E+04</rscale>
<asrwt>0</asrwt>
<pdfrwt beam="1">  1        2 0.18827166E+00 0.14484297E+04</pdfrwt>
<pdfrwt beam="2">  1       -2 0.65936095E-01 0.14484297E+04</pdfrwt>
<totfact> 0.37640617E+01</totfact>
</mgrwt>
</event>
<event>
12    1  0.1489025E-007  0.1340949E+04  0.7818608E-02  0.8997708E-01
          2   -1    0    0  501    0  0.00000000000E+00  0.00000000000E+00  0.21253755831E+04  0.21253755831E+04  0.00000000000E+00 0. -1.
         -2   -1    0    0    0  501 -0.00000000000E+00 -0.00000000000E+00 -0.21150894935E+03  0.21150894935E+03  0.00000000000E+00 0.  1.
         23    2    1    2    0    0  0.29790057484E+03 -0.20174373755E+03  0.54789786411E+03  0.66166673555E+03  0.90363218784E+02 0.  0.
        254    2    1    2    0    0 -0.29790057484E+03  0.20174373755E+03  0.13659687697E+04  0.16752177969E+04  0.90057687031E+03 0.  0.
        -24    2    4    4    0    0  0.27505754760E+03  0.11529353514E+02  0.16892870218E+03  0.33212256133E+03  0.77323404248E+02 0.  0.
         24    2    4    4    0    0 -0.57295812243E+03  0.19021438404E+03  0.11970400675E+04  0.13430952356E+04  0.80853984177E+02 0.  0.
         13    1    3    3    0    0  0.29749296425E+03 -0.19283536927E+03  0.49992691672E+03  0.61287393931E+03  0.00000000000E+00 0. -1.
        -13    1    3    3    0    0  0.40761058215E+00 -0.89083682847E+01  0.47970947382E+02  0.48792796236E+02  0.00000000000E+00 0.  1.
          4    1    6    6  502    0 -0.41204432015E+03  0.11664119526E+03  0.77451830404E+03  0.88502219943E+03  0.00000000000E+00 0. -1.
          3    1    5    5  503    0  0.24183275867E+03 -0.16050169579E+02  0.13686050558E+03  0.27833700633E+03  0.00000000000E+00 0. -1.
         -4    1    5    5    0  503  0.33224788932E+02  0.27579523092E+02  0.32068196598E+02  0.53785555000E+02  0.00000000000E+00 0.  1.
         -3    1    6    6    0  502 -0.16091380229E+03  0.73573188780E+02  0.42252176347E+03  0.45807303619E+03  0.00000000000E+00 0.  1.
<mgrwt>
<rscale>  0 0.13409489E+04</rscale>
<asrwt>0</asrwt>
<pdfrwt beam="1">  1        2 0.32698084E+00 0.13409489E+04</pdfrwt>
<pdfrwt beam="2">  1       -2 0.32539840E-01 0.13409489E+04</pdfrwt>
<totfact> 0.48988960E+01</totfact>
</mgrwt>
</event>
<event>
12    1  0.1489025E-007  0.2384245E+04  0.7818608E-02  0.8445426E-01
          1   -1    0    0  501    0  0.00000000000E+00  0.00000000000E+00  0.22361398310E+04  0.22361398310E+04  0.00000000000E+00 0. -1.
         -1   -1    0    0    0  501 -0.00000000000E+00 -0.00000000000E+00 -0.63553964224E+03  0.63553964224E+03  0.00000000000E+00 0.  1.
         23    2    1    2    0    0  0.86438552577E+03 -0.22026737429E+03  0.12986840458E+04  0.15772837205E+04  0.74589749224E+02 0.  0.
        254    2    1    2    0    0 -0.86438552577E+03  0.22026737429E+03  0.30191614298E+03  0.12943957528E+04  0.88804670717E+03 0.  0.
        -24    2    4    4    0    0 -0.51891334363E+03  0.55752734741E+03  0.22714014468E+03  0.79936847154E+03  0.85378607738E+02 0.  0.
         24    2    4    4    0    0 -0.34547218214E+03 -0.33725997312E+03  0.74775998304E+02  0.49502728126E+03  0.79782461515E+02 0.  0.
         13    1    3    3    0    0  0.10312003669E+03 -0.48388008884E+01  0.13035892319E+03  0.16628471011E+03  0.00000000000E+00 0.  1.
        -13    1    3    3    0    0  0.76126548909E+03 -0.21542857340E+03  0.11683251226E+04  0.14109990103E+04  0.00000000000E+00 0. -1.
          2    1    6    6  502    0 -0.23637493345E+03 -0.19148758791E+03  0.73448272371E+02  0.31294608833E+03  0.00000000000E+00 0. -1.
          3    1    5    5  503    0 -0.40176366752E+03  0.41742333729E+03  0.13529787284E+03  0.59494688961E+03  0.00000000000E+00 0. -1.
         -2    1    5    5    0  503 -0.11714967611E+03  0.14010401011E+03  0.91842271842E+02  0.20442158193E+03  0.00000000000E+00 0.  1.
         -1    1    6    6    0  502 -0.10909724869E+03 -0.14577238521E+03  0.13277259330E+01  0.18208119292E+03  0.00000000000E+00 0.  1.
<mgrwt>
<rscale>  0 0.23842445E+04</rscale>
<asrwt>0</asrwt>
<pdfrwt beam="1">  1        1 0.34402151E+00 0.23842445E+04</pdfrwt>
<pdfrwt beam="2">  1       -1 0.97775330E-01 0.23842445E+04</pdfrwt>
<totfact> 0.18525380E+00</totfact>
</mgrwt>
</event>
<event>
12    1  0.1489025E-007  0.3012780E+04  0.7818608E-02  0.8240091E-01
          1   -1    0    0  501    0  0.00000000000E+00  0.00000000000E+00  0.25440525713E+04  0.25440525713E+04  0.00000000000E+00 0. -1.
         -1   -1    0    0    0  501 -0.00000000000E+00 -0.00000000000E+00 -0.89196708759E+03  0.89196708759E+03  0.00000000000E+00 0.  1.
         23    2    1    2    0    0 -0.34464685123E+03 -0.90788943092E+03 -0.33601424562E+03  0.10311979791E+04  0.86133779288E+02 0.  0.
        254    2    1    2    0    0  0.34464685123E+03  0.90788943092E+03  0.19880997293E+04  0.24048216798E+04  0.94211576101E+03 0.  0.
        -24    2    4    4    0    0  0.46413712344E+03  0.41157036074E+03  0.17041212607E+04  0.18152288164E+04  0.78822290345E+02 0.  0.
         24    2    4    4    0    0 -0.11949027221E+03  0.49631907017E+03  0.28397846858E+03  0.58959286340E+03  0.79783641075E+02 0.  0.
         13    1    3    3    0    0 -0.29690559404E+03 -0.75346360853E+03 -0.31158902657E+03  0.86772579922E+03  0.00000000000E+00 0.  1.
        -13    1    3    3    0    0 -0.47741257192E+02 -0.15442582239E+03 -0.24425219050E+02  0.16347217985E+03  0.00000000000E+00 0. -1.
          2    1    6    6  502    0 -0.12353001707E+03  0.44439593698E+03  0.23316269784E+03  0.51682904096E+03  0.00000000000E+00 0. -1.
          3    1    5    5  503    0  0.26149752648E+03  0.20929859967E+03  0.81491617947E+03  0.88106483288E+03  0.00000000000E+00 0. -1.
         -4    1    5    5    0  503  0.20263959697E+03  0.20227176107E+03  0.88920508125E+03  0.93416398352E+03  0.00000000000E+00 0.  1.
         -1    1    6    6    0  502  0.40397448573E+01  0.51923133196E+02  0.50815770746E+02  0.72763822439E+02  0.00000000000E+00 0.  1.
<mgrwt>
<rscale>  0 0.30127802E+04</rscale>
<asrwt>0</asrwt>
<pdfrwt beam="1">  1        1 0.39139270E+00 0.30127802E+04</pdfrwt>
<pdfrwt beam="2">  1       -1 0.13722571E+00 0.30127802E+04</pdfrwt>
<totfact> 0.47377032E-01</totfact>
</mgrwt>
</event>
<event>
12    1  0.1489025E-007  0.1282137E+04  0.7818608E-02  0.9043852E-01
         -1   -1    0    0    0  501 -0.00000000000E+00  0.00000000000E+00  0.27377416398E+03  0.27377416398E+03  0.00000000000E+00 0.  1.
          1   -1    0    0  501    0  0.00000000000E+00 -0.00000000000E+00 -0.15011231752E+04  0.15011231752E+04  0.00000000000E+00 0. -1.
         23    2    1    2    0    0 -0.11962956910E+03 -0.28078768435E+02  0.90177350855E+02  0.17848565669E+03  0.92873699158E+02 0.  0.
        254    2    1    2    0    0  0.11962956910E+03  0.28078768435E+02 -0.13175263621E+04  0.15964116825E+04  0.89305928930E+03 0.  0.
        -24    2    4    4    0    0  0.48701989844E+03  0.83342537173E+02 -0.91083748127E+03  0.10397447614E+04  0.85497903565E+02 0.  0.
         24    2    4    4    0    0 -0.36739032933E+03 -0.55263768738E+02 -0.40668888079E+03  0.55666692112E+03  0.80327312225E+02 0.  0.
         13    1    3    3    0    0 -0.25487672062E+02 -0.88589358574E+01 -0.19035836962E+02  0.33022193454E+02  0.00000000000E+00 0. -1.
        -13    1    3    3    0    0 -0.94141897040E+02 -0.19219832578E+02  0.10921318782E+03  0.14546346323E+03  0.00000000000E+00 0.  1.
          4    1    6    6  502    0 -0.24406859958E+03 -0.44085518064E+02 -0.32288873937E+03  0.40714880844E+03  0.00000000000E+00 0. -1.
          1    1    5    5  503    0  0.39352774600E+03  0.47273208980E+02 -0.66340480237E+03  0.77279025289E+03  0.00000000000E+00 0. -1.
         -2    1    5    5    0  503  0.93492152439E+02  0.36069328194E+02 -0.24743267890E+03  0.26695450847E+03  0.00000000000E+00 0.  1.
         -3    1    6    6    0  502 -0.12332172975E+03 -0.11178250674E+02 -0.83800141423E+02  0.14951811268E+03  0.00000000000E+00 0.  1.
<mgrwt>
<rscale>  0 0.12821369E+04</rscale>
<asrwt>0</asrwt>
<pdfrwt beam="1">  1        1 0.23094203E+00 0.12821369E+04</pdfrwt>
<pdfrwt beam="2">  1       -1 0.42119102E-01 0.12821369E+04</pdfrwt>
<totfact> 0.35576203E+01</totfact>
</mgrwt>
</event>
<event>
12    1  0.1489025E-007  0.1703434E+04  0.7818608E-02  0.8759408E-01
         -2   -1    0    0    0  501 -0.00000000000E+00  0.00000000000E+00  0.49192906966E+03  0.49192906966E+03  0.00000000000E+00 0.  1.
          2   -1    0    0  501    0  0.00000000000E+00 -0.00000000000E+00 -0.14746476209E+04  0.14746476209E+04  0.00000000000E+00 0. -1.
         23    2    1    2    0    0  0.42492087424E+03 -0.11774921266E+03 -0.84187266922E+03  0.95475126265E+03  0.91530081966E+02 0.  0.
        254    2    1    2    0    0 -0.42492087424E+03  0.11774921266E+03 -0.14084588205E+03  0.10118254279E+04  0.89973913313E+03 0.  0.
        -24    2    4    4    0    0 -0.15498180891E+03  0.10935869582E+03 -0.50858508821E+03  0.54884971995E+03  0.81231383705E+02 0.  0.
         24    2    4    4    0    0 -0.26993906532E+03  0.83905168432E+01  0.36773920616E+03  0.46297570798E+03  0.78593146493E+02 0.  0.
         11    1    3    3    0    0  0.41191603955E+03 -0.10509118503E+03 -0.83144686441E+03  0.93382164739E+03  0.00000000000E+00 0. -1.
        -11    1    3    3    0    0  0.13004834688E+02 -0.12658027630E+02 -0.10425804816E+02  0.20929615257E+02  0.00000000000E+00 0.  1.
          4    1    6    6  502    0 -0.14014693960E+03 -0.82793368835E+01  0.12866819942E+03  0.19043428694E+03  0.00000000000E+00 0. -1.
          3    1    5    5  503    0 -0.75244928053E+02  0.58183979095E+02 -0.36217837012E+03  0.37446007317E+03  0.00000000000E+00 0. -1.
         -4    1    5    5    0  503 -0.79736880861E+02  0.51174716725E+02 -0.14640671809E+03  0.17438964678E+03  0.00000000000E+00 0.  1.
         -3    1    6    6    0  502 -0.12979212572E+03  0.16669853727E+02  0.23907100674E+03  0.27254142105E+03  0.00000000000E+00 0.  1.
<mgrwt>
<rscale>  0 0.17034342E+04</rscale>
<asrwt>0</asrwt>
<pdfrwt beam="1">  1        2 0.22686887E+00 0.17034342E+04</pdfrwt>
<pdfrwt beam="2">  1       -2 0.75681395E-01 0.17034342E+04</pdfrwt>
<totfact> 0.19533278E+01</totfact>
</mgrwt>
</event>
<event>
12    1  0.1489025E-007  0.2290257E+04  0.7818608E-02  0.8481773E-01
         -2   -1    0    0    0  501 -0.00000000000E+00  0.00000000000E+00  0.10042651179E+04  0.10042651179E+04  0.00000000000E+00 0.  1.
          2   -1    0    0  501    0  0.00000000000E+00 -0.00000000000E+00 -0.13057495630E+04  0.13057495630E+04  0.00000000000E+00 0. -1.
         23    2    1    2    0    0 -0.43835401954E+03  0.15297454208E+03 -0.98143839044E+03  0.10895076471E+04  0.90830291215E+02 0.  0.
        254    2    1    2    0    0  0.43835401954E+03 -0.15297454208E+03  0.67995394527E+03  0.12205070339E+04  0.90096869815E+03 0.  0.
        -24    2    4    4    0    0 -0.18938057705E+03  0.37851099402E+02  0.49199348353E+03  0.53447342205E+03  0.79413741611E+02 0.  0.
         24    2    4    4    0    0  0.62773459659E+03 -0.19082564148E+03  0.18796046175E+03  0.68603361181E+03  0.69626375412E+02 0.  0.
         13    1    3    3    0    0 -0.37387525281E+03  0.15862262000E+03 -0.80668124246E+03  0.90314919431E+03  0.00000000000E+00 0. -1.
        -13    1    3    3    0    0 -0.64478766736E+02 -0.56480779173E+01 -0.17475714798E+03  0.18635845275E+03  0.00000000000E+00 0.  1.
          4    1    6    6  502    0  0.94871589608E+02 -0.83976182893E+01  0.12197491542E+02  0.96020400476E+02  0.00000000000E+00 0. -1.
          3    1    5    5  503    0 -0.15288948723E+03  0.53645724997E+02  0.32946346306E+03  0.36715014994E+03  0.00000000000E+00 0. -1.
         -4    1    5    5    0  503 -0.36491089817E+02 -0.15794625595E+02  0.16253002047E+03  0.16732327210E+03  0.00000000000E+00 0.  1.
         -1    1    6    6    0  502  0.53286300698E+03 -0.18242802319E+03  0.17576297020E+03  0.59001321134E+03  0.00000000000E+00 0.  1.
<mgrwt>
<rscale>  0 0.22902565E+04</rscale>
<asrwt>0</asrwt>
<pdfrwt beam="1">  1        2 0.20088455E+00 0.22902565E+04</pdfrwt>
<pdfrwt beam="2">  1       -2 0.15450233E+00 0.22902565E+04</pdfrwt>
<totfact> 0.41219308E+00</totfact>
</mgrwt>
</event>
<event>
12    1  0.1489025E-007  0.2055889E+04  0.7818608E-02  0.8580927E-01
          1   -1    0    0  501    0  0.00000000000E+00  0.00000000000E+00  0.87256812070E+03  0.87256812070E+03  0.00000000000E+00 0. -1.
         -1   -1    0    0    0  501 -0.00000000000E+00 -0.00000000000E+00 -0.12109887911E+04  0.12109887911E+04  0.00000000000E+00 0.  1.
         23    2    1    2    0    0  0.26569169842E+03  0.25692692553E+03  0.61719976266E+03  0.72509175638E+03  0.90658614951E+02 0.  0.
        254    2    1    2    0    0 -0.26569169842E+03 -0.25692692553E+03 -0.95562043303E+03  0.13584651554E+04  0.89197177236E+03 0.  0.
        -24    2    4    4    0    0 -0.43435112753E+03 -0.38728317042E+03 -0.29027748421E+03  0.65516528889E+03  0.79569980850E+02 0.  0.
         24    2    4    4    0    0  0.16865942911E+03  0.13035624489E+03 -0.66534294882E+03  0.70329986649E+03  0.80688964849E+02 0.  0.
         11    1    3    3    0    0  0.36956479398E+02  0.64756305831E+02  0.73356212867E+02  0.10459586264E+03  0.00000000000E+00 0.  1.
        -11    1    3    3    0    0  0.22873521902E+03  0.19217061970E+03  0.54384354980E+03  0.62049589374E+03  0.00000000000E+00 0. -1.
          2    1    6    6  502    0 -0.70202533032E+01  0.11451650065E+02 -0.20942679176E+02  0.24880113680E+02  0.00000000000E+00 0. -1.
          1    1    5    5  503    0  0.85983509192E+00 -0.12274598132E+02 -0.22278937947E+01  0.12504742558E+02  0.00000000000E+00 0. -1.
         -2    1    5    5    0  503 -0.43521096262E+03 -0.37500857229E+03 -0.28804959041E+03  0.64266054633E+03  0.00000000000E+00 0.  1.
         -1    1    6    6    0  502  0.17567968241E+03  0.11890459483E+03 -0.64440026965E+03  0.67841975281E+03  0.00000000000E+00 0.  1.
<mgrwt>
<rscale>  0 0.20558893E+04</rscale>
<asrwt>0</asrwt>
<pdfrwt beam="1">  1        1 0.13424125E+00 0.20558893E+04</pdfrwt>
<pdfrwt beam="2">  1       -1 0.18630597E+00 0.20558893E+04</pdfrwt>
<totfact> 0.33208951E+00</totfact>
</mgrwt>
</event>
<event>
12    1  0.1489025E-007  0.1329857E+04  0.7818608E-02  0.9006218E-01
         -2   -1    0    0    0  501 -0.00000000000E+00  0.00000000000E+00  0.17144666215E+03  0.17144666215E+03  0.00000000000E+00 0.  1.
          2   -1    0    0  501    0  0.00000000000E+00 -0.00000000000E+00 -0.25788186190E+04  0.25788186190E+04  0.00000000000E+00 0. -1.
         23    2    1    2    0    0 -0.15827922147E+03 -0.24466626083E+03 -0.24590513451E+03  0.39266101850E+03  0.93805379041E+02 0.  0.
        254    2    1    2    0    0  0.15827922147E+03  0.24466626083E+03 -0.21614668224E+04  0.23576042627E+04  0.89523468657E+03 0.  0.
        -24    2    4    4    0    0 -0.28923312689E+02  0.17960953653E+03 -0.21313807747E+04  0.21405880644E+04  0.78975384729E+02 0.  0.
         24    2    4    4    0    0  0.18720253416E+03  0.65056724294E+02 -0.30086047686E+02  0.21701619821E+03  0.83148625063E+02 0.  0.
         13    1    3    3    0    0 -0.99548658013E+02 -0.70602052237E+02 -0.10776710841E+03  0.16281380392E+03  0.00000000000E+00 0. -1.
        -13    1    3    3    0    0 -0.58730563456E+02 -0.17406420859E+03 -0.13813802610E+03  0.22984721458E+03  0.00000000000E+00 0.  1.
          2    1    6    6  502    0  0.13527535647E+02 -0.10324199679E+02 -0.21599368823E+02  0.27497564497E+02  0.00000000000E+00 0. -1.
          1    1    5    5  503    0  0.82047877991E+01  0.10525304554E+03 -0.85295946167E+03  0.85946807119E+03  0.00000000000E+00 0. -1.
         -2    1    5    5    0  503 -0.37128100488E+02  0.74356490991E+02 -0.12784213130E+04  0.12811199933E+04  0.00000000000E+00 0.  1.
         -1    1    6    6    0  502  0.17367499851E+03  0.75380923974E+02 -0.84866788625E+01  0.18951863372E+03  0.00000000000E+00 0.  1.
<mgrwt>
<rscale>  0 0.13298569E+04</rscale>
<asrwt>0</asrwt>
<pdfrwt beam="1">  1        2 0.39674131E+00 0.13298569E+04</pdfrwt>
<pdfrwt beam="2">  1       -2 0.26376410E-01 0.13298569E+04</pdfrwt>
<totfact> 0.40063296E+01</totfact>
</mgrwt>
</event>
<event>
12    1  0.1489025E-007  0.3058899E+04  0.7818608E-02  0.8227109E-01
          2   -1    0    0  501    0  0.00000000000E+00  0.00000000000E+00  0.72910950119E+03  0.72910950119E+03  0.00000000000E+00 0. -1.
         -2   -1    0    0    0  501 -0.00000000000E+00 -0.00000000000E+00 -0.32083179159E+04  0.32083179159E+04  0.00000000000E+00 0.  1.
         23    2    1    2    0    0 -0.91239130591E+03 -0.72796329677E+03 -0.21336201172E+04  0.24337131619E+04  0.90755127044E+02 0.  0.
        254    2    1    2    0    0  0.91239130591E+03  0.72796329677E+03 -0.34558829751E+03  0.15037142552E+04  0.88280056269E+03 0.  0.
        -24    2    4    4    0    0  0.87706035097E+03  0.17042608410E+03 -0.25345798466E+03  0.93216642643E+03  0.80083626232E+02 0.  0.
         24    2    4    4    0    0  0.35330954943E+02  0.55753721267E+03 -0.92130312852E+02  0.57154782881E+03  0.77992988049E+02 0.  0.
         13    1    3    3    0    0 -0.11230457095E+02 -0.18464258271E+02 -0.22805566382E+02  0.31418877416E+02  0.00000000000E+00 0. -1.
        -13    1    3    3    0    0 -0.90116084882E+03 -0.70949903850E+03 -0.21108145509E+04  0.24022942845E+04  0.00000000000E+00 0.  1.
          4    1    6    6  502    0  0.40361954486E+02  0.29719884896E+03 -0.82130523259E+02  0.31096891492E+03  0.00000000000E+00 0. -1.
          1    1    5    5  503    0  0.56995511874E+03  0.74304940421E+02 -0.14794034666E+03  0.59351192719E+03  0.00000000000E+00 0. -1.
         -2    1    5    5    0  503  0.30710523223E+03  0.96121143678E+02 -0.10551763800E+03  0.33865449924E+03  0.00000000000E+00 0.  1.
         -3    1    6    6    0  502 -0.50309995428E+01  0.26033836371E+03 -0.99997895931E+01  0.26057891390E+03  0.00000000000E+00 0.  1.
<mgrwt>
<rscale>  0 0.30588985E+04</rscale>
<asrwt>0</asrwt>
<pdfrwt beam="1">  1        2 0.11217069E+00 0.30588985E+04</pdfrwt>
<pdfrwt beam="2">  1       -2 0.49358738E+00 0.30588985E+04</pdfrwt>
<totfact> 0.59775305E-02</totfact>
</mgrwt>
</event>
<event>
12    1  0.1984132E-007  0.2200559E+04  0.7818608E-02  0.8518196E-01
          2   -1    0    0  501    0  0.00000000000E+00  0.00000000000E+00  0.18922479899E+04  0.18922479899E+04  0.00000000000E+00 0. -1.
         -2   -1    0    0    0  501 -0.00000000000E+00 -0.00000000000E+00 -0.63977596824E+03  0.63977596824E+03  0.00000000000E+00 0.  1.
         23    2    1    2    0    0 -0.26776996823E+03  0.56605815673E+02 -0.48281145223E+03  0.56388499515E+03  0.99771815130E+02 0.  0.
        254    2    1    2    0    0  0.26776996823E+03 -0.56605815673E+02  0.17352834739E+04  0.19681389630E+04  0.88738789075E+03 0.  0.
        -24    2    4    4    0    0  0.10413751576E+03  0.19656068348E+02 -0.71161012549E+02  0.15098685720E+03  0.80635960509E+02 0.  0.
         24    2    4    4    0    0  0.16363245247E+03 -0.76261884021E+02  0.18064444865E+04  0.18171521058E+04  0.78794914577E+02 0.  0.
         11    1    3    3    0    0 -0.19994528937E+03  0.84697190071E+02 -0.34262520139E+03  0.40563994056E+03  0.00000000000E+00 0.  1.
        -11    1    3    3    0    0 -0.67824678863E+02 -0.28091374398E+02 -0.14018625084E+03  0.15824505459E+03  0.00000000000E+00 0. -1.
          2    1    6    6  502    0  0.15510432104E+02 -0.30427519694E+02  0.17120853889E+03  0.17458170364E+03  0.00000000000E+00 0. -1.
          1    1    5    5  503    0  0.14203778747E+01  0.15643477123E+02  0.11178977054E+02  0.19279662284E+02  0.00000000000E+00 0. -1.
         -2    1    5    5    0  503  0.10271713789E+03  0.40125912248E+01 -0.82339989602E+02  0.13170719491E+03  0.00000000000E+00 0.  1.
         -1    1    6    6    0  502  0.14812202037E+03 -0.45834364327E+02  0.16352359476E+04  0.16425704022E+04  0.00000000000E+00 0.  1.
<mgrwt>
<rscale>  0 0.22005588E+04</rscale>
<asrwt>0</asrwt>
<pdfrwt beam="1">  1        2 0.29111507E+00 0.22005588E+04</pdfrwt>
<pdfrwt beam="2">  1       -2 0.98427073E-01 0.22005588E+04</pdfrwt>
<totfact> 0.60108896E+00</totfact>
</mgrwt>
</event>
<event>
12    1  0.1489025E-007  0.1196502E+04  0.7818608E-02  0.9115924E-01
          2   -1    0    0  501    0  0.00000000000E+00  0.00000000000E+00  0.57458685148E+03  0.57458685148E+03  0.00000000000E+00 0. -1.
         -2   -1    0    0    0  501 -0.00000000000E+00 -0.00000000000E+00 -0.62288963172E+03  0.62288963172E+03  0.00000000000E+00 0.  1.
         23    2    1    2    0    0  0.18538961880E+03  0.15450026685E+03  0.39449997210E+02  0.26090197696E+03  0.90960959124E+02 0.  0.
        254    2    1    2    0    0 -0.18538961880E+03 -0.15450026685E+03 -0.87752777452E+02  0.93657450624E+03  0.90068396931E+03 0.  0.
        -24    2    4    4    0    0 -0.39697896197E+03 -0.23366421301E+03  0.24485809635E+03  0.52758931351E+03  0.78763796808E+02 0.  0.
         24    2    4    4    0    0  0.21158934317E+03  0.79163946162E+02 -0.33261087381E+03  0.40898519274E+03  0.74845935007E+02 0.  0.
         13    1    3    3    0    0  0.19329210824E+03  0.13854021523E+03  0.27372283474E+02  0.23938352542E+03  0.00000000000E+00 0. -1.
        -13    1    3    3    0    0 -0.79024894402E+01  0.15960051626E+02  0.12077713736E+02  0.21518451533E+02  0.00000000000E+00 0.  1.
          4    1    6    6  502    0  0.11360184830E+03  0.43792012081E+02 -0.24206578106E+03  0.27095933758E+03  0.00000000000E+00 0. -1.
          1    1    5    5  503    0 -0.34420999266E+03 -0.22877696699E+03  0.22775913077E+03  0.47190427136E+03  0.00000000000E+00 0. -1.
         -2    1    5    5    0  503 -0.52768969306E+02 -0.48872460224E+01  0.17098965581E+02  0.55685042150E+02  0.00000000000E+00 0.  1.
         -3    1    6    6    0  502  0.97987494874E+02  0.35371934080E+02 -0.90545092743E+02  0.13802585516E+03  0.00000000000E+00 0.  1.
<mgrwt>
<rscale>  0 0.11965019E+04</rscale>
<asrwt>0</asrwt>
<pdfrwt beam="1">  1        2 0.88397977E-01 0.11965019E+04</pdfrwt>
<pdfrwt beam="2">  1       -2 0.95829174E-01 0.11965019E+04</pdfrwt>
<totfact> 0.47112619E+01</totfact>
</mgrwt>
</event>
<event>
12    1  0.1489025E-007  0.2769607E+04  0.7818608E-02  0.8312767E-01
          2   -1    0    0  501    0  0.00000000000E+00  0.00000000000E+00  0.17414455334E+04  0.17414455334E+04  0.00000000000E+00 0. -1.
         -2   -1    0    0    0  501 -0.00000000000E+00 -0.00000000000E+00 -0.11012004467E+04  0.11012004467E+04  0.00000000000E+00 0.  1.
         23    2    1    2    0    0 -0.27015815809E+03  0.10894684801E+04  0.81957343577E+03  0.13928751343E+04  0.92051745434E+02 0.  0.
        254    2    1    2    0    0  0.27015815809E+03 -0.10894684801E+04 -0.17932834913E+03  0.14497708458E+04  0.89986101652E+03 0.  0.
        -24    2    4    4    0    0  0.39844181304E+03 -0.11887859492E+03 -0.19798622057E+03  0.46737831414E+03  0.79724188832E+02 0.  0.
         24    2    4    4    0    0 -0.12828365495E+03 -0.97058988514E+03  0.18657871446E+02  0.98239253164E+03  0.79028784593E+02 0.  0.
         13    1    3    3    0    0 -0.25032849912E+03  0.89019944675E+03  0.69824283482E+03  0.11587331310E+04  0.00000000000E+00 0. -1.
        -13    1    3    3    0    0 -0.19829658965E+02  0.19926903332E+03  0.12133060095E+03  0.23414200337E+03  0.00000000000E+00 0.  1.
          2    1    6    6  502    0 -0.12199309202E+03 -0.69535628409E+03  0.32657424987E+02  0.70673133773E+03  0.00000000000E+00 0. -1.
          1    1    5    5  503    0  0.36480951061E+03 -0.12293018573E+03 -0.19926372809E+03  0.43347876871E+03  0.00000000000E+00 0. -1.
         -2    1    5    5    0  503  0.33632302431E+02  0.40515908106E+01  0.12775075106E+01  0.33899545430E+02  0.00000000000E+00 0.  1.
         -3    1    6    6    0  502 -0.62905629325E+01 -0.27523360105E+03 -0.13999553541E+02  0.27566119391E+03  0.00000000000E+00 0.  1.
<mgrwt>
<rscale>  0 0.27696069E+04</rscale>
<asrwt>0</asrwt>
<pdfrwt beam="1">  1        2 0.26791470E+00 0.27696069E+04</pdfrwt>
<pdfrwt beam="2">  1       -2 0.16941545E+00 0.27696069E+04</pdfrwt>
<totfact> 0.17459765E+00</totfact>
</mgrwt>
</event>
<event>
12    1  0.1489025E-007  0.1444399E+04  0.7818608E-02  0.8922293E-01
         -2   -1    0    0    0  501 -0.00000000000E+00  0.00000000000E+00  0.16445007338E+04  0.16445007338E+04  0.00000000000E+00 0. -1.
          2   -1    0    0  501    0  0.00000000000E+00 -0.00000000000E+00 -0.31716148980E+03  0.31716148980E+03  0.00000000000E+00 0.  1.
         23    2    1    2    0    0  0.75196706648E+02  0.30694089342E+02  0.99330351697E+03  0.10021251285E+04  0.10491055490E+03 0.  0.
        254    2    1    2    0    0 -0.75196706648E+02 -0.30694089342E+02  0.33403572698E+03  0.95953709506E+03  0.89584312136E+03 0.  0.
        -24    2    4    4    0    0  0.39211020085E+03 -0.41336548009E+02  0.47106649073E+02  0.40502920318E+03  0.79815407264E+02 0.  0.
         24    2    4    4    0    0 -0.46730690749E+03  0.10642458668E+02  0.28692907791E+03  0.55450789188E+03  0.81619229870E+02 0.  0.
         11    1    3    3    0    0  0.64179298680E+02  0.37903052326E+02  0.98184732022E+03  0.98467242471E+03  0.00000000000E+00 0. -1.
        -11    1    3    3    0    0  0.11017407968E+02 -0.72089629837E+01  0.11456196750E+02  0.17452703790E+02  0.00000000000E+00 0.  1.
          4    1    6    6  502    0 -0.40023758515E+03 -0.19762958797E+02  0.23752656113E+03  0.46583212250E+03  0.00000000000E+00 0. -1.
          1    1    5    5  503    0  0.26958198704E+03  0.91917878295E+01  0.32440468292E+02  0.27168238935E+03  0.00000000000E+00 0. -1.
         -2    1    5    5    0  503  0.12252821381E+03 -0.50528335839E+02  0.14666180781E+02  0.13334681383E+03  0.00000000000E+00 0.  1.
         -3    1    6    6    0  502 -0.67069322341E+02  0.30405417465E+02  0.49402516779E+02  0.88675769377E+02  0.00000000000E+00 0.  1.
<mgrwt>
<rscale>  0 0.14443993E+04</rscale>
<asrwt>0</asrwt>
<pdfrwt beam="1">  1        2 0.48794076E-01 0.14443993E+04</pdfrwt>
<pdfrwt beam="2">  1       -2 0.25300011E+00 0.14443993E+04</pdfrwt>
<totfact> 0.61716276E+00</totfact>
</mgrwt>
</event>
<event>
12    1  0.1489025E-007  0.1413760E+04  0.7818608E-02  0.8943918E-01
          4   -1    0    0  501    0  0.00000000000E+00  0.00000000000E+00  0.29177433066E+03  0.29177433066E+03  0.00000000000E+00 0. -1.
         -4   -1    0    0    0  501 -0.00000000000E+00 -0.00000000000E+00 -0.17125547510E+04  0.17125547510E+04  0.00000000000E+00 0.  1.
         23    2    1    2    0    0 -0.38149716205E+02 -0.39554750125E+03 -0.60036609033E+03  0.72534659968E+03  0.88176077621E+02 0.  0.
        254    2    1    2    0    0  0.38149716205E+02  0.39554750125E+03 -0.82041432997E+03  0.12789824819E+04  0.89710829317E+03 0.  0.
        -24    2    4    4    0    0 -0.22320861292E+03  0.36675874335E+03 -0.89388534095E+03  0.99483367257E+03  0.79554840253E+02 0.  0.
         24    2    4    4    0    0  0.26135832913E+03  0.28788757897E+02  0.73471010984E+02  0.28414880936E+03  0.78775552150E+02 0.  0.
         11    1    3    3    0    0 -0.23101367490E+02 -0.32719708369E+03 -0.54505319192E+03  0.63614038292E+03  0.00000000000E+00 0.  1.
        -11    1    3    3    0    0 -0.15048348715E+02 -0.68350417557E+02 -0.55312898409E+02  0.89206216765E+02  0.00000000000E+00 0. -1.
          2    1    6    6  502    0  0.20448018826E+03 -0.99810534525E+01  0.65000457208E+02  0.21479485155E+03  0.00000000000E+00 0. -1.
          1    1    5    5  503    0 -0.89157273751E+02  0.22249834369E+03 -0.49596660734E+03  0.55085152991E+03  0.00000000000E+00 0. -1.
         -2    1    5    5    0  503 -0.13405133917E+03  0.14426039967E+03 -0.39791873361E+03  0.44398214266E+03  0.00000000000E+00 0.  1.
         -1    1    6    6    0  502  0.56878140873E+02  0.38769811350E+02  0.84705537760E+01  0.69353957800E+02  0.00000000000E+00 0.  1.
<mgrwt>
<rscale>  0 0.14137603E+04</rscale>
<asrwt>0</asrwt>
<pdfrwt beam="1">  1        4 0.44888358E-01 0.14137603E+04</pdfrwt>
<pdfrwt beam="2">  1       -4 0.26346996E+00 0.14137603E+04</pdfrwt>
<totfact> 0.49053077E-01</totfact>
</mgrwt>
</event>
<event>
12    1  0.1489025E-007  0.1051882E+04  0.7818608E-02  0.9253403E-01
         -1   -1    0    0    0  501 -0.00000000000E+00  0.00000000000E+00  0.29986126751E+03  0.29986126751E+03  0.00000000000E+00 0.  1.
          1   -1    0    0  501    0  0.00000000000E+00 -0.00000000000E+00 -0.92247346510E+03  0.92247346510E+03  0.00000000000E+00 0. -1.
         23    2    1    2    0    0 -0.49839308557E+02 -0.74429250602E+00 -0.19692306544E+03  0.22301689895E+03  0.92050708112E+02 0.  0.
        254    2    1    2    0    0  0.49839308557E+02  0.74429250602E+00 -0.42568913215E+03  0.99931783366E+03  0.90274048585E+03 0.  0.
        -24    2    4    4    0    0 -0.14919491170E+03 -0.25005352177E+03 -0.56485198996E+03  0.64115088442E+03  0.85034114370E+02 0.  0.
         24    2    4    4    0    0  0.19903422026E+03  0.25079781428E+03  0.13916285780E+03  0.35816694924E+03  0.80019360490E+02 0.  0.
         13    1    3    3    0    0 -0.46070971890E+02  0.32392771616E+02 -0.60835167448E+02  0.82902012655E+02  0.00000000000E+00 0.  1.
        -13    1    3    3    0    0 -0.37683366670E+01 -0.33137064122E+02 -0.13608789800E+03  0.14011488629E+03  0.00000000000E+00 0. -1.
          2    1    6    6  502    0  0.26932736607E+01  0.36320780052E+02  0.31327200171E+02  0.48040048472E+02  0.00000000000E+00 0. -1.
          1    1    5    5  503    0 -0.56325136145E+02 -0.43338129734E+02 -0.87405157407E+02  0.11265156897E+03  0.00000000000E+00 0. -1.
         -2    1    5    5    0  503 -0.92869775559E+02 -0.20671539204E+03 -0.47744683255E+03  0.52849931545E+03  0.00000000000E+00 0.  1.
         -1    1    6    6    0  502  0.19634094660E+03  0.21447703423E+03  0.10783565763E+03  0.31012690077E+03  0.00000000000E+00 0.  1.
<mgrwt>
<rscale>  0 0.10518822E+04</rscale>
<asrwt>0</asrwt>
<pdfrwt beam="1">  1        1 0.14191900E+00 0.10518822E+04</pdfrwt>
<pdfrwt beam="2">  1       -1 0.46132502E-01 0.10518822E+04</pdfrwt>
<totfact> 0.81455684E+01</totfact>
</mgrwt>
</event>
<event>
12    1  0.1489025E-007  0.1508420E+04  0.7818608E-02  0.8878873E-01
         -1   -1    0    0    0  501 -0.00000000000E+00  0.00000000000E+00  0.43802512190E+03  0.43802512190E+03  0.00000000000E+00 0.  1.
          1   -1    0    0  501    0  0.00000000000E+00 -0.00000000000E+00 -0.12986302998E+04  0.12986302998E+04  0.00000000000E+00 0. -1.
         23    2    1    2    0    0 -0.68184124763E+02  0.99441684852E+02  0.25677366682E+03  0.29835417313E+03  0.92437941852E+02 0.  0.
        254    2    1    2    0    0  0.68184124763E+02 -0.99441684852E+02 -0.11173788448E+04  0.14383012486E+04  0.89757299173E+03 0.  0.
        -24    2    4    4    0    0  0.27258197302E+03 -0.73874390347E+02  0.52888397731E+01  0.29403268496E+03  0.81663274682E+02 0.  0.
         24    2    4    4    0    0 -0.20439784826E+03 -0.25567294505E+02 -0.11226676845E+04  0.11442685637E+04  0.80843360497E+02 0.  0.
         11    1    3    3    0    0  0.10109894342E+02 -0.96871680533E+01  0.48905097625E+02  0.50870028132E+02  0.00000000000E+00 0. -1.
        -11    1    3    3    0    0 -0.78294019105E+02  0.10912885291E+03  0.20786856920E+03  0.24748414499E+03  0.00000000000E+00 0.  1.
          2    1    6    6  502    0 -0.20537259532E+02  0.17363757385E+02 -0.24806100094E+03  0.24951460736E+03  0.00000000000E+00 0. -1.
          3    1    5    5  503    0 -0.51145195095E+01 -0.59920926165E+01  0.20541024336E+01  0.81414261985E+01  0.00000000000E+00 0. -1.
         -4    1    5    5    0  503  0.27769649253E+03 -0.67882297730E+02  0.32347373395E+01  0.28589125876E+03  0.00000000000E+00 0.  1.
         -1    1    6    6    0  502 -0.18386058873E+03 -0.42931051890E+02 -0.87460668360E+03  0.89475395629E+03  0.00000000000E+00 0.  1.
<mgrwt>
<rscale>  0 0.15084200E+04</rscale>
<asrwt>0</asrwt>
<pdfrwt beam="1">  1        1 0.19978928E+00 0.15084200E+04</pdfrwt>
<pdfrwt beam="2">  1       -1 0.67388481E-01 0.15084200E+04</pdfrwt>
<totfact> 0.19546211E+01</totfact>
</mgrwt>
</event>
<event>
12    1  0.1489025E-007  0.1618670E+04  0.7818608E-02  0.8809160E-01
          1   -1    0    0  501    0  0.00000000000E+00  0.00000000000E+00  0.31663650299E+03  0.31663650299E+03  0.00000000000E+00 0. -1.
         -1   -1    0    0    0  501 -0.00000000000E+00 -0.00000000000E+00 -0.20686916550E+04  0.20686916550E+04  0.00000000000E+00 0.  1.
         23    2    1    2    0    0 -0.86627798804E+01  0.78253352278E+01 -0.13923091894E+04  0.13953172972E+04  0.90825113105E+02 0.  0.
        254    2    1    2    0    0  0.86627798804E+01 -0.78253352278E+01 -0.35974596262E+03  0.99001086085E+03  0.92226247206E+03 0.  0.
        -24    2    4    4    0    0  0.52429605651E+01 -0.41367714187E+03  0.29282101194E+02  0.42156114379E+03  0.75498941487E+02 0.  0.
         24    2    4    4    0    0  0.34198193153E+01  0.40585180664E+03 -0.38902806381E+03  0.56844971706E+03  0.84052735105E+02 0.  0.
         13    1    3    3    0    0 -0.40588545534E+02 -0.22486299130E+02 -0.60392439443E+03  0.60570433205E+03  0.00000000000E+00 0.  1.
        -13    1    3    3    0    0  0.31925765654E+02  0.30311634358E+02 -0.78838479499E+03  0.78961296511E+03  0.00000000000E+00 0. -1.
          4    1    6    6  502    0  0.19356365251E+02  0.15933922692E+03 -0.10393687482E+03  0.19122377482E+03  0.00000000000E+00 0. -1.
          3    1    5    5  503    0 -0.24047891589E+02 -0.17075015373E+03 -0.14286385754E+02  0.17302605846E+03  0.00000000000E+00 0. -1.
         -4    1    5    5    0  503  0.29290852154E+02 -0.24292698814E+03  0.43568486948E+02  0.24853508534E+03  0.00000000000E+00 0.  1.
         -3    1    6    6    0  502 -0.15936545936E+02  0.24651257972E+03 -0.28509118899E+03  0.37722594224E+03  0.00000000000E+00 0.  1.
<mgrwt>
<rscale>  0 0.16186702E+04</rscale>
<asrwt>0</asrwt>
<pdfrwt beam="1">  1        1 0.48713308E-01 0.16186702E+04</pdfrwt>
<pdfrwt beam="2">  1       -1 0.31826026E+00 0.16186702E+04</pdfrwt>
<totfact> 0.19715253E+00</totfact>
</mgrwt>
</event>
<event>
12    1  0.1489025E-007  0.1585427E+04  0.7818608E-02  0.8829551E-01
         -2   -1    0    0    0  501 -0.00000000000E+00  0.00000000000E+00  0.12125989654E+04  0.12125989654E+04  0.00000000000E+00 0. -1.
          2   -1    0    0  501    0  0.00000000000E+00 -0.00000000000E+00 -0.51822158923E+03  0.51822158923E+03  0.00000000000E+00 0.  1.
         23    2    1    2    0    0 -0.95542873544E+02  0.50765957817E+03  0.33083130532E+03  0.62050034108E+03  0.93405742377E+02 0.  0.
        254    2    1    2    0    0  0.95542873544E+02 -0.50765957817E+03  0.36354607088E+03  0.11103202136E+04  0.91312569947E+03 0.  0.
        -24    2    4    4    0    0 -0.14026313670E+03 -0.42204526378E+02  0.53105152872E+03  0.55660693978E+03  0.79627819860E+02 0.  0.
         24    2    4    4    0    0  0.23580601024E+03 -0.46545505179E+03 -0.16750545783E+03  0.55371327380E+03  0.79293325507E+02 0.  0.
         13    1    3    3    0    0 -0.54367512785E+02  0.34152706649E+03  0.16885569643E+03  0.38484907407E+03  0.00000000000E+00 0.  1.
        -13    1    3    3    0    0 -0.41175360759E+02  0.16613251168E+03  0.16197560889E+03  0.23565126702E+03  0.00000000000E+00 0. -1.
          4    1    6    6  502    0  0.12725256212E+03 -0.30020396316E+03 -0.13693321446E+03  0.35364719606E+03  0.00000000000E+00 0. -1.
          1    1    5    5  503    0 -0.40392779065E+01 -0.29612024208E+02  0.91282136113E+02  0.96050070885E+02  0.00000000000E+00 0. -1.
         -2    1    5    5    0  503 -0.13622385879E+03 -0.12592502170E+02  0.43976939260E+03  0.46055686890E+03  0.00000000000E+00 0.  1.
         -3    1    6    6    0  502  0.10855344813E+03 -0.16525108864E+03 -0.30572243372E+02  0.20006607774E+03  0.00000000000E+00 0.  1.
<mgrwt>
<rscale>  0 0.15854273E+04</rscale>
<asrwt>0</asrwt>
<pdfrwt beam="1">  1        2 0.79726399E-01 0.15854273E+04</pdfrwt>
<pdfrwt beam="2">  1       -2 0.18655369E+00 0.15854273E+04</pdfrwt>
<totfact> 0.92613421E+00</totfact>
</mgrwt>
</event>
<event>
12    1  0.1489025E-007  0.1133570E+04  0.7818608E-02  0.9173076E-01
          2   -1    0    0  501    0  0.00000000000E+00  0.00000000000E+00  0.13738694622E+04  0.13738694622E+04  0.00000000000E+00 0. -1.
         -2   -1    0    0    0  501 -0.00000000000E+00 -0.00000000000E+00 -0.23382504104E+03  0.23382504104E+03  0.00000000000E+00 0.  1.
         23    2    1    2    0    0  0.49495390431E+02 -0.11307436738E+03  0.43802191615E+03  0.46380868909E+03  0.89552748792E+02 0.  0.
        254    2    1    2    0    0 -0.49495390431E+02  0.11307436738E+03  0.70202250496E+03  0.11438858141E+04  0.89465275499E+03 0.  0.
        -24    2    4    4    0    0 -0.24863942642E+03  0.15435238668E+02 -0.12065569882E+03  0.28807558060E+03  0.79811850713E+02 0.  0.
         24    2    4    4    0    0  0.19914403599E+03  0.97639128710E+02  0.82267820378E+03  0.85581023351E+03  0.80124791842E+02 0.  0.
         11    1    3    3    0    0  0.48380154738E+02 -0.62208941865E+02  0.13317664729E+03  0.15474692631E+03  0.00000000000E+00 0. -1.
        -11    1    3    3    0    0  0.11152356925E+01 -0.50865425513E+02  0.30484526887E+03  0.30906176278E+03  0.00000000000E+00 0.  1.
          2    1    6    6  502    0  0.19482240378E+02 -0.12808690815E+02  0.11662935811E+03  0.11893707338E+03  0.00000000000E+00 0. -1.
          3    1    5    5  503    0 -0.56840968412E+01 -0.50463696677E+01 -0.25060349000E+02  0.26187705049E+02  0.00000000000E+00 0. -1.
         -4    1    5    5    0  503 -0.24295532958E+03  0.20481608336E+02 -0.95595349824E+02  0.26188787555E+03  0.00000000000E+00 0.  1.
         -1    1    6    6    0  502  0.17966179562E+03  0.11044781952E+03  0.70604884567E+03  0.73687316013E+03  0.00000000000E+00 0.  1.
<mgrwt>
<rscale>  0 0.11335697E+04</rscale>
<asrwt>0</asrwt>
<pdfrwt beam="1">  1        2 0.21136453E+00 0.11335697E+04</pdfrwt>
<pdfrwt beam="2">  1       -2 0.35973084E-01 0.11335697E+04</pdfrwt>
<totfact> 0.10778547E+02</totfact>
</mgrwt>
</event>
<event>
12    1  0.1489025E-007  0.1209026E+04  0.7818608E-02  0.9104993E-01
         -2   -1    0    0    0  501 -0.00000000000E+00  0.00000000000E+00  0.18798901286E+03  0.18798901286E+03  0.00000000000E+00 0. -1.
          2   -1    0    0  501    0  0.00000000000E+00 -0.00000000000E+00 -0.19439215595E+04  0.19439215595E+04  0.00000000000E+00 0.  1.
         23    2    1    2    0    0  0.31139421250E+03  0.40998992791E+02 -0.77686136148E+03  0.84251636786E+03  0.87595560267E+02 0.  0.
        254    2    1    2    0    0 -0.31139421250E+03 -0.40998992791E+02 -0.97907118517E+03  0.12893942045E+04  0.77801655252E+03 0.  0.
        -24    2    4    4    0    0 -0.41493085732E+03 -0.17556423515E+03 -0.10006781621E+04  0.11001679177E+04  0.77603131173E+02 0.  0.
         24    2    4    4    0    0  0.10353664482E+03  0.13456524235E+03  0.21606976934E+02  0.18922628682E+03  0.80697490051E+02 0.  0.
         11    1    3    3    0    0  0.62786824401E+02  0.44935258834E+02 -0.19749744662E+03  0.21205330516E+03  0.00000000000E+00 0. -1.
        -11    1    3    3    0    0  0.24860738810E+03 -0.39362660427E+01 -0.57936391485E+03  0.63046306271E+03  0.00000000000E+00 0.  1.
          4    1    6    6  502    0  0.67641426253E+02  0.13611276960E+03  0.15491907240E+02  0.15278104524E+03  0.00000000000E+00 0. -1.
          1    1    5    5  503    0 -0.35573483728E+03 -0.11850647617E+03 -0.82296826787E+03  0.90436045317E+03  0.00000000000E+00 0. -1.
         -2    1    5    5    0  503 -0.59196020046E+02 -0.57057758975E+02 -0.17770989424E+03  0.19580746451E+03  0.00000000000E+00 0.  1.
         -3    1    6    6    0  502  0.35895218572E+02 -0.15475272444E+01  0.61150696938E+01  0.36445241586E+02  0.00000000000E+00 0.  1.
<mgrwt>
<rscale>  0 0.12090259E+04</rscale>
<asrwt>0</asrwt>
<pdfrwt beam="1">  1        2 0.29906484E+00 0.12090259E+04</pdfrwt>
<pdfrwt beam="2">  1       -2 0.28921388E-01 0.12090259E+04</pdfrwt>
<totfact> 0.77793243E+01</totfact>
</mgrwt>
</event>
<event>
12    1  0.1489025E-007  0.2045695E+04  0.7818608E-02  0.8585550E-01
         -1   -1    0    0    0  501 -0.00000000000E+00  0.00000000000E+00  0.10719275595E+04  0.10719275595E+04  0.00000000000E+00 0.  1.
          1   -1    0    0  501    0  0.00000000000E+00 -0.00000000000E+00 -0.97601454400E+03  0.97601454400E+03  0.00000000000E+00 0. -1.
         23    2    1    2    0    0 -0.66326872572E+03  0.41217040632E+03 -0.21553020044E+03  0.81545602882E+03  0.93302847113E+02 0.  0.
        254    2    1    2    0    0  0.66326872572E+03 -0.41217040632E+03  0.31144321595E+03  0.12324860747E+04  0.90122982705E+03 0.  0.
        -24    2    4    4    0    0 -0.15754246531E+03  0.10384440945E+03 -0.18237587891E+02  0.20538351382E+03  0.79034729010E+02 0.  0.
         24    2    4    4    0    0  0.82081119102E+03 -0.51601481578E+03  0.32968080384E+03  0.10271025609E+04  0.79043890890E+02 0.  0.
         13    1    3    3    0    0 -0.64361486589E+03  0.37669917568E+03 -0.20078528347E+03  0.77230634764E+03  0.00000000000E+00 0. -1.
        -13    1    3    3    0    0 -0.19653859828E+02  0.35471230644E+02 -0.14744916972E+02  0.43149681182E+02  0.00000000000E+00 0.  1.
          4    1    6    6  502    0  0.63446857525E+03 -0.43378442058E+03  0.27380933833E+03  0.81589879904E+03  0.00000000000E+00 0. -1.
          1    1    5    5  503    0 -0.14057266198E+03  0.11575973079E+03 -0.80465877251E+01  0.18227928062E+03  0.00000000000E+00 0. -1.
         -2    1    5    5    0  503 -0.16969803328E+02 -0.11915321341E+02 -0.10191000166E+02  0.23104233206E+02  0.00000000000E+00 0.  1.
         -3    1    6    6    0  502  0.18634261577E+03 -0.82230395192E+02  0.55871465517E+02  0.21120376181E+03  0.00000000000E+00 0.  1.
<mgrwt>
<rscale>  0 0.20456949E+04</rscale>
<asrwt>0</asrwt>
<pdfrwt beam="1">  1        1 0.15015608E+00 0.20456949E+04</pdfrwt>
<pdfrwt beam="2">  1       -1 0.16491193E+00 0.20456949E+04</pdfrwt>
<totfact> 0.39192629E+00</totfact>
</mgrwt>
</event>
<event>
12    1  0.1489025E-007  0.1621642E+04  0.7818608E-02  0.8807362E-01
          2   -1    0    0  501    0  0.00000000000E+00  0.00000000000E+00  0.54164796895E+03  0.54164796895E+03  0.00000000000E+00 0.  1.
         -2   -1    0    0    0  501 -0.00000000000E+00 -0.00000000000E+00 -0.12137605019E+04  0.12137605019E+04  0.00000000000E+00 0. -1.
         23    2    1    2    0    0 -0.31697296267E+02 -0.55383077571E+03 -0.28041948552E+03  0.62838198649E+03  0.92171505179E+02 0.  0.
        254    2    1    2    0    0  0.31697296267E+02  0.55383077571E+03 -0.39169304744E+03  0.11270264844E+04  0.89946206498E+03 0.  0.
        -24    2    4    4    0    0 -0.36481157761E+03  0.20018521583E+02 -0.23064821817E+03  0.43829615438E+03  0.73598165989E+02 0.  0.
         24    2    4    4    0    0  0.39650887388E+03  0.53381225413E+03 -0.16104482927E+03  0.68873032998E+03  0.78988737691E+02 0.  0.
         13    1    3    3    0    0 -0.40315459944E+02 -0.54359491545E+03 -0.25988272541E+03  0.60387068101E+03  0.00000000000E+00 0. -1.
        -13    1    3    3    0    0  0.86181636770E+01 -0.10235860257E+02 -0.20536760109E+02  0.24511305476E+02  0.00000000000E+00 0.  1.
          4    1    6    6  502    0  0.27170832422E+03  0.31172223731E+03 -0.78206604107E+02  0.42084728775E+03  0.00000000000E+00 0. -1.
          3    1    5    5  503    0 -0.10010569212E+03  0.27061163473E+02 -0.95624594280E+02  0.14105856654E+03  0.00000000000E+00 0. -1.
         -2    1    5    5    0  503 -0.26470588549E+03 -0.70426418899E+01 -0.13502362389E+03  0.29723758784E+03  0.00000000000E+00 0.  1.
         -3    1    6    6    0  502  0.12480054966E+03  0.22209001682E+03 -0.82838225159E+02  0.26788304223E+03  0.00000000000E+00 0.  1.
<mgrwt>
<rscale>  0 0.16216423E+04</rscale>
<asrwt>0</asrwt>
<pdfrwt beam="1">  1        2 0.83330458E-01 0.16216423E+04</pdfrwt>
<pdfrwt beam="2">  1       -2 0.18673238E+00 0.16216423E+04</pdfrwt>
<totfact> 0.87429169E+00</totfact>
</mgrwt>
</event>
<event>
12    1  0.1489025E-007  0.2260568E+04  0.7818608E-02  0.8493633E-01
          2   -1    0    0  501    0  0.00000000000E+00  0.00000000000E+00  0.72002341492E+03  0.72002341492E+03  0.00000000000E+00 0. -1.
         -2   -1    0    0    0  501 -0.00000000000E+00 -0.00000000000E+00 -0.17743056866E+04  0.17743056866E+04  0.00000000000E+00 0.  1.
         23    2    1    2    0    0 -0.43635357665E+03  0.17233858667E+03 -0.13567663110E+04  0.14384875408E+04  0.91249932292E+02 0.  0.
        254    2    1    2    0    0  0.43635357665E+03 -0.17233858667E+03  0.30248403935E+03  0.10558415607E+04  0.89621413449E+03 0.  0.
        -24    2    4    4    0    0  0.52909852763E+03 -0.85102785174E+02 -0.16393037184E+03  0.56567373586E+03  0.76979689817E+02 0.  0.
         24    2    4    4    0    0 -0.92744950981E+02 -0.87235801499E+02  0.46641441120E+03  0.49016782481E+03  0.80686941370E+02 0.  0.
         11    1    3    3    0    0 -0.40396206072E+03  0.12947499809E+03 -0.12006222138E+04  0.12733588740E+04  0.00000000000E+00 0.  1.
        -11    1    3    3    0    0 -0.32391515929E+02  0.42863588580E+02 -0.15614409714E+03  0.16512866681E+03  0.00000000000E+00 0. -1.
          4    1    6    6  502    0 -0.61236615815E+02 -0.96063272378E+02  0.40322390796E+03  0.41900787030E+03  0.00000000000E+00 0. -1.
          1    1    5    5  503    0  0.23876043403E+03 -0.27830255434E+01 -0.56795134180E+02  0.24543833717E+03  0.00000000000E+00 0. -1.
         -2    1    5    5    0  503  0.29033809360E+03 -0.82319759631E+02 -0.10713523766E+03  0.32023539869E+03  0.00000000000E+00 0.  1.
         -3    1    6    6    0  502 -0.31508335166E+02  0.88274708784E+01  0.63190503231E+02  0.71159954508E+02  0.00000000000E+00 0.  1.
<mgrwt>
<rscale>  0 0.22605678E+04</rscale>
<asrwt>0</asrwt>
<pdfrwt beam="1">  1        2 0.11077284E+00 0.22605678E+04</pdfrwt>
<pdfrwt beam="2">  1       -2 0.27297010E+00 0.22605678E+04</pdfrwt>
<totfact> 0.16712204E+00</totfact>
</mgrwt>
</event>
<event>
12    1  0.1489025E-007  0.2574525E+04  0.7818608E-02  0.8376906E-01
          2   -1    0    0  501    0  0.00000000000E+00  0.00000000000E+00  0.17273204137E+04  0.17273204137E+04  0.00000000000E+00 0.  1.
         -2   -1    0    0    0  501 -0.00000000000E+00 -0.00000000000E+00 -0.95931530502E+03  0.95931530502E+03  0.00000000000E+00 0. -1.
         23    2    1    2    0    0 -0.62057523425E+03 -0.41578806468E+03 -0.55125301615E+03  0.93277681757E+03  0.90550358771E+02 0.  0.
        254    2    1    2    0    0  0.62057523425E+03  0.41578806468E+03  0.13192581248E+04  0.17538589012E+04  0.88180820426E+03 0.  0.
        -24    2    4    4    0    0  0.18804393634E+03 -0.27180978132E+03  0.39717315476E+03  0.52246180522E+03  0.77322337225E+02 0.  0.
         24    2    4    4    0    0  0.43253129791E+03  0.68759784600E+03  0.92208497007E+03  0.12313970959E+04  0.78892295813E+02 0.  0.
         13    1    3    3    0    0 -0.25445392906E+03 -0.22450106621E+03 -0.24363580525E+03  0.41773907687E+03  0.00000000000E+00 0.  1.
        -13    1    3    3    0    0 -0.36612130519E+03 -0.19128699847E+03 -0.30761721090E+03  0.51503774069E+03  0.00000000000E+00 0. -1.
          4    1    6    6  502    0  0.53043996530E+01  0.31321396716E+02  0.23748461219E+02  0.39663030119E+02  0.00000000000E+00 0. -1.
          1    1    5    5  503    0  0.18412231834E+03 -0.22917590986E+03  0.32246834607E+03  0.43635817855E+03  0.00000000000E+00 0. -1.
         -2    1    5    5    0  503  0.39216179964E+01 -0.42633871461E+02  0.74704808698E+02  0.86103626672E+02  0.00000000000E+00 0.  1.
         -3    1    6    6    0  502  0.42722689826E+03  0.65627644928E+03  0.89833650886E+03  0.11917340658E+04  0.00000000000E+00 0.  1.
<mgrwt>
<rscale>  0 0.25745251E+04</rscale>
<asrwt>0</asrwt>
<pdfrwt beam="1">  1        2 0.26574160E+00 0.25745251E+04</pdfrwt>
<pdfrwt beam="2">  1       -2 0.14758697E+00 0.25745251E+04</pdfrwt>
<totfact> 0.26257388E+00</totfact>
</mgrwt>
</event>
<event>
12    1  0.1489025E-007  0.1508772E+04  0.7818608E-02  0.8878641E-01
          3   -1    0    0  501    0  0.00000000000E+00  0.00000000000E+00  0.73764994935E+03  0.73764994935E+03  0.00000000000E+00 0. -1.
         -3   -1    0    0    0  501 -0.00000000000E+00 -0.00000000000E+00 -0.77150153058E+03  0.77150153058E+03  0.00000000000E+00 0.  1.
         23    2    1    2    0    0 -0.25750813316E+02  0.21683430502E+03  0.41664534901E+03  0.47853914692E+03  0.87898510018E+02 0.  0.
        254    2    1    2    0    0  0.25750813316E+02 -0.21683430502E+03 -0.45049693024E+03  0.10306123330E+04  0.90085186161E+03 0.  0.
        -24    2    4    4    0    0  0.21589075757E+03  0.11709550693E+03  0.16086155063E+03  0.30410142643E+03  0.79253152221E+02 0.  0.
         24    2    4    4    0    0 -0.19013994426E+03 -0.33392981195E+03 -0.61135848087E+03  0.72651090657E+03  0.79978669188E+02 0.  0.
         11    1    3    3    0    0  0.29702318203E+02  0.38485528490E+02  0.85729127791E+02  0.98553777003E+02  0.00000000000E+00 0.  1.
        -11    1    3    3    0    0 -0.55453131519E+02  0.17834877653E+03  0.33091622122E+03  0.37998536992E+03  0.00000000000E+00 0. -1.
          4    1    6    6  502    0 -0.67498430853E+02 -0.19519939484E+03 -0.29920847589E+03  0.36357193781E+03  0.00000000000E+00 0. -1.
          3    1    5    5  503    0  0.56747105893E+02  0.64998030974E+02  0.29218016169E+02  0.91097039066E+02  0.00000000000E+00 0. -1.
         -4    1    5    5    0  503  0.15914365168E+03  0.52097475960E+02  0.13164353446E+03  0.21300438737E+03  0.00000000000E+00 0.  1.
         -3    1    6    6    0  502 -0.12264151340E+03 -0.13873041711E+03 -0.31215000498E+03  0.36293896877E+03  0.00000000000E+00 0.  1.
<mgrwt>
<rscale>  0 0.15087718E+04</rscale>
<asrwt>0</asrwt>
<pdfrwt beam="1">  1        3 0.11348461E+00 0.15087718E+04</pdfrwt>
<pdfrwt beam="2">  1       -3 0.11869254E+00 0.15087718E+04</pdfrwt>
<totfact> 0.95207962E-01</totfact>
</mgrwt>
</event>
<event>
12    1  0.1489025E-007  0.1285358E+04  0.7818608E-02  0.9041258E-01
         -2   -1    0    0    0  501 -0.00000000000E+00  0.00000000000E+00  0.25705436520E+03  0.25705436520E+03  0.00000000000E+00 0.  1.
          2   -1    0    0  501    0  0.00000000000E+00 -0.00000000000E+00 -0.16068049174E+04  0.16068049174E+04  0.00000000000E+00 0. -1.
         23    2    1    2    0    0 -0.67992666159E+02 -0.25891256771E+03 -0.98454565248E+02  0.29919350457E+03  0.90358903204E+02 0.  0.
        254    2    1    2    0    0  0.67992666159E+02  0.25891256771E+03 -0.12512959869E+04  0.15646657780E+04  0.90043246811E+03 0.  0.
        -24    2    4    4    0    0 -0.13806142444E+03  0.51175467998E+03 -0.10355440504E+04  0.11660710802E+04  0.80102898678E+02 0.  0.
         24    2    4    4    0    0  0.20605409060E+03 -0.25284211227E+03 -0.21575193656E+03  0.39859469784E+03  0.77080561909E+02 0.  0.
         13    1    3    3    0    0 -0.73446564852E+01 -0.43747506553E+01  0.12363297525E+02  0.15031086051E+02  0.00000000000E+00 0. -1.
        -13    1    3    3    0    0 -0.60648009674E+02 -0.25453781705E+03 -0.11081786277E+03  0.28416241852E+03  0.00000000000E+00 0.  1.
          4    1    6    6  502    0  0.43952917674E+02 -0.13341900900E+02 -0.28053072076E+02  0.53822301554E+02  0.00000000000E+00 0. -1.
          3    1    5    5  503    0 -0.84164296057E+02  0.17767312488E+03 -0.34559953282E+03  0.39760584141E+03  0.00000000000E+00 0. -1.
         -4    1    5    5    0  503 -0.53897128387E+02  0.33408155509E+03 -0.68994451756E+03  0.76846523878E+03  0.00000000000E+00 0.  1.
         -3    1    6    6    0  502  0.16210117293E+03 -0.23950021137E+03 -0.18769886449E+03  0.34477239628E+03  0.00000000000E+00 0.  1.
<mgrwt>
<rscale>  0 0.12853579E+04</rscale>
<asrwt>0</asrwt>
<pdfrwt beam="1">  1        2 0.24720075E+00 0.12853579E+04</pdfrwt>
<pdfrwt beam="2">  1       -2 0.39546827E-01 0.12853579E+04</pdfrwt>
<totfact> 0.65573815E+01</totfact>
</mgrwt>
</event>
<event>
12    1  0.1489025E-007  0.1101699E+04  0.7818608E-02  0.9203538E-01
          2   -1    0    0  501    0  0.00000000000E+00  0.00000000000E+00  0.73956364629E+03  0.73956364629E+03  0.00000000000E+00 0. -1.
         -2   -1    0    0    0  501 -0.00000000000E+00 -0.00000000000E+00 -0.41028940161E+03  0.41028940161E+03  0.00000000000E+00 0.  1.
         23    2    1    2    0    0 -0.16692901228E+03 -0.14658065787E+02  0.58570102218E+02  0.20100099093E+03  0.94290972255E+02 0.  0.
        254    2    1    2    0    0  0.16692901228E+03  0.14658065787E+02  0.27070414246E+03  0.94885205698E+03  0.89384525464E+03 0.  0.
        -24    2    4    4    0    0  0.45378645394E+02 -0.51685600082E+02  0.58626582683E+03  0.59539773516E+03  0.77847418808E+02 0.  0.
         24    2    4    4    0    0  0.12155036688E+03  0.66343665868E+02 -0.31556168436E+03  0.35345432182E+03  0.78579942000E+02 0.  0.
         13    1    3    3    0    0 -0.38803597262E+02  0.96628680611E+01 -0.24007789159E+02  0.46641870888E+02  0.00000000000E+00 0.  1.
        -13    1    3    3    0    0 -0.12812541502E+03 -0.24320933848E+02  0.82577891377E+02  0.15435912004E+03  0.00000000000E+00 0. -1.
          4    1    6    6  502    0  0.72823872233E+02  0.77540093531E+02 -0.24376856362E+03  0.26596784596E+03  0.00000000000E+00 0. -1.
          3    1    5    5  503    0  0.46069796043E+02 -0.63027390086E+02  0.33909826033E+03  0.34796911956E+03  0.00000000000E+00 0. -1.
         -4    1    5    5    0  503 -0.69115064992E+00  0.11341790004E+02  0.24716756650E+03  0.24742861560E+03  0.00000000000E+00 0.  1.
         -3    1    6    6    0  502  0.48726494650E+02 -0.11196427663E+02 -0.71793120735E+02  0.87486475859E+02  0.00000000000E+00 0.  1.
<mgrwt>
<rscale>  0 0.11016989E+04</rscale>
<asrwt>0</asrwt>
<pdfrwt beam="1">  1        2 0.11377902E+00 0.11016989E+04</pdfrwt>
<pdfrwt beam="2">  1       -2 0.63121447E-01 0.11016989E+04</pdfrwt>
<totfact> 0.88183491E+01</totfact>
</mgrwt>
</event>
<event>
12    1  0.1489025E-007  0.3822513E+04  0.7818608E-02  0.8041341E-01
         -1   -1    0    0    0  501 -0.00000000000E+00  0.00000000000E+00  0.19638695472E+04  0.19638695472E+04  0.00000000000E+00 0.  1.
          1   -1    0    0  501    0  0.00000000000E+00 -0.00000000000E+00 -0.18600528617E+04  0.18600528617E+04  0.00000000000E+00 0. -1.
         23    2    1    2    0    0  0.36934341788E+03 -0.17528747142E+04  0.29070491494E+03  0.18169941838E+04  0.89298332281E+02 0.  0.
        254    2    1    2    0    0 -0.36934341788E+03  0.17528747142E+04 -0.18688822949E+03  0.20069282251E+04  0.88535267911E+03 0.  0.
        -24    2    4    4    0    0  0.21641547374E+03  0.12945905476E+03 -0.77800729098E+02  0.27573840423E+03  0.79896245150E+02 0.  0.
         24    2    4    4    0    0 -0.58575889162E+03  0.16234156595E+04 -0.10908750039E+03  0.17311898209E+04  0.80785089765E+02 0.  0.
         13    1    3    3    0    0  0.10740027444E+03 -0.61357196756E+03  0.13835797398E+03  0.63808174028E+03  0.00000000000E+00 0.  1.
        -13    1    3    3    0    0  0.26194314344E+03 -0.11393027467E+04  0.15234694096E+03  0.11789124435E+04  0.00000000000E+00 0. -1.
          2    1    6    6  502    0 -0.48237172081E+03  0.13037008913E+04 -0.57772952629E+02  0.13912786224E+04  0.00000000000E+00 0. -1.
          1    1    5    5  503    0  0.21451547123E+03  0.10926025490E+03 -0.83259406855E+02  0.25472891381E+03  0.00000000000E+00 0. -1.
         -2    1    5    5    0  503  0.19000025058E+01  0.20198799856E+02  0.54586777573E+01  0.21009490427E+02  0.00000000000E+00 0.  1.
         -1    1    6    6    0  502 -0.10338717080E+03  0.31971476813E+03 -0.51314547759E+02  0.33991119849E+03  0.00000000000E+00 0.  1.
<mgrwt>
<rscale>  0 0.38225129E+04</rscale>
<asrwt>0</asrwt>
<pdfrwt beam="1">  1        1 0.28616198E+00 0.38225129E+04</pdfrwt>
<pdfrwt beam="2">  1       -1 0.30213378E+00 0.38225129E+04</pdfrwt>
<totfact> 0.94212014E-02</totfact>
</mgrwt>
</event>
<event>
12    1  0.1489025E-007  0.1799822E+04  0.7818608E-02  0.8706394E-01
         -1   -1    0    0    0  501 -0.00000000000E+00  0.00000000000E+00  0.33564993281E+03  0.33564993281E+03  0.00000000000E+00 0.  1.
          1   -1    0    0  501    0  0.00000000000E+00 -0.00000000000E+00 -0.24127525265E+04  0.24127525265E+04  0.00000000000E+00 0. -1.
         23    2    1    2    0    0  0.41855287633E+03  0.15929746452E+03 -0.33728299568E+02  0.45836048505E+03  0.91621741821E+02 0.  0.
        254    2    1    2    0    0 -0.41855287633E+03 -0.15929746452E+03 -0.20433742942E+04  0.22900419743E+04  0.93185382199E+03 0.  0.
        -24    2    4    4    0    0 -0.16767915691E+03 -0.41359120922E+03 -0.39517223235E+03  0.60165277875E+03  0.81553571058E+02 0.  0.
         24    2    4    4    0    0 -0.25087371942E+03  0.25429374469E+03 -0.16482020618E+04  0.16883891956E+04  0.80530164736E+02 0.  0.
         11    1    3    3    0    0  0.15126093328E+02 -0.88692437998E+01 -0.10994046019E+02  0.20696164689E+02  0.00000000000E+00 0. -1.
        -11    1    3    3    0    0  0.40342678300E+03  0.16816670832E+03 -0.22734253549E+02  0.43766432036E+03  0.00000000000E+00 0.  1.
          2    1    6    6  502    0 -0.17260127751E+03  0.22144551852E+03 -0.13026253885E+04  0.13325397635E+04  0.00000000000E+00 0. -1.
          3    1    5    5  503    0 -0.10638855243E+03 -0.28924055737E+03 -0.22197826360E+03  0.37980649498E+03  0.00000000000E+00 0. -1.
         -4    1    5    5    0  503 -0.61290604482E+02 -0.12435065185E+03 -0.17319396875E+03  0.22184628377E+03  0.00000000000E+00 0.  1.
         -1    1    6    6    0  502 -0.78272441912E+02  0.32848226173E+02 -0.34557667335E+03  0.35584943205E+03  0.00000000000E+00 0.  1.
<mgrwt>
<rscale>  0 0.17998225E+04</rscale>
<asrwt>0</asrwt>
<pdfrwt beam="1">  1        1 0.37119269E+00 0.17998225E+04</pdfrwt>
<pdfrwt beam="2">  1       -1 0.51638452E-01 0.17998225E+04</pdfrwt>
<totfact> 0.55487333E+00</totfact>
</mgrwt>
</event>
<event>
12    1  0.1489025E-007  0.1881984E+04  0.7818608E-02  0.8663877E-01
         -2   -1    0    0    0  501 -0.00000000000E+00  0.00000000000E+00  0.27932923059E+03  0.27932923059E+03  0.00000000000E+00 0.  1.
          2   -1    0    0  501    0  0.00000000000E+00 -0.00000000000E+00 -0.31699716079E+04  0.31699716079E+04  0.00000000000E+00 0. -1.
         23    2    1    2    0    0 -0.72480576949E+02  0.30017666133E+03 -0.23209047901E+04  0.23430855344E+04  0.89951736024E+02 0.  0.
        254    2    1    2    0    0  0.72480576949E+02 -0.30017666133E+03 -0.56973758724E+03  0.11062153041E+04  0.89652212391E+03 0.  0.
        -24    2    4    4    0    0  0.28396322210E+03 -0.51122501107E+03 -0.53163853913E+03  0.79475143413E+03  0.83690992971E+02 0.  0.
         24    2    4    4    0    0 -0.21148264515E+03  0.21104834974E+03 -0.38099048109E+02  0.31146386997E+03  0.79321432819E+02 0.  0.
         13    1    3    3    0    0 -0.49249169495E+02  0.23914866440E+03 -0.20466844226E+04  0.20611973923E+04  0.00000000000E+00 0. -1.
        -13    1    3    3    0    0 -0.23231407454E+02  0.61027996936E+02 -0.27422036756E+03  0.28188814215E+03  0.00000000000E+00 0.  1.
          4    1    6    6  502    0 -0.13386620340E+02  0.52619248607E+02 -0.17167619325E+02  0.56944833667E+02  0.00000000000E+00 0. -1.
          1    1    5    5  503    0  0.93602966625E+02 -0.22881227292E+03 -0.18480665025E+03  0.30865849992E+03  0.00000000000E+00 0. -1.
         -2    1    5    5    0  503  0.19036025547E+03 -0.28241273816E+03 -0.34683188888E+03  0.48609293420E+03  0.00000000000E+00 0.  1.
         -1    1    6    6    0  502 -0.19809602481E+03  0.15842910113E+03 -0.20931428783E+02  0.25451903631E+03  0.00000000000E+00 0.  1.
<mgrwt>
<rscale>  0 0.18819838E+04</rscale>
<asrwt>0</asrwt>
<pdfrwt beam="1">  1        2 0.48768798E+00 0.18819838E+04</pdfrwt>
<pdfrwt beam="2">  1       -2 0.42973724E-01 0.18819838E+04</pdfrwt>
<totfact> 0.65599246E+00</totfact>
</mgrwt>
</event>
<event>
12    1  0.1489025E-007  0.1586454E+04  0.7818608E-02  0.8828913E-01
         -2   -1    0    0    0  501 -0.00000000000E+00  0.00000000000E+00  0.29056751681E+03  0.29056751681E+03  0.00000000000E+00 0.  1.
          2   -1    0    0  501    0  0.00000000000E+00 -0.00000000000E+00 -0.21654496193E+04  0.21654496193E+04  0.00000000000E+00 0. -1.
         23    2    1    2    0    0 -0.65274886195E+02  0.18111085559E+03  0.13078036521E+03  0.25007249280E+03  0.91492048543E+02 0.  0.
        254    2    1    2    0    0  0.65274886195E+02 -0.18111085559E+03 -0.20056624677E+04  0.22059446433E+04  0.89802443300E+03 0.  0.
        -24    2    4    4    0    0  0.14088550790E+03 -0.44588682407E+03 -0.17763793641E+04  0.18387025533E+04  0.81484036296E+02 0.  0.
         24    2    4    4    0    0 -0.75610621710E+02  0.26477596848E+03 -0.22928310360E+03  0.36724209000E+03  0.80453287509E+02 0.  0.
         13    1    3    3    0    0 -0.70595495096E+02  0.16046202108E+03  0.14234209800E+03  0.22581642323E+03  0.00000000000E+00 0.  1.
        -13    1    3    3    0    0  0.53206089016E+01  0.20648834513E+02 -0.11561732786E+02  0.24256069567E+02  0.00000000000E+00 0. -1.
          2    1    6    6  502    0 -0.19191529288E+02  0.39977977342E+01 -0.10747479457E+02  0.22356330150E+02  0.00000000000E+00 0. -1.
          1    1    5    5  503    0  0.30058045209E+02 -0.10366937047E+03 -0.29060296372E+03  0.31000146287E+03  0.00000000000E+00 0. -1.
         -2    1    5    5    0  503  0.11082746270E+03 -0.34221745360E+03 -0.14857764004E+04  0.15287010905E+04  0.00000000000E+00 0.  1.
         -1    1    6    6    0  502 -0.56419092423E+02  0.26077817074E+03 -0.21853562415E+03  0.34488575985E+03  0.00000000000E+00 0.  1.
<mgrwt>
<rscale>  0 0.15864543E+04</rscale>
<asrwt>0</asrwt>
<pdfrwt beam="1">  1        2 0.33314609E+00 0.15864543E+04</pdfrwt>
<pdfrwt beam="2">  1       -2 0.44702695E-01 0.15864543E+04</pdfrwt>
<totfact> 0.24617044E+01</totfact>
</mgrwt>
</event>
<event>
12    1  0.1489025E-007  0.1706652E+04  0.7818608E-02  0.8757580E-01
         -1   -1    0    0    0  501 -0.00000000000E+00  0.00000000000E+00  0.87411726519E+03  0.87411726519E+03  0.00000000000E+00 0.  1.
          1   -1    0    0  501    0  0.00000000000E+00 -0.00000000000E+00 -0.83302923910E+03  0.83302923910E+03  0.00000000000E+00 0. -1.
         23    2    1    2    0    0 -0.33255288996E+03  0.51214438243E+03  0.56011718675E+02  0.62000825058E+03  0.91594896612E+02 0.  0.
        254    2    1    2    0    0  0.33255288996E+03 -0.51214438243E+03 -0.14923692586E+02  0.10871382537E+04  0.89931283378E+03 0.  0.
        -24    2    4    4    0    0  0.62912873929E+03 -0.26776388120E+03  0.46205064256E+02  0.68989996569E+03  0.79539851740E+02 0.  0.
         24    2    4    4    0    0 -0.29657584933E+03 -0.24438050123E+03 -0.61128756842E+02  0.39723828803E+03  0.79890354716E+02 0.  0.
         11    1    3    3    0    0 -0.29185617188E+03  0.47582018435E+03  0.28528665864E+02  0.55892643316E+03  0.00000000000E+00 0. -1.
        -11    1    3    3    0    0 -0.40696718079E+02  0.36324198074E+02  0.27483052811E+02  0.61081817425E+02  0.00000000000E+00 0.  1.
          2    1    6    6  502    0 -0.25217965891E+03 -0.16777076777E+03 -0.59508726038E+02  0.30867928236E+03  0.00000000000E+00 0. -1.
          3    1    5    5  503    0  0.47516350113E+03 -0.16525098906E+03  0.24722278090E+02  0.50368584775E+03  0.00000000000E+00 0. -1.
         -4    1    5    5    0  503  0.15396523816E+03 -0.10251289214E+03  0.21482786166E+02  0.18621411794E+03  0.00000000000E+00 0.  1.
         -3    1    6    6    0  502 -0.44396190419E+02 -0.76609733461E+02 -0.16200308043E+01  0.88559005666E+02  0.00000000000E+00 0.  1.
<mgrwt>
<rscale>  0 0.17066520E+04</rscale>
<asrwt>0</asrwt>
<pdfrwt beam="1">  1        1 0.12815835E+00 0.17066520E+04</pdfrwt>
<pdfrwt beam="2">  1       -1 0.13447958E+00 0.17066520E+04</pdfrwt>
<totfact> 0.91624077E+00</totfact>
</mgrwt>
</event>
<event>
12    1  0.1489025E-007  0.1668157E+04  0.7818608E-02  0.8779737E-01
          1   -1    0    0  501    0  0.00000000000E+00  0.00000000000E+00  0.15451328907E+04  0.15451328907E+04  0.00000000000E+00 0. -1.
         -1   -1    0    0    0  501 -0.00000000000E+00 -0.00000000000E+00 -0.45024410970E+03  0.45024410970E+03  0.00000000000E+00 0.  1.
         23    2    1    2    0    0  0.39070974845E+03  0.32951429021E+03  0.70019791828E+03  0.87159961106E+03  0.90415608455E+02 0.  0.
        254    2    1    2    0    0 -0.39070974845E+03 -0.32951429021E+03  0.39469086275E+03  0.11237773894E+04  0.91970700156E+03 0.  0.
        -24    2    4    4    0    0 -0.58377178446E+03 -0.49682843468E+03  0.20949519257E+03  0.79858539970E+03  0.78882286154E+02 0.  0.
         24    2    4    4    0    0  0.19306203601E+03  0.16731414447E+03  0.18519567018E+03  0.32519198967E+03  0.78647448824E+02 0.  0.
         11    1    3    3    0    0  0.42537290292E+02  0.64227380606E+02  0.68628683608E+02  0.10317205871E+03  0.00000000000E+00 0.  1.
        -11    1    3    3    0    0  0.34817245816E+03  0.26528690960E+03  0.63156923467E+03  0.76842755235E+03  0.00000000000E+00 0. -1.
          4    1    6    6  502    0  0.19858312016E+03  0.14997140637E+03  0.17600854825E+03  0.30480434281E+03  0.00000000000E+00 0. -1.
          3    1    5    5  503    0 -0.23113895604E+03 -0.24522191284E+03  0.78304107555E+02  0.34596320150E+03  0.00000000000E+00 0. -1.
         -4    1    5    5    0  503 -0.35263282842E+03 -0.25160652184E+03  0.13119108502E+03  0.45262219819E+03  0.00000000000E+00 0.  1.
         -3    1    6    6    0  502 -0.55210841569E+01  0.17342738094E+02  0.91871219354E+01  0.20387646856E+02  0.00000000000E+00 0.  1.
<mgrwt>
<rscale>  0 0.16681570E+04</rscale>
<asrwt>0</asrwt>
<pdfrwt beam="1">  1        1 0.23771275E+00 0.16681570E+04</pdfrwt>
<pdfrwt beam="2">  1       -1 0.69268325E-01 0.16681570E+04</pdfrwt>
<totfact> 0.12245108E+01</totfact>
</mgrwt>
</event>
<event>
12    1  0.1489025E-007  0.1819690E+04  0.7818608E-02  0.8695898E-01
         -2   -1    0    0    0  501 -0.00000000000E+00  0.00000000000E+00  0.37272130550E+03  0.37272130550E+03  0.00000000000E+00 0.  1.
          2   -1    0    0  501    0  0.00000000000E+00 -0.00000000000E+00 -0.22210116387E+04  0.22210116387E+04  0.00000000000E+00 0. -1.
         23    2    1    2    0    0  0.12514686071E+03 -0.30760497551E+03 -0.15581840765E+04  0.15957903426E+04  0.91250444854E+02 0.  0.
        254    2    1    2    0    0 -0.12514686071E+03  0.30760497551E+03 -0.29010625668E+03  0.99794260155E+03  0.89523473912E+03 0.  0.
        -24    2    4    4    0    0 -0.25530769032E+03 -0.25545379062E+03 -0.97751368682E+02  0.38369394391E+03  0.85012097006E+02 0.  0.
         24    2    4    4    0    0  0.13016082961E+03  0.56305876613E+03 -0.19235488800E+03  0.61424865764E+03  0.79523548708E+02 0.  0.
         11    1    3    3    0    0  0.12206952150E+03 -0.25054326615E+03 -0.11325413014E+04  0.11663287254E+04  0.00000000000E+00 0. -1.
        -11    1    3    3    0    0  0.30773392089E+01 -0.57061709356E+02 -0.42564277512E+03  0.42946161727E+03  0.00000000000E+00 0.  1.
          4    1    6    6  502    0  0.76811077129E+02  0.32963614879E+03 -0.71096130571E+02  0.34585342552E+03  0.00000000000E+00 0. -1.
          1    1    5    5  503    0 -0.23444384327E+03 -0.21643078429E+03 -0.11046770768E+03  0.33765265359E+03  0.00000000000E+00 0. -1.
         -2    1    5    5    0  503 -0.20863847042E+02 -0.39023006329E+02  0.12716339003E+02  0.46041290316E+02  0.00000000000E+00 0.  1.
         -3    1    6    6    0  502  0.53349752477E+02  0.23342261734E+03 -0.12125875743E+03  0.26839523212E+03  0.00000000000E+00 0.  1.
<mgrwt>
<rscale>  0 0.18196905E+04</rscale>
<asrwt>0</asrwt>
<pdfrwt beam="1">  1        2 0.34169410E+00 0.18196905E+04</pdfrwt>
<pdfrwt beam="2">  1       -2 0.57341739E-01 0.18196905E+04</pdfrwt>
<totfact> 0.13500450E+01</totfact>
</mgrwt>
</event>
<event>
12    1  0.1489025E-007  0.1432786E+04  0.7818608E-02  0.8930422E-01
          2   -1    0    0  501    0  0.00000000000E+00  0.00000000000E+00  0.19655941870E+04  0.19655941870E+04  0.00000000000E+00 0. -1.
         -2   -1    0    0    0  501 -0.00000000000E+00 -0.00000000000E+00 -0.26110133021E+03  0.26110133021E+03  0.00000000000E+00 0.  1.
         23    2    1    2    0    0 -0.19195963769E+02  0.25729241304E+03 -0.84334407686E+01  0.27452757467E+03  0.93415178108E+02 0.  0.
        254    2    1    2    0    0  0.19195963769E+02 -0.25729241304E+03  0.17129262976E+04  0.19521679426E+04  0.90015293380E+03 0.  0.
        -24    2    4    4    0    0  0.17621729073E+03  0.28112997398E+03  0.42553943778E+03  0.54564140931E+03  0.80957634740E+02 0.  0.
         24    2    4    4    0    0 -0.15702132697E+03 -0.53842238701E+03  0.12873868598E+04  0.14065265333E+04  0.79984986256E+02 0.  0.
         13    1    3    3    0    0  0.15785369357E+02  0.82517088433E+02  0.35093170084E+02  0.91048219948E+02  0.00000000000E+00 0. -1.
        -13    1    3    3    0    0 -0.34981333127E+02  0.17477532460E+03 -0.43526610853E+02  0.18347935472E+03  0.00000000000E+00 0.  1.
          2    1    6    6  502    0 -0.15649383883E+03 -0.42662822554E+03  0.10143787465E+04  0.11115152747E+04  0.00000000000E+00 0. -1.
          3    1    5    5  503    0  0.18402354002E+03  0.27474890407E+03  0.41833144218E+03  0.53324742764E+03  0.00000000000E+00 0. -1.
         -4    1    5    5    0  503 -0.78062492819E+01  0.63810699071E+01  0.72079955993E+01  0.12393981667E+02  0.00000000000E+00 0.  1.
         -1    1    6    6    0  502 -0.52748813590E+00 -0.11179416147E+03  0.27300811329E+03  0.29501125861E+03  0.00000000000E+00 0.  1.
<mgrwt>
<rscale>  0 0.14327865E+04</rscale>
<asrwt>0</asrwt>
<pdfrwt beam="1">  1        2 0.30239910E+00 0.14327865E+04</pdfrwt>
<pdfrwt beam="2">  1       -2 0.40169437E-01 0.14327865E+04</pdfrwt>
<totfact> 0.39782871E+01</totfact>
</mgrwt>
</event>
<event>
12    1  0.1489025E-007  0.1253587E+04  0.7818608E-02  0.9067203E-01
          1   -1    0    0  501    0  0.00000000000E+00  0.00000000000E+00  0.26732429267E+03  0.26732429267E+03  0.00000000000E+00 0. -1.
         -1   -1    0    0    0  501 -0.00000000000E+00 -0.00000000000E+00 -0.14696379562E+04  0.14696379562E+04  0.00000000000E+00 0.  1.
         23    2    1    2    0    0 -0.93867415354E+02 -0.22919757138E+03 -0.78569189025E+02  0.27705785162E+03  0.96152572979E+02 0.  0.
        254    2    1    2    0    0  0.93867415354E+02  0.22919757138E+03 -0.11237444745E+04  0.14599043972E+04  0.89843006778E+03 0.  0.
        -24    2    4    4    0    0  0.19987090807E+03  0.50012911266E+03 -0.99122417045E+03  0.11309085049E+04  0.79694298243E+02 0.  0.
         24    2    4    4    0    0 -0.10600349272E+03 -0.27093154128E+03 -0.13252030401E+03  0.32899589229E+03  0.77691863408E+02 0.  0.
         13    1    3    3    0    0  0.11533560720E+02 -0.71173422717E+01  0.88125038693E+01  0.16166007805E+02  0.00000000000E+00 0.  1.
        -13    1    3    3    0    0 -0.10540097607E+03 -0.22208022910E+03 -0.87381692894E+02  0.26089184381E+03  0.00000000000E+00 0. -1.
          4    1    6    6  502    0 -0.11804462248E+03 -0.24736539493E+03 -0.11486919748E+03  0.29718530252E+03  0.00000000000E+00 0. -1.
          1    1    5    5  503    0  0.20088027941E+03  0.43546258038E+03 -0.86283520312E+03  0.98715000548E+03  0.00000000000E+00 0. -1.
         -2    1    5    5    0  503 -0.10093713442E+01  0.64666532278E+02 -0.12838896733E+03  0.14375849943E+03  0.00000000000E+00 0.  1.
         -3    1    6    6    0  502  0.12041129760E+02 -0.23566146357E+02 -0.17651106535E+02  0.31810589776E+02  0.00000000000E+00 0.  1.
<mgrwt>
<rscale>  0 0.12535867E+04</rscale>
<asrwt>0</asrwt>
<pdfrwt beam="1">  1        1 0.41126814E-01 0.12535867E+04</pdfrwt>
<pdfrwt beam="2">  1       -1 0.22609815E+00 0.12535867E+04</pdfrwt>
<totfact> 0.10075888E+01</totfact>
</mgrwt>
</event>
<event>
12    1  0.1489025E-007  0.1259898E+04  0.7818608E-02  0.9061985E-01
         -1   -1    0    0    0  501 -0.00000000000E+00  0.00000000000E+00  0.11033731925E+04  0.11033731925E+04  0.00000000000E+00 0.  1.
          1   -1    0    0  501    0  0.00000000000E+00 -0.00000000000E+00 -0.35965680405E+03  0.35965680405E+03  0.00000000000E+00 0. -1.
         23    2    1    2    0    0 -0.12502982352E+02 -0.27821256269E+03  0.33500380253E+03  0.44536225602E+03  0.92528032340E+02 0.  0.
        254    2    1    2    0    0  0.12502982352E+02  0.27821256269E+03  0.40871258594E+03  0.10176677406E+04  0.88940603644E+03 0.  0.
        -24    2    4    4    0    0  0.18826443386E+03 -0.27690608080E+03  0.15254586766E+03  0.37624655805E+03  0.78554160086E+02 0.  0.
         24    2    4    4    0    0 -0.17576145151E+03  0.55511864349E+03  0.25616671827E+03  0.64142118250E+03  0.82164162622E+02 0.  0.
         13    1    3    3    0    0  0.11187177573E+02 -0.84936608013E+01 -0.71673946609E+00  0.14064456311E+02  0.00000000000E+00 0. -1.
        -13    1    3    3    0    0 -0.23690159925E+02 -0.26971890189E+03  0.33572054199E+03  0.43129779971E+03  0.00000000000E+00 0.  1.
          2    1    6    6  502    0 -0.16210910528E+02  0.16079606975E+02 -0.17957210687E+01  0.22903536731E+02  0.00000000000E+00 0. -1.
          3    1    5    5  503    0  0.33959848184E+02 -0.45894913280E+02  0.61466903157E+02  0.83891564161E+02  0.00000000000E+00 0. -1.
         -4    1    5    5    0  503  0.15430458568E+03 -0.23101116752E+03  0.91078964506E+02  0.29235499389E+03  0.00000000000E+00 0.  1.
         -1    1    6    6    0  502 -0.15955054098E+03  0.53903903651E+03  0.25796243934E+03  0.61851764577E+03  0.00000000000E+00 0.  1.
<mgrwt>
<rscale>  0 0.12598979E+04</rscale>
<asrwt>0</asrwt>
<pdfrwt beam="1">  1        1 0.55331817E-01 0.12598979E+04</pdfrwt>
<pdfrwt beam="2">  1       -1 0.16974972E+00 0.12598979E+04</pdfrwt>
<totfact> 0.16823881E+01</totfact>
</mgrwt>
</event>
<event>
12    1  0.1489025E-007  0.2218338E+04  0.7818608E-02  0.8510834E-01
         -1   -1    0    0    0  501 -0.00000000000E+00  0.00000000000E+00  0.56419462119E+03  0.56419462119E+03  0.00000000000E+00 0.  1.
          1   -1    0    0  501    0  0.00000000000E+00 -0.00000000000E+00 -0.21805524647E+04  0.21805524647E+04  0.00000000000E+00 0. -1.
         23    2    1    2    0    0  0.63543695072E+03 -0.66785895118E+03 -0.75835927366E+03  0.11970508698E+04  0.89477930456E+02 0.  0.
        254    2    1    2    0    0 -0.63543695072E+03  0.66785895118E+03 -0.85799856985E+03  0.15476962160E+04  0.89965900999E+03 0.  0.
        -24    2    4    4    0    0 -0.24502168750E+03  0.56675838230E+03 -0.29509783301E+02  0.62302659183E+03  0.77721397142E+02 0.  0.
         24    2    4    4    0    0 -0.39041526323E+03  0.10110056889E+03 -0.82848878654E+03  0.92466962420E+03  0.77297100211E+02 0.  0.
         11    1    3    3    0    0  0.41815606761E+03 -0.49876493312E+03 -0.53251429314E+03  0.84094733949E+03  0.00000000000E+00 0. -1.
        -11    1    3    3    0    0  0.21728088311E+03 -0.16909401806E+03 -0.22584498051E+03  0.35610353036E+03  0.00000000000E+00 0.  1.
          4    1    6    6  502    0 -0.13268440612E+03  0.68148409275E+02 -0.26326431037E+03  0.30258462358E+03  0.00000000000E+00 0. -1.
          3    1    5    5  503    0 -0.20115959449E+03  0.52079237248E+03 -0.18903142061E+02  0.55861185672E+03  0.00000000000E+00 0. -1.
         -4    1    5    5    0  503 -0.43862093002E+02  0.45966009813E+02 -0.10606641240E+02  0.64414735108E+02  0.00000000000E+00 0.  1.
         -3    1    6    6    0  502 -0.25773085711E+03  0.32952159611E+02 -0.56522447617E+03  0.62208500062E+03  0.00000000000E+00 0.  1.
<mgrwt>
<rscale>  0 0.22183381E+04</rscale>
<asrwt>0</asrwt>
<pdfrwt beam="1">  1        1 0.33546961E+00 0.22183381E+04</pdfrwt>
<pdfrwt beam="2">  1       -1 0.86799173E-01 0.22183381E+04</pdfrwt>
<totfact> 0.26738387E+00</totfact>
</mgrwt>
</event>
<event>
12    1  0.1489025E-007  0.1890490E+04  0.7818608E-02  0.8659604E-01
          1   -1    0    0  501    0  0.00000000000E+00  0.00000000000E+00  0.17713788779E+04  0.17713788779E+04  0.00000000000E+00 0. -1.
         -1   -1    0    0    0  501 -0.00000000000E+00 -0.00000000000E+00 -0.50440283850E+03  0.50440283850E+03  0.00000000000E+00 0.  1.
         23    2    1    2    0    0 -0.34384646345E+03 -0.12449025942E+03 -0.26169389504E+03  0.45915162025E+03  0.92780927827E+02 0.  0.
        254    2    1    2    0    0  0.34384646345E+03  0.12449025942E+03  0.15286699344E+04  0.18166300961E+04  0.91081552613E+03 0.  0.
        -24    2    4    4    0    0 -0.84404926972E+02 -0.29023929828E+03  0.23924286360E+03  0.39371600059E+03  0.80075585378E+02 0.  0.
         24    2    4    4    0    0  0.42825139042E+03  0.41472955770E+03  0.12894270708E+04  0.14229140955E+04  0.81624095008E+02 0.  0.
         11    1    3    3    0    0 -0.15270746997E+03 -0.56974680528E+02 -0.17360391437E+03  0.23812602691E+03  0.00000000000E+00 0.  1.
        -11    1    3    3    0    0 -0.19113899348E+03 -0.67515578888E+02 -0.88089980663E+02  0.22102559335E+03  0.00000000000E+00 0. -1.
          4    1    6    6  502    0  0.22749374703E+03  0.16746105708E+03  0.64109725069E+03  0.70057283377E+03  0.00000000000E+00 0. -1.
          1    1    5    5  503    0 -0.74922985711E+02 -0.26634182150E+03  0.18257636772E+03  0.33148989384E+03  0.00000000000E+00 0. -1.
         -2    1    5    5    0  503 -0.94819412611E+01 -0.23897476784E+02  0.56666495872E+02  0.62226106749E+02  0.00000000000E+00 0.  1.
         -3    1    6    6    0  502  0.20075764339E+03  0.24726850062E+03  0.64832982011E+03  0.72234126175E+03  0.00000000000E+00 0.  1.
<mgrwt>
<rscale>  0 0.18904904E+04</rscale>
<asrwt>0</asrwt>
<pdfrwt beam="1">  1        1 0.27251983E+00 0.18904904E+04</pdfrwt>
<pdfrwt beam="2">  1       -1 0.77600437E-01 0.18904904E+04</pdfrwt>
<totfact> 0.66388646E+00</totfact>
</mgrwt>
</event>
<event>
12    1  0.1489025E-007  0.1511808E+04  0.7818608E-02  0.8876639E-01
          2   -1    0    0  501    0  0.00000000000E+00  0.00000000000E+00  0.17985843453E+04  0.17985843453E+04  0.00000000000E+00 0. -1.
         -2   -1    0    0    0  501 -0.00000000000E+00 -0.00000000000E+00 -0.31768921066E+03  0.31768921066E+03  0.00000000000E+00 0.  1.
         23    2    1    2    0    0  0.96675132266E+02  0.52130204116E+02  0.11795542508E+04  0.11886112075E+04  0.96874829816E+02 0.  0.
        254    2    1    2    0    0 -0.96675132266E+02 -0.52130204116E+02  0.30134088388E+03  0.92766234849E+03  0.87045244852E+03 0.  0.
        -24    2    4    4    0    0 -0.18796040200E+03 -0.67311075523E+02 -0.26938409466E+03  0.34472445729E+03  0.80045408319E+02 0.  0.
         24    2    4    4    0    0  0.91285269732E+02  0.15180871408E+02  0.57072497853E+03  0.58293789120E+03  0.74337907865E+02 0.  0.
         13    1    3    3    0    0  0.10204522741E+02 -0.26734653878E+02  0.18611438529E+03  0.18830145621E+03  0.00000000000E+00 0.  1.
        -13    1    3    3    0    0  0.86470609525E+02  0.78864857993E+02  0.99343986548E+03  0.10003097513E+04  0.00000000000E+00 0. -1.
          2    1    6    6  502    0  0.13869364652E+02 -0.16925499211E+02  0.39622606361E+02  0.45263481243E+02  0.00000000000E+00 0. -1.
          3    1    5    5  503    0 -0.21694549933E+02 -0.41503103986E+02 -0.57293287711E+02  0.73997851009E+02  0.00000000000E+00 0. -1.
         -4    1    5    5    0  503 -0.16626585206E+03 -0.25807971537E+02 -0.21209080695E+03  0.27072660628E+03  0.00000000000E+00 0.  1.
         -1    1    6    6    0  502  0.77415905080E+02  0.32106370618E+02  0.53110237217E+03  0.53767440996E+03  0.00000000000E+00 0.  1.
<mgrwt>
<rscale>  0 0.15118080E+04</rscale>
<asrwt>0</asrwt>
<pdfrwt beam="1">  1        2 0.27670528E+00 0.15118080E+04</pdfrwt>
<pdfrwt beam="2">  1       -2 0.48875264E-01 0.15118080E+04</pdfrwt>
<totfact> 0.33076927E+01</totfact>
</mgrwt>
</event>
<event>
12    1  0.1489025E-007  0.2799742E+04  0.7818608E-02  0.8303348E-01
         -1   -1    0    0    0  501 -0.00000000000E+00  0.00000000000E+00  0.15315839340E+04  0.15315839340E+04  0.00000000000E+00 0.  1.
          1   -1    0    0  501    0  0.00000000000E+00 -0.00000000000E+00 -0.12794850969E+04  0.12794850969E+04  0.00000000000E+00 0. -1.
         23    2    1    2    0    0 -0.41778824172E+03  0.32651079216E+03  0.12535182164E+04  0.13642334714E+04  0.93106033439E+02 0.  0.
        254    2    1    2    0    0  0.41778824172E+03 -0.32651079216E+03 -0.10014193793E+04  0.14468355594E+04  0.89963106355E+03 0.  0.
        -24    2    4    4    0    0  0.59415937449E+03 -0.49667724261E+03 -0.82789542272E+03  0.11365431547E+04  0.81276478399E+02 0.  0.
         24    2    4    4    0    0 -0.17637113277E+03  0.17016645046E+03 -0.17352395657E+03  0.31029240472E+03  0.78149955773E+02 0.  0.
         11    1    3    3    0    0 -0.34465846140E+03  0.24208720850E+03  0.10628209583E+04  0.11432340359E+04  0.00000000000E+00 0.  1.
        -11    1    3    3    0    0 -0.73129780319E+02  0.84423583659E+02  0.19069725807E+03  0.22099943548E+03  0.00000000000E+00 0. -1.
          2    1    6    6  502    0 -0.13037361271E+03  0.16105719698E+03 -0.15905923532E+03  0.26122124709E+03  0.00000000000E+00 0. -1.
          3    1    5    5  503    0  0.53039679098E+03 -0.46269451777E+03 -0.72167646187E+03  0.10080793065E+04  0.00000000000E+00 0. -1.
         -4    1    5    5    0  503  0.63762583507E+02 -0.33982724846E+02 -0.10621896085E+03  0.12846384817E+03  0.00000000000E+00 0.  1.
         -1    1    6    6    0  502 -0.45997520057E+02  0.91092534789E+01 -0.14464721250E+02  0.49071157630E+02  0.00000000000E+00 0.  1.
<mgrwt>
<rscale>  0 0.27997420E+04</rscale>
<asrwt>0</asrwt>
<pdfrwt beam="1">  1        1 0.19684386E+00 0.27997420E+04</pdfrwt>
<pdfrwt beam="2">  1       -1 0.23562830E+00 0.27997420E+04</pdfrwt>
<totfact> 0.70181243E-01</totfact>
</mgrwt>
</event>
<event>
12    1  0.1489025E-007  0.2188285E+04  0.7818608E-02  0.8523320E-01
         -2   -1    0    0    0  501 -0.00000000000E+00  0.00000000000E+00  0.14957336082E+04  0.14957336082E+04  0.00000000000E+00 0.  1.
          2   -1    0    0  501    0  0.00000000000E+00 -0.00000000000E+00 -0.80037477652E+03  0.80037477652E+03  0.00000000000E+00 0. -1.
         23    2    1    2    0    0 -0.74069132106E+03 -0.11626524562E+03 -0.24345037293E+03  0.79212131871E+03  0.77761552434E+02 0.  0.
        254    2    1    2    0    0  0.74069132106E+03  0.11626524562E+03  0.93880920456E+03  0.15039870660E+04  0.90469504897E+03 0.  0.
        -24    2    4    4    0    0  0.34745745706E+03 -0.35084799172E+03  0.65902683365E+03  0.82723090552E+03  0.78572296754E+02 0.  0.
         24    2    4    4    0    0  0.39323386400E+03  0.46711323735E+03  0.27978237091E+03  0.67675616045E+03  0.83024558671E+02 0.  0.
         11    1    3    3    0    0 -0.20526666272E+02 -0.12088862263E+02  0.26544239636E+01  0.23969367652E+02  0.00000000000E+00 0.  1.
        -11    1    3    3    0    0 -0.72016465479E+03 -0.10417638336E+03 -0.24610479689E+03  0.76815195105E+03  0.00000000000E+00 0. -1.
          2    1    6    6  502    0  0.11284140330E+03  0.18469859670E+03  0.12354434823E+03  0.24921869895E+03  0.00000000000E+00 0. -1.
          3    1    5    5  503    0  0.33330161391E+03 -0.34388939032E+03  0.60881809673E+03  0.77460270688E+03  0.00000000000E+00 0. -1.
         -4    1    5    5    0  503  0.14155843154E+02 -0.69586014090E+01  0.50208736920E+02  0.52628198640E+02  0.00000000000E+00 0.  1.
         -1    1    6    6    0  502  0.28039246069E+03  0.28241464064E+03  0.15623802268E+03  0.42753746151E+03  0.00000000000E+00 0.  1.
<mgrwt>
<rscale>  0 0.21882847E+04</rscale>
<asrwt>0</asrwt>
<pdfrwt beam="1">  1        2 0.12313458E+00 0.21882847E+04</pdfrwt>
<pdfrwt beam="2">  1       -2 0.23011286E+00 0.21882847E+04</pdfrwt>
<totfact> 0.26875481E+00</totfact>
</mgrwt>
</event>
<event>
12    1  0.1489025E-007  0.1415085E+04  0.7818608E-02  0.8942971E-01
         -2   -1    0    0    0  501 -0.00000000000E+00  0.00000000000E+00  0.16317521053E+03  0.16317521053E+03  0.00000000000E+00 0.  1.
          2   -1    0    0  501    0  0.00000000000E+00 -0.00000000000E+00 -0.30679704691E+04  0.30679704691E+04  0.00000000000E+00 0. -1.
         23    2    1    2    0    0 -0.37061618237E+03  0.74835119319E+02 -0.12082978839E+04  0.12694939257E+04  0.93136467240E+02 0.  0.
        254    2    1    2    0    0  0.37061618237E+03 -0.74835119319E+02 -0.16964973747E+04  0.19616517540E+04  0.90940508665E+03 0.  0.
        -24    2    4    4    0    0 -0.27362658443E+03 -0.10310327404E+02 -0.26825990019E+03  0.39148901630E+03  0.79513931309E+02 0.  0.
         24    2    4    4    0    0  0.64424276680E+03 -0.64524791916E+02 -0.14282374746E+04  0.15701627377E+04  0.79602435299E+02 0.  0.
         11    1    3    3    0    0 -0.27256819261E+03  0.14361706379E+02 -0.80155898343E+03  0.84675644795E+03  0.00000000000E+00 0. -1.
        -11    1    3    3    0    0 -0.98047989760E+02  0.60473412940E+02 -0.40673890043E+03  0.42273747774E+03  0.00000000000E+00 0.  1.
          2    1    6    6  502    0  0.95115970537E+02 -0.65014361259E+01 -0.14970878295E+03  0.17748812978E+03  0.00000000000E+00 0. -1.
          1    1    5    5  503    0 -0.11948805858E+03  0.23696822263E+02 -0.15536292126E+03  0.19742485363E+03  0.00000000000E+00 0. -1.
         -2    1    5    5    0  503 -0.15413852585E+03 -0.34007149666E+02 -0.11289697894E+03  0.19406416267E+03  0.00000000000E+00 0.  1.
         -1    1    6    6    0  502  0.54912679627E+03 -0.58023355790E+02 -0.12785286916E+04  0.13926746079E+04  0.00000000000E+00 0.  1.
<mgrwt>
<rscale>  0 0.14150855E+04</rscale>
<asrwt>0</asrwt>
<pdfrwt beam="1">  1        2 0.47199543E+00 0.14150855E+04</pdfrwt>
<pdfrwt beam="2">  1       -2 0.25103880E-01 0.14150855E+04</pdfrwt>
<totfact> 0.22049686E+01</totfact>
</mgrwt>
</event>
<event>
12    1  0.1489025E-007  0.1310483E+04  0.7818608E-02  0.9021293E-01
          1   -1    0    0  501    0  0.00000000000E+00  0.00000000000E+00  0.22455393366E+04  0.22455393366E+04  0.00000000000E+00 0. -1.
         -1   -1    0    0    0  501 -0.00000000000E+00 -0.00000000000E+00 -0.19119744108E+03  0.19119744108E+03  0.00000000000E+00 0.  1.
         23    2    1    2    0    0 -0.18826586069E+03 -0.20488107632E+03  0.96383230668E+03  0.10072669947E+04  0.90519575556E+02 0.  0.
        254    2    1    2    0    0  0.18826586069E+03  0.20488107632E+03  0.10905095888E+04  0.14294697829E+04  0.88133558151E+03 0.  0.
        -24    2    4    4    0    0  0.80004769245E+02  0.54465348288E+03  0.71106281013E+03  0.90278517724E+03  0.79765761979E+02 0.  0.
         24    2    4    4    0    0  0.10826109145E+03 -0.33977240656E+03  0.37944677872E+03  0.52668460570E+03  0.79063669409E+02 0.  0.
         13    1    3    3    0    0 -0.54135284504E+02 -0.11665226491E+03  0.50657491436E+03  0.52264378289E+03  0.00000000000E+00 0. -1.
        -13    1    3    3    0    0 -0.13413057619E+03 -0.88228811403E+02  0.45725739232E+03  0.48462321185E+03  0.00000000000E+00 0.  1.
          2    1    6    6  502    0  0.53553498985E-01 -0.42342431327E+02  0.82300195975E+02  0.92553803900E+02  0.00000000000E+00 0. -1.
          1    1    5    5  503    0  0.65585136564E+02  0.18558343326E+03  0.25779173482E+03  0.32434426059E+03  0.00000000000E+00 0. -1.
         -2    1    5    5    0  503  0.14419632681E+02  0.35907004962E+03  0.45327107531E+03  0.57844091665E+03  0.00000000000E+00 0.  1.
         -1    1    6    6    0  502  0.10820753795E+03 -0.29742997523E+03  0.29714658274E+03  0.43413080180E+03  0.00000000000E+00 0.  1.
<mgrwt>
<rscale>  0 0.13104829E+04</rscale>
<asrwt>0</asrwt>
<pdfrwt beam="1">  1        1 0.34546757E+00 0.13104829E+04</pdfrwt>
<pdfrwt beam="2">  1       -1 0.29414993E-01 0.13104829E+04</pdfrwt>
<totfact> 0.21085398E+01</totfact>
</mgrwt>
</event>
<event>
12    1  0.1489025E-007  0.1959644E+04  0.7818608E-02  0.8625724E-01
          1   -1    0    0  501    0  0.00000000000E+00  0.00000000000E+00  0.91969206126E+03  0.91969206126E+03  0.00000000000E+00 0. -1.
         -1   -1    0    0    0  501 -0.00000000000E+00 -0.00000000000E+00 -0.10438837521E+04  0.10438837521E+04  0.00000000000E+00 0.  1.
         23    2    1    2    0    0  0.10971496263E+03 -0.74247359036E+03 -0.19259771324E+03  0.77764410216E+03  0.65818425041E+02 0.  0.
        254    2    1    2    0    0 -0.10971496263E+03  0.74247359036E+03  0.68406022351E+02  0.11859317112E+04  0.91566928224E+03 0.  0.
        -24    2    4    4    0    0 -0.27994329513E+03  0.87472586535E+03  0.16486874625E+03  0.93653087487E+03  0.79967418964E+02 0.  0.
         24    2    4    4    0    0  0.17022833251E+03 -0.13225227499E+03 -0.96462723895E+02  0.24940083637E+03  0.80170884059E+02 0.  0.
         11    1    3    3    0    0  0.11595692579E+03 -0.72964828982E+03 -0.18562392661E+03  0.76176694442E+03  0.00000000000E+00 0.  1.
        -11    1    3    3    0    0 -0.62419631630E+01 -0.12825300532E+02 -0.69737866277E+01  0.15877157737E+02  0.00000000000E+00 0. -1.
          2    1    6    6  502    0  0.15149135974E+03 -0.13169443773E+03 -0.10744183369E+03  0.22767697431E+03  0.00000000000E+00 0. -1.
          3    1    5    5  503    0 -0.23719003979E+03  0.68208991153E+03  0.10131787603E+03  0.72922635333E+03  0.00000000000E+00 0. -1.
         -4    1    5    5    0  503 -0.42753255340E+02  0.19263595382E+03  0.63550870213E+02  0.20730452154E+03  0.00000000000E+00 0.  1.
         -3    1    6    6    0  502  0.18736972768E+02 -0.55783726159E+00  0.10979109791E+02  0.21723862058E+02  0.00000000000E+00 0.  1.
<mgrwt>
<rscale>  0 0.19596445E+04</rscale>
<asrwt>0</asrwt>
<pdfrwt beam="1">  1        1 0.14149109E+00 0.19596445E+04</pdfrwt>
<pdfrwt beam="2">  1       -1 0.16059750E+00 0.19596445E+04</pdfrwt>
<totfact> 0.47208071E+00</totfact>
</mgrwt>
</event>
<event>
12    1  0.1489025E-007  0.1554941E+04  0.7818608E-02  0.8848718E-01
          2   -1    0    0  501    0  0.00000000000E+00  0.00000000000E+00  0.65625054479E+03  0.65625054479E+03  0.00000000000E+00 0. -1.
         -2   -1    0    0    0  501 -0.00000000000E+00 -0.00000000000E+00 -0.92108140418E+03  0.92108140418E+03  0.00000000000E+00 0.  1.
         23    2    1    2    0    0  0.63481143214E+02 -0.48979758809E+03 -0.24798074651E+03  0.55989455817E+03  0.89754848285E+02 0.  0.
        254    2    1    2    0    0 -0.63481143214E+02  0.48979758809E+03 -0.16850112888E+02  0.10174373908E+04  0.88936122305E+03 0.  0.
        -24    2    4    4    0    0  0.10407804128E+03  0.71378844109E+03 -0.22462534591E+02  0.72643099169E+03  0.82892960672E+02 0.  0.
         24    2    4    4    0    0 -0.16755918449E+03 -0.22399085300E+03  0.56124217032E+01  0.29100639911E+03  0.80032758986E+02 0.  0.
         13    1    3    3    0    0  0.30203650053E+02 -0.81841959160E+02 -0.76813453224E+02  0.11623542210E+03  0.00000000000E+00 0. -1.
        -13    1    3    3    0    0  0.33277493161E+02 -0.40795562893E+03 -0.17116729328E+03  0.44365913607E+03  0.00000000000E+00 0.  1.
          2    1    6    6  502    0 -0.15572214337E+03 -0.18324537723E+03 -0.20232540620E+02  0.24132469810E+03  0.00000000000E+00 0. -1.
          1    1    5    5  503    0  0.11380272405E+03  0.66255262124E+03 -0.33638932368E+02  0.67309628857E+03  0.00000000000E+00 0. -1.
         -2    1    5    5    0  503 -0.97246827701E+01  0.51235819842E+02  0.11176397777E+02  0.53334703122E+02  0.00000000000E+00 0.  1.
         -1    1    6    6    0  502 -0.11837041125E+02 -0.40745475765E+02  0.25844962323E+02  0.49681701011E+02  0.00000000000E+00 0.  1.
<mgrwt>
<rscale>  0 0.15549407E+04</rscale>
<asrwt>0</asrwt>
<pdfrwt beam="1">  1        2 0.10096162E+00 0.15549407E+04</pdfrwt>
<pdfrwt beam="2">  1       -2 0.14170483E+00 0.15549407E+04</pdfrwt>
<totfact> 0.14870512E+01</totfact>
</mgrwt>
</event>
<event>
12    1  0.1489025E-007  0.1248288E+04  0.7818608E-02  0.9071609E-01
         -1   -1    0    0    0  501 -0.00000000000E+00  0.00000000000E+00  0.77243723952E+03  0.77243723952E+03  0.00000000000E+00 0.  1.
          1   -1    0    0  501    0  0.00000000000E+00 -0.00000000000E+00 -0.50432012680E+03  0.50432012680E+03  0.00000000000E+00 0. -1.
         23    2    1    2    0    0 -0.41133737827E+02  0.16749921654E+03  0.27652323874E+03  0.33841778633E+03  0.91178531542E+02 0.  0.
        254    2    1    2    0    0  0.41133737827E+02 -0.16749921654E+03 -0.84061260171E+01  0.93833957999E+03  0.92231368444E+03 0.  0.
        -24    2    4    4    0    0 -0.18776474432E+03 -0.28694358127E+02 -0.40392765500E+03  0.45396833050E+03  0.82769132101E+02 0.  0.
         24    2    4    4    0    0  0.22889848215E+03 -0.13880485841E+03  0.39552152898E+03  0.48437124949E+03  0.80727464939E+02 0.  0.
         11    1    3    3    0    0 -0.28380565279E+02  0.35717187206E+02  0.14414968222E+03  0.15119624609E+03  0.00000000000E+00 0.  1.
        -11    1    3    3    0    0 -0.12753172548E+02  0.13178202933E+03  0.13237355652E+03  0.18722154024E+03  0.00000000000E+00 0. -1.
          4    1    6    6  502    0  0.35664246108E+02 -0.25330372628E+02  0.22441695353E+02  0.49164986710E+02  0.00000000000E+00 0. -1.
          3    1    5    5  503    0 -0.39733029810E+01  0.16040915410E+02 -0.19783265491E+02  0.25777426117E+02  0.00000000000E+00 0. -1.
         -4    1    5    5    0  503 -0.18379144134E+03 -0.44735273536E+02 -0.38414438951E+03  0.42819090439E+03  0.00000000000E+00 0.  1.
         -3    1    6    6    0  502  0.19323423604E+03 -0.11347448579E+03  0.37307983363E+03  0.43520626278E+03  0.00000000000E+00 0.  1.
<mgrwt>
<rscale>  0 0.12482879E+04</rscale>
<asrwt>0</asrwt>
<pdfrwt beam="1">  1        1 0.77587712E-01 0.12482879E+04</pdfrwt>
<pdfrwt beam="2">  1       -1 0.11883650E+00 0.12482879E+04</pdfrwt>
<totfact> 0.27399113E+01</totfact>
</mgrwt>
</event>
<event>
12    1  0.1489025E-007  0.3350316E+04  0.7818608E-02  0.8150209E-01
         -2   -1    0    0    0  501 -0.00000000000E+00  0.00000000000E+00  0.13710269272E+04  0.13710269272E+04  0.00000000000E+00 0.  1.
          2   -1    0    0  501    0  0.00000000000E+00 -0.00000000000E+00 -0.20467531636E+04  0.20467531636E+04  0.00000000000E+00 0. -1.
         23    2    1    2    0    0 -0.11266039973E+04 -0.10686157907E+04 -0.33595669737E+03  0.15913176663E+04  0.90822562073E+02 0.  0.
        254    2    1    2    0    0  0.11266039973E+04  0.10686157907E+04 -0.33976953904E+03  0.18264624246E+04  0.89963624532E+03 0.  0.
        -24    2    4    4    0    0  0.50135499381E+03 -0.13511265494E+02  0.59079999839E+02  0.51204547822E+03  0.84621163200E+02 0.  0.
         24    2    4    4    0    0  0.62524900346E+03  0.10821270562E+04 -0.39884953888E+03  0.13144169463E+04  0.81704786492E+02 0.  0.
         13    1    3    3    0    0 -0.93523687206E+03 -0.87505747853E+03 -0.24250855037E+03  0.13035351912E+04  0.00000000000E+00 0.  1.
        -13    1    3    3    0    0 -0.19136712521E+03 -0.19355831216E+03 -0.93448147000E+02  0.28778247514E+03  0.00000000000E+00 0. -1.
          2    1    6    6  502    0  0.53689279735E+02  0.68974724171E+02 -0.10423351451E+02  0.88026686796E+02  0.00000000000E+00 0. -1.
          3    1    5    5  503    0  0.63812673705E+02 -0.41298862369E+01  0.36926471572E+02  0.73842247992E+02  0.00000000000E+00 0. -1.
         -4    1    5    5    0  503  0.43754232011E+03 -0.93813792571E+01  0.22153528267E+02  0.43820323022E+03  0.00000000000E+00 0.  1.
         -1    1    6    6    0  502  0.57155972372E+03  0.10131523320E+04 -0.38842618743E+03  0.12263902596E+04  0.00000000000E+00 0.  1.
<mgrwt>
<rscale>  0 0.33503156E+04</rscale>
<asrwt>0</asrwt>
<pdfrwt beam="1">  1        2 0.31488510E+00 0.33503156E+04</pdfrwt>
<pdfrwt beam="2">  1       -2 0.21092722E+00 0.33503156E+04</pdfrwt>
<totfact> 0.59118198E-01</totfact>
</mgrwt>
</event>
<event>
12    1  0.1489025E-007  0.2086770E+04  0.7818608E-02  0.8567094E-01
          2   -1    0    0  501    0  0.00000000000E+00  0.00000000000E+00  0.25728277945E+04  0.25728277945E+04  0.00000000000E+00 0. -1.
         -2   -1    0    0    0  501 -0.00000000000E+00 -0.00000000000E+00 -0.42313450654E+03  0.42313450654E+03  0.00000000000E+00 0.  1.
         23    2    1    2    0    0 -0.45547964745E+03 -0.19190856373E+03 -0.10786328982E+03  0.51433094669E+03  0.92796699101E+02 0.  0.
        254    2    1    2    0    0  0.45547964745E+03  0.19190856373E+03  0.22575565778E+04  0.24816313544E+04  0.90423551742E+03 0.  0.
        -24    2    4    4    0    0  0.43173326966E+03 -0.16365603162E+03  0.49544490374E+03  0.68193531813E+03  0.79957567832E+02 0.  0.
         24    2    4    4    0    0  0.23746377787E+02  0.35556459535E+03  0.17621116740E+04  0.17996960362E+04  0.82934908782E+02 0.  0.
         13    1    3    3    0    0 -0.11006003609E+03 -0.69143506331E+01 -0.35628891000E+02  0.11588976514E+03  0.00000000000E+00 0. -1.
        -13    1    3    3    0    0 -0.34541961136E+03 -0.18499421310E+03 -0.72234398821E+02  0.39844118156E+03  0.00000000000E+00 0.  1.
          2    1    6    6  502    0  0.18452428031E+02  0.16166389117E+03  0.60795336510E+03  0.62935125323E+03  0.00000000000E+00 0. -1.
          1    1    5    5  503    0  0.69486960697E+02  0.24554638016E+01  0.62386106762E+02  0.93415701712E+02  0.00000000000E+00 0. -1.
         -2    1    5    5    0  503  0.36224630896E+03 -0.16611149542E+03  0.43305879698E+03  0.58851961642E+03  0.00000000000E+00 0.  1.
         -1    1    6    6    0  502  0.52939497567E+01  0.19390070418E+03  0.11541583090E+04  0.11703447830E+04  0.00000000000E+00 0.  1.
<mgrwt>
<rscale>  0 0.20867700E+04</rscale>
<asrwt>0</asrwt>
<pdfrwt beam="1">  1        2 0.39581965E+00 0.20867700E+04</pdfrwt>
<pdfrwt beam="2">  1       -2 0.65097618E-01 0.20867700E+04</pdfrwt>
<totfact> 0.63409361E+00</totfact>
</mgrwt>
</event>
<event>
12    1  0.1489025E-007  0.2214091E+04  0.7818608E-02  0.8512586E-01
         -2   -1    0    0    0  501 -0.00000000000E+00  0.00000000000E+00  0.69017164639E+03  0.69017164639E+03  0.00000000000E+00 0.  1.
          2   -1    0    0  501    0  0.00000000000E+00 -0.00000000000E+00 -0.17757179957E+04  0.17757179957E+04  0.00000000000E+00 0. -1.
         23    2    1    2    0    0 -0.13165949566E+03 -0.49218586908E+03  0.39157537655E+03  0.64861443443E+03  0.88251099247E+02 0.  0.
        254    2    1    2    0    0  0.13165949566E+03  0.49218586908E+03 -0.14771217259E+04  0.18172752077E+04  0.92791132922E+03 0.  0.
        -24    2    4    4    0    0 -0.23622479499E+03  0.60794472417E+03 -0.10204265979E+04  0.12142002934E+04  0.87252332134E+02 0.  0.
         24    2    4    4    0    0  0.36788429065E+03 -0.11575885509E+03 -0.45669512802E+03  0.60307491429E+03  0.79937153125E+02 0.  0.
         11    1    3    3    0    0 -0.38555011907E+02 -0.30644444942E+03  0.24726208189E+03  0.39564280185E+03  0.00000000000E+00 0.  1.
        -11    1    3    3    0    0 -0.93104483752E+02 -0.18574141966E+03  0.14431329466E+03  0.25297163258E+03  0.00000000000E+00 0. -1.
          2    1    6    6  502    0  0.34733459289E+03 -0.89111253272E+02 -0.40046559068E+03  0.53754518340E+03  0.00000000000E+00 0. -1.
          3    1    5    5  503    0 -0.12727496034E+03  0.31245583354E+03 -0.60728436081E+03  0.69470990948E+03  0.00000000000E+00 0. -1.
         -4    1    5    5    0  503 -0.10894983465E+03  0.29548889062E+03 -0.41314223707E+03  0.51949038394E+03  0.00000000000E+00 0.  1.
         -1    1    6    6    0  502  0.20549697753E+02 -0.26647601818E+02 -0.56229537343E+02  0.65529730888E+02  0.00000000000E+00 0.  1.
<mgrwt>
<rscale>  0 0.22140914E+04</rscale>
<asrwt>0</asrwt>
<pdfrwt beam="1">  1        2 0.27318738E+00 0.22140914E+04</pdfrwt>
<pdfrwt beam="2">  1       -2 0.10618025E+00 0.22140914E+04</pdfrwt>
<totfact> 0.58153160E+00</totfact>
</mgrwt>
</event>
<event>
12    1  0.1489025E-007  0.1284568E+04  0.7818608E-02  0.9041893E-01
          1   -1    0    0  501    0  0.00000000000E+00  0.00000000000E+00  0.76899409508E+03  0.76899409508E+03  0.00000000000E+00 0. -1.
         -1   -1    0    0    0  501 -0.00000000000E+00 -0.00000000000E+00 -0.53645225992E+03  0.53645225992E+03  0.00000000000E+00 0.  1.
         23    2    1    2    0    0  0.10937713930E+03  0.29385961130E+03  0.96730909876E+02  0.34041570208E+03  0.90604368240E+02 0.  0.
        254    2    1    2    0    0 -0.10937713930E+03 -0.29385961130E+03  0.13581092528E+03  0.96503065292E+03  0.90250912676E+03 0.  0.
        -24    2    4    4    0    0  0.35143379126E+03 -0.55134265948E+02  0.23085096060E+03  0.43152542760E+03  0.79853188635E+02 0.  0.
         24    2    4    4    0    0 -0.46081093057E+03 -0.23872534535E+03 -0.95040035319E+02  0.53350522532E+03  0.79112027430E+02 0.  0.
         11    1    3    3    0    0  0.41112970086E+02  0.15920602702E+03  0.94043744453E+02  0.18942296909E+03  0.00000000000E+00 0. -1.
        -11    1    3    3    0    0  0.68264169218E+02  0.13465358428E+03  0.26871654232E+01  0.15099273299E+03  0.00000000000E+00 0.  1.
          4    1    6    6  502    0 -0.54225860841E+01 -0.13824314858E+02 -0.11504256744E+02  0.18784675786E+02  0.00000000000E+00 0. -1.
          3    1    5    5  503    0  0.21041147374E+03 -0.65302866054E+02  0.11377133132E+03  0.24795436763E+03  0.00000000000E+00 0. -1.
         -4    1    5    5    0  503  0.14102231753E+03  0.10168600105E+02  0.11707962928E+03  0.18357105998E+03  0.00000000000E+00 0.  1.
         -3    1    6    6    0  502 -0.45538834448E+03 -0.22490103049E+03 -0.83535778575E+02  0.51472054953E+03  0.00000000000E+00 0.  1.
<mgrwt>
<rscale>  0 0.12845678E+04</rscale>
<asrwt>0</asrwt>
<pdfrwt beam="1">  1        1 0.11830678E+00 0.12845678E+04</pdfrwt>
<pdfrwt beam="2">  1       -1 0.82531117E-01 0.12845678E+04</pdfrwt>
<totfact> 0.33814833E+01</totfact>
</mgrwt>
</event>
<event>
12    1  0.1489025E-007  0.1497447E+04  0.7818608E-02  0.8886152E-01
         -2   -1    0    0    0  501 -0.00000000000E+00  0.00000000000E+00  0.69764976028E+03  0.69764976028E+03  0.00000000000E+00 0.  1.
          2   -1    0    0  501    0  0.00000000000E+00 -0.00000000000E+00 -0.80353627013E+03  0.80353627013E+03  0.00000000000E+00 0. -1.
         23    2    1    2    0    0 -0.44113847311E+03  0.58177792744E+02 -0.20247005048E+03  0.49703643566E+03  0.89795818423E+02 0.  0.
        254    2    1    2    0    0  0.44113847311E+03 -0.58177792744E+02  0.96583540631E+02  0.10041495948E+04  0.89498615648E+03 0.  0.
        -24    2    4    4    0    0  0.52346606626E+03 -0.34332844707E+03 -0.99489465308E+02  0.63888245859E+03  0.79884273188E+02 0.  0.
         24    2    4    4    0    0 -0.82327593150E+02  0.28515065432E+03  0.19607300594E+03  0.36526713616E+03  0.82986317217E+02 0.  0.
         13    1    3    3    0    0 -0.88607564002E+01  0.14929218057E+02  0.83971147052E+00  0.17381014675E+02  0.00000000000E+00 0.  1.
        -13    1    3    3    0    0 -0.43227771671E+03  0.43248574687E+02 -0.20330976195E+03  0.47965542098E+03  0.00000000000E+00 0. -1.
          4    1    6    6  502    0 -0.98607346643E+01  0.69856251990E+02  0.92587523843E+01  0.71153738664E+02  0.00000000000E+00 0. -1.
          1    1    5    5  503    0  0.32617304799E+03 -0.19431725613E+03 -0.24236192491E+02  0.38044112067E+03  0.00000000000E+00 0. -1.
         -2    1    5    5    0  503  0.19729301827E+03 -0.14901119094E+03 -0.75253272817E+02  0.25844133793E+03  0.00000000000E+00 0.  1.
         -3    1    6    6    0  502 -0.72466858486E+02  0.21529440233E+03  0.18681425355E+03  0.29411339750E+03  0.00000000000E+00 0.  1.
<mgrwt>
<rscale>  0 0.14974470E+04</rscale>
<asrwt>0</asrwt>
<pdfrwt beam="1">  1        2 0.12362096E+00 0.14974470E+04</pdfrwt>
<pdfrwt beam="2">  1       -2 0.10733073E+00 0.14974470E+04</pdfrwt>
<totfact> 0.23076323E+01</totfact>
</mgrwt>
</event>
<event>
12    1  0.1489025E-007  0.1412146E+04  0.7818608E-02  0.8945074E-01
          2   -1    0    0  501    0  0.00000000000E+00  0.00000000000E+00  0.17652580709E+04  0.17652580709E+04  0.00000000000E+00 0. -1.
         -2   -1    0    0    0  501 -0.00000000000E+00 -0.00000000000E+00 -0.28241694097E+03  0.28241694097E+03  0.00000000000E+00 0.  1.
         23    2    1    2    0    0 -0.97286635855E+02  0.38979873967E+03  0.48995204287E+03  0.64066908965E+03  0.94847937000E+02 0.  0.
        254    2    1    2    0    0  0.97286635855E+02 -0.38979873967E+03  0.99288908707E+03  0.14070059222E+04  0.91237556906E+03 0.  0.
        -24    2    4    4    0    0  0.13541222980E+03 -0.28843527974E+03 -0.70161080949E+02  0.33553290260E+03  0.78283899183E+02 0.  0.
         24    2    4    4    0    0 -0.38125593948E+02 -0.10136345993E+03  0.10630501680E+04  0.10714730196E+04  0.79061116522E+02 0.  0.
         11    1    3    3    0    0  0.10043887597E+01  0.10715150080E+03  0.18245410858E+03  0.21159384362E+03  0.00000000000E+00 0. -1.
        -11    1    3    3    0    0 -0.98291024615E+02  0.28264723887E+03  0.30749793429E+03  0.42907524603E+03  0.00000000000E+00 0.  1.
          2    1    6    6  502    0 -0.44741496643E+02 -0.11236088293E+03  0.93755463359E+03  0.94532293980E+03  0.00000000000E+00 0. -1.
          3    1    5    5  503    0  0.11984396253E+03 -0.25816035770E+03 -0.35292104984E+02  0.28680111282E+03  0.00000000000E+00 0. -1.
         -4    1    5    5    0  503  0.15568267275E+02 -0.30274922040E+02 -0.34868975965E+02  0.48731789782E+02  0.00000000000E+00 0.  1.
         -1    1    6    6    0  502  0.66159026953E+01  0.10997422995E+02  0.12549553443E+03  0.12615007984E+03  0.00000000000E+00 0.  1.
<mgrwt>
<rscale>  0 0.14121456E+04</rscale>
<asrwt>0</asrwt>
<pdfrwt beam="1">  1        2 0.27157816E+00 0.14121456E+04</pdfrwt>
<pdfrwt beam="2">  1       -2 0.43448761E-01 0.14121456E+04</pdfrwt>
<totfact> 0.44061226E+01</totfact>
</mgrwt>
</event>
<event>
12    1  0.1489025E-007  0.2666056E+04  0.7818608E-02  0.8346103E-01
          2   -1    0    0  501    0  0.00000000000E+00  0.00000000000E+00  0.20962879485E+04  0.20962879485E+04  0.00000000000E+00 0. -1.
         -2   -1    0    0    0  501 -0.00000000000E+00 -0.00000000000E+00 -0.84767158000E+03  0.84767158000E+03  0.00000000000E+00 0.  1.
         23    2    1    2    0    0 -0.73913035667E+03 -0.46072294781E+03  0.14180522139E+04  0.16666657356E+04  0.91231978199E+02 0.  0.
        254    2    1    2    0    0  0.73913035667E+03  0.46072294781E+03 -0.16943584546E+03  0.12772937929E+04  0.91879900354E+03 0.  0.
        -24    2    4    4    0    0 -0.75073954749E+02 -0.75770004842E+02  0.19071022767E+03  0.23504180314E+03  0.86585599097E+02 0.  0.
         24    2    4    4    0    0  0.81420431142E+03  0.53649295265E+03 -0.36014607313E+03  0.10422519898E+04  0.76358805718E+02 0.  0.
         13    1    3    3    0    0 -0.18180368064E+03 -0.16065603416E+03  0.37963543022E+03  0.45053967581E+03  0.00000000000E+00 0.  1.
        -13    1    3    3    0    0 -0.55732667603E+03 -0.30006691365E+03  0.10384167837E+04  0.12161260597E+04  0.00000000000E+00 0. -1.
          2    1    6    6  502    0  0.12844848495E+03  0.11807316733E+03 -0.73372174097E+02  0.18927166207E+03  0.00000000000E+00 0. -1.
          3    1    5    5  503    0  0.17055717252E+02  0.11614733702E+01  0.19243960364E+02  0.25740561801E+02  0.00000000000E+00 0. -1.
         -4    1    5    5    0  503 -0.92129672001E+02 -0.76931478212E+02  0.17146626731E+03  0.20930124134E+03  0.00000000000E+00 0.  1.
         -1    1    6    6    0  502  0.68575582647E+03  0.41841978532E+03 -0.28677389904E+03  0.85298032770E+03  0.00000000000E+00 0.  1.
<mgrwt>
<rscale>  0 0.26660561E+04</rscale>
<asrwt>0</asrwt>
<pdfrwt beam="1">  1        2 0.32250584E+00 0.26660561E+04</pdfrwt>
<pdfrwt beam="2">  1       -2 0.13041101E+00 0.26660561E+04</pdfrwt>
<totfact> 0.22377638E+00</totfact>
</mgrwt>
</event>
<event>
12    1  0.1489025E-007  0.1557332E+04  0.7818608E-02  0.8847198E-01
         -2   -1    0    0    0  501 -0.00000000000E+00  0.00000000000E+00  0.21989831881E+03  0.21989831881E+03  0.00000000000E+00 0.  1.
          2   -1    0    0  501    0  0.00000000000E+00 -0.00000000000E+00 -0.27572777127E+04  0.27572777127E+04  0.00000000000E+00 0. -1.
         23    2    1    2    0    0  0.33093562948E+03 -0.21155099845E+03 -0.22442713706E+03  0.46139060048E+03  0.90782875872E+02 0.  0.
        254    2    1    2    0    0 -0.33093562948E+03  0.21155099845E+03 -0.23129522568E+04  0.25157854310E+04  0.90838096459E+03 0.  0.
        -24    2    4    4    0    0 -0.10067803249E+03  0.27006581957E+03 -0.14234788772E+03  0.33074256863E+03  0.77821028250E+02 0.  0.
         24    2    4    4    0    0 -0.23025759699E+03 -0.58514821115E+02 -0.21706043691E+04  0.21850428624E+04  0.80289713595E+02 0.  0.
         13    1    3    3    0    0  0.19511956745E+01 -0.24709618638E+02 -0.13288023318E+02  0.28123726309E+02  0.00000000000E+00 0. -1.
        -13    1    3    3    0    0  0.32898443381E+03 -0.18684137982E+03 -0.21113911374E+03  0.43326687417E+03  0.00000000000E+00 0.  1.
          2    1    6    6  502    0 -0.33755320090E+02 -0.55864655755E+01 -0.13410969919E+03  0.13840535267E+03  0.00000000000E+00 0. -1.
          1    1    5    5  503    0 -0.32646836115E+02  0.15728154822E+03 -0.11128147600E+03  0.19541460595E+03  0.00000000000E+00 0. -1.
         -2    1    5    5    0  503 -0.68031196377E+02  0.11278427135E+03 -0.31066411717E+02  0.13532796268E+03  0.00000000000E+00 0.  1.
         -1    1    6    6    0  502 -0.19650227690E+03 -0.52928355540E+02 -0.20364946699E+04  0.20466375097E+04  0.00000000000E+00 0.  1.
<mgrwt>
<rscale>  0 0.15573320E+04</rscale>
<asrwt>0</asrwt>
<pdfrwt beam="1">  1        2 0.42419656E+00 0.15573320E+04</pdfrwt>
<pdfrwt beam="2">  1       -2 0.33830511E-01 0.15573320E+04</pdfrwt>
<totfact> 0.19380414E+01</totfact>
</mgrwt>
</event>
<event>
12    1  0.1489025E-007  0.1459660E+04  0.7818608E-02  0.8911731E-01
          2   -1    0    0  501    0  0.00000000000E+00  0.00000000000E+00  0.10097587162E+04  0.10097587162E+04  0.00000000000E+00 0. -1.
         -2   -1    0    0    0  501 -0.00000000000E+00 -0.00000000000E+00 -0.52750407884E+03  0.52750407884E+03  0.00000000000E+00 0.  1.
         23    2    1    2    0    0 -0.27824109341E+03 -0.12997399062E+03  0.48642651056E+03  0.58224205836E+03  0.89909510340E+02 0.  0.
        254    2    1    2    0    0  0.27824109341E+03  0.12997399062E+03 -0.41718731762E+01  0.95502073669E+03  0.90428748675E+03 0.  0.
        -24    2    4    4    0    0  0.28567385581E+03  0.60818372322E+02  0.41997570585E+03  0.51794143903E+03  0.81088312680E+02 0.  0.
         24    2    4    4    0    0 -0.74327624041E+01  0.69155618299E+02 -0.42414757903E+03  0.43707929766E+03  0.79368747960E+02 0.  0.
         11    1    3    3    0    0 -0.99758402490E+02 -0.54533760019E+01  0.18791580797E+03  0.21282346924E+03  0.00000000000E+00 0. -1.
        -11    1    3    3    0    0 -0.17848269092E+03 -0.12452061462E+03  0.29851070260E+03  0.36941858912E+03  0.00000000000E+00 0.  1.
          4    1    6    6  502    0  0.12431312599E+02 -0.17281582204E+01 -0.89719176254E+01  0.15427876381E+02  0.00000000000E+00 0. -1.
          3    1    5    5  503    0  0.30736066217E+02  0.94334078732E+00  0.11706926578E+02  0.32903613604E+02  0.00000000000E+00 0. -1.
         -4    1    5    5    0  503  0.25493778959E+03  0.59875031535E+02  0.40826877927E+03  0.48503782543E+03  0.00000000000E+00 0.  1.
         -3    1    6    6    0  502 -0.19864075003E+02  0.70883776519E+02 -0.41517566140E+03  0.42165142128E+03  0.00000000000E+00 0.  1.
<mgrwt>
<rscale>  0 0.14596600E+04</rscale>
<asrwt>0</asrwt>
<pdfrwt beam="1">  1        2 0.15534749E+00 0.14596600E+04</pdfrwt>
<pdfrwt beam="2">  1       -2 0.81154474E-01 0.14596600E+04</pdfrwt>
<totfact> 0.32209025E+01</totfact>
</mgrwt>
</event>
<event>
12    1  0.1489025E-007  0.1050840E+04  0.7818608E-02  0.9254477E-01
         -1   -1    0    0    0  501 -0.00000000000E+00  0.00000000000E+00  0.20870668076E+03  0.20870668076E+03  0.00000000000E+00 0.  1.
          1   -1    0    0  501    0  0.00000000000E+00 -0.00000000000E+00 -0.13227468535E+04  0.13227468535E+04  0.00000000000E+00 0. -1.
         23    2    1    2    0    0 -0.13176150168E+02  0.11769668653E+03 -0.82405110371E+02  0.16955874432E+03  0.89069886078E+02 0.  0.
        254    2    1    2    0    0  0.13176150168E+02 -0.11769668653E+03 -0.10316350623E+04  0.13618947899E+04  0.88116990189E+03 0.  0.
        -24    2    4    4    0    0  0.31845710601E+03 -0.33468403851E+03 -0.37035805394E+03  0.59733686614E+03  0.78853722353E+02 0.  0.
         24    2    4    4    0    0 -0.30528095584E+03  0.21698735199E+03 -0.66127700841E+03  0.76455792378E+03  0.83555754128E+02 0.  0.
         13    1    3    3    0    0 -0.23794431323E+02  0.98717382230E+02 -0.99294119439E+02  0.14202330327E+03  0.00000000000E+00 0. -1.
        -13    1    3    3    0    0  0.10618281156E+02  0.18979304297E+02  0.16889009068E+02  0.27535441046E+02  0.00000000000E+00 0.  1.
          4    1    6    6  502    0 -0.27986501343E+03  0.22211619830E+03 -0.62581971591E+03  0.72063190889E+03  0.00000000000E+00 0. -1.
          1    1    5    5  503    0  0.15702595246E+03 -0.22061041083E+03 -0.22284459596E+03  0.35069333764E+03  0.00000000000E+00 0. -1.
         -2    1    5    5    0  503  0.16143115354E+03 -0.11407362768E+03 -0.14751345798E+03  0.24664352850E+03  0.00000000000E+00 0.  1.
         -3    1    6    6    0  502 -0.25415942408E+02 -0.51288463108E+01 -0.35457292500E+02  0.43926014893E+02  0.00000000000E+00 0.  1.
<mgrwt>
<rscale>  0 0.10508399E+04</rscale>
<asrwt>0</asrwt>
<pdfrwt beam="1">  1        1 0.20349951E+00 0.10508399E+04</pdfrwt>
<pdfrwt beam="2">  1       -1 0.32108721E-01 0.10508399E+04</pdfrwt>
<totfact> 0.78768265E+01</totfact>
</mgrwt>
</event>
<event>
12    1  0.1489025E-007  0.2169448E+04  0.7818608E-02  0.8531253E-01
          1   -1    0    0  501    0  0.00000000000E+00  0.00000000000E+00  0.22698298431E+04  0.22698298431E+04  0.00000000000E+00 0. -1.
         -1   -1    0    0    0  501 -0.00000000000E+00 -0.00000000000E+00 -0.51837618305E+03  0.51837618305E+03  0.00000000000E+00 0.  1.
         23    2    1    2    0    0  0.32279401820E+03  0.66963016900E+03  0.89787991639E+02  0.75406584806E+03  0.89178911985E+02 0.  0.
        254    2    1    2    0    0 -0.32279401820E+03 -0.66963016900E+03  0.16616656684E+04  0.20341401781E+04  0.90774056269E+03 0.  0.
        -24    2    4    4    0    0  0.27983245634E+03 -0.33325983402E+02  0.42210615627E+03  0.51397535072E+03  0.81118611877E+02 0.  0.
         24    2    4    4    0    0 -0.60262647454E+03 -0.63630418560E+03  0.12395595121E+04  0.15201648273E+04  0.79697138199E+02 0.  0.
         11    1    3    3    0    0  0.29730375514E+03  0.57331382785E+03  0.53489500840E+02  0.64802731017E+03  0.00000000000E+00 0.  1.
        -11    1    3    3    0    0  0.25490263064E+02  0.96316341147E+02  0.36298490800E+02  0.10603853789E+03  0.00000000000E+00 0. -1.
          4    1    6    6  502    0 -0.50796413369E+03 -0.49287504903E+03  0.97973261344E+03  0.12086477439E+04  0.00000000000E+00 0. -1.
          1    1    5    5  503    0  0.19728461600E+03 -0.19613336022E+02  0.35541409046E+03  0.40697061117E+03  0.00000000000E+00 0. -1.
         -4    1    5    5    0  503  0.82547840339E+02 -0.13712647380E+02  0.66692065806E+02  0.10700473954E+03  0.00000000000E+00 0.  1.
         -3    1    6    6    0  502 -0.94662340844E+02 -0.14342913657E+03  0.25982689866E+03  0.31151708341E+03  0.00000000000E+00 0.  1.
<mgrwt>
<rscale>  0 0.21694476E+04</rscale>
<asrwt>0</asrwt>
<pdfrwt beam="1">  1        1 0.34920459E+00 0.21694476E+04</pdfrwt>
<pdfrwt beam="2">  1       -1 0.79750183E-01 0.21694476E+04</pdfrwt>
<totfact> 0.28016698E+00</totfact>
</mgrwt>
</event>
<event>
12    1  0.1489025E-007  0.1328648E+04  0.7818608E-02  0.9007150E-01
         -1   -1    0    0    0  501 -0.00000000000E+00  0.00000000000E+00  0.24587720522E+03  0.24587720522E+03  0.00000000000E+00 0.  1.
          1   -1    0    0  501    0  0.00000000000E+00 -0.00000000000E+00 -0.17949069352E+04  0.17949069352E+04  0.00000000000E+00 0. -1.
         23    2    1    2    0    0 -0.19515589872E+02  0.10299489044E+03 -0.91859973971E+03  0.92921967353E+03  0.92924238867E+02 0.  0.
        254    2    1    2    0    0  0.19515589872E+02 -0.10299489044E+03 -0.63042999023E+03  0.11115644669E+04  0.90947500553E+03 0.  0.
        -24    2    4    4    0    0  0.83689986922E+02  0.27098320102E+03  0.76716059081E+02  0.30466421399E+03  0.80616502132E+02 0.  0.
         24    2    4    4    0    0 -0.64174397050E+02 -0.37397809146E+03 -0.70714604932E+03  0.80690025287E+03  0.83991171463E+02 0.  0.
         13    1    3    3    0    0 -0.54592322850E+02  0.82751225791E+02 -0.68468941129E+03  0.69182922533E+03  0.00000000000E+00 0. -1.
        -13    1    3    3    0    0  0.35076732978E+02  0.20243664646E+02 -0.23391032842E+03  0.23739044820E+03  0.00000000000E+00 0.  1.
          2    1    6    6  502    0  0.13879596746E+02 -0.19016954741E+02 -0.27670187909E+02  0.36330800602E+02  0.00000000000E+00 0. -1.
          3    1    5    5  503    0  0.29496880384E+02  0.94101489318E+02  0.67368908790E+02  0.11943084240E+03  0.00000000000E+00 0. -1.
         -4    1    5    5    0  503  0.54193106539E+02  0.17688171171E+03  0.93471502910E+01  0.18523337159E+03  0.00000000000E+00 0.  1.
         -1    1    6    6    0  502 -0.78053993796E+02 -0.35496113672E+03 -0.67947586141E+03  0.77056945226E+03  0.00000000000E+00 0.  1.
<mgrwt>
<rscale>  0 0.13286485E+04</rscale>
<asrwt>0</asrwt>
<pdfrwt beam="1">  1        1 0.27613953E+00 0.13286485E+04</pdfrwt>
<pdfrwt beam="2">  1       -1 0.37827262E-01 0.13286485E+04</pdfrwt>
<totfact> 0.27165429E+01</totfact>
</mgrwt>
</event>
<event>
12    1  0.1489025E-007  0.3369232E+04  0.7818608E-02  0.8145499E-01
          1   -1    0    0  501    0  0.00000000000E+00  0.00000000000E+00  0.25479304083E+04  0.25479304083E+04  0.00000000000E+00 0. -1.
         -1   -1    0    0    0  501 -0.00000000000E+00 -0.00000000000E+00 -0.11138178273E+04  0.11138178273E+04  0.00000000000E+00 0.  1.
         23    2    1    2    0    0  0.11784405851E+03 -0.13879307588E+04  0.14232305610E+04  0.19935095668E+04  0.90863356378E+02 0.  0.
        254    2    1    2    0    0 -0.11784405851E+03  0.13879307588E+04  0.10882020001E+02  0.16682386689E+04  0.91796667940E+03 0.  0.
        -24    2    4    4    0    0  0.20969509028E+03  0.32924815266E+03  0.32449414634E+03  0.51378355893E+03  0.79377059029E+02 0.  0.
         24    2    4    4    0    0 -0.32753914879E+03  0.10586826062E+04 -0.31361212634E+03  0.11544551099E+04  0.79519057186E+02 0.  0.
         11    1    3    3    0    0  0.51493623546E+02 -0.23922267152E+03  0.27145135888E+03  0.36546534729E+03  0.00000000000E+00 0.  1.
        -11    1    3    3    0    0  0.66350434961E+02 -0.11487080873E+04  0.11517792021E+04  0.16280442195E+04  0.00000000000E+00 0. -1.
          2    1    6    6  502    0 -0.62193570595E+02  0.15707716418E+03 -0.74723227734E+02  0.18472908946E+03  0.00000000000E+00 0. -1.
          1    1    5    5  503    0  0.10010869693E+03  0.22815925821E+03  0.19752060771E+03  0.31795092196E+03  0.00000000000E+00 0. -1.
         -2    1    5    5    0  503  0.10958639335E+03  0.10108889446E+03  0.12697353863E+03  0.19583263697E+03  0.00000000000E+00 0.  1.
         -1    1    6    6    0  502 -0.26534557819E+03  0.90160544200E+03 -0.23888889861E+03  0.96972602048E+03  0.00000000000E+00 0.  1.
<mgrwt>
<rscale>  0 0.33692316E+04</rscale>
<asrwt>0</asrwt>
<pdfrwt beam="1">  1        1 0.39198929E+00 0.33692316E+04</pdfrwt>
<pdfrwt beam="2">  1       -1 0.17135659E+00 0.33692316E+04</pdfrwt>
<totfact> 0.24879058E-01</totfact>
</mgrwt>
</event>
<event>
12    1  0.1489025E-007  0.1534379E+04  0.7818608E-02  0.8861908E-01
         -1   -1    0    0    0  501 -0.00000000000E+00  0.00000000000E+00  0.69613568936E+03  0.69613568936E+03  0.00000000000E+00 0.  1.
          1   -1    0    0  501    0  0.00000000000E+00 -0.00000000000E+00 -0.84549562878E+03  0.84549562878E+03  0.00000000000E+00 0. -1.
         23    2    1    2    0    0  0.33860380109E+03  0.28632449951E+03 -0.27869109641E+03  0.53149242447E+03  0.90450079656E+02 0.  0.
        254    2    1    2    0    0 -0.33860380109E+03 -0.28632449951E+03  0.12933115700E+03  0.10101388937E+04  0.89834279827E+03 0.  0.
        -24    2    4    4    0    0 -0.14104767550E+03 -0.31566137586E+03  0.48108432048E+03  0.59786328362E+03  0.80385518103E+02 0.  0.
         24    2    4    4    0    0 -0.19755612560E+03  0.29336876346E+02 -0.35175316348E+03  0.41227561005E+03  0.79698278196E+02 0.  0.
         11    1    3    3    0    0  0.28239570043E+03  0.25322376054E+03 -0.19844067822E+03  0.42807511875E+03  0.00000000000E+00 0. -1.
        -11    1    3    3    0    0  0.56208100668E+02  0.33100738969E+02 -0.80250418194E+02  0.10341730571E+03  0.00000000000E+00 0.  1.
          2    1    6    6  502    0  0.57332263345E+01  0.90327994600E+01 -0.15883656604E+02  0.19150767541E+02  0.00000000000E+00 0. -1.
          3    1    5    5  503    0  0.97443505638E+01 -0.11368133203E+02  0.26405495728E+02  0.30355181190E+02  0.00000000000E+00 0. -1.
         -4    1    5    5    0  503 -0.15079202606E+03 -0.30429324265E+03  0.45467882475E+03  0.56750810243E+03  0.00000000000E+00 0.  1.
         -1    1    6    6    0  502 -0.20328935193E+03  0.20304076886E+02 -0.33586950688E+03  0.39312484251E+03  0.00000000000E+00 0.  1.
<mgrwt>
<rscale>  0 0.15343789E+04</rscale>
<asrwt>0</asrwt>
<pdfrwt beam="1">  1        1 0.13007625E+00 0.15343789E+04</pdfrwt>
<pdfrwt beam="2">  1       -1 0.10709780E+00 0.15343789E+04</pdfrwt>
<totfact> 0.15847839E+01</totfact>
</mgrwt>
</event>
<event>
12    1  0.1489025E-007  0.1654241E+04  0.7818608E-02  0.8787902E-01
          1   -1    0    0  501    0  0.00000000000E+00  0.00000000000E+00  0.86659290930E+03  0.86659290930E+03  0.00000000000E+00 0. -1.
         -1   -1    0    0    0  501 -0.00000000000E+00 -0.00000000000E+00 -0.78944559521E+03  0.78944559521E+03  0.00000000000E+00 0.  1.
         23    2    1    2    0    0  0.18266579858E+03 -0.25994116850E+03 -0.46245068417E+03  0.56845393306E+03  0.91340208404E+02 0.  0.
        254    2    1    2    0    0 -0.18266579858E+03  0.25994116850E+03  0.53959799826E+03  0.10875845714E+04  0.88923449960E+03 0.  0.
        -24    2    4    4    0    0  0.11808795989E+03  0.37427854025E+03 -0.57293821845E+02  0.40449717041E+03  0.79411503522E+02 0.  0.
         24    2    4    4    0    0 -0.30075375847E+03 -0.11433737174E+03  0.59689182010E+03  0.68308740103E+03  0.82478450116E+02 0.  0.
         13    1    3    3    0    0  0.88027650501E+02 -0.15201403746E+03 -0.32646819577E+03  0.37072714722E+03  0.00000000000E+00 0.  1.
        -13    1    3    3    0    0  0.94638148080E+02 -0.10792713105E+03 -0.13598248839E+03  0.19772678584E+03  0.00000000000E+00 0. -1.
          4    1    6    6  502    0 -0.16766317914E+02 -0.29447086199E+02  0.86058304221E+02  0.92489307638E+02  0.00000000000E+00 0. -1.
          1    1    5    5  503    0  0.58668853581E+01  0.14267460877E+03 -0.13416798736E+02  0.14342410823E+03  0.00000000000E+00 0. -1.
         -4    1    5    5    0  503  0.11222107453E+03  0.23160393147E+03 -0.43877023109E+02  0.26107306219E+03  0.00000000000E+00 0.  1.
         -3    1    6    6    0  502 -0.28398744056E+03 -0.84890285543E+02  0.51083351588E+03  0.59059809339E+03  0.00000000000E+00 0.  1.
<mgrwt>
<rscale>  0 0.16542406E+04</rscale>
<asrwt>0</asrwt>
<pdfrwt beam="1">  1        1 0.13332199E+00 0.16542406E+04</pdfrwt>
<pdfrwt beam="2">  1       -1 0.12145317E+00 0.16542406E+04</pdfrwt>
<totfact> 0.11137471E+01</totfact>
</mgrwt>
</event>
<event>
12    1  0.1489025E-007  0.1037383E+04  0.7818608E-02  0.9268468E-01
         -2   -1    0    0    0  501 -0.00000000000E+00  0.00000000000E+00  0.21857709087E+03  0.21857709087E+03  0.00000000000E+00 0.  1.
          2   -1    0    0  501    0  0.00000000000E+00 -0.00000000000E+00 -0.12308732464E+04  0.12308732464E+04  0.00000000000E+00 0. -1.
         23    2    1    2    0    0 -0.80883136012E+02 -0.47322622084E+02 -0.20290142730E+03  0.24152774006E+03  0.91570452489E+02 0.  0.
        254    2    1    2    0    0  0.80883136012E+02  0.47322622084E+02 -0.80939472827E+03  0.12079225972E+04  0.89172622623E+03 0.  0.
        -24    2    4    4    0    0 -0.12560461487E+03  0.34005378574E+03 -0.74905542306E+03  0.83609726416E+03  0.81003159493E+02 0.  0.
         24    2    4    4    0    0  0.20648775088E+03 -0.29273116366E+03 -0.60339305204E+02  0.37182533308E+03  0.79274971665E+02 0.  0.
         11    1    3    3    0    0 -0.96505581210E+02 -0.31696492253E+02 -0.19124132605E+03  0.21654385149E+03  0.00000000000E+00 0. -1.
        -11    1    3    3    0    0  0.15622445198E+02 -0.15626129831E+02 -0.11660101245E+02  0.24983888579E+02  0.00000000000E+00 0.  1.
          4    1    6    6  502    0  0.42770781624E+02 -0.24389396277E+02 -0.25816448679E+02  0.55593807514E+02  0.00000000000E+00 0. -1.
          1    1    5    5  503    0  0.66756320533E+01  0.24430004922E+02 -0.26835936076E+02  0.36899277349E+02  0.00000000000E+00 0. -1.
         -2    1    5    5    0  503 -0.13228024692E+03  0.31562378082E+03 -0.72221948699E+03  0.79919798681E+03  0.00000000000E+00 0.  1.
         -1    1    6    6    0  502  0.16371696925E+03 -0.26834176738E+03 -0.34522856525E+02  0.31623152557E+03  0.00000000000E+00 0.  1.
<mgrwt>
<rscale>  0 0.10373827E+04</rscale>
<asrwt>0</asrwt>
<pdfrwt beam="1">  1        2 0.18936511E+00 0.10373827E+04</pdfrwt>
<pdfrwt beam="2">  1       -2 0.33627245E-01 0.10373827E+04</pdfrwt>
<totfact> 0.14940114E+02</totfact>
</mgrwt>
</event>
<event>
12    1  0.1489025E-007  0.1995742E+04  0.7818608E-02  0.8608614E-01
         -1   -1    0    0    0  501 -0.00000000000E+00  0.00000000000E+00  0.11333948517E+04  0.11333948517E+04  0.00000000000E+00 0.  1.
          1   -1    0    0  501    0  0.00000000000E+00 -0.00000000000E+00 -0.87855206238E+03  0.87855206238E+03  0.00000000000E+00 0. -1.
         23    2    1    2    0    0 -0.41205439215E+03 -0.18338188005E+03 -0.55047821101E+03  0.71754916149E+03  0.91830290958E+02 0.  0.
        254    2    1    2    0    0  0.41205439215E+03  0.18338188005E+03  0.80532100037E+03  0.12943977526E+04  0.90747225433E+03 0.  0.
        -24    2    4    4    0    0  0.56322467878E+03  0.32044968201E+03  0.84888602004E+03  0.10707923366E+04  0.77966117826E+02 0.  0.
         24    2    4    4    0    0 -0.15117028663E+03 -0.13706780196E+03 -0.43565019663E+02  0.22360541609E+03  0.80383040951E+02 0.  0.
         13    1    3    3    0    0 -0.30018688335E+03 -0.88270898573E+02 -0.35819938615E+03  0.47561614429E+03  0.00000000000E+00 0. -1.
        -13    1    3    3    0    0 -0.11186750880E+03 -0.95110981480E+02 -0.19227882486E+03  0.24193301720E+03  0.00000000000E+00 0.  1.
          4    1    6    6  502    0 -0.93167277230E+02 -0.50113380420E+02 -0.53611745715E+02  0.11859895329E+03  0.00000000000E+00 0. -1.
          3    1    5    5  503    0  0.30676809434E+03  0.15124364847E+03  0.50148911950E+03  0.60701947406E+03  0.00000000000E+00 0. -1.
         -4    1    5    5    0  503  0.25645658444E+03  0.16920603354E+03  0.34739690054E+03  0.46377286250E+03  0.00000000000E+00 0.  1.
         -3    1    6    6    0  502 -0.58003009399E+02 -0.86954421537E+02  0.10046726052E+02  0.10500646279E+03  0.00000000000E+00 0.  1.
<mgrwt>
<rscale>  0 0.19957419E+04</rscale>
<asrwt>0</asrwt>
<pdfrwt beam="1">  1        1 0.13516186E+00 0.19957419E+04</pdfrwt>
<pdfrwt beam="2">  1       -1 0.17436844E+00 0.19957419E+04</pdfrwt>
<totfact> 0.40208409E+00</totfact>
</mgrwt>
</event>
<event>
12    1  0.1489025E-007  0.2056325E+04  0.7818608E-02  0.8580730E-01
         -1   -1    0    0    0  501 -0.00000000000E+00  0.00000000000E+00  0.74832386578E+03  0.74832386578E+03  0.00000000000E+00 0.  1.
          1   -1    0    0  501    0  0.00000000000E+00 -0.00000000000E+00 -0.14126479253E+04  0.14126479253E+04  0.00000000000E+00 0. -1.
         23    2    1    2    0    0 -0.13174631203E+03  0.17831686274E+03  0.56728282900E+03  0.61579733832E+03  0.90788542965E+02 0.  0.
        254    2    1    2    0    0  0.13174631203E+03 -0.17831686274E+03 -0.12316068885E+04  0.15451744528E+04  0.90639647359E+03 0.  0.
        -24    2    4    4    0    0  0.32119141500E+03 -0.24585362126E+03 -0.14697737336E+03  0.43924554923E+03  0.87899807044E+02 0.  0.
         24    2    4    4    0    0 -0.18944510297E+03  0.67536758518E+02 -0.10846295152E+04  0.11059289035E+04  0.78783841823E+02 0.  0.
         11    1    3    3    0    0 -0.10434014979E+03  0.13759731918E+03  0.31931017385E+03  0.36301360336E+03  0.00000000000E+00 0.  1.
        -11    1    3    3    0    0 -0.27406162237E+02  0.40719543566E+02  0.24797265515E+03  0.25278373496E+03  0.00000000000E+00 0. -1.
          2    1    6    6  502    0  0.57365876808E+01  0.72618811109E+01 -0.94149441217E+02  0.94603174561E+02  0.00000000000E+00 0. -1.
          3    1    5    5  503    0  0.42055669889E+02 -0.15762847098E+02 -0.44596508725E+02  0.63292932535E+02  0.00000000000E+00 0. -1.
         -4    1    5    5    0  503  0.27913574511E+03 -0.23009077416E+03 -0.10238086464E+03  0.37595261669E+03  0.00000000000E+00 0.  1.
         -1    1    6    6    0  502 -0.19518169065E+03  0.60274877407E+02 -0.99048007395E+03  0.10113257290E+04  0.00000000000E+00 0.  1.
<mgrwt>
<rscale>  0 0.20563250E+04</rscale>
<asrwt>0</asrwt>
<pdfrwt beam="1">  1        1 0.21733045E+00 0.20563250E+04</pdfrwt>
<pdfrwt beam="2">  1       -1 0.11512675E+00 0.20563250E+04</pdfrwt>
<totfact> 0.47571910E+00</totfact>
</mgrwt>
</event>
<event>
12    1  0.1489025E-007  0.1255147E+04  0.7818608E-02  0.9065910E-01
          2   -1    0    0  501    0  0.00000000000E+00  0.00000000000E+00  0.20685016613E+04  0.20685016613E+04  0.00000000000E+00 0. -1.
         -2   -1    0    0    0  501 -0.00000000000E+00 -0.00000000000E+00 -0.19040281387E+03  0.19040281387E+03  0.00000000000E+00 0.  1.
         23    2    1    2    0    0 -0.68016218199E+01 -0.49818817401E+02 -0.66429634733E+02  0.12131873863E+03  0.88188226803E+02 0.  0.
        254    2    1    2    0    0  0.68016218199E+01  0.49818817401E+02  0.19445284822E+04  0.21375857366E+04  0.88631460921E+03 0.  0.
        -24    2    4    4    0    0 -0.39854321314E+03 -0.11462230536E+03  0.72187076168E+03  0.83644601037E+03  0.81052859714E+02 0.  0.
         24    2    4    4    0    0  0.40534483496E+03  0.16444112276E+03  0.12226577205E+04  0.13011397262E+04  0.82020530841E+02 0.  0.
         13    1    3    3    0    0 -0.21857939211E+02 -0.71325292812E+02 -0.55015252435E+02  0.92691665762E+02  0.00000000000E+00 0.  1.
        -13    1    3    3    0    0  0.15056317391E+02  0.21506475411E+02 -0.11414382298E+02  0.28627072873E+02  0.00000000000E+00 0. -1.
          2    1    6    6  502    0  0.13386045282E+03  0.75500298110E+02  0.53133857820E+03  0.55311807105E+03  0.00000000000E+00 0. -1.
          1    1    5    5  503    0 -0.18807968853E+03 -0.72471844070E+02  0.27776742152E+03  0.34319218796E+03  0.00000000000E+00 0. -1.
         -2    1    5    5    0  503 -0.21046352461E+03 -0.42150461293E+02  0.44410334016E+03  0.49325382241E+03  0.00000000000E+00 0.  1.
         -1    1    6    6    0  502  0.27148438214E+03  0.88940824653E+02  0.69131914232E+03  0.74802165515E+03  0.00000000000E+00 0.  1.
<mgrwt>
<rscale>  0 0.12551471E+04</rscale>
<asrwt>0</asrwt>
<pdfrwt beam="1">  1        2 0.31823101E+00 0.12551471E+04</pdfrwt>
<pdfrwt beam="2">  1       -2 0.29292742E-01 0.12551471E+04</pdfrwt>
<totfact> 0.64591172E+01</totfact>
</mgrwt>
</event>
<event>
12    1  0.1489025E-007  0.1593614E+04  0.7818608E-02  0.8824481E-01
          2   -1    0    0  501    0  0.00000000000E+00  0.00000000000E+00  0.18529343257E+04  0.18529343257E+04  0.00000000000E+00 0. -1.
         -2   -1    0    0    0  501 -0.00000000000E+00 -0.00000000000E+00 -0.34264663117E+03  0.34264663117E+03  0.00000000000E+00 0.  1.
         23    2    1    2    0    0  0.53123324046E+03  0.16363063557E+02  0.40897784287E+03  0.67685240827E+03  0.91595856943E+02 0.  0.
        254    2    1    2    0    0 -0.53123324046E+03 -0.16363063557E+02  0.11013098516E+04  0.15187285486E+04  0.90065337911E+03 0.  0.
        -24    2    4    4    0    0 -0.24999822757E+03 -0.44799048158E+03  0.62613774365E+03  0.81333165611E+03  0.79153796104E+02 0.  0.
         24    2    4    4    0    0 -0.28123501289E+03  0.43162741802E+03  0.47517210800E+03  0.70539689246E+03  0.80005519899E+02 0.  0.
         13    1    3    3    0    0  0.43739465623E+03  0.24351180562E+02  0.29109564847E+03  0.52596933547E+03  0.00000000000E+00 0. -1.
        -13    1    3    3    0    0  0.93838584233E+02 -0.79881170052E+01  0.11788219440E+03  0.15088307281E+03  0.00000000000E+00 0.  1.
          2    1    6    6  502    0 -0.87403167981E+02  0.20372403140E+03  0.21719394664E+03  0.31034819993E+03  0.00000000000E+00 0. -1.
          3    1    5    5  503    0 -0.17016774465E+03 -0.24754364009E+03  0.32114167371E+03  0.43973502210E+03  0.00000000000E+00 0. -1.
         -4    1    5    5    0  503 -0.79830482922E+02 -0.20044684149E+03  0.30499606994E+03  0.37359663401E+03  0.00000000000E+00 0.  1.
         -1    1    6    6    0  502 -0.19383184490E+03  0.22790338662E+03  0.25797816136E+03  0.39504869253E+03  0.00000000000E+00 0.  1.
<mgrwt>
<rscale>  0 0.15936144E+04</rscale>
<asrwt>0</asrwt>
<pdfrwt beam="1">  1        2 0.28506681E+00 0.15936144E+04</pdfrwt>
<pdfrwt beam="2">  1       -2 0.52714867E-01 0.15936144E+04</pdfrwt>
<totfact> 0.26265416E+01</totfact>
</mgrwt>
</event>
<event>
12    1  0.1489025E-007  0.2407258E+04  0.7818608E-02  0.8436791E-01
         -1   -1    0    0    0  501 -0.00000000000E+00  0.00000000000E+00  0.94126907660E+03  0.94126907660E+03  0.00000000000E+00 0.  1.
          1   -1    0    0  501    0  0.00000000000E+00 -0.00000000000E+00 -0.15391160084E+04  0.15391160084E+04  0.00000000000E+00 0. -1.
         23    2    1    2    0    0  0.60335656005E+03 -0.68798479437E+03  0.23513069322E+03  0.94912927244E+03  0.90541245205E+02 0.  0.
        254    2    1    2    0    0 -0.60335656005E+03  0.68798479437E+03 -0.83297762506E+03  0.15312558126E+04  0.90195921412E+03 0.  0.
        -24    2    4    4    0    0 -0.61472180451E+03  0.77550419615E+03 -0.38037785033E+03  0.10632277819E+04  0.80475784842E+02 0.  0.
         24    2    4    4    0    0  0.11365244469E+02 -0.87519401781E+02 -0.45259977473E+03  0.46802803072E+03  0.80092864755E+02 0.  0.
         11    1    3    3    0    0  0.44259661691E+03 -0.56112245560E+03  0.17727808077E+03  0.73632716465E+03  0.00000000000E+00 0.  1.
        -11    1    3    3    0    0  0.16075994313E+03 -0.12686233877E+03  0.57852612456E+02  0.21280210780E+03  0.00000000000E+00 0. -1.
          4    1    6    6  502    0 -0.14660396675E+02  0.10324075709E+02 -0.66966577476E+02  0.69325581633E+02  0.00000000000E+00 0. -1.
          1    1    5    5  503    0 -0.33381853404E+03  0.48450411887E+03 -0.22933458089E+03  0.63148507889E+03  0.00000000000E+00 0. -1.
         -2    1    5    5    0  503 -0.28090327047E+03  0.29100007728E+03 -0.15104326944E+03  0.43174270299E+03  0.00000000000E+00 0.  1.
         -3    1    6    6    0  502  0.26025641144E+02 -0.97843477490E+02 -0.38563319725E+03  0.39870244909E+03  0.00000000000E+00 0.  1.
<mgrwt>
<rscale>  0 0.24072576E+04</rscale>
<asrwt>0</asrwt>
<pdfrwt beam="1">  1        1 0.23678708E+00 0.24072576E+04</pdfrwt>
<pdfrwt beam="2">  1       -1 0.14481063E+00 0.24072576E+04</pdfrwt>
<totfact> 0.21104227E+00</totfact>
</mgrwt>
</event>
<event>
12    1  0.1489025E-007  0.1753905E+04  0.7818608E-02  0.8731204E-01
         -2   -1    0    0    0  501 -0.00000000000E+00  0.00000000000E+00  0.97138343844E+03  0.97138343844E+03  0.00000000000E+00 0.  1.
          2   -1    0    0  501    0  0.00000000000E+00 -0.00000000000E+00 -0.79170110082E+03  0.79170110082E+03  0.00000000000E+00 0. -1.
         23    2    1    2    0    0  0.24914450140E+03 -0.34129760680E+03  0.55475090312E+03  0.70335342640E+03  0.91653908457E+02 0.  0.
        254    2    1    2    0    0 -0.24914450140E+03  0.34129760680E+03 -0.37506856550E+03  0.10597311129E+04  0.89654702260E+03 0.  0.
        -24    2    4    4    0    0 -0.25414141904E+03 -0.12288824574E+03  0.17022061116E+03  0.33926747224E+03  0.80237020393E+02 0.  0.
         24    2    4    4    0    0  0.49969176469E+01  0.46418585255E+03 -0.54528917665E+03  0.72046364061E+03  0.78956294111E+02 0.  0.
         13    1    3    3    0    0  0.89009684336E+02 -0.12629208774E+03  0.27796995155E+03  0.31802469919E+03  0.00000000000E+00 0. -1.
        -13    1    3    3    0    0  0.16013481706E+03 -0.21500551906E+03  0.27678095157E+03  0.38532872721E+03  0.00000000000E+00 0.  1.
          2    1    6    6  502    0  0.10586170783E+02  0.38385937491E+03 -0.49108817364E+03  0.62340009705E+03  0.00000000000E+00 0. -1.
          1    1    5    5  503    0 -0.18195060419E+03 -0.12510003777E+03  0.12010795181E+03  0.25136022339E+03  0.00000000000E+00 0. -1.
         -2    1    5    5    0  503 -0.72190814854E+02  0.22117920268E+01  0.50112659347E+02  0.87907248848E+02  0.00000000000E+00 0.  1.
         -3    1    6    6    0  502 -0.55892531356E+01  0.80326477643E+02 -0.54201003010E+02  0.97063543560E+02  0.00000000000E+00 0.  1.
<mgrwt>
<rscale>  0 0.17539046E+04</rscale>
<asrwt>0</asrwt>
<pdfrwt beam="1">  1        2 0.12180017E+00 0.17539046E+04</pdfrwt>
<pdfrwt beam="2">  1       -2 0.14944361E+00 0.17539046E+04</pdfrwt>
<totfact> 0.10009980E+01</totfact>
</mgrwt>
</event>
<event>
12    1  0.1489025E-007  0.2917374E+04  0.7818608E-02  0.8267727E-01
          2   -1    0    0  501    0  0.00000000000E+00  0.00000000000E+00  0.30551331685E+04  0.30551331685E+04  0.00000000000E+00 0. -1.
         -2   -1    0    0    0  501 -0.00000000000E+00 -0.00000000000E+00 -0.69645653817E+03  0.69645653817E+03  0.00000000000E+00 0.  1.
         23    2    1    2    0    0  0.99331355512E+03  0.21931797862E+03  0.21321838851E+04  0.23641765531E+04  0.91380850863E+02 0.  0.
        254    2    1    2    0    0 -0.99331355512E+03 -0.21931797862E+03  0.22649274525E+03  0.13874131536E+04  0.91588432703E+03 0.  0.
        -24    2    4    4    0    0 -0.10432832426E+04 -0.97540252227E+02 -0.70058012643E+02  0.10533454323E+04  0.81697304380E+02 0.  0.
         24    2    4    4    0    0  0.49969687447E+02 -0.12177772639E+03  0.29655075789E+03  0.33406772128E+03  0.79574531644E+02 0.  0.
         11    1    3    3    0    0  0.41681584203E+02 -0.74979593085E+00  0.12863001323E+03  0.13521685160E+03  0.00000000000E+00 0.  1.
        -11    1    3    3    0    0  0.95163197092E+03  0.22006777455E+03  0.20035538718E+04  0.22289597015E+04  0.00000000000E+00 0. -1.
          4    1    6    6  502    0  0.27274454612E+02  0.18752424558E+01  0.41180832732E+02  0.49429478989E+02  0.00000000000E+00 0. -1.
          3    1    5    5  503    0 -0.54284904588E+03 -0.90921038172E+02 -0.44793312809E+02  0.55223017182E+03  0.00000000000E+00 0. -1.
         -4    1    5    5    0  503 -0.50043419669E+03 -0.66192140551E+01 -0.25264699835E+02  0.50111526046E+03  0.00000000000E+00 0.  1.
         -3    1    6    6    0  502  0.22695232835E+02 -0.12365296885E+03  0.25536992516E+03  0.28463824229E+03  0.00000000000E+00 0.  1.
<mgrwt>
<rscale>  0 0.29173738E+04</rscale>
<asrwt>0</asrwt>
<pdfrwt beam="1">  1        2 0.47002048E+00 0.29173738E+04</pdfrwt>
<pdfrwt beam="2">  1       -2 0.10714716E+00 0.29173738E+04</pdfrwt>
<totfact> 0.96921391E-01</totfact>
</mgrwt>
</event>
<event>
12    1  0.1489025E-007  0.2916294E+04  0.7818608E-02  0.8268046E-01
          1   -1    0    0  501    0  0.00000000000E+00  0.00000000000E+00  0.23709813762E+04  0.23709813762E+04  0.00000000000E+00 0. -1.
         -1   -1    0    0    0  501 -0.00000000000E+00 -0.00000000000E+00 -0.89675667702E+03  0.89675667702E+03  0.00000000000E+00 0.  1.
         23    2    1    2    0    0  0.65727142674E+03 -0.11119872917E+03  0.19414366238E+04  0.20551425640E+04  0.10031903286E+03 0.  0.
        254    2    1    2    0    0 -0.65727142674E+03  0.11119872917E+03 -0.46721192469E+03  0.12125954892E+04  0.89873797738E+03 0.  0.
        -24    2    4    4    0    0 -0.25193929800E+03  0.19059443669E+03 -0.66985490758E+03  0.74483932139E+03  0.79248774773E+02 0.  0.
         24    2    4    4    0    0 -0.40533212874E+03 -0.79395707520E+02  0.20264298289E+03  0.46775616777E+03  0.84462068448E+02 0.  0.
         13    1    3    3    0    0  0.10461538178E+03 -0.66037291674E+01  0.21128388323E+03  0.23585772546E+03  0.00000000000E+00 0.  1.
        -13    1    3    3    0    0  0.55265604496E+03 -0.10459500000E+03  0.17301527406E+04  0.18192848386E+04  0.00000000000E+00 0. -1.
          4    1    6    6  502    0 -0.26453572449E+03 -0.81264469659E+02  0.16424158404E+03  0.32180485001E+03  0.00000000000E+00 0. -1.
          3    1    5    5  503    0 -0.16700786376E+03  0.12812660875E+03 -0.35401600770E+03  0.41186816839E+03  0.00000000000E+00 0. -1.
         -4    1    5    5    0  503 -0.84931434236E+02  0.62467827946E+02 -0.31583889988E+03  0.33297115300E+03  0.00000000000E+00 0.  1.
         -3    1    6    6    0  502 -0.14079640425E+03  0.18687621383E+01  0.38401398852E+02  0.14595131776E+03  0.00000000000E+00 0.  1.
<mgrwt>
<rscale>  0 0.29162945E+04</rscale>
<asrwt>0</asrwt>
<pdfrwt beam="1">  1        1 0.36476636E+00 0.29162945E+04</pdfrwt>
<pdfrwt beam="2">  1       -1 0.13796257E+00 0.29162945E+04</pdfrwt>
<totfact> 0.62081613E-01</totfact>
</mgrwt>
</event>
<event>
12    1  0.1489025E-007  0.1736856E+04  0.7818608E-02  0.8740619E-01
         -1   -1    0    0    0  501 -0.00000000000E+00  0.00000000000E+00  0.13740853824E+04  0.13740853824E+04  0.00000000000E+00 0.  1.
          1   -1    0    0  501    0  0.00000000000E+00 -0.00000000000E+00 -0.54885037330E+03  0.54885037330E+03  0.00000000000E+00 0. -1.
         23    2    1    2    0    0  0.50250480757E+03 -0.37474563208E+01 -0.13387821345E+03  0.52844060521E+03  0.93813496548E+02 0.  0.
        254    2    1    2    0    0 -0.50250480757E+03  0.37474563208E+01  0.95911322260E+03  0.13944951505E+04  0.87874537044E+03 0.  0.
        -24    2    4    4    0    0 -0.75884868813E+02  0.78133078855E+02  0.94336462030E+03  0.95260688033E+03  0.75231444892E+02 0.  0.
         24    2    4    4    0    0 -0.42661993876E+03 -0.74385622535E+02  0.15748602304E+02  0.44188827021E+03  0.86483708832E+02 0.  0.
         11    1    3    3    0    0  0.22536946229E+03  0.15419370493E+02 -0.10512424582E+03  0.24915910294E+03  0.00000000000E+00 0. -1.
        -11    1    3    3    0    0  0.27713534529E+03 -0.19166826814E+02 -0.28753967637E+02  0.27928150227E+03  0.00000000000E+00 0.  1.
          2    1    6    6  502    0 -0.10597415078E+03 -0.13492775781E+02  0.41249936854E+02  0.11451695474E+03  0.00000000000E+00 0. -1.
          3    1    5    5  503    0  0.65482119319E+01  0.41718036826E+02  0.29197788917E+03  0.29501586642E+03  0.00000000000E+00 0. -1.
         -4    1    5    5    0  503 -0.82433080745E+02  0.36415042029E+02  0.65138673113E+03  0.65759101391E+03  0.00000000000E+00 0.  1.
         -1    1    6    6    0  502 -0.32064578798E+03 -0.60892846753E+02 -0.25501334550E+02  0.32737131548E+03  0.00000000000E+00 0.  1.
<mgrwt>
<rscale>  0 0.17368561E+04</rscale>
<asrwt>0</asrwt>
<pdfrwt beam="1">  1        1 0.84438520E-01 0.17368561E+04</pdfrwt>
<pdfrwt beam="2">  1       -1 0.21139775E+00 0.17368561E+04</pdfrwt>
<totfact> 0.46416096E+00</totfact>
</mgrwt>
</event>
<event>
12    1  0.1489025E-007  0.1313261E+04  0.7818608E-02  0.9019115E-01
          1   -1    0    0  501    0  0.00000000000E+00  0.00000000000E+00  0.43270761257E+03  0.43270761257E+03  0.00000000000E+00 0. -1.
         -1   -1    0    0    0  501 -0.00000000000E+00 -0.00000000000E+00 -0.99643154850E+03  0.99643154850E+03  0.00000000000E+00 0.  1.
         23    2    1    2    0    0 -0.44436010086E+02  0.14295248103E+03 -0.50123713329E+03  0.53110590443E+03  0.91786965835E+02 0.  0.
        254    2    1    2    0    0  0.44436010086E+02 -0.14295248103E+03 -0.62486802637E+02  0.89803325665E+03  0.88326052709E+03 0.  0.
        -24    2    4    4    0    0 -0.38299945937E+03 -0.19263964173E+03 -0.12838815978E+03  0.45403902569E+03  0.76611355817E+02 0.  0.
         24    2    4    4    0    0  0.42743546945E+03  0.49687160695E+02  0.65901357145E+02  0.44399423096E+03  0.87281119194E+02 0.  0.
         13    1    3    3    0    0 -0.12915461656E+01  0.19503103771E+01  0.40860060300E+01  0.47082106306E+01  0.00000000000E+00 0. -1.
        -13    1    3    3    0    0 -0.43144463920E+02  0.14100217066E+03 -0.50532313932E+03  0.52639769380E+03  0.00000000000E+00 0.  1.
          2    1    6    6  502    0  0.18730872033E+02  0.73424971121E+01 -0.15149092608E+02  0.25184376859E+02  0.00000000000E+00 0. -1.
          1    1    5    5  503    0 -0.11614686289E+03 -0.58526994557E+02 -0.76551633292E+02  0.15091605419E+03  0.00000000000E+00 0. -1.
         -2    1    5    5    0  503 -0.26685259648E+03 -0.13411264717E+03 -0.51836526490E+02  0.30312297151E+03  0.00000000000E+00 0.  1.
         -1    1    6    6    0  502  0.40870459742E+03  0.42344663583E+02  0.81050449753E+02  0.41880985410E+03  0.00000000000E+00 0.  1.
<mgrwt>
<rscale>  0 0.13132609E+04</rscale>
<asrwt>0</asrwt>
<pdfrwt beam="1">  1        1 0.66570402E-01 0.13132609E+04</pdfrwt>
<pdfrwt beam="2">  1       -1 0.15329716E+00 0.13132609E+04</pdfrwt>
<totfact> 0.17431656E+01</totfact>
</mgrwt>
</event>
<event>
12    1  0.1489025E-007  0.1881588E+04  0.7818608E-02  0.8664076E-01
          1   -1    0    0  501    0  0.00000000000E+00  0.00000000000E+00  0.77979690781E+03  0.77979690781E+03  0.00000000000E+00 0. -1.
         -1   -1    0    0    0  501 -0.00000000000E+00 -0.00000000000E+00 -0.11350301130E+04  0.11350301130E+04  0.00000000000E+00 0.  1.
         23    2    1    2    0    0 -0.63191595480E+03  0.18578621716E+03 -0.45445990996E+03  0.80498523506E+03  0.87367765668E+02 0.  0.
        254    2    1    2    0    0  0.63191595480E+03 -0.18578621716E+03  0.99226704781E+02  0.11098417857E+04  0.88773225582E+03 0.  0.
        -24    2    4    4    0    0 -0.76462357013E+02 -0.13677276727E+03 -0.25694786291E+03  0.31136721013E+03  0.79837668949E+02 0.  0.
         24    2    4    4    0    0  0.70837831181E+03 -0.49013449899E+02  0.35617456769E+03  0.79847457562E+03  0.80617456637E+02 0.  0.
         13    1    3    3    0    0 -0.43582608788E+03  0.11054843465E+03 -0.26366206399E+03  0.52123221242E+03  0.00000000000E+00 0.  1.
        -13    1    3    3    0    0 -0.19608986692E+03  0.75237782511E+02 -0.19079784597E+03  0.28375302263E+03  0.00000000000E+00 0. -1.
          2    1    6    6  502    0  0.13792495104E+03  0.20272822747E+02  0.82481444807E+02  0.16197983886E+03  0.00000000000E+00 0. -1.
          3    1    5    5  503    0 -0.17884499743E+02 -0.80615786275E+02 -0.72611319873E+02  0.10995982949E+03  0.00000000000E+00 0. -1.
         -4    1    5    5    0  503 -0.58577857270E+02 -0.56156980991E+02 -0.18433654304E+03  0.20140738064E+03  0.00000000000E+00 0.  1.
         -1    1    6    6    0  502  0.57045336078E+03 -0.69286272646E+02  0.27369312289E+03  0.63649473676E+03  0.00000000000E+00 0.  1.
<mgrwt>
<rscale>  0 0.18815876E+04</rscale>
<asrwt>0</asrwt>
<pdfrwt beam="1">  1        1 0.11996876E+00 0.18815876E+04</pdfrwt>
<pdfrwt beam="2">  1       -1 0.17462002E+00 0.18815876E+04</pdfrwt>
<totfact> 0.49129939E+00</totfact>
</mgrwt>
</event>
<event>
12    1  0.1489025E-007  0.2443094E+04  0.7818608E-02  0.8423544E-01
          1   -1    0    0  501    0  0.00000000000E+00  0.00000000000E+00  0.17300324573E+04  0.17300324573E+04  0.00000000000E+00 0. -1.
         -1   -1    0    0    0  501 -0.00000000000E+00 -0.00000000000E+00 -0.86251356659E+03  0.86251356659E+03  0.00000000000E+00 0.  1.
         23    2    1    2    0    0  0.17766462869E+03 -0.59532450069E+03 -0.51667937337E+03  0.81306164240E+03  0.90197993741E+02 0.  0.
        254    2    1    2    0    0 -0.17766462869E+03  0.59532450069E+03  0.13841982641E+04  0.17794843815E+04  0.92983001043E+03 0.  0.
        -24    2    4    4    0    0 -0.23948975246E+03  0.15366383061E+03  0.12812454301E+04  0.13148411911E+04  0.79054356483E+02 0.  0.
         24    2    4    4    0    0  0.61825123771E+02  0.44166067008E+03  0.10295283401E+03  0.46464319043E+03  0.80046954733E+02 0.  0.
         11    1    3    3    0    0  0.17960773401E+03 -0.55784366616E+03 -0.45969189389E+03  0.74482557106E+03  0.00000000000E+00 0.  1.
        -11    1    3    3    0    0 -0.19431053217E+01 -0.37480834524E+02 -0.56987479482E+02  0.68236071345E+02  0.00000000000E+00 0. -1.
          2    1    6    6  502    0 -0.74665728612E+00  0.37201843565E+02  0.32395186444E+02  0.49335410878E+02  0.00000000000E+00 0. -1.
          1    1    5    5  503    0 -0.12427986389E+03  0.33199815661E+02  0.55739537788E+03  0.57204660616E+03  0.00000000000E+00 0. -1.
         -2    1    5    5    0  503 -0.11520988857E+03  0.12046401495E+03  0.72385005218E+03  0.74279458491E+03  0.00000000000E+00 0.  1.
         -1    1    6    6    0  502  0.62571781057E+02  0.40445882651E+03  0.70557647568E+02  0.41530777955E+03  0.00000000000E+00 0.  1.
<mgrwt>
<rscale>  0 0.24430935E+04</rscale>
<asrwt>0</asrwt>
<pdfrwt beam="1">  1        1 0.26615884E+00 0.24430935E+04</pdfrwt>
<pdfrwt beam="2">  1       -1 0.13269440E+00 0.24430935E+04</pdfrwt>
<totfact> 0.19538584E+00</totfact>
</mgrwt>
</event>
<event>
12    1  0.1542602E-007  0.1333627E+04  0.7818608E-02  0.9003315E-01
          2   -1    0    0  501    0  0.00000000000E+00  0.00000000000E+00  0.63119996194E+03  0.63119996194E+03  0.00000000000E+00 0.  1.
         -2   -1    0    0    0  501 -0.00000000000E+00 -0.00000000000E+00 -0.70443664501E+03  0.70443664501E+03  0.00000000000E+00 0. -1.
         23    2    1    2    0    0 -0.84177331074E+01  0.33163197360E+03  0.94102917912E+02  0.36512961476E+03  0.12005687100E+03 0.  0.
        254    2    1    2    0    0  0.84177331074E+01 -0.33163197360E+03 -0.16733960098E+03  0.97050699220E+03  0.89656603533E+03 0.  0.
        -24    2    4    4    0    0  0.35661076166E+03 -0.44130402747E+03 -0.35041123689E+02  0.57405934871E+03  0.79973592520E+02 0.  0.
         24    2    4    4    0    0 -0.34819302856E+03  0.10967205387E+03 -0.13229847729E+03  0.39644764349E+03  0.80009389423E+02 0.  0.
         11    1    3    3    0    0  0.11345120655E+02 -0.59924433819E+01  0.10918635269E+02  0.16847484575E+02  0.00000000000E+00 0. -1.
        -11    1    3    3    0    0 -0.19762853763E+02  0.33762441698E+03  0.83184282643E+02  0.34828213019E+03  0.00000000000E+00 0.  1.
          2    1    6    6  502    0 -0.31663541294E+03  0.80361530466E+02 -0.97028242242E+02  0.34077916618E+03  0.00000000000E+00 0. -1.
          3    1    5    5  503    0  0.35579404624E+03 -0.44179191561E+03 -0.29047340315E+02  0.56799053515E+03  0.00000000000E+00 0. -1.
         -4    1    5    5    0  503  0.81671542688E+00  0.48788814555E+00 -0.59937833742E+01  0.60688135635E+01  0.00000000000E+00 0.  1.
         -1    1    6    6    0  502 -0.31557615616E+02  0.29310523402E+02 -0.35270235049E+02  0.55668477309E+02  0.00000000000E+00 0.  1.
<mgrwt>
<rscale>  0 0.13336272E+04</rscale>
<asrwt>0</asrwt>
<pdfrwt beam="1">  1        2 0.97107687E-01 0.13336272E+04</pdfrwt>
<pdfrwt beam="2">  1       -2 0.10837487E+00 0.13336272E+04</pdfrwt>
<totfact> 0.31054982E+01</totfact>
</mgrwt>
</event>
<event>
12    1  0.1489025E-007  0.2728246E+04  0.7818608E-02  0.8325898E-01
         -2   -1    0    0    0  501 -0.00000000000E+00  0.00000000000E+00  0.10532202722E+04  0.10532202722E+04  0.00000000000E+00 0. -1.
          2   -1    0    0  501    0  0.00000000000E+00 -0.00000000000E+00 -0.17668016305E+04  0.17668016305E+04  0.00000000000E+00 0.  1.
         23    2    1    2    0    0  0.12153320420E+03 -0.11161229728E+04  0.15392882168E+03  0.11368016028E+04  0.90127641655E+02 0.  0.
        254    2    1    2    0    0 -0.12153320420E+03  0.11161229728E+04 -0.86751017999E+03  0.16832202999E+04  0.90562456661E+03 0.  0.
        -24    2    4    4    0    0 -0.30077655956E+03  0.38649540895E+02 -0.35335602942E+03  0.47328900191E+03  0.84744734413E+02 0.  0.
         24    2    4    4    0    0  0.17924335536E+03  0.10774734319E+04 -0.51415415057E+03  0.12099312980E+04  0.80635466985E+02 0.  0.
         11    1    3    3    0    0  0.94666397140E+02 -0.83384054011E+03  0.75440074484E+02  0.84258114025E+03  0.00000000000E+00 0. -1.
        -11    1    3    3    0    0  0.26866807065E+02 -0.28228243267E+03  0.78488747197E+02  0.29422046250E+03  0.00000000000E+00 0.  1.
          2    1    6    6  502    0  0.10680248161E+03  0.51713057821E+03 -0.28674568732E+03  0.60087760333E+03  0.00000000000E+00 0. -1.
          1    1    5    5  503    0 -0.67258982668E+02  0.45553221354E+02 -0.93210808408E+02  0.12364109968E+03  0.00000000000E+00 0. -1.
         -2    1    5    5    0  503 -0.23351757690E+03 -0.69036804597E+01 -0.26014522101E+03  0.34964790224E+03  0.00000000000E+00 0.  1.
         -1    1    6    6    0  502  0.72440873744E+02  0.56034285367E+03 -0.22740846326E+03  0.60905369469E+03  0.00000000000E+00 0.  1.
<mgrwt>
<rscale>  0 0.27282458E+04</rscale>
<asrwt>0</asrwt>
<pdfrwt beam="1">  1        2 0.27181563E+00 0.27282458E+04</pdfrwt>
<pdfrwt beam="2">  1       -2 0.16203389E+00 0.27282458E+04</pdfrwt>
<totfact> 0.19178952E+00</totfact>
</mgrwt>
</event>
<event>
12    1  0.1489025E-007  0.1216513E+04  0.7818608E-02  0.9098524E-01
         -3   -1    0    0    0  501 -0.00000000000E+00  0.00000000000E+00  0.34448954679E+03  0.34448954679E+03  0.00000000000E+00 0.  1.
          3   -1    0    0  501    0  0.00000000000E+00 -0.00000000000E+00 -0.10739829383E+04  0.10739829383E+04  0.00000000000E+00 0. -1.
         23    2    1    2    0    0  0.22998278599E+03 -0.26592343899E+02 -0.38067288377E+02  0.25311324597E+03  0.94962951888E+02 0.  0.
        254    2    1    2    0    0 -0.22998278599E+03  0.26592343899E+02 -0.69142610315E+03  0.11653592391E+04  0.90906153011E+03 0.  0.
        -24    2    4    4    0    0  0.26661531828E+02 -0.16998755109E+03 -0.79437809591E+03  0.81662540548E+03  0.78954979659E+02 0.  0.
         24    2    4    4    0    0 -0.25664431782E+03  0.19657989498E+03  0.10295199276E+03  0.34873383365E+03  0.80661099293E+02 0.  0.
         13    1    3    3    0    0  0.22504590321E+02 -0.10882635872E+02 -0.37466502683E+02  0.45040283884E+02  0.00000000000E+00 0. -1.
        -13    1    3    3    0    0  0.20747819567E+03 -0.15709708027E+02 -0.60078569408E+00  0.20807296208E+03  0.00000000000E+00 0.  1.
          2    1    6    6  502    0 -0.26189021807E+03  0.19545271259E+03  0.97350426515E+02  0.34097705894E+03  0.00000000000E+00 0. -1.
          1    1    5    5  503    0  0.81649921147E+01 -0.16568597379E+03 -0.75360359939E+03  0.77164557539E+03  0.00000000000E+00 0. -1.
         -2    1    5    5    0  503  0.18496539713E+02 -0.43015772998E+01 -0.40774496523E+02  0.44979830094E+02  0.00000000000E+00 0.  1.
         -1    1    6    6    0  502  0.52459002500E+01  0.11271823983E+01  0.56015662460E+01  0.77567747164E+01  0.00000000000E+00 0.  1.
<mgrwt>
<rscale>  0 0.12165129E+04</rscale>
<asrwt>0</asrwt>
<pdfrwt beam="1">  1        3 0.16522814E+00 0.12165129E+04</pdfrwt>
<pdfrwt beam="2">  1       -3 0.52998392E-01 0.12165129E+04</pdfrwt>
<totfact> 0.22809277E+00</totfact>
</mgrwt>
</event>
<event>
12    1  0.1489025E-007  0.2232439E+04  0.7818608E-02  0.8505046E-01
          2   -1    0    0  501    0  0.00000000000E+00  0.00000000000E+00  0.22521997463E+04  0.22521997463E+04  0.00000000000E+00 0. -1.
         -2   -1    0    0    0  501 -0.00000000000E+00 -0.00000000000E+00 -0.55321290458E+03  0.55321290458E+03  0.00000000000E+00 0.  1.
         23    2    1    2    0    0  0.85818470426E+03  0.38246864739E+03  0.70002208783E+03  0.11754513559E+04  0.94295884468E+02 0.  0.
        254    2    1    2    0    0 -0.85818470426E+03 -0.38246864739E+03  0.99896475385E+03  0.16299612949E+04  0.88095402301E+03 0.  0.
        -24    2    4    4    0    0  0.50553852688E+02 -0.14618638242E+03  0.56841249319E+03  0.59450612809E+03  0.80116312314E+02 0.  0.
         24    2    4    4    0    0 -0.90873855695E+03 -0.23628226497E+03  0.43055226066E+03  0.10354551668E+04  0.71812810354E+02 0.  0.
         13    1    3    3    0    0  0.78611114073E+03  0.37246362476E+03  0.66344569749E+03  0.10940110013E+04  0.00000000000E+00 0.  1.
        -13    1    3    3    0    0  0.72073563534E+02  0.10005022627E+02  0.36576390336E+02  0.81440354666E+02  0.00000000000E+00 0. -1.
          4    1    6    6  502    0 -0.42962407218E+03 -0.78034712890E+02  0.21608510431E+03  0.48719506577E+03  0.00000000000E+00 0. -1.
          3    1    5    5  503    0  0.74922173670E+01 -0.54992019620E+02  0.91251102754E+02  0.10680364833E+03  0.00000000000E+00 0. -1.
         -4    1    5    5    0  503  0.43061635322E+02 -0.91194362796E+02  0.47716139043E+03  0.48770247976E+03  0.00000000000E+00 0.  1.
         -3    1    6    6    0  502 -0.47911448477E+03 -0.15824755208E+03  0.21446715635E+03  0.54826010106E+03  0.00000000000E+00 0.  1.
<mgrwt>
<rscale>  0 0.22324390E+04</rscale>
<asrwt>0</asrwt>
<pdfrwt beam="1">  1        2 0.34649226E+00 0.22324390E+04</pdfrwt>
<pdfrwt beam="2">  1       -2 0.85109679E-01 0.22324390E+04</pdfrwt>
<totfact> 0.52839824E+00</totfact>
</mgrwt>
</event>
<event>
12    1  0.1489025E-007  0.2528168E+04  0.7818608E-02  0.8393019E-01
         -2   -1    0    0    0  501 -0.00000000000E+00  0.00000000000E+00  0.81343683665E+03  0.81343683665E+03  0.00000000000E+00 0.  1.
          2   -1    0    0  501    0  0.00000000000E+00 -0.00000000000E+00 -0.19643916802E+04  0.19643916802E+04  0.00000000000E+00 0. -1.
         23    2    1    2    0    0  0.31546138217E+02  0.58815881149E+03 -0.15356706415E+04  0.16472719692E+04  0.91075106820E+02 0.  0.
        254    2    1    2    0    0 -0.31546138217E+02 -0.58815881149E+03  0.38471579793E+03  0.11305565476E+04  0.88500051745E+03 0.  0.
        -24    2    4    4    0    0 -0.13363250720E+03 -0.38680506837E+03 -0.22567047529E+03  0.47483874407E+03  0.84076522028E+02 0.  0.
         24    2    4    4    0    0  0.10208636899E+03 -0.20135374312E+03  0.61038627322E+03  0.65571780358E+03  0.80184030780E+02 0.  0.
         11    1    3    3    0    0  0.41194249187E+02  0.50153444782E+03 -0.12179982807E+04  0.13178594691E+04  0.00000000000E+00 0. -1.
        -11    1    3    3    0    0 -0.96481109695E+01  0.86624363668E+02 -0.31767236073E+03  0.32941250006E+03  0.00000000000E+00 0.  1.
          2    1    6    6  502    0  0.58725972974E+02 -0.53073654139E+02  0.14280130853E+03  0.16327206247E+03  0.00000000000E+00 0. -1.
          1    1    5    5  503    0 -0.78645880177E+02 -0.10855039866E+03 -0.67506672862E+02  0.15008502390E+03  0.00000000000E+00 0. -1.
         -2    1    5    5    0  503 -0.54986627026E+02 -0.27825466971E+03 -0.15816380243E+03  0.32475372017E+03  0.00000000000E+00 0.  1.
         -1    1    6    6    0  502  0.43360396013E+02 -0.14828008898E+03  0.46758496469E+03  0.49244574111E+03  0.00000000000E+00 0.  1.
<mgrwt>
<rscale>  0 0.25281682E+04</rscale>
<asrwt>0</asrwt>
<pdfrwt beam="1">  1        2 0.30221410E+00 0.25281682E+04</pdfrwt>
<pdfrwt beam="2">  1       -2 0.12514413E+00 0.25281682E+04</pdfrwt>
<totfact> 0.29750290E+00</totfact>
</mgrwt>
</event>
<event>
12    1  0.1489025E-007  0.2221018E+04  0.7818608E-02  0.8509731E-01
          1   -1    0    0  501    0  0.00000000000E+00  0.00000000000E+00  0.74392942841E+03  0.74392942841E+03  0.00000000000E+00 0. -1.
         -1   -1    0    0    0  501 -0.00000000000E+00 -0.00000000000E+00 -0.16577246820E+04  0.16577246820E+04  0.00000000000E+00 0.  1.
         23    2    1    2    0    0  0.84143954784E+03  0.16528239529E+03 -0.38665468909E+01  0.86224257917E+03  0.90047389092E+02 0.  0.
        254    2    1    2    0    0 -0.84143954784E+03 -0.16528239529E+03 -0.90992870665E+03  0.15394115312E+04  0.89804166291E+03 0.  0.
        -24    2    4    4    0    0  0.82436832231E+02  0.12309384756E+03  0.47844555792E+02  0.17521006731E+03  0.80383702038E+02 0.  0.
         24    2    4    4    0    0 -0.92387638007E+03 -0.28837624286E+03 -0.95777326245E+03  0.13642014639E+04  0.83711341551E+02 0.  0.
         13    1    3    3    0    0  0.45358220378E+03  0.78983204435E+02 -0.45867159776E+02  0.46268667424E+03  0.00000000000E+00 0.  1.
        -13    1    3    3    0    0  0.38785734406E+03  0.86299190858E+02  0.42000612885E+02  0.39955590493E+03  0.00000000000E+00 0. -1.
          4    1    6    6  502    0 -0.30383907329E+03 -0.85658737746E+02 -0.36725983593E+03  0.48428853889E+03  0.00000000000E+00 0. -1.
          3    1    5    5  503    0  0.36953500850E+02  0.20739103125E+02  0.46889592391E+02  0.63200518179E+02  0.00000000000E+00 0. -1.
         -4    1    5    5    0  503  0.45483331380E+02  0.10235474444E+03  0.95496340134E+00  0.11200954914E+03  0.00000000000E+00 0.  1.
         -3    1    6    6    0  502 -0.62003730678E+03 -0.20271750511E+03 -0.59051342652E+03  0.87991292499E+03  0.00000000000E+00 0.  1.
<mgrwt>
<rscale>  0 0.22210179E+04</rscale>
<asrwt>0</asrwt>
<pdfrwt beam="1">  1        1 0.11445068E+00 0.22210179E+04</pdfrwt>
<pdfrwt beam="2">  1       -1 0.25503456E+00 0.22210179E+04</pdfrwt>
<totfact> 0.14591067E+00</totfact>
</mgrwt>
</event>
<event>
12    1  0.1489025E-007  0.1680852E+04  0.7818608E-02  0.8772361E-01
          1   -1    0    0  501    0  0.00000000000E+00  0.00000000000E+00  0.18886196849E+04  0.18886196849E+04  0.00000000000E+00 0. -1.
         -1   -1    0    0    0  501 -0.00000000000E+00 -0.00000000000E+00 -0.37398538591E+03  0.37398538591E+03  0.00000000000E+00 0.  1.
         23    2    1    2    0    0 -0.16743630865E+03  0.55268657331E+03  0.40858979832E+03  0.71329065767E+03  0.91326739010E+02 0.  0.
        254    2    1    2    0    0  0.16743630865E+03 -0.55268657331E+03  0.11060445006E+04  0.15493144131E+04  0.91844615929E+03 0.  0.
        -24    2    4    4    0    0  0.17562519653E+03 -0.53521125411E+03  0.14757422517E+03  0.58768414755E+03  0.79367557345E+02 0.  0.
         24    2    4    4    0    0 -0.81888878719E+01 -0.17475319199E+02  0.95847027547E+03  0.96163026557E+03  0.75465581745E+02 0.  0.
         11    1    3    3    0    0 -0.52739588847E+02  0.30682529860E+03  0.24796666943E+03  0.39800841353E+03  0.00000000000E+00 0. -1.
        -11    1    3    3    0    0 -0.11469671981E+03  0.24586127472E+03  0.16062312889E+03  0.31528224414E+03  0.00000000000E+00 0.  1.
          2    1    6    6  502    0  0.32591025146E+02 -0.16339746126E+02  0.39131612426E+03  0.39301077763E+03  0.00000000000E+00 0. -1.
          3    1    5    5  503    0  0.54672677705E+02 -0.27037154513E+03  0.48089262521E+02  0.28000437724E+03  0.00000000000E+00 0. -1.
         -4    1    5    5    0  503  0.12095251882E+03 -0.26483970899E+03  0.99484962649E+02  0.30767977031E+03  0.00000000000E+00 0.  1.
         -1    1    6    6    0  502 -0.40779913018E+02 -0.11355730733E+01  0.56715415121E+03  0.56861948794E+03  0.00000000000E+00 0.  1.
<mgrwt>
<rscale>  0 0.16808524E+04</rscale>
<asrwt>0</asrwt>
<pdfrwt beam="1">  1        1 0.29055687E+00 0.16808524E+04</pdfrwt>
<pdfrwt beam="2">  1       -1 0.57536214E-01 0.16808524E+04</pdfrwt>
<totfact> 0.10343826E+01</totfact>
</mgrwt>
</event>
<event>
12    1  0.1489025E-007  0.2619697E+04  0.7818608E-02  0.8361541E-01
          1   -1    0    0  501    0  0.00000000000E+00  0.00000000000E+00  0.15332190409E+04  0.15332190409E+04  0.00000000000E+00 0. -1.
         -1   -1    0    0    0  501 -0.00000000000E+00 -0.00000000000E+00 -0.11190203570E+04  0.11190203570E+04  0.00000000000E+00 0.  1.
         23    2    1    2    0    0  0.76154687531E+03  0.79257282817E+02 -0.62619512177E+03  0.99337857432E+03  0.91898319960E+02 0.  0.
        254    2    1    2    0    0 -0.76154687531E+03 -0.79257282817E+02  0.10403938057E+04  0.16588608236E+04  0.10407519402E+04 0.  0.
        -24    2    4    4    0    0 -0.66428314302E+02  0.22193191744E+03  0.83475688343E+03  0.86972670246E+03  0.77064814363E+02 0.  0.
         24    2    4    4    0    0 -0.69511856101E+03 -0.30118920026E+03  0.20563692227E+03  0.78913412115E+03  0.80878731100E+02 0.  0.
         11    1    3    3    0    0  0.74119192551E+03  0.63331144057E+02 -0.59311850919E+03  0.95140205497E+03  0.00000000000E+00 0.  1.
        -11    1    3    3    0    0  0.20354949800E+02  0.15926138760E+02 -0.33076612581E+02  0.41976519353E+02  0.00000000000E+00 0. -1.
          4    1    6    6  502    0 -0.33865217344E+02 -0.35992986317E+02  0.13297405068E+02  0.51177817375E+02  0.00000000000E+00 0. -1.
          1    1    5    5  503    0 -0.13365034977E+02  0.16317447527E+03  0.51995569064E+03  0.54512242089E+03  0.00000000000E+00 0. -1.
         -2    1    5    5    0  503 -0.53063279325E+02  0.58757442179E+02  0.31480119280E+03  0.32460428157E+03  0.00000000000E+00 0.  1.
         -3    1    6    6    0  502 -0.66125334366E+03 -0.26519621395E+03  0.19233951721E+03  0.73795630377E+03  0.00000000000E+00 0.  1.
<mgrwt>
<rscale>  0 0.26196972E+04</rscale>
<asrwt>0</asrwt>
<pdfrwt beam="1">  1        1 0.23587985E+00 0.26196972E+04</pdfrwt>
<pdfrwt beam="2">  1       -1 0.17215698E+00 0.26196972E+04</pdfrwt>
<totfact> 0.12942755E+00</totfact>
</mgrwt>
</event>
<event>
12    1  0.1489025E-007  0.2283278E+04  0.7818608E-02  0.8484544E-01
          1   -1    0    0  501    0  0.00000000000E+00  0.00000000000E+00  0.13685090304E+04  0.13685090304E+04  0.00000000000E+00 0. -1.
         -1   -1    0    0    0  501 -0.00000000000E+00 -0.00000000000E+00 -0.95237946524E+03  0.95237946524E+03  0.00000000000E+00 0.  1.
         23    2    1    2    0    0  0.57834048742E+03  0.29946594523E+03  0.89022949949E+03  0.11067140574E+04  0.90276637291E+02 0.  0.
        254    2    1    2    0    0 -0.57834048742E+03 -0.29946594523E+03 -0.47409993434E+03  0.12141744383E+04  0.90845541834E+03 0.  0.
        -24    2    4    4    0    0  0.80533207055E+02  0.16679191732E+03  0.93876342311E+02  0.22433718722E+03  0.84907389569E+02 0.  0.
         24    2    4    4    0    0 -0.65887369448E+03 -0.46625786254E+03 -0.56797627665E+03  0.98983725107E+03  0.75298028623E+02 0.  0.
         13    1    3    3    0    0  0.54554407366E+03  0.26933576569E+03  0.85764958948E+03  0.10515335988E+04  0.00000000000E+00 0.  1.
        -13    1    3    3    0    0  0.32796413762E+02  0.30130179534E+02  0.32579910013E+02  0.55180458596E+02  0.00000000000E+00 0. -1.
          2    1    6    6  502    0 -0.31961387857E+03 -0.27070531456E+03 -0.28165388326E+03  0.50474083316E+03  0.00000000000E+00 0. -1.
          3    1    5    5  503    0  0.66972078331E+02  0.16426134657E+03  0.59183121715E+02  0.18700184798E+03  0.00000000000E+00 0. -1.
         -4    1    5    5    0  503  0.13561128725E+02  0.25305707445E+01  0.34693220595E+02  0.37335339236E+02  0.00000000000E+00 0.  1.
         -1    1    6    6    0  502 -0.33925981591E+03 -0.19555254798E+03 -0.28632239339E+03  0.48509641791E+03  0.00000000000E+00 0.  1.
<mgrwt>
<rscale>  0 0.22832783E+04</rscale>
<asrwt>0</asrwt>
<pdfrwt beam="1">  1        1 0.21053985E+00 0.22832783E+04</pdfrwt>
<pdfrwt beam="2">  1       -1 0.14651992E+00 0.22832783E+04</pdfrwt>
<totfact> 0.27200172E+00</totfact>
</mgrwt>
</event>
<event>
12    1  0.1489025E-007  0.1470295E+04  0.7818608E-02  0.8904450E-01
         -1   -1    0    0    0  501 -0.00000000000E+00  0.00000000000E+00  0.56101901700E+03  0.56101901700E+03  0.00000000000E+00 0.  1.
          1   -1    0    0  501    0  0.00000000000E+00 -0.00000000000E+00 -0.96332209238E+03  0.96332209238E+03  0.00000000000E+00 0. -1.
         23    2    1    2    0    0  0.20874067435E+03  0.22495441110E+02  0.28658152698E+03  0.36693366667E+03  0.91829353322E+02 0.  0.
        254    2    1    2    0    0 -0.20874067435E+03 -0.22495441110E+02 -0.68888460236E+03  0.11574074427E+04  0.90606361757E+03 0.  0.
        -24    2    4    4    0    0 -0.27130170104E+03  0.35724252798E+03 -0.60105747519E+03  0.75437366875E+03  0.81133882119E+02 0.  0.
         24    2    4    4    0    0  0.62561026694E+02 -0.37973796909E+03 -0.87827127169E+02  0.40303377396E+03  0.81288446018E+02 0.  0.
         13    1    3    3    0    0  0.97079334832E+02  0.33985884873E+02  0.74584157581E+02  0.12705209240E+03  0.00000000000E+00 0. -1.
        -13    1    3    3    0    0  0.11166133952E+03 -0.11490443763E+02  0.21199736940E+03  0.23988157427E+03  0.00000000000E+00 0.  1.
          4    1    6    6  502    0 -0.37515016015E+01 -0.10479973711E+03  0.60421420623E+01  0.10504078324E+03  0.00000000000E+00 0. -1.
          1    1    5    5  503    0 -0.31450270069E+02  0.21672090381E+02 -0.88995270132E+02  0.96845015849E+02  0.00000000000E+00 0. -1.
         -2    1    5    5    0  503 -0.23985143098E+03  0.33557043760E+03 -0.51206220506E+03  0.65752865290E+03  0.00000000000E+00 0.  1.
         -3    1    6    6    0  502  0.66312528296E+02 -0.27493823198E+03 -0.93869269231E+02  0.29799299072E+03  0.00000000000E+00 0.  1.
<mgrwt>
<rscale>  0 0.14702952E+04</rscale>
<asrwt>0</asrwt>
<pdfrwt beam="1">  1        1 0.14820340E+00 0.14702952E+04</pdfrwt>
<pdfrwt beam="2">  1       -1 0.86310618E-01 0.14702952E+04</pdfrwt>
<totfact> 0.20774008E+01</totfact>
</mgrwt>
</event>
<event>
12    1  0.1489025E-007  0.1202777E+04  0.7818608E-02  0.9110429E-01
          1   -1    0    0  501    0  0.00000000000E+00  0.00000000000E+00  0.94573052018E+03  0.94573052018E+03  0.00000000000E+00 0. -1.
         -1   -1    0    0    0  501 -0.00000000000E+00 -0.00000000000E+00 -0.38242184710E+03  0.38242184710E+03  0.00000000000E+00 0.  1.
         23    2    1    2    0    0 -0.21906006774E+03  0.11053833028E+02  0.48252420542E+02  0.24243821401E+03  0.91315338367E+02 0.  0.
        254    2    1    2    0    0  0.21906006774E+03 -0.11053833028E+02  0.51505625253E+03  0.10857141533E+04  0.93025952230E+03 0.  0.
        -24    2    4    4    0    0  0.93755112920E+02  0.51662496811E+02  0.77127906932E+03  0.78264478410E+03  0.78755447646E+02 0.  0.
         24    2    4    4    0    0  0.12530495482E+03 -0.62716329839E+02 -0.25622281678E+03  0.30306936917E+03  0.81032345120E+02 0.  0.
         11    1    3    3    0    0 -0.20435152587E+02 -0.27429655437E+02 -0.96696723413E+00  0.34218656962E+02  0.00000000000E+00 0. -1.
        -11    1    3    3    0    0 -0.19862491516E+03  0.38483488465E+02  0.49219387776E+02  0.20821955705E+03  0.00000000000E+00 0.  1.
          4    1    6    6  502    0  0.10865478536E+03 -0.37065185092E+02 -0.24487528483E+03  0.27045072647E+03  0.00000000000E+00 0. -1.
          3    1    5    5  503    0  0.10272305574E+03  0.26526578634E+02  0.62895314959E+03  0.63783834153E+03  0.00000000000E+00 0. -1.
         -4    1    5    5    0  503 -0.89679428234E+01  0.25135918177E+02  0.14232591973E+03  0.14480644256E+03  0.00000000000E+00 0.  1.
         -3    1    6    6    0  502  0.16650169458E+02 -0.25651144747E+02 -0.11347531951E+02  0.32618642694E+02  0.00000000000E+00 0.  1.
<mgrwt>
<rscale>  0 0.12027768E+04</rscale>
<asrwt>0</asrwt>
<pdfrwt beam="1">  1        1 0.14549700E+00 0.12027768E+04</pdfrwt>
<pdfrwt beam="2">  1       -1 0.58834131E-01 0.12027768E+04</pdfrwt>
<totfact> 0.48402219E+01</totfact>
</mgrwt>
</event>
<event>
12    1  0.1489025E-007  0.2299297E+04  0.7818608E-02  0.8478198E-01
         -2   -1    0    0    0  501 -0.00000000000E+00  0.00000000000E+00  0.11737646466E+04  0.11737646466E+04  0.00000000000E+00 0.  1.
          2   -1    0    0  501    0  0.00000000000E+00 -0.00000000000E+00 -0.11260279322E+04  0.11260279322E+04  0.00000000000E+00 0. -1.
         23    2    1    2    0    0  0.75312206181E+03 -0.29155887072E+03 -0.52275503616E+03  0.96639123241E+03  0.91868227167E+02 0.  0.
        254    2    1    2    0    0 -0.75312206181E+03  0.29155887072E+03  0.57049175057E+03  0.13334013464E+04  0.89459426453E+03 0.  0.
        -24    2    4    4    0    0 -0.66809306042E+03 -0.67719209001E+02  0.66053717566E+03  0.94522231380E+03  0.78750450296E+02 0.  0.
         24    2    4    4    0    0 -0.85029001386E+02  0.35927807972E+03 -0.90045425085E+02  0.38817903264E+03  0.79146150596E+02 0.  0.
         13    1    3    3    0    0  0.63090473228E+03 -0.27870534797E+03 -0.45096575463E+03  0.82406769385E+03  0.00000000000E+00 0. -1.
        -13    1    3    3    0    0  0.12221732953E+03 -0.12853522751E+02 -0.71789281526E+02  0.14232353855E+03  0.00000000000E+00 0.  1.
          4    1    6    6  502    0 -0.31030788521E+02  0.21591364285E+03 -0.87314006780E+02  0.23495818093E+03  0.00000000000E+00 0. -1.
          3    1    5    5  503    0 -0.56770459539E+03 -0.64857114594E+02  0.59701076087E+03  0.82638780335E+03  0.00000000000E+00 0. -1.
         -4    1    5    5    0  503 -0.10038846504E+03 -0.28620944078E+01  0.63526414787E+02  0.11883451044E+03  0.00000000000E+00 0.  1.
         -3    1    6    6    0  502 -0.53998212865E+02  0.14336443687E+03 -0.27314183048E+01  0.15322085171E+03  0.00000000000E+00 0.  1.
<mgrwt>
<rscale>  0 0.22992971E+04</rscale>
<asrwt>0</asrwt>
<pdfrwt beam="1">  1        2 0.17323507E+00 0.22992971E+04</pdfrwt>
<pdfrwt beam="2">  1       -2 0.18057918E+00 0.22992971E+04</pdfrwt>
<totfact> 0.34201939E+00</totfact>
</mgrwt>
</event>
<event>
12    1  0.1489025E-007  0.1375460E+04  0.7818608E-02  0.8971776E-01
          2   -1    0    0  501    0  0.00000000000E+00  0.00000000000E+00  0.25759776708E+04  0.25759776708E+04  0.00000000000E+00 0. -1.
         -2   -1    0    0    0  501 -0.00000000000E+00 -0.00000000000E+00 -0.18360890976E+03  0.18360890976E+03  0.00000000000E+00 0.  1.
         23    2    1    2    0    0 -0.16063271859E+03 -0.47297947302E+02 -0.61376071824E+01  0.19160974609E+03  0.92933624028E+02 0.  0.
        254    2    1    2    0    0  0.16063271859E+03  0.47297947302E+02  0.23985063682E+04  0.25679768344E+04  0.90201566383E+03 0.  0.
        -24    2    4    4    0    0  0.30420073473E+03 -0.30630162691E+03  0.18070875970E+04  0.18595995324E+04  0.78651534012E+02 0.  0.
         24    2    4    4    0    0 -0.14356801614E+03  0.35359957421E+03  0.59141877118E+03  0.70837730207E+03  0.79861161069E+02 0.  0.
         13    1    3    3    0    0 -0.48393704559E+01 -0.33862140533E+02 -0.83970422594E+01  0.35221788521E+02  0.00000000000E+00 0. -1.
        -13    1    3    3    0    0 -0.15579334814E+03 -0.13435806768E+02  0.22594350770E+01  0.15638795757E+03  0.00000000000E+00 0.  1.
          4    1    6    6  502    0 -0.45999224054E+02  0.75904747584E+02  0.86517643492E+02  0.12394660929E+03  0.00000000000E+00 0. -1.
          1    1    5    5  503    0  0.57312323992E+02 -0.28254338103E+02  0.35199435190E+03  0.35774716473E+03  0.00000000000E+00 0. -1.
         -2    1    5    5    0  503  0.24688841074E+03 -0.27804728880E+03  0.14550932451E+04  0.15018523676E+04  0.00000000000E+00 0.  1.
         -3    1    6    6    0  502 -0.97568792086E+02  0.27769482662E+03  0.50490112769E+03  0.58443069278E+03  0.00000000000E+00 0.  1.
<mgrwt>
<rscale>  0 0.13754599E+04</rscale>
<asrwt>0</asrwt>
<pdfrwt beam="1">  1        2 0.39630423E+00 0.13754599E+04</pdfrwt>
<pdfrwt beam="2">  1       -2 0.28247526E-01 0.13754599E+04</pdfrwt>
<totfact> 0.35316189E+01</totfact>
</mgrwt>
</event>
<event>
12    1  0.1489025E-007  0.1370305E+04  0.7818608E-02  0.8975598E-01
          2   -1    0    0  501    0  0.00000000000E+00  0.00000000000E+00  0.44963422690E+03  0.44963422690E+03  0.00000000000E+00 0. -1.
         -2   -1    0    0    0  501 -0.00000000000E+00 -0.00000000000E+00 -0.10440347842E+04  0.10440347842E+04  0.00000000000E+00 0.  1.
         23    2    1    2    0    0  0.20552924715E+03 -0.20688975702E+03 -0.44600008263E+03  0.54042755106E+03  0.90001229101E+02 0.  0.
        254    2    1    2    0    0 -0.20552924715E+03  0.20688975702E+03 -0.14840047466E+03  0.95324146003E+03  0.89532169483E+03 0.  0.
        -24    2    4    4    0    0 -0.51331169456E+02 -0.15412235352E+03 -0.42774659857E+03  0.46449721958E+03  0.80012034075E+02 0.  0.
         24    2    4    4    0    0 -0.15419807770E+03  0.36101211054E+03  0.27934612392E+03  0.48874424044E+03  0.82035873264E+02 0.  0.
         11    1    3    3    0    0  0.17136013873E+03 -0.12319597920E+03 -0.34885732323E+03  0.40772905024E+03  0.00000000000E+00 0.  1.
        -11    1    3    3    0    0  0.34169108429E+02 -0.83693777817E+02 -0.97142759403E+02  0.13269850082E+03  0.00000000000E+00 0. -1.
          2    1    6    6  502    0 -0.20709500581E+02  0.42645171893E+02  0.71485334818E+02  0.85776728745E+02  0.00000000000E+00 0. -1.
          3    1    5    5  503    0  0.16397436731E+02 -0.11053967536E+02 -0.25810665789E+02  0.32515482437E+02  0.00000000000E+00 0. -1.
         -4    1    5    5    0  503 -0.67728606188E+02 -0.14306838598E+03 -0.40193593279E+03  0.43198173715E+03  0.00000000000E+00 0.  1.
         -1    1    6    6    0  502 -0.13348857712E+03  0.31836693864E+03  0.20786078910E+03  0.40296751170E+03  0.00000000000E+00 0.  1.
<mgrwt>
<rscale>  0 0.13703047E+04</rscale>
<asrwt>0</asrwt>
<pdfrwt beam="1">  1        2 0.69174497E-01 0.13703047E+04</pdfrwt>
<pdfrwt beam="2">  1       -2 0.16062074E+00 0.13703047E+04</pdfrwt>
<totfact> 0.16905069E+01</totfact>
</mgrwt>
</event>
<event>
12    1  0.1489025E-007  0.1666248E+04  0.7818608E-02  0.8780852E-01
          2   -1    0    0  501    0  0.00000000000E+00  0.00000000000E+00  0.33405949446E+04  0.33405949446E+04  0.00000000000E+00 0. -1.
         -2   -1    0    0    0  501 -0.00000000000E+00 -0.00000000000E+00 -0.20777607260E+03  0.20777607260E+03  0.00000000000E+00 0.  1.
         23    2    1    2    0    0 -0.58107335070E+03 -0.14481734397E+02  0.92115109630E+03  0.10925638489E+04  0.85559699348E+02 0.  0.
        254    2    1    2    0    0  0.58107335070E+03  0.14481734397E+02  0.22116677757E+04  0.24558071683E+04  0.89535386208E+03 0.  0.
        -24    2    4    4    0    0  0.28535319293E+03 -0.43212790863E+02  0.21060661810E+04  0.21272397958E+04  0.79627885125E+02 0.  0.
         24    2    4    4    0    0  0.29572015777E+03  0.57694525260E+02  0.10560159462E+03  0.32856737243E+03  0.77625714066E+02 0.  0.
         11    1    3    3    0    0 -0.18630739752E+03 -0.14324472103E+02  0.22703328371E+03  0.29404038631E+03  0.00000000000E+00 0. -1.
        -11    1    3    3    0    0 -0.39476595318E+03 -0.15726229326E+00  0.69411781259E+03  0.79852346257E+03  0.00000000000E+00 0.  1.
          4    1    6    6  502    0  0.26356045851E+03  0.75729856529E+02  0.94746037990E+02  0.29013089834E+03  0.00000000000E+00 0. -1.
          1    1    5    5  503    0  0.25194669185E+03 -0.11471319618E+02  0.18414525820E+04  0.18586436825E+04  0.00000000000E+00 0. -1.
         -2    1    5    5    0  503  0.33406501083E+02 -0.31741471245E+02  0.26461359903E+03  0.26859611334E+03  0.00000000000E+00 0.  1.
         -3    1    6    6    0  502  0.32159699262E+02 -0.18035331269E+02  0.10855556628E+02  0.38436474088E+02  0.00000000000E+00 0.  1.
<mgrwt>
<rscale>  0 0.16662481E+04</rscale>
<asrwt>0</asrwt>
<pdfrwt beam="1">  1        2 0.51393764E+00 0.16662481E+04</pdfrwt>
<pdfrwt beam="2">  1       -2 0.31965552E-01 0.16662481E+04</pdfrwt>
<totfact> 0.91639335E+00</totfact>
</mgrwt>
</event>
<event>
12    1  0.1489025E-007  0.2978134E+04  0.7818608E-02  0.8250002E-01
          2   -1    0    0  501    0  0.00000000000E+00  0.00000000000E+00  0.35786229889E+04  0.35786229889E+04  0.00000000000E+00 0.  1.
         -2   -1    0    0    0  501 -0.00000000000E+00 -0.00000000000E+00 -0.61960171398E+03  0.61960171398E+03  0.00000000000E+00 0. -1.
         23    2    1    2    0    0  0.49721214379E+03  0.22204732621E+03 -0.39851120265E+03  0.68081496762E+03  0.90404150818E+02 0.  0.
        254    2    1    2    0    0 -0.49721214379E+03 -0.22204732621E+03  0.33575324776E+04  0.35174097353E+04  0.89589172160E+03 0.  0.
        -24    2    4    4    0    0 -0.46167576236E+03 -0.42640582336E+03  0.12785820081E+04  0.14266477434E+04  0.74735510893E+02 0.  0.
         24    2    4    4    0    0 -0.35536381427E+02  0.20435849715E+03  0.20789504695E+04  0.20907619919E+04  0.78901345655E+02 0.  0.
         11    1    3    3    0    0  0.46984935895E+03  0.22666954881E+03 -0.39138139490E+03  0.65216324700E+03  0.00000000000E+00 0. -1.
        -11    1    3    3    0    0  0.27362784841E+02 -0.46222225928E+01 -0.71298077486E+01  0.28651720620E+02  0.00000000000E+00 0.  1.
          4    1    6    6  502    0 -0.35887796193E+02  0.96240242882E+02  0.13416904087E+04  0.13456163165E+04  0.00000000000E+00 0. -1.
          1    1    5    5  503    0 -0.18496141021E+03 -0.19154791433E+03  0.46636344859E+03  0.53702531871E+03  0.00000000000E+00 0. -1.
         -2    1    5    5    0  503 -0.27671435215E+03 -0.23485790903E+03  0.81221855952E+03  0.88962242471E+03  0.00000000000E+00 0.  1.
         -3    1    6    6    0  502  0.35141476661E+00  0.10811825427E+03  0.73726006078E+03  0.74514567543E+03  0.00000000000E+00 0.  1.
<mgrwt>
<rscale>  0 0.29781343E+04</rscale>
<asrwt>0</asrwt>
<pdfrwt beam="1">  1        2 0.55055737E+00 0.29781343E+04</pdfrwt>
<pdfrwt beam="2">  1       -2 0.95323343E-01 0.29781343E+04</pdfrwt>
<totfact> 0.56668723E-01</totfact>
</mgrwt>
</event>
<event>
12    1  0.1489025E-007  0.1109894E+04  0.7818608E-02  0.9195601E-01
         -2   -1    0    0    0  501 -0.00000000000E+00  0.00000000000E+00  0.10816066305E+04  0.10816066305E+04  0.00000000000E+00 0.  1.
          2   -1    0    0  501    0  0.00000000000E+00 -0.00000000000E+00 -0.28473051071E+03  0.28473051071E+03  0.00000000000E+00 0. -1.
         23    2    1    2    0    0 -0.11352380800E+03  0.40107174925E+02 -0.12919448915E+02  0.15349968690E+03  0.94334517830E+02 0.  0.
        254    2    1    2    0    0  0.11352380800E+03 -0.40107174925E+02  0.80979556875E+03  0.12128374544E+04  0.89482377431E+03 0.  0.
        -24    2    4    4    0    0  0.44625078553E+03  0.18650413332E+03  0.48485361472E+03  0.68945993858E+03  0.79676997072E+02 0.  0.
         24    2    4    4    0    0 -0.33272697753E+03 -0.22661130825E+03  0.32494195403E+03  0.52337751578E+03  0.79226409309E+02 0.  0.
         13    1    3    3    0    0 -0.99396624461E+02  0.28324252384E+01 -0.37947499960E+02  0.10643178257E+03  0.00000000000E+00 0. -1.
        -13    1    3    3    0    0 -0.14127183537E+02  0.37274749687E+02  0.25028051045E+02  0.47067904330E+02  0.00000000000E+00 0.  1.
          4    1    6    6  502    0 -0.31205254955E+02 -0.35196241428E+02  0.12054034400E+02  0.48557626515E+02  0.00000000000E+00 0. -1.
          3    1    5    5  503    0  0.38206358300E+02  0.29787757014E+01  0.16439803720E+02  0.41699713015E+02  0.00000000000E+00 0. -1.
         -4    1    5    5    0  503  0.40804442723E+03  0.18352535762E+03  0.46841381100E+03  0.64776022556E+03  0.00000000000E+00 0.  1.
         -3    1    6    6    0  502 -0.30152172258E+03 -0.19141506682E+03  0.31288791963E+03  0.47481988926E+03  0.00000000000E+00 0.  1.
<mgrwt>
<rscale>  0 0.11098944E+04</rscale>
<asrwt>0</asrwt>
<pdfrwt beam="1">  1        2 0.43804695E-01 0.11098944E+04</pdfrwt>
<pdfrwt beam="2">  1       -2 0.16640102E+00 0.11098944E+04</pdfrwt>
<totfact> 0.26091022E+01</totfact>
</mgrwt>
</event>
<event>
12    1  0.1489025E-007  0.1925657E+04  0.7818608E-02  0.8642190E-01
         -1   -1    0    0    0  501 -0.00000000000E+00  0.00000000000E+00  0.17463232732E+04  0.17463232732E+04  0.00000000000E+00 0.  1.
          1   -1    0    0  501    0  0.00000000000E+00 -0.00000000000E+00 -0.53085145777E+03  0.53085145777E+03  0.00000000000E+00 0. -1.
         23    2    1    2    0    0  0.38633244545E+03  0.50363519852E+03  0.13267560943E+02  0.64468093599E+03  0.11196566199E+03 0.  0.
        254    2    1    2    0    0 -0.38633244545E+03 -0.50363519852E+03  0.12022042545E+04  0.16324937950E+04  0.90379187289E+03 0.  0.
        -24    2    4    4    0    0 -0.39794740940E+03  0.15905340378E+03  0.50322058983E+03  0.66593252172E+03  0.81086592968E+02 0.  0.
         24    2    4    4    0    0  0.11614963950E+02 -0.66268860230E+03  0.69898366464E+03  0.96656127323E+03  0.79821303383E+02 0.  0.
         13    1    3    3    0    0  0.39090034910E+03  0.47537129363E+03  0.17716054322E+02  0.61570675514E+03  0.00000000000E+00 0. -1.
        -13    1    3    3    0    0 -0.45679036492E+01  0.28263904884E+02 -0.44484933788E+01  0.28974180858E+02  0.00000000000E+00 0.  1.
          2    1    6    6  502    0 -0.22532533215E+02 -0.42938613901E+03  0.48494483052E+03  0.64811392522E+03  0.00000000000E+00 0. -1.
          1    1    5    5  503    0 -0.11726977107E+03  0.90377036365E+01  0.12517437995E+03  0.17176293165E+03  0.00000000000E+00 0. -1.
         -2    1    5    5    0  503 -0.28067763833E+03  0.15001570014E+03  0.37804620987E+03  0.49416959007E+03  0.00000000000E+00 0.  1.
         -1    1    6    6    0  502  0.34147497165E+02 -0.23330246329E+03  0.21403883413E+03  0.31844734801E+03  0.00000000000E+00 0.  1.
<mgrwt>
<rscale>  0 0.19256565E+04</rscale>
<asrwt>0</asrwt>
<pdfrwt beam="1">  1        1 0.81669456E-01 0.19256565E+04</pdfrwt>
<pdfrwt beam="2">  1       -1 0.26866512E+00 0.19256565E+04</pdfrwt>
<totfact> 0.20070712E+00</totfact>
</mgrwt>
</event>
<event>
12    1  0.1489025E-007  0.1387288E+04  0.7818608E-02  0.8963072E-01
         -1   -1    0    0    0  501 -0.00000000000E+00  0.00000000000E+00  0.41346006620E+03  0.41346006620E+03  0.00000000000E+00 0.  1.
          1   -1    0    0  501    0  0.00000000000E+00 -0.00000000000E+00 -0.11636966188E+04  0.11636966188E+04  0.00000000000E+00 0. -1.
         23    2    1    2    0    0  0.41812116520E+03 -0.38427111362E+02 -0.20149423221E+03  0.47487259483E+03  0.92747528412E+02 0.  0.
        254    2    1    2    0    0 -0.41812116520E+03  0.38427111362E+02 -0.54874232037E+03  0.11022840901E+04  0.85884231938E+03 0.  0.
        -24    2    4    4    0    0 -0.52531106220E+03  0.18643020427E+03 -0.50698662784E+02  0.56579370457E+03  0.82729853085E+02 0.  0.
         24    2    4    4    0    0  0.10718989700E+03 -0.14800309291E+03 -0.49804365759E+03  0.53649038558E+03  0.79874022213E+02 0.  0.
         13    1    3    3    0    0  0.24516048554E+03 -0.28810141152E+02 -0.67616415402E+02  0.25594075005E+03  0.00000000000E+00 0.  1.
        -13    1    3    3    0    0  0.17296067966E+03 -0.96169702100E+01 -0.13387781681E+03  0.21893184478E+03  0.00000000000E+00 0. -1.
          2    1    6    6  502    0  0.83057995740E+02 -0.14434021736E+03 -0.47326239607E+03  0.50170711032E+03  0.00000000000E+00 0. -1.
          1    1    5    5  503    0 -0.52275450344E+03  0.19062906958E+03 -0.44965531546E+02  0.55824153559E+03  0.00000000000E+00 0. -1.
         -2    1    5    5    0  503 -0.25565587653E+01 -0.41988653058E+01 -0.57331312373E+01  0.75521689838E+01  0.00000000000E+00 0.  1.
         -1    1    6    6    0  502  0.24131901258E+02 -0.36628755451E+01 -0.24781261512E+02  0.34783275259E+02  0.00000000000E+00 0.  1.
<mgrwt>
<rscale>  0 0.13872881E+04</rscale>
<asrwt>0</asrwt>
<pdfrwt beam="1">  1        1 0.17903025E+00 0.13872881E+04</pdfrwt>
<pdfrwt beam="2">  1       -1 0.63609242E-01 0.13872881E+04</pdfrwt>
<totfact> 0.27801105E+01</totfact>
</mgrwt>
</event>
<event>
12    1  0.1489025E-007  0.1425240E+04  0.7818608E-02  0.8935748E-01
          1   -1    0    0  501    0  0.00000000000E+00  0.00000000000E+00  0.81501380520E+03  0.81501380520E+03  0.00000000000E+00 0. -1.
         -1   -1    0    0    0  501 -0.00000000000E+00 -0.00000000000E+00 -0.62309066170E+03  0.62309066170E+03  0.00000000000E+00 0.  1.
         23    2    1    2    0    0 -0.26421837972E+03 -0.31419283648E+03  0.15523143683E+03  0.44793182823E+03  0.89541236773E+02 0.  0.
        254    2    1    2    0    0  0.26421837972E+03  0.31419283648E+03  0.36691706661E+02  0.99017263867E+03  0.90031499063E+03 0.  0.
        -24    2    4    4    0    0  0.26398420604E+03  0.45865870701E+03 -0.30065802142E+03  0.61461513602E+03  0.85446176214E+02 0.  0.
         24    2    4    4    0    0  0.23417368816E+00 -0.14446587053E+03  0.33734972808E+03  0.37555750265E+03  0.79800727936E+02 0.  0.
         13    1    3    3    0    0 -0.15162207745E+03 -0.19206682417E+03  0.13799423104E+03  0.28092939881E+03  0.00000000000E+00 0.  1.
        -13    1    3    3    0    0 -0.11259630227E+03 -0.12212601231E+03  0.17237205794E+02  0.16700242942E+03  0.00000000000E+00 0. -1.
          2    1    6    6  502    0 -0.30159611449E+02 -0.10213196238E+03  0.27110522026E+03  0.29127063078E+03  0.00000000000E+00 0. -1.
          1    1    5    5  503    0  0.26501629237E+03  0.42029421757E+03 -0.26997932093E+03  0.56548182842E+03  0.00000000000E+00 0. -1.
         -2    1    5    5    0  503 -0.10320863318E+01  0.38364489440E+02 -0.30678700483E+02  0.49133307598E+02  0.00000000000E+00 0.  1.
         -1    1    6    6    0  502  0.30393785137E+02 -0.42333908145E+02  0.66244507814E+02  0.84286871868E+02  0.00000000000E+00 0.  1.
<mgrwt>
<rscale>  0 0.14252403E+04</rscale>
<asrwt>0</asrwt>
<pdfrwt beam="1">  1        1 0.12538674E+00 0.14252403E+04</pdfrwt>
<pdfrwt beam="2">  1       -1 0.95860102E-01 0.14252403E+04</pdfrwt>
<totfact> 0.21915508E+01</totfact>
</mgrwt>
</event>
<event>
12    1  0.1489025E-007  0.1403525E+04  0.7818608E-02  0.8951271E-01
         -1   -1    0    0    0  501 -0.00000000000E+00  0.00000000000E+00  0.26599006285E+03  0.26599006285E+03  0.00000000000E+00 0.  1.
          1   -1    0    0  501    0  0.00000000000E+00 -0.00000000000E+00 -0.18514636143E+04  0.18514636143E+04  0.00000000000E+00 0. -1.
         23    2    1    2    0    0  0.39442348104E+03  0.51916972516E+02 -0.59021729691E+03  0.71754679570E+03  0.90838824338E+02 0.  0.
        254    2    1    2    0    0 -0.39442348104E+03 -0.51916972516E+02 -0.99525625454E+03  0.13999068815E+04  0.90052152119E+03 0.  0.
        -24    2    4    4    0    0 -0.45495990935E+03  0.34315581814E+03 -0.55565141726E+03  0.80046300731E+03  0.85135738346E+02 0.  0.
         24    2    4    4    0    0  0.60536428302E+02 -0.39507279065E+03 -0.43960483727E+03  0.59944387415E+03  0.79582512091E+02 0.  0.
         11    1    3    3    0    0  0.17135869618E+03  0.31154872763E+02 -0.33775746419E+03  0.38001912251E+03  0.00000000000E+00 0.  1.
        -11    1    3    3    0    0  0.22306478486E+03  0.20762099753E+02 -0.25245983272E+03  0.33752767319E+03  0.00000000000E+00 0. -1.
          4    1    6    6  502    0  0.39418340841E+02 -0.21943171540E+03 -0.18662411286E+03  0.29074497901E+03  0.00000000000E+00 0. -1.
          1    1    5    5  503    0 -0.67180640516E+02  0.43018351939E+02 -0.12251842696E+03  0.14620048567E+03  0.00000000000E+00 0. -1.
         -2    1    5    5    0  503 -0.38777926883E+03  0.30013746620E+03 -0.43313299030E+03  0.65426252165E+03  0.00000000000E+00 0.  1.
         -3    1    6    6    0  502  0.21118087460E+02 -0.17564107525E+03 -0.25298072441E+03  0.30869889514E+03  0.00000000000E+00 0.  1.
<mgrwt>
<rscale>  0 0.14035255E+04</rscale>
<asrwt>0</asrwt>
<pdfrwt beam="1">  1        1 0.28484055E+00 0.14035255E+04</pdfrwt>
<pdfrwt beam="2">  1       -1 0.40921550E-01 0.14035255E+04</pdfrwt>
<totfact> 0.21412582E+01</totfact>
</mgrwt>
</event>
<event>
12    1  0.1489025E-007  0.2361475E+04  0.7818608E-02  0.8454069E-01
          2   -1    0    0  501    0  0.00000000000E+00  0.00000000000E+00  0.17010706396E+04  0.17010706396E+04  0.00000000000E+00 0. -1.
         -2   -1    0    0    0  501 -0.00000000000E+00 -0.00000000000E+00 -0.81956677647E+03  0.81956677647E+03  0.00000000000E+00 0.  1.
         23    2    1    2    0    0  0.70596198520E+03 -0.65427802859E+03  0.71860786708E+03  0.12046610542E+04  0.91372455643E+02 0.  0.
        254    2    1    2    0    0 -0.70596198520E+03  0.65427802859E+03  0.16289599610E+03  0.13159763619E+04  0.88249454180E+03 0.  0.
        -24    2    4    4    0    0 -0.40680527213E+03  0.84308696660E+03  0.15915689638E+03  0.95294449207E+03  0.80536479971E+02 0.  0.
         24    2    4    4    0    0 -0.29915671307E+03 -0.18880893801E+03  0.37390997216E+01  0.36303186984E+03  0.81453076124E+02 0.  0.
         11    1    3    3    0    0  0.41198022603E+03 -0.39587320869E+03  0.37145901339E+03  0.68148741927E+03  0.00000000000E+00 0.  1.
        -11    1    3    3    0    0  0.29398175917E+03 -0.25840481990E+03  0.34714885369E+03  0.52317363494E+03  0.00000000000E+00 0. -1.
          4    1    6    6  502    0 -0.22042070265E+02  0.39969987742E+01  0.11854663520E+02  0.25344859596E+02  0.00000000000E+00 0. -1.
          1    1    5    5  503    0 -0.17443165694E+02  0.67278479356E+02  0.28559693408E+02  0.75141958329E+02  0.00000000000E+00 0. -1.
         -2    1    5    5    0  503 -0.38936210644E+03  0.77580848724E+03  0.13059720297E+03  0.87780253374E+03  0.00000000000E+00 0.  1.
         -3    1    6    6    0  502 -0.27711464280E+03 -0.19280593678E+03 -0.81155637981E+01  0.33768701025E+03  0.00000000000E+00 0.  1.
<mgrwt>
<rscale>  0 0.23614749E+04</rscale>
<asrwt>0</asrwt>
<pdfrwt beam="1">  1        2 0.26170317E+00 0.23614749E+04</pdfrwt>
<pdfrwt beam="2">  1       -2 0.12608720E+00 0.23614749E+04</pdfrwt>
<totfact> 0.41452147E+00</totfact>
</mgrwt>
</event>
<event>
12    1  0.1489025E-007  0.1675999E+04  0.7818608E-02  0.8775172E-01
          1   -1    0    0  501    0  0.00000000000E+00  0.00000000000E+00  0.11871129502E+04  0.11871129502E+04  0.00000000000E+00 0. -1.
         -1   -1    0    0    0  501 -0.00000000000E+00 -0.00000000000E+00 -0.59155571511E+03  0.59155571511E+03  0.00000000000E+00 0.  1.
         23    2    1    2    0    0  0.43695752905E+03 -0.28683898808E+03  0.52292530656E+03  0.74691115717E+03  0.10590992957E+03 0.  0.
        254    2    1    2    0    0 -0.43695752905E+03  0.28683898808E+03  0.72631928556E+02  0.10317575082E+04  0.88658878368E+03 0.  0.
        -24    2    4    4    0    0 -0.46219874238E+03 -0.15093055760E+03 -0.17389724963E+03  0.52248927555E+03  0.79668556946E+02 0.  0.
         24    2    4    4    0    0  0.25241213327E+02  0.43776954568E+03  0.24652917819E+03  0.50926823262E+03  0.79361218996E+02 0.  0.
         13    1    3    3    0    0  0.33558900734E+03 -0.26598437930E+03  0.44317866851E+03  0.61625887750E+03  0.00000000000E+00 0. -1.
        -13    1    3    3    0    0  0.10136852171E+03 -0.20854608780E+02  0.79746638055E+02  0.13065227967E+03  0.00000000000E+00 0.  1.
          4    1    6    6  502    0  0.34162604844E+02  0.35488842831E+03  0.16569225337E+03  0.39314984795E+03  0.00000000000E+00 0. -1.
          1    1    5    5  503    0 -0.36640061587E+03 -0.15240066938E+03 -0.13682500466E+03  0.41975761725E+03  0.00000000000E+00 0. -1.
         -2    1    5    5    0  503 -0.95798126503E+02  0.14701117800E+01 -0.37072244974E+02  0.10273165830E+03  0.00000000000E+00 0.  1.
         -3    1    6    6    0  502 -0.89213915177E+01  0.82881117374E+02  0.80836924824E+02  0.11611838467E+03  0.00000000000E+00 0.  1.
<mgrwt>
<rscale>  0 0.16759993E+04</rscale>
<asrwt>0</asrwt>
<pdfrwt beam="1">  1        1 0.18263276E+00 0.16759993E+04</pdfrwt>
<pdfrwt beam="2">  1       -1 0.91008571E-01 0.16759993E+04</pdfrwt>
<totfact> 0.12273411E+01</totfact>
</mgrwt>
</event>
<event>
12    1  0.1489025E-007  0.1393529E+04  0.7818608E-02  0.8958516E-01
         -2   -1    0    0    0  501 -0.00000000000E+00  0.00000000000E+00  0.27243100448E+03  0.27243100448E+03  0.00000000000E+00 0.  1.
          2   -1    0    0  501    0  0.00000000000E+00 -0.00000000000E+00 -0.17820318649E+04  0.17820318649E+04  0.00000000000E+00 0. -1.
         23    2    1    2    0    0 -0.14203986243E+03  0.13652286763E+03 -0.95981026906E+03  0.98409017672E+03  0.91563679589E+02 0.  0.
        254    2    1    2    0    0  0.14203986243E+03 -0.13652286763E+03 -0.54979059131E+03  0.10703726926E+04  0.89700289346E+03 0.  0.
        -24    2    4    4    0    0 -0.12693470555E+03 -0.68387970470E+02  0.20463758089E+03  0.26248747397E+03  0.78954420419E+02 0.  0.
         24    2    4    4    0    0  0.26897456798E+03 -0.68134897162E+02 -0.75442817220E+03  0.80788521864E+03  0.80789708846E+02 0.  0.
         13    1    3    3    0    0 -0.12986072501E+03  0.98945718016E+02 -0.58984952258E+03  0.61202656993E+03  0.00000000000E+00 0. -1.
        -13    1    3    3    0    0 -0.12179137422E+02  0.37577149617E+02 -0.36996074648E+03  0.37206360679E+03  0.00000000000E+00 0.  1.
          2    1    6    6  502    0  0.12629269229E+03 -0.70749523827E+02 -0.42135075989E+03  0.44552418801E+03  0.00000000000E+00 0. -1.
          1    1    5    5  503    0 -0.88524071714E+02 -0.23740746117E+02  0.17264099248E+03  0.19546111271E+03  0.00000000000E+00 0. -1.
         -2    1    5    5    0  503 -0.38410633834E+02 -0.44647224353E+02  0.31996588409E+02  0.67026361260E+02  0.00000000000E+00 0.  1.
         -1    1    6    6    0  502  0.14268187569E+03  0.26146266648E+01 -0.33307741231E+03  0.36236103062E+03  0.00000000000E+00 0.  1.
<mgrwt>
<rscale>  0 0.13935289E+04</rscale>
<asrwt>0</asrwt>
<pdfrwt beam="1">  1        2 0.27415875E+00 0.13935289E+04</pdfrwt>
<pdfrwt beam="2">  1       -2 0.41912462E-01 0.13935289E+04</pdfrwt>
<totfact> 0.46381887E+01</totfact>
</mgrwt>
</event>
<event>
12    1  0.1489025E-007  0.2566508E+04  0.7818608E-02  0.8379667E-01
          1   -1    0    0  501    0  0.00000000000E+00  0.00000000000E+00  0.12837502279E+04  0.12837502279E+04  0.00000000000E+00 0. -1.
         -1   -1    0    0    0  501 -0.00000000000E+00 -0.00000000000E+00 -0.12827581430E+04  0.12827581430E+04  0.00000000000E+00 0.  1.
         23    2    1    2    0    0  0.18529663507E+03  0.99582636460E+03 -0.48583488171E+03  0.11271514901E+04  0.91814802915E+02 0.  0.
        254    2    1    2    0    0 -0.18529663507E+03 -0.99582636460E+03  0.48682696663E+03  0.14393568807E+04  0.89930125275E+03 0.  0.
        -24    2    4    4    0    0  0.11230646956E+03  0.93071797981E+02  0.22060357361E+03  0.27685113016E+03  0.81887171748E+02 0.  0.
         24    2    4    4    0    0 -0.29760310463E+03 -0.10888981626E+04  0.26622339302E+03  0.11625057505E+04  0.79233255074E+02 0.  0.
         13    1    3    3    0    0  0.17500570765E+03  0.91343854625E+03 -0.41681429147E+03  0.10191815977E+04  0.00000000000E+00 0.  1.
        -13    1    3    3    0    0  0.10290927427E+02  0.82387818351E+02 -0.69020590238E+02  0.10796989245E+03  0.00000000000E+00 0. -1.
          4    1    6    6  502    0 -0.15258000512E+03 -0.52178335508E+03  0.16766586094E+03  0.56890277598E+03  0.00000000000E+00 0. -1.
          1    1    5    5  503    0  0.95947730539E+02  0.82077093459E+02  0.11951031656E+03  0.17385434142E+03  0.00000000000E+00 0. -1.
         -2    1    5    5    0  503  0.16358739017E+02  0.10994704522E+02  0.10109325705E+03  0.10299678873E+03  0.00000000000E+00 0.  1.
         -3    1    6    6    0  502 -0.14502309951E+03 -0.56711480751E+03  0.98557532081E+02  0.59360297457E+03  0.00000000000E+00 0.  1.
<mgrwt>
<rscale>  0 0.25665082E+04</rscale>
<asrwt>0</asrwt>
<pdfrwt beam="1">  1        1 0.19750003E+00 0.25665082E+04</pdfrwt>
<pdfrwt beam="2">  1       -1 0.19734741E+00 0.25665082E+04</pdfrwt>
<totfact> 0.12886154E+00</totfact>
</mgrwt>
</event>
<event>
12    1  0.1519357E-007  0.1518910E+04  0.7818608E-02  0.8871974E-01
          1   -1    0    0  501    0  0.00000000000E+00  0.00000000000E+00  0.75614369796E+03  0.75614369796E+03  0.00000000000E+00 0. -1.
         -1   -1    0    0    0  501 -0.00000000000E+00 -0.00000000000E+00 -0.76278101150E+03  0.76278101150E+03  0.00000000000E+00 0.  1.
         23    2    1    2    0    0 -0.23139865235E+03  0.12428072187E+03  0.40502507908E+03  0.49157226527E+03  0.92773612423E+02 0.  0.
        254    2    1    2    0    0  0.23139865235E+03 -0.12428072187E+03 -0.41166239262E+03  0.10273524442E+04  0.90387835739E+03 0.  0.
        -24    2    4    4    0    0  0.81127559654E+02 -0.23116414528E+03  0.23573323224E+03  0.34936831520E+03  0.80433325698E+02 0.  0.
         24    2    4    4    0    0  0.15027109269E+03  0.10688342341E+03 -0.64739562486E+03  0.67798412900E+03  0.80845015798E+02 0.  0.
         13    1    3    3    0    0 -0.13919533489E+03  0.73434804399E+02  0.31860445688E+03  0.35535448737E+03  0.00000000000E+00 0. -1.
        -13    1    3    3    0    0 -0.92203317459E+02  0.50845917469E+02  0.86420622200E+02  0.13621777790E+03  0.00000000000E+00 0.  1.
          2    1    6    6  502    0  0.70235541414E+02  0.49315658630E+02 -0.44072294713E+03  0.44900087037E+03  0.00000000000E+00 0. -1.
          3    1    5    5  503    0  0.93871832519E+02 -0.21165043061E+03  0.22763990015E+03  0.32469639643E+03  0.00000000000E+00 0. -1.
         -4    1    5    5    0  503 -0.12744272865E+02 -0.19513714671E+02  0.80933320916E+01  0.24671918763E+02  0.00000000000E+00 0.  1.
         -1    1    6    6    0  502  0.80035551280E+02  0.57567764783E+02 -0.20667267773E+03  0.22898325862E+03  0.00000000000E+00 0.  1.
<mgrwt>
<rscale>  0 0.15189102E+04</rscale>
<asrwt>0</asrwt>
<pdfrwt beam="1">  1        1 0.11632980E+00 0.15189102E+04</pdfrwt>
<pdfrwt beam="2">  1       -1 0.11735092E+00 0.15189102E+04</pdfrwt>
<totfact> 0.15273143E+01</totfact>
</mgrwt>
</event>
<event>
12    1  0.1489025E-007  0.2004455E+04  0.7818608E-02  0.8604540E-01
          1   -1    0    0  501    0  0.00000000000E+00  0.00000000000E+00  0.21224956011E+04  0.21224956011E+04  0.00000000000E+00 0. -1.
         -1   -1    0    0    0  501 -0.00000000000E+00 -0.00000000000E+00 -0.47324496805E+03  0.47324496805E+03  0.00000000000E+00 0.  1.
         23    2    1    2    0    0 -0.36993963110E+03 -0.58406907856E+03  0.12013103294E+04  0.13873851530E+04  0.60819701349E+02 0.  0.
        254    2    1    2    0    0  0.36993963110E+03  0.58406907856E+03  0.44794030366E+03  0.12083554161E+04  0.88401373117E+03 0.  0.
        -24    2    4    4    0    0 -0.17527135978E+03 -0.80723271470E+02  0.24486715542E+03  0.32139400181E+03  0.78088952350E+02 0.  0.
         24    2    4    4    0    0  0.54521099088E+03  0.66479235003E+03  0.20307314824E+03  0.88696141434E+03  0.79107229460E+02 0.  0.
         11    1    3    3    0    0 -0.70042678941E+01 -0.45622038579E+01  0.29535591337E+02  0.30695677683E+02  0.00000000000E+00 0. -1.
        -11    1    3    3    0    0 -0.36293536320E+03 -0.57950687470E+03  0.11717747381E+04  0.13566894753E+04  0.00000000000E+00 0.  1.
          4    1    6    6  502    0  0.51495309714E+03  0.64604802672E+03  0.20531194277E+03  0.85129767939E+03  0.00000000000E+00 0. -1.
          3    1    5    5  503    0 -0.11027721204E+03 -0.66663922192E+02  0.20980808883E+03  0.24622058435E+03  0.00000000000E+00 0. -1.
         -4    1    5    5    0  503 -0.64994147741E+02 -0.14059349278E+02  0.35059066587E+02  0.75173417461E+02  0.00000000000E+00 0.  1.
         -3    1    6    6    0  502  0.30257893732E+02  0.18744323312E+02 -0.22387945314E+01  0.35663734949E+02  0.00000000000E+00 0.  1.
<mgrwt>
<rscale>  0 0.20044554E+04</rscale>
<asrwt>0</asrwt>
<pdfrwt beam="1">  1        1 0.32653778E+00 0.20044554E+04</pdfrwt>
<pdfrwt beam="2">  1       -1 0.72806919E-01 0.20044554E+04</pdfrwt>
<totfact> 0.43393890E+00</totfact>
</mgrwt>
</event>
<event>
12    1  0.1489025E-007  0.1478067E+04  0.7818608E-02  0.8899170E-01
          1   -1    0    0  501    0  0.00000000000E+00  0.00000000000E+00  0.13274818374E+04  0.13274818374E+04  0.00000000000E+00 0. -1.
         -1   -1    0    0    0  501 -0.00000000000E+00 -0.00000000000E+00 -0.41143353038E+03  0.41143353038E+03  0.00000000000E+00 0.  1.
         23    2    1    2    0    0  0.10078105101E+03  0.74515910089E+02  0.80790281539E+03  0.82250780534E+03  0.90014941173E+02 0.  0.
        254    2    1    2    0    0 -0.10078105101E+03 -0.74515910089E+02  0.10814549162E+03  0.91640756244E+03  0.90133119997E+03 0.  0.
        -24    2    4    4    0    0 -0.84875094868E+02 -0.40452386801E+03 -0.19213775227E+03  0.46227045092E+03  0.77030594071E+02 0.  0.
         24    2    4    4    0    0 -0.15905956146E+02  0.33000795792E+03  0.30028324390E+03  0.45413711152E+03  0.83139868654E+02 0.  0.
         13    1    3    3    0    0  0.10550687944E+03  0.66597272484E+02  0.80180057700E+03  0.81144997602E+03  0.00000000000E+00 0. -1.
        -13    1    3    3    0    0 -0.47258284293E+01  0.79186376051E+01  0.61022383902E+01  0.11057829318E+02  0.00000000000E+00 0.  1.
          4    1    6    6  502    0 -0.47522819833E+02  0.25305958189E+03  0.22892153212E+03  0.34453249231E+03  0.00000000000E+00 0. -1.
          3    1    5    5  503    0 -0.44264307980E+01 -0.20831191045E+03 -0.97780201304E+02  0.23016171074E+03  0.00000000000E+00 0. -1.
         -4    1    5    5    0  503 -0.80448664070E+02 -0.19621195757E+03 -0.94357550969E+02  0.23210874018E+03  0.00000000000E+00 0.  1.
         -3    1    6    6    0  502  0.31616863687E+02  0.76948376035E+02  0.71361711772E+02  0.10960461920E+03  0.00000000000E+00 0.  1.
<mgrwt>
<rscale>  0 0.14780670E+04</rscale>
<asrwt>0</asrwt>
<pdfrwt beam="1">  1        1 0.20422797E+00 0.14780670E+04</pdfrwt>
<pdfrwt beam="2">  1       -1 0.63297467E-01 0.14780670E+04</pdfrwt>
<totfact> 0.21209091E+01</totfact>
</mgrwt>
</event>
<event>
12    1  0.1489025E-007  0.1534429E+04  0.7818608E-02  0.8861876E-01
          1   -1    0    0  501    0  0.00000000000E+00  0.00000000000E+00  0.13625746459E+04  0.13625746459E+04  0.00000000000E+00 0. -1.
         -1   -1    0    0    0  501 -0.00000000000E+00 -0.00000000000E+00 -0.43198944653E+03  0.43198944653E+03  0.00000000000E+00 0.  1.
         23    2    1    2    0    0  0.17092291665E+03  0.40267883332E+03  0.56334579695E+03  0.71888217110E+03  0.89823174864E+02 0.  0.
        254    2    1    2    0    0 -0.17092291665E+03 -0.40267883332E+03  0.36723940242E+03  0.10756819213E+04  0.91151628122E+03 0.  0.
        -24    2    4    4    0    0  0.73898939240E+02 -0.12111560491E+03 -0.27981099201E+03  0.32411703788E+03  0.81410196031E+02 0.  0.
         24    2    4    4    0    0 -0.24482185589E+03 -0.28156322841E+03  0.64705039443E+03  0.75156488345E+03  0.83426424986E+02 0.  0.
         11    1    3    3    0    0  0.15575293714E+03  0.36038368574E+03  0.45134254397E+03  0.59820186423E+03  0.00000000000E+00 0.  1.
        -11    1    3    3    0    0  0.15169979509E+02  0.42295147581E+02  0.11200325298E+03  0.12068030686E+03  0.00000000000E+00 0. -1.
          2    1    6    6  502    0  0.67797849773E+01 -0.99380367413E+01  0.18304784452E+02  0.21904227730E+02  0.00000000000E+00 0. -1.
          3    1    5    5  503    0  0.32543306963E-01 -0.77250006309E+02 -0.14408305674E+03  0.16348544820E+03  0.00000000000E+00 0. -1.
         -4    1    5    5    0  503  0.73866395933E+02 -0.43865598604E+02 -0.13572793527E+03  0.16063158968E+03  0.00000000000E+00 0.  1.
         -1    1    6    6    0  502 -0.25160164087E+03 -0.27162519166E+03  0.62874560998E+03  0.72966065572E+03  0.00000000000E+00 0.  1.
<mgrwt>
<rscale>  0 0.15344287E+04</rscale>
<asrwt>0</asrwt>
<pdfrwt beam="1">  1        1 0.20962687E+00 0.15344287E+04</pdfrwt>
<pdfrwt beam="2">  1       -1 0.66459916E-01 0.15344287E+04</pdfrwt>
<totfact> 0.18067404E+01</totfact>
</mgrwt>
</event>
<event>
12    1  0.1489025E-007  0.1784870E+04  0.7818608E-02  0.8714387E-01
         -2   -1    0    0    0  501 -0.00000000000E+00  0.00000000000E+00  0.19294438456E+03  0.19294438456E+03  0.00000000000E+00 0.  1.
          2   -1    0    0  501    0  0.00000000000E+00 -0.00000000000E+00 -0.41278250292E+04  0.41278250292E+04  0.00000000000E+00 0. -1.
         23    2    1    2    0    0 -0.57104102965E+03  0.28671182697E+03 -0.19232575395E+04  0.20286833227E+04  0.91350596767E+02 0.  0.
        254    2    1    2    0    0  0.57104102965E+03 -0.28671182697E+03 -0.20116231052E+04  0.22920860910E+04  0.89372232947E+03 0.  0.
        -24    2    4    4    0    0  0.70615660399E+03 -0.18558942631E+03 -0.88547058145E+03  0.11504504255E+04  0.79858915944E+02 0.  0.
         24    2    4    4    0    0 -0.13511557434E+03 -0.10112240066E+03 -0.11261525237E+04  0.11416356655E+04  0.81428052591E+02 0.  0.
         11    1    3    3    0    0 -0.45993758841E+03  0.22591504798E+03 -0.14164419369E+04  0.15062828270E+04  0.00000000000E+00 0. -1.
        -11    1    3    3    0    0 -0.11110344124E+03  0.60796778982E+02 -0.50681560253E+03  0.52240049575E+03  0.00000000000E+00 0.  1.
          4    1    6    6  502    0 -0.54937689755E+02 -0.79392290685E+02 -0.43968502360E+03  0.45016019987E+03  0.00000000000E+00 0. -1.
          3    1    5    5  503    0  0.66124357497E+03 -0.16131893010E+03 -0.79492838221E+03  0.10465075229E+04  0.00000000000E+00 0. -1.
         -4    1    5    5    0  503  0.44913029022E+02 -0.24270496209E+02 -0.90542199245E+02  0.10394290263E+03  0.00000000000E+00 0.  1.
         -3    1    6    6    0  502 -0.80177884584E+02 -0.21730109974E+02 -0.68646750012E+03  0.69147546563E+03  0.00000000000E+00 0.  1.
<mgrwt>
<rscale>  0 0.17848705E+04</rscale>
<asrwt>0</asrwt>
<pdfrwt beam="1">  1        2 0.63504995E+00 0.17848705E+04</pdfrwt>
<pdfrwt beam="2">  1       -2 0.29683754E-01 0.17848705E+04</pdfrwt>
<totfact> 0.26961789E+00</totfact>
</mgrwt>
</event>
<event>
12    1  0.1489025E-007  0.1845607E+04  0.7818608E-02  0.8682415E-01
         -1   -1    0    0    0  501 -0.00000000000E+00  0.00000000000E+00  0.45402918155E+03  0.45402918155E+03  0.00000000000E+00 0.  1.
          1   -1    0    0  501    0  0.00000000000E+00 -0.00000000000E+00 -0.18755759724E+04  0.18755759724E+04  0.00000000000E+00 0. -1.
         23    2    1    2    0    0 -0.43094008873E+03  0.25265207671E+03 -0.11620995829E+04  0.12680223510E+04  0.88672488129E+02 0.  0.
        254    2    1    2    0    0  0.43094008873E+03 -0.25265207671E+03 -0.25944720797E+03  0.10615828030E+04  0.90005708812E+03 0.  0.
        -24    2    4    4    0    0  0.44604288650E+03 -0.10873242250E+03 -0.55400564888E+03  0.72396983933E+03  0.80206439708E+02 0.  0.
         24    2    4    4    0    0 -0.15102797763E+02 -0.14391965422E+03  0.29455844091E+03  0.33761296363E+03  0.79226742528E+02 0.  0.
         13    1    3    3    0    0 -0.31575275822E+03  0.15744036922E+03 -0.89363525117E+03  0.96076596334E+03  0.00000000000E+00 0. -1.
        -13    1    3    3    0    0 -0.11518733051E+03  0.95211707491E+02 -0.26846433174E+03  0.30725638768E+03  0.00000000000E+00 0.  1.
          4    1    6    6  502    0 -0.75292949679E+01 -0.87150473317E+02  0.25056204099E+03  0.26539259912E+03  0.00000000000E+00 0. -1.
          3    1    5    5  503    0  0.14884737408E+03 -0.74821354347E+02 -0.18504863505E+03  0.24899151224E+03  0.00000000000E+00 0. -1.
         -4    1    5    5    0  503  0.29719551242E+03 -0.33911068150E+02 -0.36895701383E+03  0.47497832708E+03  0.00000000000E+00 0.  1.
         -3    1    6    6    0  502 -0.75735027951E+01 -0.56769180898E+02  0.43996399918E+02  0.72220364512E+02  0.00000000000E+00 0.  1.
<mgrwt>
<rscale>  0 0.18456069E+04</rscale>
<asrwt>0</asrwt>
<pdfrwt beam="1">  1        1 0.28855016E+00 0.18456069E+04</pdfrwt>
<pdfrwt beam="2">  1       -1 0.69850642E-01 0.18456069E+04</pdfrwt>
<totfact> 0.70504052E+00</totfact>
</mgrwt>
</event>
<event>
12    1  0.1489025E-007  0.1148979E+04  0.7818608E-02  0.9158726E-01
          2   -1    0    0  501    0  0.00000000000E+00  0.00000000000E+00  0.73594042026E+03  0.73594042026E+03  0.00000000000E+00 0. -1.
         -2   -1    0    0    0  501 -0.00000000000E+00 -0.00000000000E+00 -0.44845809985E+03  0.44845809985E+03  0.00000000000E+00 0.  1.
         23    2    1    2    0    0 -0.23045438708E+02 -0.11144386462E+02  0.23550358398E+03  0.25378362461E+03  0.91043398752E+02 0.  0.
        254    2    1    2    0    0  0.23045438708E+02  0.11144386462E+02  0.51978736424E+02  0.93061489550E+03  0.92880945575E+03 0.  0.
        -24    2    4    4    0    0  0.32922338547E+03 -0.32446766907E+03  0.34067603599E+02  0.47031047675E+03  0.79774915342E+02 0.  0.
         24    2    4    4    0    0 -0.30617794676E+03  0.33561205553E+03  0.17911132825E+02  0.46030441875E+03  0.71965007745E+02 0.  0.
         11    1    3    3    0    0  0.79211594477E+01 -0.38682400913E+02  0.50016435365E+02  0.63723753138E+02  0.00000000000E+00 0.  1.
        -11    1    3    3    0    0 -0.30966598156E+02  0.27538014451E+02  0.18548714862E+03  0.19005987147E+03  0.00000000000E+00 0. -1.
          4    1    6    6  502    0 -0.18703338509E+03  0.23207005552E+03 -0.17361465330E+02  0.29856225194E+03  0.00000000000E+00 0. -1.
          3    1    5    5  503    0  0.31215191928E+03 -0.32054456736E+03  0.44971071750E+02  0.44967770422E+03  0.00000000000E+00 0. -1.
         -4    1    5    5    0  503  0.17071466188E+02 -0.39231017089E+01 -0.10903468151E+02  0.20632772537E+02  0.00000000000E+00 0.  1.
         -3    1    6    6    0  502 -0.11914456167E+03  0.10354200001E+03  0.35272598155E+02  0.16174216681E+03  0.00000000000E+00 0.  1.
<mgrwt>
<rscale>  0 0.11489794E+04</rscale>
<asrwt>0</asrwt>
<pdfrwt beam="1">  1        2 0.11322160E+00 0.11489794E+04</pdfrwt>
<pdfrwt beam="2">  1       -2 0.68993554E-01 0.11489794E+04</pdfrwt>
<totfact> 0.73029374E+01</totfact>
</mgrwt>
</event>
<event>
12    1  0.1686978E-007  0.2095683E+04  0.7818608E-02  0.8563147E-01
         -1   -1    0    0    0  501 -0.00000000000E+00  0.00000000000E+00  0.96438585168E+03  0.96438585168E+03  0.00000000000E+00 0. -1.
          1   -1    0    0  501    0  0.00000000000E+00 -0.00000000000E+00 -0.11385191624E+04  0.11385191624E+04  0.00000000000E+00 0.  1.
         23    2    1    2    0    0  0.44477323289E+03 -0.24879868138E+03 -0.75958960398E+03  0.91898944281E+03  0.88550646402E+02 0.  0.
        254    2    1    2    0    0 -0.44477323289E+03  0.24879868138E+03  0.58545629321E+03  0.11839155713E+04  0.89396476228E+03 0.  0.
        -24    2    4    4    0    0 -0.55938942093E+01 -0.30613262829E+03  0.15850500684E+03  0.35364391516E+03  0.78687380025E+02 0.  0.
         24    2    4    4    0    0 -0.43917933868E+03  0.55493130967E+03  0.42695128637E+03  0.83027165616E+03  0.78970704188E+02 0.  0.
         11    1    3    3    0    0  0.38238957842E+03 -0.22246088498E+03 -0.70361280907E+03  0.83113273315E+03  0.00000000000E+00 0.  1.
        -11    1    3    3    0    0  0.62383654471E+02 -0.26337796400E+02 -0.55976794912E+02  0.87856709664E+02  0.00000000000E+00 0. -1.
          2    1    6    6  502    0 -0.42529939612E+03  0.53691547775E+03  0.42769810913E+03  0.80751685997E+03  0.00000000000E+00 0. -1.
          1    1    5    5  503    0 -0.33525223693E+02 -0.26027313903E+03  0.13033431699E+03  0.29300696529E+03  0.00000000000E+00 0. -1.
         -2    1    5    5    0  503  0.27931329484E+02 -0.45859489265E+02  0.28170689853E+02  0.60636949867E+02  0.00000000000E+00 0.  1.
         -1    1    6    6    0  502 -0.13879942563E+02  0.18015831920E+02 -0.74682276699E+00  0.22754796189E+02  0.00000000000E+00 0.  1.
<mgrwt>
<rscale>  0 0.20956830E+04</rscale>
<asrwt>0</asrwt>
<pdfrwt beam="1">  1        1 0.17515679E+00 0.20956830E+04</pdfrwt>
<pdfrwt beam="2">  1       -1 0.14836705E+00 0.20956830E+04</pdfrwt>
<totfact> 0.39223503E+00</totfact>
</mgrwt>
</event>
<event>
12    1  0.1489025E-007  0.2147495E+04  0.7818608E-02  0.8540605E-01
         -1   -1    0    0    0  501 -0.00000000000E+00  0.00000000000E+00  0.81788921886E+03  0.81788921886E+03  0.00000000000E+00 0.  1.
          1   -1    0    0  501    0  0.00000000000E+00 -0.00000000000E+00 -0.14096456218E+04  0.14096456218E+04  0.00000000000E+00 0. -1.
         23    2    1    2    0    0  0.87512740982E+02  0.86693269670E+03 -0.35170054709E+03  0.94469626836E+03  0.97606271263E+02 0.  0.
        254    2    1    2    0    0 -0.87512740982E+02 -0.86693269670E+03 -0.24005585586E+03  0.12828385723E+04  0.91039398515E+03 0.  0.
        -24    2    4    4    0    0 -0.14159316743E+03  0.11881221612E+03  0.11305538984E+03  0.23132279618E+03  0.81016955628E+02 0.  0.
         24    2    4    4    0    0  0.54080426451E+02 -0.98574491282E+03 -0.35311124570E+03  0.10515157761E+04  0.79875840681E+02 0.  0.
         13    1    3    3    0    0  0.68146866434E+02  0.84362319382E+03 -0.33673333331E+03  0.91089704485E+03  0.00000000000E+00 0. -1.
        -13    1    3    3    0    0  0.19365874548E+02  0.23309502879E+02 -0.14967213782E+02  0.33799223510E+02  0.00000000000E+00 0.  1.
          4    1    6    6  502    0 -0.73276566391E+01 -0.35924243022E+02 -0.10247583854E+01  0.36678275835E+02  0.00000000000E+00 0. -1.
          3    1    5    5  503    0 -0.45659899479E+02  0.81943148497E+02  0.27936807171E+02  0.97877327308E+02  0.00000000000E+00 0. -1.
         -4    1    5    5    0  503 -0.95933267954E+02  0.36869067618E+02  0.85118582664E+02  0.13344546887E+03  0.00000000000E+00 0.  1.
         -3    1    6    6    0  502  0.61408083090E+02 -0.94982066980E+03 -0.35208648731E+03  0.10148375003E+04  0.00000000000E+00 0.  1.
<mgrwt>
<rscale>  0 0.21474952E+04</rscale>
<asrwt>0</asrwt>
<pdfrwt beam="1">  1        1 0.21686856E+00 0.21474952E+04</pdfrwt>
<pdfrwt beam="2">  1       -1 0.12582911E+00 0.21474952E+04</pdfrwt>
<totfact> 0.38136522E+00</totfact>
</mgrwt>
</event>
<event>
12    1  0.1489025E-007  0.2768895E+04  0.7818608E-02  0.8312991E-01
         -1   -1    0    0    0  501 -0.00000000000E+00  0.00000000000E+00  0.13725684627E+04  0.13725684627E+04  0.00000000000E+00 0.  1.
          1   -1    0    0  501    0  0.00000000000E+00 -0.00000000000E+00 -0.13964290543E+04  0.13964290543E+04  0.00000000000E+00 0. -1.
         23    2    1    2    0    0 -0.17470487879E+03 -0.11443672471E+04 -0.41839621122E+03  0.12344173625E+04  0.92912024762E+02 0.  0.
        254    2    1    2    0    0  0.17470487879E+03  0.11443672471E+04  0.39453561960E+03  0.15345801545E+04  0.92691947031E+03 0.  0.
        -24    2    4    4    0    0 -0.27956982864E+03  0.74684578056E+02  0.18067210864E+03  0.35026557068E+03  0.79413373425E+02 0.  0.
         24    2    4    4    0    0  0.45427470743E+03  0.10696826690E+04  0.21386351096E+03  0.11843145838E+04  0.79226951186E+02 0.  0.
         13    1    3    3    0    0 -0.99720866323E+02 -0.84045341629E+03 -0.33704558629E+03  0.91099172520E+03  0.00000000000E+00 0. -1.
        -13    1    3    3    0    0 -0.74984012471E+02 -0.30391383081E+03 -0.81350624921E+02  0.32342563730E+03  0.00000000000E+00 0.  1.
          2    1    6    6  502    0  0.25224752096E+03  0.59318182214E+03  0.15860000223E+03  0.66381280995E+03  0.00000000000E+00 0. -1.
          1    1    5    5  503    0 -0.25814143775E+03  0.89824607107E+02  0.17039788866E+03  0.32208834562E+03  0.00000000000E+00 0. -1.
         -2    1    5    5    0  503 -0.21428390888E+02 -0.15140029051E+02  0.10274219975E+02  0.28177225055E+02  0.00000000000E+00 0.  1.
         -1    1    6    6    0  502  0.20202718647E+03  0.47650084691E+03  0.55263508737E+02  0.52050177384E+03  0.00000000000E+00 0.  1.
<mgrwt>
<rscale>  0 0.27688947E+04</rscale>
<asrwt>0</asrwt>
<pdfrwt beam="1">  1        1 0.21483524E+00 0.27688947E+04</pdfrwt>
<pdfrwt beam="2">  1       -1 0.21116438E+00 0.27688947E+04</pdfrwt>
<totfact> 0.84680140E-01</totfact>
</mgrwt>
</event>
<event>
12    1  0.1489025E-007  0.2266089E+04  0.7818608E-02  0.8491413E-01
          2   -1    0    0  501    0  0.00000000000E+00  0.00000000000E+00  0.19532252978E+04  0.19532252978E+04  0.00000000000E+00 0. -1.
         -2   -1    0    0    0  501 -0.00000000000E+00 -0.00000000000E+00 -0.65726666167E+03  0.65726666167E+03  0.00000000000E+00 0.  1.
         23    2    1    2    0    0  0.53019469724E+03 -0.19161693637E+03  0.14255375397E+04  0.15356043179E+04  0.89999314642E+02 0.  0.
        254    2    1    2    0    0 -0.53019469724E+03  0.19161693637E+03 -0.12957890361E+03  0.10748876416E+04  0.90596317944E+03 0.  0.
        -24    2    4    4    0    0  0.10173145275E+03  0.36006205752E+03 -0.16112534824E+03  0.41535464394E+03  0.81019310343E+02 0.  0.
         24    2    4    4    0    0 -0.63192615000E+03 -0.16844512115E+03  0.31546444639E+02  0.65953299765E+03  0.79272813336E+02 0.  0.
         13    1    3    3    0    0  0.37473268215E+03 -0.17773606832E+03  0.10249616612E+04  0.11056948494E+04  0.00000000000E+00 0. -1.
        -13    1    3    3    0    0  0.15546201509E+03 -0.13880868048E+02  0.40057587853E+03  0.42990946849E+03  0.00000000000E+00 0.  1.
          4    1    6    6  502    0 -0.13503237708E+03 -0.67373176872E+02  0.20942629714E+02  0.15235314753E+03  0.00000000000E+00 0. -1.
          1    1    5    5  503    0  0.24869020847E+02  0.18690642738E+03 -0.11325174423E+03  0.21995099082E+03  0.00000000000E+00 0. -1.
         -2    1    5    5    0  503  0.76862431907E+02  0.17315563014E+03 -0.47873604010E+02  0.19540365311E+03  0.00000000000E+00 0.  1.
         -3    1    6    6    0  502 -0.49689377291E+03 -0.10107194428E+03  0.10603814924E+02  0.50717985012E+03  0.00000000000E+00 0.  1.
<mgrwt>
<rscale>  0 0.22660890E+04</rscale>
<asrwt>0</asrwt>
<pdfrwt beam="1">  1        2 0.30049620E+00 0.22660890E+04</pdfrwt>
<pdfrwt beam="2">  1       -2 0.10111795E+00 0.22660890E+04</pdfrwt>
<totfact> 0.51876311E+00</totfact>
</mgrwt>
</event>
<event>
12    1  0.1489025E-007  0.3344767E+04  0.7818608E-02  0.8151597E-01
          2   -1    0    0  501    0  0.00000000000E+00  0.00000000000E+00  0.73746420639E+03  0.73746420639E+03  0.00000000000E+00 0. -1.
         -2   -1    0    0    0  501 -0.00000000000E+00 -0.00000000000E+00 -0.37925460417E+04  0.37925460417E+04  0.00000000000E+00 0.  1.
         23    2    1    2    0    0 -0.12141781099E+03 -0.15364984703E+04 -0.16427174178E+04  0.22546501777E+04  0.96731975010E+02 0.  0.
        254    2    1    2    0    0  0.12141781099E+03  0.15364984703E+04 -0.14123644175E+04  0.22753600703E+04  0.89828746398E+03 0.  0.
        -24    2    4    4    0    0  0.37688669325E+00 -0.91770800867E+02 -0.12196909299E+02  0.12298301545E+03  0.80956998202E+02 0.  0.
         24    2    4    4    0    0  0.12104092430E+03  0.16282692712E+04 -0.14001675082E+04  0.21523770549E+04  0.79663107680E+02 0.  0.
         11    1    3    3    0    0 -0.19529225585E+02 -0.59368931228E+03 -0.68916194082E+03  0.90983106720E+03  0.00000000000E+00 0.  1.
        -11    1    3    3    0    0 -0.10188858541E+03 -0.94280915803E+03 -0.95355547702E+03  0.13448191105E+04  0.00000000000E+00 0. -1.
          4    1    6    6  502    0 -0.84427079011E+01  0.47695875873E+02 -0.33743864237E+02  0.59032400135E+02  0.00000000000E+00 0. -1.
          1    1    5    5  503    0  0.27395110346E+02 -0.10875805407E+02 -0.22491675143E+02  0.37076281702E+02  0.00000000000E+00 0. -1.
         -2    1    5    5    0  503 -0.27018223652E+02 -0.80894995460E+02  0.10294765844E+02  0.85906733750E+02  0.00000000000E+00 0.  1.
         -3    1    6    6    0  502  0.12948363220E+03  0.15805733953E+04 -0.13664236439E+04  0.20933446548E+04  0.00000000000E+00 0.  1.
<mgrwt>
<rscale>  0 0.33447672E+04</rscale>
<asrwt>0</asrwt>
<pdfrwt beam="1">  1        2 0.11345603E+00 0.33447672E+04</pdfrwt>
<pdfrwt beam="2">  1       -2 0.58346862E+00 0.33447672E+04</pdfrwt>
<totfact> 0.18786472E-02</totfact>
</mgrwt>
</event>
<event>
12    1  0.1489025E-007  0.1467171E+04  0.7818608E-02  0.8906582E-01
          1   -1    0    0  501    0  0.00000000000E+00  0.00000000000E+00  0.13016878357E+04  0.13016878357E+04  0.00000000000E+00 0. -1.
         -1   -1    0    0    0  501 -0.00000000000E+00 -0.00000000000E+00 -0.41342299696E+03  0.41342299696E+03  0.00000000000E+00 0.  1.
         23    2    1    2    0    0  0.94717979063E+02 -0.21015805788E+03 -0.16784016572E+03  0.29787447093E+03  0.86145077381E+02 0.  0.
        254    2    1    2    0    0 -0.94717979063E+02  0.21015805788E+03  0.10561050045E+04  0.14172363617E+04  0.91654962752E+03 0.  0.
        -24    2    4    4    0    0 -0.44673425450E+03  0.18625312686E+03  0.89663294444E+03  0.10220071509E+04  0.79285926211E+02 0.  0.
         24    2    4    4    0    0  0.35201627544E+03  0.23904931016E+02  0.15947206002E+03  0.39522921079E+03  0.79296199371E+02 0.  0.
         13    1    3    3    0    0  0.37569901393E+01  0.66680497956E+01  0.18878204045E+01  0.78830025284E+01  0.00000000000E+00 0. -1.
        -13    1    3    3    0    0  0.90960988924E+02 -0.21682610767E+03 -0.16972798612E+03  0.28999146840E+03  0.00000000000E+00 0.  1.
          2    1    6    6  502    0  0.20147646754E+03  0.25460187730E+02  0.13196379226E+03  0.24218883252E+03  0.00000000000E+00 0. -1.
          3    1    5    5  503    0 -0.42172901507E+03  0.16196085168E+03  0.79281802342E+03  0.91249498514E+03  0.00000000000E+00 0. -1.
         -4    1    5    5    0  503 -0.25005239429E+02  0.24292275177E+02  0.10381492102E+03  0.10951216580E+03  0.00000000000E+00 0.  1.
         -1    1    6    6    0  502  0.15053980790E+03 -0.15552567138E+01  0.27508267769E+02  0.15304037827E+03  0.00000000000E+00 0.  1.
<mgrwt>
<rscale>  0 0.14671710E+04</rscale>
<asrwt>0</asrwt>
<pdfrwt beam="1">  1        1 0.20025967E+00 0.14671710E+04</pdfrwt>
<pdfrwt beam="2">  1       -1 0.63603539E-01 0.14671710E+04</pdfrwt>
<totfact> 0.21933361E+01</totfact>
</mgrwt>
</event>
<event>
12    1  0.1489025E-007  0.1863606E+04  0.7818608E-02  0.8673187E-01
         -3   -1    0    0    0  501 -0.00000000000E+00  0.00000000000E+00  0.18213391728E+04  0.18213391728E+04  0.00000000000E+00 0.  1.
          3   -1    0    0  501    0  0.00000000000E+00 -0.00000000000E+00 -0.47671326163E+03  0.47671326163E+03  0.00000000000E+00 0. -1.
         23    2    1    2    0    0  0.63052473919E+03  0.30356522900E+03  0.40315609331E+03  0.81292832732E+03  0.92759553707E+02 0.  0.
        254    2    1    2    0    0 -0.63052473919E+03 -0.30356522900E+03  0.94146981787E+03  0.14851241071E+04  0.91077708611E+03 0.  0.
        -24    2    4    4    0    0  0.15763739681E+03 -0.10940837648E+03 -0.37305833782E+02  0.21092389305E+03  0.79230181811E+02 0.  0.
         24    2    4    4    0    0 -0.78816213600E+03 -0.19415685252E+03  0.97877565165E+03  0.12742002141E+04  0.81780029652E+02 0.  0.
         13    1    3    3    0    0  0.13242926291E+03  0.41702900643E+02  0.45289139831E+02  0.14604022659E+03  0.00000000000E+00 0. -1.
        -13    1    3    3    0    0  0.49809547628E+03  0.26186232836E+03  0.35786695348E+03  0.66688810073E+03  0.00000000000E+00 0.  1.
          4    1    6    6  502    0 -0.21468622001E+03 -0.17077052785E+02  0.24400963297E+03  0.32545737013E+03  0.00000000000E+00 0. -1.
          3    1    5    5  503    0 -0.87733194669E+00 -0.23477205786E+02  0.83358449795E+01  0.24928602335E+02  0.00000000000E+00 0. -1.
         -4    1    5    5    0  503  0.15851472875E+03 -0.85931170697E+02 -0.45641678762E+02  0.18599529072E+03  0.00000000000E+00 0.  1.
         -3    1    6    6    0  502 -0.57347591599E+03 -0.17707979973E+03  0.73476601868E+03  0.94874284393E+03  0.00000000000E+00 0.  1.
<mgrwt>
<rscale>  0 0.18636057E+04</rscale>
<asrwt>0</asrwt>
<pdfrwt beam="1">  1        3 0.73340503E-01 0.18636057E+04</pdfrwt>
<pdfrwt beam="2">  1       -3 0.28020602E+00 0.18636057E+04</pdfrwt>
<totfact> 0.21294967E-01</totfact>
</mgrwt>
</event>
<event>
12    1  0.1489025E-007  0.1233431E+04  0.7818608E-02  0.9084088E-01
         -2   -1    0    0    0  501 -0.00000000000E+00  0.00000000000E+00  0.38380226283E+03  0.38380226283E+03  0.00000000000E+00 0.  1.
          2   -1    0    0  501    0  0.00000000000E+00 -0.00000000000E+00 -0.99097333754E+03  0.99097333754E+03  0.00000000000E+00 0. -1.
         23    2    1    2    0    0 -0.10143995748E+02 -0.21379499051E+03 -0.33516394663E+03  0.40782824625E+03  0.90431237445E+02 0.  0.
        254    2    1    2    0    0  0.10143995748E+02  0.21379499051E+03 -0.27200712808E+03  0.96694735412E+03  0.90287768236E+03 0.  0.
        -24    2    4    4    0    0  0.32512463446E+03 -0.13987483184E+03 -0.32073255207E+03  0.48427369737E+03  0.79878955273E+02 0.  0.
         24    2    4    4    0    0 -0.31498063871E+03  0.35366982235E+03  0.48725423986E+02  0.48267365675E+03  0.79401171141E+02 0.  0.
         11    1    3    3    0    0 -0.25469660999E+01 -0.19751146578E+03 -0.33608754455E+03  0.38983599597E+03  0.00000000000E+00 0. -1.
        -11    1    3    3    0    0 -0.75970296483E+01 -0.16283524733E+02  0.92359792340E+00  0.17992250285E+02  0.00000000000E+00 0.  1.
          4    1    6    6  502    0 -0.31143214630E+03  0.35565613774E+03  0.54220716343E+02  0.47583732109E+03  0.00000000000E+00 0. -1.
          1    1    5    5  503    0  0.25258101973E+03 -0.12443950263E+03 -0.21113019487E+03  0.35193510841E+03  0.00000000000E+00 0. -1.
         -2    1    5    5    0  503  0.72543614724E+02 -0.15435329206E+02 -0.10960235720E+03  0.13233858896E+03  0.00000000000E+00 0.  1.
         -3    1    6    6    0  502 -0.35484924114E+01 -0.19863153920E+01 -0.54952923561E+01  0.68363356638E+01  0.00000000000E+00 0.  1.
<mgrwt>
<rscale>  0 0.12334307E+04</rscale>
<asrwt>0</asrwt>
<pdfrwt beam="1">  1        2 0.15245744E+00 0.12334307E+04</pdfrwt>
<pdfrwt beam="2">  1       -2 0.59046502E-01 0.12334307E+04</pdfrwt>
<totfact> 0.67347226E+01</totfact>
</mgrwt>
</event>
<event>
12    1  0.1489025E-007  0.2079293E+04  0.7818608E-02  0.8570420E-01
         -1   -1    0    0    0  501 -0.00000000000E+00  0.00000000000E+00  0.46934543758E+03  0.46934543758E+03  0.00000000000E+00 0.  1.
          1   -1    0    0  501    0  0.00000000000E+00 -0.00000000000E+00 -0.23029202506E+04  0.23029202506E+04  0.00000000000E+00 0. -1.
         23    2    1    2    0    0 -0.76822298341E+03  0.34634184743E+03 -0.69998276755E+03  0.10990899451E+04  0.88902221899E+02 0.  0.
        254    2    1    2    0    0  0.76822298341E+03 -0.34634184743E+03 -0.11335920455E+04  0.16731757431E+04  0.89686504790E+03 0.  0.
        -24    2    4    4    0    0  0.93747961223E+03 -0.40519827523E+03 -0.10252431650E+04  0.14490922920E+04  0.75440425300E+02 0.  0.
         24    2    4    4    0    0 -0.16925662882E+03  0.58856427802E+02 -0.10834888052E+03  0.22408345110E+03  0.79762319778E+02 0.  0.
         11    1    3    3    0    0 -0.22005884503E+03  0.10783236323E+03 -0.15364819258E+03  0.28924294446E+03  0.00000000000E+00 0.  1.
        -11    1    3    3    0    0 -0.54816413838E+03  0.23850948419E+03 -0.54633457497E+03  0.80984700065E+03  0.00000000000E+00 0. -1.
          2    1    6    6  502    0 -0.39511880999E+02  0.39421968097E+01  0.90122653497E+01  0.40717939321E+02  0.00000000000E+00 0. -1.
          3    1    5    5  503    0  0.10980966112E+02 -0.36830279557E+01 -0.24648220100E+01  0.11841522673E+02  0.00000000000E+00 0. -1.
         -4    1    5    5    0  503  0.92649864612E+03 -0.40151524727E+03 -0.10227783430E+04  0.14372507693E+04  0.00000000000E+00 0.  1.
         -1    1    6    6    0  502 -0.12974474782E+03  0.54914230992E+02 -0.11736114587E+03  0.18336551178E+03  0.00000000000E+00 0.  1.
<mgrwt>
<rscale>  0 0.20792933E+04</rscale>
<asrwt>0</asrwt>
<pdfrwt beam="1">  1        1 0.35429541E+00 0.20792933E+04</pdfrwt>
<pdfrwt beam="2">  1       -1 0.72206993E-01 0.20792933E+04</pdfrwt>
<totfact> 0.33030681E+00</totfact>
</mgrwt>
</event>
<event>
12    1  0.1489025E-007  0.1294825E+04  0.7818608E-02  0.9033679E-01
          1   -1    0    0  501    0  0.00000000000E+00  0.00000000000E+00  0.94499133248E+03  0.94499133248E+03  0.00000000000E+00 0. -1.
         -1   -1    0    0    0  501 -0.00000000000E+00 -0.00000000000E+00 -0.44354137612E+03  0.44354137612E+03  0.00000000000E+00 0.  1.
         23    2    1    2    0    0  0.32520394245E+03 -0.55812270280E+02  0.12952098177E+03  0.36599989258E+03  0.91146162553E+02 0.  0.
        254    2    1    2    0    0 -0.32520394245E+03  0.55812270280E+02  0.37192897458E+03  0.10225328160E+04  0.89351529590E+03 0.  0.
        -24    2    4    4    0    0 -0.54458992751E+03  0.20119858055E+03  0.44636608878E+03  0.73728607533E+03  0.85375720820E+02 0.  0.
         24    2    4    4    0    0  0.21938598506E+03 -0.14538631027E+03 -0.74437114200E+02  0.28524674069E+03  0.80977956578E+02 0.  0.
         13    1    3    3    0    0  0.29236708832E+03 -0.29007277211E+02  0.88083747962E+02  0.30672248551E+03  0.00000000000E+00 0. -1.
        -13    1    3    3    0    0  0.32836854133E+02 -0.26804993069E+02  0.41437233810E+02  0.59277407068E+02  0.00000000000E+00 0.  1.
          4    1    6    6  502    0  0.14808721717E+03 -0.10091276380E+03 -0.88798843171E+02  0.19999611080E+03  0.00000000000E+00 0. -1.
          1    1    5    5  503    0 -0.28522809191E+03  0.10757504987E+03  0.28763782441E+03  0.41912166944E+03  0.00000000000E+00 0. -1.
         -2    1    5    5    0  503 -0.25936183560E+03  0.93623530679E+02  0.15872826438E+03  0.31816440589E+03  0.00000000000E+00 0.  1.
         -3    1    6    6    0  502  0.71298767887E+02 -0.44473546473E+02  0.14361728971E+02  0.85250629893E+02  0.00000000000E+00 0.  1.
<mgrwt>
<rscale>  0 0.12948247E+04</rscale>
<asrwt>0</asrwt>
<pdfrwt beam="1">  1        1 0.14538328E+00 0.12948247E+04</pdfrwt>
<pdfrwt beam="2">  1       -1 0.68237135E-01 0.12948247E+04</pdfrwt>
<totfact> 0.35753538E+01</totfact>
</mgrwt>
</event>
<event>
12    1  0.1489025E-007  0.2103758E+04  0.7818608E-02  0.8559590E-01
          2   -1    0    0  501    0  0.00000000000E+00  0.00000000000E+00  0.22287142937E+04  0.22287142937E+04  0.00000000000E+00 0. -1.
         -2   -1    0    0    0  501 -0.00000000000E+00 -0.00000000000E+00 -0.49645174795E+03  0.49645174795E+03  0.00000000000E+00 0.  1.
         23    2    1    2    0    0  0.27603069121E+03 -0.11613803551E+03  0.17550777344E+04  0.17827752784E+04  0.91152913243E+02 0.  0.
        254    2    1    2    0    0 -0.27603069121E+03  0.11613803551E+03 -0.22815188678E+02  0.94239076325E+03  0.89325183013E+03 0.  0.
        -24    2    4    4    0    0 -0.33149938158E+03  0.43932055507E+03  0.13158360073E+03  0.57148577384E+03  0.79920933580E+02 0.  0.
         24    2    4    4    0    0  0.55468690369E+02 -0.32318251956E+03 -0.15439878941E+03  0.37090498940E+03  0.78789646734E+02 0.  0.
         11    1    3    3    0    0  0.23581980308E+03 -0.81348429775E+02  0.15870429827E+04  0.16065285480E+04  0.00000000000E+00 0. -1.
        -11    1    3    3    0    0  0.40210888136E+02 -0.34789605738E+02  0.16803475166E+03  0.17624673035E+03  0.00000000000E+00 0.  1.
          4    1    6    6  502    0 -0.14942080952E+02 -0.14311331621E+03 -0.64982409354E+02  0.15788413658E+03  0.00000000000E+00 0. -1.
          1    1    5    5  503    0 -0.13504890287E+03  0.24528709891E+03  0.67443752216E+02  0.28801497665E+03  0.00000000000E+00 0. -1.
         -2    1    5    5    0  503 -0.19645047871E+03  0.19403345616E+03  0.64139848514E+02  0.28347079719E+03  0.00000000000E+00 0.  1.
         -3    1    6    6    0  502  0.70410771321E+02 -0.18006920335E+03 -0.89416380054E+02  0.21302085282E+03  0.00000000000E+00 0.  1.
<mgrwt>
<rscale>  0 0.21037577E+04</rscale>
<asrwt>0</asrwt>
<pdfrwt beam="1">  1        2 0.34287912E+00 0.21037577E+04</pdfrwt>
<pdfrwt beam="2">  1       -2 0.76377193E-01 0.21037577E+04</pdfrwt>
<totfact> 0.70280276E+00</totfact>
</mgrwt>
</event>
<event>
12    1  0.1489025E-007  0.2328803E+04  0.7818608E-02  0.8466650E-01
          2   -1    0    0  501    0  0.00000000000E+00  0.00000000000E+00  0.13440994505E+04  0.13440994505E+04  0.00000000000E+00 0. -1.
         -2   -1    0    0    0  501 -0.00000000000E+00 -0.00000000000E+00 -0.10087283189E+04  0.10087283189E+04  0.00000000000E+00 0.  1.
         23    2    1    2    0    0 -0.89627317104E+03 -0.76690675814E+02  0.54114622735E+03  0.10537512808E+04  0.91462919268E+02 0.  0.
        254    2    1    2    0    0  0.89627317104E+03  0.76690675814E+02 -0.20577509583E+03  0.12990764886E+04  0.91436823887E+03 0.  0.
        -24    2    4    4    0    0  0.75470124900E+03  0.35458427463E+03 -0.39471345241E+03  0.92592239205E+03  0.78927710747E+02 0.  0.
         24    2    4    4    0    0  0.14157192204E+03 -0.27789359882E+03  0.18893835658E+03  0.37315409654E+03  0.79238979039E+02 0.  0.
         11    1    3    3    0    0 -0.14096766832E+03 -0.39451309863E+02  0.11138049139E+03  0.18393994461E+03  0.00000000000E+00 0.  1.
        -11    1    3    3    0    0 -0.75530550272E+03 -0.37239365951E+02  0.42976573596E+03  0.86981133622E+03  0.00000000000E+00 0. -1.
          2    1    6    6  502    0  0.53446346516E+02 -0.18767137076E+03  0.10421212330E+03  0.22121758972E+03  0.00000000000E+00 0. -1.
          1    1    5    5  503    0  0.71103995855E+03  0.32354164980E+03 -0.34944507934E+03  0.85578553697E+03  0.00000000000E+00 0. -1.
         -2    1    5    5    0  503  0.43661290456E+02  0.31042624827E+02 -0.45268373069E+02  0.70136855082E+02  0.00000000000E+00 0.  1.
         -1    1    6    6    0  502  0.88125575520E+02 -0.90222228057E+02  0.84726233287E+02  0.15193650682E+03  0.00000000000E+00 0.  1.
<mgrwt>
<rscale>  0 0.23288033E+04</rscale>
<asrwt>0</asrwt>
<pdfrwt beam="1">  1        2 0.20678453E+00 0.23288033E+04</pdfrwt>
<pdfrwt beam="2">  1       -2 0.15518897E+00 0.23288033E+04</pdfrwt>
<totfact> 0.38573968E+00</totfact>
</mgrwt>
</event>
<event>
12    1  0.1759383E-007  0.3025942E+04  0.7818608E-02  0.8236361E-01
          2   -1    0    0  501    0  0.00000000000E+00  0.00000000000E+00  0.13584549985E+04  0.13584549985E+04  0.00000000000E+00 0. -1.
         -2   -1    0    0    0  501 -0.00000000000E+00 -0.00000000000E+00 -0.16850625990E+04  0.16850625990E+04  0.00000000000E+00 0.  1.
         23    2    1    2    0    0  0.33005949207E+03 -0.73173633090E+03  0.97774494713E+03  0.12682999354E+04  0.90676448281E+02 0.  0.
        254    2    1    2    0    0 -0.33005949207E+03  0.73173633090E+03 -0.13043525477E+04  0.17752176621E+04  0.89759949468E+03 0.  0.
        -24    2    4    4    0    0 -0.60320473420E+02  0.13325757371E+03 -0.10563248233E+04  0.10693610419E+04  0.79465496596E+02 0.  0.
         24    2    4    4    0    0 -0.26973901865E+03  0.59847875719E+03 -0.24802772436E+03  0.70585662016E+03  0.76025358800E+02 0.  0.
         11    1    3    3    0    0  0.63427673537E+02 -0.70493084330E+02  0.11116781619E+03  0.14611854114E+03  0.00000000000E+00 0.  1.
        -11    1    3    3    0    0  0.26663181853E+03 -0.66124324657E+03  0.86657713095E+03  0.11221813943E+04  0.00000000000E+00 0. -1.
          4    1    6    6  502    0 -0.25753129956E+03  0.57586430711E+03 -0.22063946522E+03  0.66829921747E+03  0.00000000000E+00 0. -1.
          1    1    5    5  503    0 -0.50058285446E+02  0.87190245361E+02 -0.91177585848E+03  0.91730212413E+03  0.00000000000E+00 0. -1.
         -2    1    5    5    0  503 -0.10262187974E+02  0.46067328344E+02 -0.14454896485E+03  0.15205891780E+03  0.00000000000E+00 0.  1.
         -3    1    6    6    0  502 -0.12207719092E+02  0.22614450077E+02 -0.27388259149E+02  0.37557402691E+02  0.00000000000E+00 0.  1.
<mgrwt>
<rscale>  0 0.30259423E+04</rscale>
<asrwt>0</asrwt>
<pdfrwt beam="1">  1        2 0.20899308E+00 0.30259423E+04</pdfrwt>
<pdfrwt beam="2">  1       -2 0.25924040E+00 0.30259423E+04</pdfrwt>
<totfact> 0.73648784E-01</totfact>
</mgrwt>
</event>
<event>
12    1  0.1489025E-007  0.2190299E+04  0.7818608E-02  0.8522477E-01
          2   -1    0    0  501    0  0.00000000000E+00  0.00000000000E+00  0.14512908400E+04  0.14512908400E+04  0.00000000000E+00 0. -1.
         -2   -1    0    0    0  501 -0.00000000000E+00 -0.00000000000E+00 -0.82640382687E+03  0.82640382687E+03  0.00000000000E+00 0.  1.
         23    2    1    2    0    0  0.92572831689E+02 -0.40277503322E+03  0.11026693312E+04  0.11810739977E+04  0.90877266374E+02 0.  0.
        254    2    1    2    0    0 -0.92572831689E+02  0.40277503322E+03 -0.47778231807E+03  0.10966206692E+04  0.89638356299E+03 0.  0.
        -24    2    4    4    0    0 -0.14505754000E+03 -0.21149099754E+03 -0.38349225279E+03  0.46788091229E+03  0.77949395017E+02 0.  0.
         24    2    4    4    0    0  0.52484708316E+02  0.61426603076E+03 -0.94290065279E+02  0.62873975686E+03  0.79659677948E+02 0.  0.
         13    1    3    3    0    0  0.58051535554E+02 -0.13328186400E+03  0.48430918149E+03  0.50565741301E+03  0.00000000000E+00 0. -1.
        -13    1    3    3    0    0  0.34521296135E+02 -0.26949316922E+03  0.61836014967E+03  0.67541658467E+03  0.00000000000E+00 0.  1.
          2    1    6    6  502    0  0.46359477142E+02  0.21245487993E+03 -0.73125099645E+01  0.21757699770E+03  0.00000000000E+00 0. -1.
          3    1    5    5  503    0 -0.15409707341E+02 -0.43003977575E+02 -0.27734727902E+02  0.53441709360E+02  0.00000000000E+00 0. -1.
         -4    1    5    5    0  503 -0.12964783266E+03 -0.16848701997E+03 -0.35575752489E+03  0.41443920293E+03  0.00000000000E+00 0.  1.
         -3    1    6    6    0  502  0.61252311731E+01  0.40181115084E+03 -0.86977555315E+02  0.41116275916E+03  0.00000000000E+00 0.  1.
<mgrwt>
<rscale>  0 0.21902989E+04</rscale>
<asrwt>0</asrwt>
<pdfrwt beam="1">  1        2 0.22327551E+00 0.21902989E+04</pdfrwt>
<pdfrwt beam="2">  1       -2 0.12713905E+00 0.21902989E+04</pdfrwt>
<totfact> 0.56862065E+00</totfact>
</mgrwt>
</event>
<event>
12    1  0.1489025E-007  0.2326444E+04  0.7818608E-02  0.8467567E-01
         -2   -1    0    0    0  501 -0.00000000000E+00  0.00000000000E+00  0.53709786026E+03  0.53709786026E+03  0.00000000000E+00 0.  1.
          2   -1    0    0  501    0  0.00000000000E+00 -0.00000000000E+00 -0.25192533196E+04  0.25192533196E+04  0.00000000000E+00 0. -1.
         23    2    1    2    0    0  0.62455363205E+02 -0.17380243570E+03 -0.21032049437E+04  0.21132394016E+04  0.90563648194E+02 0.  0.
        254    2    1    2    0    0 -0.62455363205E+02  0.17380243570E+03  0.12104948432E+03  0.94311177827E+03  0.91689633526E+03 0.  0.
        -24    2    4    4    0    0 -0.73206418938E+02 -0.15030628629E+03 -0.33190395023E+03  0.38047284184E+03  0.81536444156E+02 0.  0.
         24    2    4    4    0    0  0.10751055732E+02  0.32410872199E+03  0.45295343455E+03  0.56263893643E+03  0.78953847570E+02 0.  0.
         11    1    3    3    0    0  0.61540765823E+02 -0.45301461812E+02 -0.87481313641E+03  0.87814435712E+03  0.00000000000E+00 0. -1.
        -11    1    3    3    0    0  0.91459738209E+00 -0.12850097389E+03 -0.12283918073E+04  0.12350950445E+04  0.00000000000E+00 0.  1.
          2    1    6    6  502    0 -0.78467792147E+01  0.52515661809E+02  0.34143680806E+02  0.63128896856E+02  0.00000000000E+00 0. -1.
          1    1    5    5  503    0  0.51745019309E+01 -0.65927696157E+01  0.19860923708E+01  0.86130508152E+01  0.00000000000E+00 0. -1.
         -2    1    5    5    0  503 -0.78380920868E+02 -0.14371351667E+03 -0.33389004260E+03  0.37185979102E+03  0.00000000000E+00 0.  1.
         -1    1    6    6    0  502  0.18597834947E+02  0.27159306018E+03  0.41880975375E+03  0.49951003958E+03  0.00000000000E+00 0.  1.
<mgrwt>
<rscale>  0 0.23264441E+04</rscale>
<asrwt>0</asrwt>
<pdfrwt beam="1">  1        2 0.38757743E+00 0.23264441E+04</pdfrwt>
<pdfrwt beam="2">  1       -2 0.82630442E-01 0.23264441E+04</pdfrwt>
<totfact> 0.39433487E+00</totfact>
</mgrwt>
</event>
<event>
12    1  0.1489025E-007  0.1309449E+04  0.7818608E-02  0.9022105E-01
         -2   -1    0    0    0  501 -0.00000000000E+00  0.00000000000E+00  0.35206143325E+03  0.35206143325E+03  0.00000000000E+00 0.  1.
          2   -1    0    0  501    0  0.00000000000E+00 -0.00000000000E+00 -0.12175841336E+04  0.12175841336E+04  0.00000000000E+00 0. -1.
         23    2    1    2    0    0  0.26025790094E+01 -0.34610581898E+03 -0.24149246879E+03  0.43180461098E+03  0.91326875747E+02 0.  0.
        254    2    1    2    0    0 -0.26025790094E+01  0.34610581898E+03 -0.62403023155E+03  0.11378409559E+04  0.88626875133E+03 0.  0.
        -24    2    4    4    0    0 -0.87027343173E+01 -0.13186949666E+03  0.15608257063E+03  0.21940228494E+03  0.79437346693E+02 0.  0.
         24    2    4    4    0    0  0.61001553078E+01  0.47797531564E+03 -0.78011280218E+03  0.91843867091E+03  0.80349199407E+02 0.  0.
         11    1    3    3    0    0 -0.10852836026E+02 -0.52097263015E+02 -0.80030588628E+02  0.96108292981E+02  0.00000000000E+00 0. -1.
        -11    1    3    3    0    0  0.13455415035E+02 -0.29400855597E+03 -0.16146188016E+03  0.33569631800E+03  0.00000000000E+00 0.  1.
          4    1    6    6  502    0 -0.56316018330E+01  0.62057068591E+02 -0.58543305019E+02  0.85499200369E+02  0.00000000000E+00 0. -1.
          1    1    5    5  503    0  0.13129177368E+02  0.60015496380E+01  0.11771364656E+02  0.18626833394E+02  0.00000000000E+00 0. -1.
         -2    1    5    5    0  503 -0.21831911685E+02 -0.13787104629E+03  0.14431120598E+03  0.20077545155E+03  0.00000000000E+00 0.  1.
         -3    1    6    6    0  502  0.11731757141E+02  0.41591824705E+03 -0.72156949716E+03  0.83293947054E+03  0.00000000000E+00 0.  1.
<mgrwt>
<rscale>  0 0.13094494E+04</rscale>
<asrwt>0</asrwt>
<pdfrwt beam="1">  1        2 0.18732064E+00 0.13094494E+04</pdfrwt>
<pdfrwt beam="2">  1       -2 0.54163297E-01 0.13094494E+04</pdfrwt>
<totfact> 0.58118644E+01</totfact>
</mgrwt>
</event>
<event>
12    1  0.1489025E-007  0.1217321E+04  0.7818608E-02  0.9097829E-01
         -2   -1    0    0    0  501 -0.00000000000E+00  0.00000000000E+00  0.20452447469E+03  0.20452447469E+03  0.00000000000E+00 0.  1.
          2   -1    0    0  501    0  0.00000000000E+00 -0.00000000000E+00 -0.18113618502E+04  0.18113618502E+04  0.00000000000E+00 0. -1.
         23    2    1    2    0    0 -0.21516356713E+03  0.48958334470E+02 -0.97027338448E+03  0.99930443628E+03  0.92122942821E+02 0.  0.
        254    2    1    2    0    0  0.21516356713E+03 -0.48958334470E+02 -0.63656399103E+03  0.10165818886E+04  0.76127047917E+03 0.  0.
        -24    2    4    4    0    0  0.56641109991E+00 -0.37665807646E+03 -0.24974512733E+03  0.46037450662E+03  0.87752095924E+02 0.  0.
         24    2    4    4    0    0  0.21459715603E+03  0.32769974199E+03 -0.38681886370E+03  0.55620738200E+03  0.79364716348E+02 0.  0.
         11    1    3    3    0    0 -0.16063124951E+03  0.11180852091E+02 -0.80990571766E+03  0.82575703526E+03  0.00000000000E+00 0. -1.
        -11    1    3    3    0    0 -0.54532317619E+02  0.37777482379E+02 -0.16036766682E+03  0.17354740102E+03  0.00000000000E+00 0.  1.
          2    1    6    6  502    0  0.62009405008E+02  0.56421841791E+02 -0.50069941141E+02  0.97650343300E+02  0.00000000000E+00 0. -1.
          1    1    5    5  503    0  0.31273537165E+01 -0.40582838662E+02  0.15442261060E+01  0.40732441241E+02  0.00000000000E+00 0. -1.
         -2    1    5    5    0  503 -0.25609426166E+01 -0.33607523779E+03 -0.25128935344E+03  0.41964206538E+03  0.00000000000E+00 0.  1.
         -1    1    6    6    0  502  0.15258775103E+03  0.27127790019E+03 -0.33674892255E+03  0.45855703870E+03  0.00000000000E+00 0.  1.
<mgrwt>
<rscale>  0 0.12173214E+04</rscale>
<asrwt>0</asrwt>
<pdfrwt beam="1">  1        2 0.27867106E+00 0.12173214E+04</pdfrwt>
<pdfrwt beam="2">  1       -2 0.31465303E-01 0.12173214E+04</pdfrwt>
<totfact> 0.78620706E+01</totfact>
</mgrwt>
</event>
<event>
12    1  0.1489025E-007  0.1320412E+04  0.7818608E-02  0.9013533E-01
         -2   -1    0    0    0  501 -0.00000000000E+00  0.00000000000E+00  0.49975468036E+03  0.49975468036E+03  0.00000000000E+00 0.  1.
          2   -1    0    0  501    0  0.00000000000E+00 -0.00000000000E+00 -0.87217176333E+03  0.87217176333E+03  0.00000000000E+00 0. -1.
         23    2    1    2    0    0  0.26434134086E+03  0.14444368638E+03  0.65445702381E+02  0.32184270407E+03  0.92516286011E+02 0.  0.
        254    2    1    2    0    0 -0.26434134086E+03 -0.14444368638E+03 -0.43786278535E+03  0.10500837396E+04  0.90565540821E+03 0.  0.
        -24    2    4    4    0    0 -0.34652461519E+03  0.28986502556E+03 -0.60095450074E+02  0.46321829386E+03  0.82817164130E+02 0.  0.
         24    2    4    4    0    0  0.82183274332E+02 -0.43430871194E+03 -0.37776733528E+03  0.58686544577E+03  0.79528259020E+02 0.  0.
         11    1    3    3    0    0  0.41406839516E+02 -0.33165275533E+01 -0.12288477335E+02  0.43318961078E+02  0.00000000000E+00 0. -1.
        -11    1    3    3    0    0  0.22293450134E+03  0.14776021394E+03  0.77734179716E+02  0.27852374299E+03  0.00000000000E+00 0.  1.
          2    1    6    6  502    0 -0.13477617189E+02 -0.54137029678E+02 -0.33084029351E+02  0.64861522844E+02  0.00000000000E+00 0. -1.
          1    1    5    5  503    0 -0.13295399686E+03  0.15230699781E+03 -0.14812003663E-01  0.20217365576E+03  0.00000000000E+00 0. -1.
         -2    1    5    5    0  503 -0.21357061833E+03  0.13755802775E+03 -0.60080638071E+02  0.26104463811E+03  0.00000000000E+00 0.  1.
         -1    1    6    6    0  502  0.95660891521E+02 -0.38017168226E+03 -0.34468330593E+03  0.52200392292E+03  0.00000000000E+00 0.  1.
<mgrwt>
<rscale>  0 0.13204119E+04</rscale>
<asrwt>0</asrwt>
<pdfrwt beam="1">  1        2 0.13418027E+00 0.13204119E+04</pdfrwt>
<pdfrwt beam="2">  1       -2 0.76885336E-01 0.13204119E+04</pdfrwt>
<totfact> 0.45322280E+01</totfact>
</mgrwt>
</event>
<event>
12    1  0.1489025E-007  0.1389062E+04  0.7818608E-02  0.8961775E-01
         -2   -1    0    0    0  501 -0.00000000000E+00  0.00000000000E+00  0.92821028271E+03  0.92821028271E+03  0.00000000000E+00 0. -1.
          2   -1    0    0  501    0  0.00000000000E+00 -0.00000000000E+00 -0.51968082525E+03  0.51968082525E+03  0.00000000000E+00 0.  1.
         23    2    1    2    0    0 -0.19863829367E+03 -0.14457222367E+03  0.45214499831E+03  0.52267681180E+03  0.91638695576E+02 0.  0.
        254    2    1    2    0    0  0.19863829367E+03  0.14457222367E+03 -0.43615540844E+02  0.92521429616E+03  0.89093258940E+03 0.  0.
        -24    2    4    4    0    0 -0.33372709356E+03  0.17254039768E+03  0.57264330106E+01  0.38388249477E+03  0.78670299000E+02 0.  0.
         24    2    4    4    0    0  0.53236538723E+03 -0.27968174014E+02 -0.49341973855E+02  0.54133180139E+03  0.80064752129E+02 0.  0.
         11    1    3    3    0    0 -0.18045397381E+03 -0.15476606736E+03  0.43484430717E+03  0.49558626267E+03  0.00000000000E+00 0. -1.
        -11    1    3    3    0    0 -0.18184319859E+02  0.10193843695E+02  0.17300691138E+02  0.27090549125E+02  0.00000000000E+00 0.  1.
          4    1    6    6  502    0  0.18336921841E+03  0.27264004503E+02 -0.76741536509E+01  0.18554376529E+03  0.00000000000E+00 0. -1.
          1    1    5    5  503    0 -0.10077675316E+03  0.13651814248E+02 -0.34463077733E+01  0.10175560450E+03  0.00000000000E+00 0. -1.
         -2    1    5    5    0  503 -0.23295034040E+03  0.15888858343E+03  0.91727407839E+01  0.28212689027E+03  0.00000000000E+00 0.  1.
         -3    1    6    6    0  502  0.34899616882E+03 -0.55232178516E+02 -0.41667820204E+02  0.35578803610E+03  0.00000000000E+00 0.  1.
<mgrwt>
<rscale>  0 0.13890617E+04</rscale>
<asrwt>0</asrwt>
<pdfrwt beam="1">  1        2 0.79950896E-01 0.13890617E+04</pdfrwt>
<pdfrwt beam="2">  1       -2 0.14280158E+00 0.13890617E+04</pdfrwt>
<totfact> 0.19540693E+01</totfact>
</mgrwt>
</event>
<event>
12    1  0.1489025E-007  0.1273248E+04  0.7818608E-02  0.9051053E-01
         -2   -1    0    0    0  501 -0.00000000000E+00  0.00000000000E+00  0.31047110862E+03  0.31047110862E+03  0.00000000000E+00 0.  1.
          2   -1    0    0  501    0  0.00000000000E+00 -0.00000000000E+00 -0.13054044750E+04  0.13054044750E+04  0.00000000000E+00 0. -1.
         23    2    1    2    0    0 -0.23405191929E+03 -0.31709004863E+02  0.27235560993E+00  0.25311951819E+03  0.91014583438E+02 0.  0.
        254    2    1    2    0    0  0.23405191929E+03  0.31709004863E+02 -0.99520572201E+03  0.13627560654E+04  0.90049092324E+03 0.  0.
        -24    2    4    4    0    0 -0.24266482511E+03  0.20143938063E+03 -0.69960073330E+03  0.77149061358E+03  0.79325527965E+02 0.  0.
         24    2    4    4    0    0  0.47671674441E+03 -0.16973037577E+03 -0.29560498870E+03  0.59126545185E+03  0.78391774763E+02 0.  0.
         11    1    3    3    0    0 -0.17184940542E+03 -0.38475396354E+02 -0.37472942018E+02  0.18004664854E+03  0.00000000000E+00 0.  1.
        -11    1    3    3    0    0 -0.62202513876E+02  0.67663914910E+01  0.37745297628E+02  0.73072869653E+02  0.00000000000E+00 0. -1.
          4    1    6    6  502    0  0.28001137824E+03 -0.14014924381E+03 -0.18351367551E+03  0.36294001100E+03  0.00000000000E+00 0. -1.
          3    1    5    5  503    0 -0.11651590376E+03  0.13804556832E+03 -0.33678134469E+03  0.38217039248E+03  0.00000000000E+00 0. -1.
         -4    1    5    5    0  503 -0.12614892136E+03  0.63393812308E+02 -0.36281938862E+03  0.38932022110E+03  0.00000000000E+00 0.  1.
         -3    1    6    6    0  502  0.19670536617E+03 -0.29581131955E+02 -0.11209131320E+03  0.22832544086E+03  0.00000000000E+00 0.  1.
<mgrwt>
<rscale>  0 0.12732484E+04</rscale>
<asrwt>0</asrwt>
<pdfrwt beam="1">  1        2 0.20083146E+00 0.12732484E+04</pdfrwt>
<pdfrwt beam="2">  1       -2 0.47764785E-01 0.12732484E+04</pdfrwt>
<totfact> 0.66909332E+01</totfact>
</mgrwt>
</event>
<event>
12    1  0.1489025E-007  0.1824406E+04  0.7818608E-02  0.8693427E-01
          2   -1    0    0  501    0  0.00000000000E+00  0.00000000000E+00  0.16683180255E+04  0.16683180255E+04  0.00000000000E+00 0. -1.
         -2   -1    0    0    0  501 -0.00000000000E+00 -0.00000000000E+00 -0.49877446424E+03  0.49877446424E+03  0.00000000000E+00 0.  1.
         23    2    1    2    0    0 -0.35476253543E+03 -0.51400548841E+03  0.94057684141E+02  0.63827674045E+03  0.92153409032E+02 0.  0.
        254    2    1    2    0    0  0.35476253543E+03  0.51400548841E+03  0.10754858772E+04  0.15288157493E+04  0.88912857606E+03 0.  0.
        -24    2    4    4    0    0  0.23519131398E+03  0.34891681630E+01  0.95249538767E+03  0.98451684258E+03  0.81846327429E+02 0.  0.
         24    2    4    4    0    0  0.11957122145E+03  0.51051632025E+03  0.12299048948E+03  0.54429890675E+03  0.78806402966E+02 0.  0.
         11    1    3    3    0    0 -0.13093697821E+03 -0.26494465712E+03  0.26934751289E+02  0.29675856251E+03  0.00000000000E+00 0. -1.
        -11    1    3    3    0    0 -0.22382555721E+03 -0.24906083129E+03  0.67122932852E+02  0.34151817794E+03  0.00000000000E+00 0.  1.
          2    1    6    6  502    0  0.90628591709E+02  0.23172600178E+03  0.75458168497E+02  0.26000849358E+03  0.00000000000E+00 0. -1.
          1    1    5    5  503    0 -0.45276767509E+01  0.80695386079E+01  0.38611678318E+02  0.39704899101E+02  0.00000000000E+00 0. -1.
         -2    1    5    5    0  503  0.23971899073E+03 -0.45803704450E+01  0.91388370936E+03  0.94481194348E+03  0.00000000000E+00 0.  1.
         -1    1    6    6    0  502  0.28942629740E+02  0.27879031846E+03  0.47532320982E+02  0.28429041317E+03  0.00000000000E+00 0.  1.
<mgrwt>
<rscale>  0 0.18244061E+04</rscale>
<asrwt>0</asrwt>
<pdfrwt beam="1">  1        2 0.25666431E+00 0.18244061E+04</pdfrwt>
<pdfrwt beam="2">  1       -2 0.76734534E-01 0.18244061E+04</pdfrwt>
<totfact> 0.14603762E+01</totfact>
</mgrwt>
</event>
<event>
12    1  0.1489025E-007  0.1852844E+04  0.7818608E-02  0.8678692E-01
          3   -1    0    0  501    0  0.00000000000E+00  0.00000000000E+00  0.18102051595E+04  0.18102051595E+04  0.00000000000E+00 0. -1.
         -3   -1    0    0    0  501 -0.00000000000E+00 -0.00000000000E+00 -0.47412173952E+03  0.47412173952E+03  0.00000000000E+00 0.  1.
         23    2    1    2    0    0 -0.83376170084E+02  0.71791083946E+01 -0.34877773817E+03  0.37016697237E+03  0.91512575376E+02 0.  0.
        254    2    1    2    0    0  0.83376170084E+02 -0.71791083946E+01  0.16848611581E+04  0.19141599266E+04  0.90457060377E+03 0.  0.
        -24    2    4    4    0    0  0.37497948860E+03 -0.20616771033E+03  0.44377030496E+03  0.62132444230E+03  0.77441832218E+02 0.  0.
         24    2    4    4    0    0 -0.29160331852E+03  0.19898860193E+03  0.12410908531E+04  0.12928354843E+04  0.80548896139E+02 0.  0.
         11    1    3    3    0    0 -0.62170790097E+02 -0.33090809138E+02 -0.14282729188E+03  0.15924774440E+03  0.00000000000E+00 0. -1.
        -11    1    3    3    0    0 -0.21205379987E+02  0.40269917532E+02 -0.20595044630E+03  0.21091922797E+03  0.00000000000E+00 0.  1.
          4    1    6    6  502    0 -0.91428864539E+02  0.10298126497E+03  0.40503815895E+03  0.42780870540E+03  0.00000000000E+00 0. -1.
          1    1    5    5  503    0  0.10281292459E+03 -0.21385986728E+02  0.12487951840E+03  0.16316480015E+03  0.00000000000E+00 0. -1.
         -2    1    5    5    0  503  0.27216656401E+03 -0.18478172360E+03  0.31889078656E+03  0.45815964215E+03  0.00000000000E+00 0.  1.
         -3    1    6    6    0  502 -0.20017445398E+03  0.96007336966E+02  0.83605269420E+03  0.86502677892E+03  0.00000000000E+00 0.  1.
<mgrwt>
<rscale>  0 0.18528439E+04</rscale>
<asrwt>0</asrwt>
<pdfrwt beam="1">  1        3 0.27849310E+00 0.18528439E+04</pdfrwt>
<pdfrwt beam="2">  1       -3 0.72941807E-01 0.18528439E+04</pdfrwt>
<totfact> 0.22363577E-01</totfact>
</mgrwt>
</event>
<event>
12    1  0.1489025E-007  0.1847523E+04  0.7818608E-02  0.8681428E-01
          1   -1    0    0  501    0  0.00000000000E+00  0.00000000000E+00  0.52101913633E+03  0.52101913633E+03  0.00000000000E+00 0. -1.
         -1   -1    0    0    0  501 -0.00000000000E+00 -0.00000000000E+00 -0.16378195446E+04  0.16378195446E+04  0.00000000000E+00 0.  1.
         23    2    1    2    0    0  0.22696421501E+02  0.18193008678E+03  0.34935554405E+03  0.40535341975E+03  0.92996853286E+02 0.  0.
        254    2    1    2    0    0 -0.22696421501E+02 -0.18193008678E+03 -0.14661559523E+04  0.17534852612E+04  0.94418409254E+03 0.  0.
        -24    2    4    4    0    0 -0.25942459353E+03 -0.47638023504E+03 -0.10576519392E+04  0.11913170083E+04  0.79808155251E+02 0.  0.
         24    2    4    4    0    0  0.23672817203E+03  0.29445014826E+03 -0.40850401314E+03  0.56216825292E+03  0.80103049851E+02 0.  0.
         11    1    3    3    0    0  0.44179386976E+02  0.71153692754E+02  0.92379551045E+02  0.12469421670E+03  0.00000000000E+00 0.  1.
        -11    1    3    3    0    0 -0.21482965475E+02  0.11077639403E+03  0.25697599300E+03  0.28065920305E+03  0.00000000000E+00 0. -1.
          4    1    6    6  502    0  0.37203014769E+01  0.41608983815E+02 -0.34984916236E+02  0.54489380078E+02  0.00000000000E+00 0. -1.
          3    1    5    5  503    0 -0.91404896113E+02 -0.24510499400E+03 -0.47293816971E+03  0.54046445349E+03  0.00000000000E+00 0. -1.
         -4    1    5    5    0  503 -0.16801969741E+03 -0.23127524104E+03 -0.58471376947E+03  0.65085255477E+03  0.00000000000E+00 0.  1.
         -3    1    6    6    0  502  0.23300787055E+03  0.25284116445E+03 -0.37351909690E+03  0.50767887284E+03  0.00000000000E+00 0.  1.
<mgrwt>
<rscale>  0 0.18475230E+04</rscale>
<asrwt>0</asrwt>
<pdfrwt beam="1">  1        1 0.80156790E-01 0.18475230E+04</pdfrwt>
<pdfrwt beam="2">  1       -1 0.25197224E+00 0.18475230E+04</pdfrwt>
<totfact> 0.26626040E+00</totfact>
</mgrwt>
</event>
<event>
12    1  0.2405473E-007  0.2073534E+04  0.7818608E-02  0.8572992E-01
         -1   -1    0    0    0  501 -0.00000000000E+00  0.00000000000E+00  0.11290881227E+04  0.11290881227E+04  0.00000000000E+00 0.  1.
          1   -1    0    0  501    0  0.00000000000E+00 -0.00000000000E+00 -0.95199468090E+03  0.95199468090E+03  0.00000000000E+00 0. -1.
         23    2    1    2    0    0  0.52485754252E+03 -0.58723171840E+03 -0.20607531778E+03  0.82030644140E+03  0.10059368851E+03 0.  0.
        254    2    1    2    0    0 -0.52485754252E+03  0.58723171840E+03  0.38316875957E+03  0.12607763622E+04  0.90687496717E+03 0.  0.
        -24    2    4    4    0    0  0.13313139640E+03 -0.10997659466E+03 -0.60292856090E+02  0.20157717271E+03  0.84730797129E+02 0.  0.
         24    2    4    4    0    0 -0.65798893892E+03  0.69720831306E+03  0.44346161566E+03  0.10591991895E+04  0.78713676579E+02 0.  0.
         13    1    3    3    0    0  0.50244134770E+03 -0.54404234394E+03 -0.17024224289E+03  0.75987617488E+03  0.00000000000E+00 0. -1.
        -13    1    3    3    0    0  0.22416194821E+02 -0.43189374460E+02 -0.35833074884E+02  0.60430266524E+02  0.00000000000E+00 0.  1.
          4    1    6    6  502    0 -0.64736030544E+03  0.68089362918E+03  0.42116640325E+03  0.10295982899E+04  0.00000000000E+00 0. -1.
          1    1    5    5  503    0  0.12333360489E+03 -0.11164946807E+03 -0.76069984991E+02  0.18293010805E+03  0.00000000000E+00 0. -1.
         -2    1    5    5    0  503  0.97977915070E+01  0.16728734131E+01  0.15777128901E+02  0.18647064655E+02  0.00000000000E+00 0.  1.
         -3    1    6    6    0  502 -0.10628633476E+02  0.16314683878E+02  0.22295212412E+02  0.29600899583E+02  0.00000000000E+00 0.  1.
<mgrwt>
<rscale>  0 0.20735341E+04</rscale>
<asrwt>0</asrwt>
<pdfrwt beam="1">  1        1 0.14646072E+00 0.20735341E+04</pdfrwt>
<pdfrwt beam="2">  1       -1 0.17370587E+00 0.20735341E+04</pdfrwt>
<totfact> 0.35187848E+00</totfact>
</mgrwt>
</event>
<event>
12    1  0.1489025E-007  0.2751198E+04  0.7818608E-02  0.8318582E-01
         -2   -1    0    0    0  501 -0.00000000000E+00  0.00000000000E+00  0.10260215828E+04  0.10260215828E+04  0.00000000000E+00 0.  1.
          2   -1    0    0  501    0  0.00000000000E+00 -0.00000000000E+00 -0.18442818681E+04  0.18442818681E+04  0.00000000000E+00 0. -1.
         23    2    1    2    0    0  0.10338112907E+04 -0.34556293659E+03  0.22743784239E+03  0.11165870715E+04  0.82820216027E+02 0.  0.
        254    2    1    2    0    0 -0.10338112907E+04  0.34556293659E+03 -0.10456981277E+04  0.17537163793E+04  0.89098655251E+03 0.  0.
        -24    2    4    4    0    0  0.21243735288E+01  0.33028575521E+03 -0.11478532872E+03  0.35859722144E+03  0.79517938115E+02 0.  0.
         24    2    4    4    0    0 -0.10359356643E+04  0.15277181378E+02 -0.93091279898E+03  0.13951191579E+04  0.79766738270E+02 0.  0.
         11    1    3    3    0    0  0.91402216576E+03 -0.31405543803E+03  0.17550770276E+03  0.98227811306E+03  0.00000000000E+00 0.  1.
        -11    1    3    3    0    0  0.11978912499E+03 -0.31507498554E+02  0.51930139624E+02  0.13430895849E+03  0.00000000000E+00 0. -1.
          4    1    6    6  502    0 -0.76941906365E+03  0.17074889735E+02 -0.64394264462E+03  0.10034736553E+04  0.00000000000E+00 0. -1.
          1    1    5    5  503    0  0.46190037741E+01  0.33410775383E+03 -0.10952295837E+03  0.35163134783E+03  0.00000000000E+00 0. -1.
         -2    1    5    5    0  503 -0.24946302454E+01 -0.38219986226E+01 -0.52623703502E+01  0.69658736161E+01  0.00000000000E+00 0.  1.
         -1    1    6    6    0  502 -0.26651660063E+03 -0.17977083576E+01 -0.28697015436E+03  0.39164550254E+03  0.00000000000E+00 0.  1.
<mgrwt>
<rscale>  0 0.27511983E+04</rscale>
<asrwt>0</asrwt>
<pdfrwt beam="1">  1        2 0.28373567E+00 0.27511983E+04</pdfrwt>
<pdfrwt beam="2">  1       -2 0.15784948E+00 0.27511983E+04</pdfrwt>
<totfact> 0.18618751E+00</totfact>
</mgrwt>
</event>
<event>
12    1  0.1489025E-007  0.1324974E+04  0.7818608E-02  0.9009992E-01
          3   -1    0    0  501    0  0.00000000000E+00  0.00000000000E+00  0.22563072853E+03  0.22563072853E+03  0.00000000000E+00 0. -1.
         -3   -1    0    0    0  501 -0.00000000000E+00 -0.00000000000E+00 -0.19451652423E+04  0.19451652423E+04  0.00000000000E+00 0.  1.
         23    2    1    2    0    0  0.54941744090E+02 -0.28833469760E+03 -0.78699878715E+03  0.84486823651E+03  0.90993148129E+02 0.  0.
        254    2    1    2    0    0 -0.54941744090E+02  0.28833469760E+03 -0.93253572661E+03  0.13259277343E+04  0.89571534660E+03 0.  0.
        -24    2    4    4    0    0 -0.26882721148E+03  0.28295919562E+03 -0.35006711804E+02  0.39992539399E+03  0.79880378489E+02 0.  0.
         24    2    4    4    0    0  0.21388546739E+03  0.53755019764E+01 -0.89752901480E+03  0.92600234033E+03  0.78397147209E+02 0.  0.
         13    1    3    3    0    0  0.79011988565E+02 -0.20543356082E+03 -0.53565007853E+03  0.57910866759E+03  0.00000000000E+00 0.  1.
        -13    1    3    3    0    0 -0.24070244475E+02 -0.82901136775E+02 -0.25134870862E+03  0.26575956892E+03  0.00000000000E+00 0. -1.
          4    1    6    6  502    0  0.37849771035E+02  0.13026500790E+02 -0.77171176503E+02  0.86934949088E+02  0.00000000000E+00 0. -1.
          3    1    5    5  503    0 -0.17728311086E+02  0.36851255837E+01 -0.15541190181E+02  0.23862140657E+02  0.00000000000E+00 0. -1.
         -4    1    5    5    0  503 -0.25109890039E+03  0.27927407004E+03 -0.19465521623E+02  0.37606325333E+03  0.00000000000E+00 0.  1.
         -3    1    6    6    0  502  0.17603569635E+03 -0.76509988139E+01 -0.82035783830E+03  0.83906739124E+03  0.00000000000E+00 0.  1.
<mgrwt>
<rscale>  0 0.13249740E+04</rscale>
<asrwt>0</asrwt>
<pdfrwt beam="1">  1        3 0.34712419E-01 0.13249740E+04</pdfrwt>
<pdfrwt beam="2">  1       -3 0.29925620E+00 0.13249740E+04</pdfrwt>
<totfact> 0.81262622E-01</totfact>
</mgrwt>
</event>
<event>
12    1  0.1489025E-007  0.1555078E+04  0.7818608E-02  0.8848631E-01
         -2   -1    0    0    0  501 -0.00000000000E+00  0.00000000000E+00  0.25027531865E+03  0.25027531865E+03  0.00000000000E+00 0.  1.
          2   -1    0    0  501    0  0.00000000000E+00 -0.00000000000E+00 -0.24156078003E+04  0.24156078003E+04  0.00000000000E+00 0. -1.
         23    2    1    2    0    0 -0.45904011400E+03  0.19454852308E+03 -0.51038250010E+03  0.71909332070E+03  0.89654633868E+02 0.  0.
        254    2    1    2    0    0  0.45904011400E+03 -0.19454852308E+03 -0.16549499816E+04  0.19467897983E+04  0.89585943263E+03 0.  0.
        -24    2    4    4    0    0  0.48737230230E+03  0.11209475541E+02 -0.16522706930E+04  0.17246606531E+04  0.82453089908E+02 0.  0.
         24    2    4    4    0    0 -0.28332188305E+02 -0.20575799862E+03 -0.26792886350E+01  0.22212914522E+03  0.78709031726E+02 0.  0.
         13    1    3    3    0    0 -0.17780987073E+03  0.11754049598E+03 -0.24599225263E+03  0.32549087035E+03  0.00000000000E+00 0. -1.
        -13    1    3    3    0    0 -0.28123024327E+03  0.77008027101E+02 -0.26439024746E+03  0.39360245035E+03  0.00000000000E+00 0.  1.
          4    1    6    6  502    0 -0.32762346438E+02 -0.72859641214E+02 -0.31838096879E+02  0.85997459700E+02  0.00000000000E+00 0. -1.
          3    1    5    5  503    0  0.18558031059E+02 -0.16433830927E+02 -0.84972238812E+02  0.88514138331E+02  0.00000000000E+00 0. -1.
         -4    1    5    5    0  503  0.46881427124E+03  0.27643306469E+02 -0.15672984541E+04  0.16361465147E+04  0.00000000000E+00 0.  1.
         -3    1    6    6    0  502  0.44301581332E+01 -0.13289835741E+03  0.29158808244E+02  0.13613168552E+03  0.00000000000E+00 0.  1.
<mgrwt>
<rscale>  0 0.15550781E+04</rscale>
<asrwt>0</asrwt>
<pdfrwt beam="1">  1        2 0.37163196E+00 0.15550781E+04</pdfrwt>
<pdfrwt beam="2">  1       -2 0.38503896E-01 0.15550781E+04</pdfrwt>
<totfact> 0.23920993E+01</totfact>
</mgrwt>
</event>
<event>
12    1  0.1489025E-007  0.1522542E+04  0.7818608E-02  0.8869599E-01
         -1   -1    0    0    0  501 -0.00000000000E+00  0.00000000000E+00  0.14097695593E+04  0.14097695593E+04  0.00000000000E+00 0.  1.
          1   -1    0    0  501    0  0.00000000000E+00 -0.00000000000E+00 -0.41108414475E+03  0.41108414475E+03  0.00000000000E+00 0. -1.
         23    2    1    2    0    0 -0.24280629083E+03 -0.27417088242E+03  0.72394734308E+03  0.81646806177E+03  0.91628449231E+02 0.  0.
        254    2    1    2    0    0  0.24280629083E+03  0.27417088242E+03  0.27473807146E+03  0.10043856423E+04  0.89397144409E+03 0.  0.
        -24    2    4    4    0    0  0.47675139543E+03 -0.60025929683E+02 -0.31261757482E+02  0.48819386150E+03  0.80379995317E+02 0.  0.
         24    2    4    4    0    0 -0.23394510460E+03  0.33419681210E+03  0.30599982894E+03  0.51619178077E+03  0.80001487709E+02 0.  0.
         13    1    3    3    0    0 -0.10685165615E+01 -0.43029698796E+02  0.80190906484E+02  0.91012516660E+02  0.00000000000E+00 0. -1.
        -13    1    3    3    0    0 -0.24173777427E+03 -0.23114118362E+03  0.64375643660E+03  0.72545554511E+03  0.00000000000E+00 0.  1.
          4    1    6    6  502    0 -0.15343580306E+03  0.15118735800E+03  0.16958936380E+03  0.27415454618E+03  0.00000000000E+00 0. -1.
          3    1    5    5  503    0  0.45819477249E+03 -0.40467501047E+02 -0.25912808571E+02  0.46070765332E+03  0.00000000000E+00 0. -1.
         -4    1    5    5    0  503  0.18556622932E+02 -0.19558428636E+02 -0.53489489113E+01  0.27486208174E+02  0.00000000000E+00 0.  1.
         -3    1    6    6    0  502 -0.80509301542E+02  0.18300945410E+03  0.13641046514E+03  0.24203723459E+03  0.00000000000E+00 0.  1.
<mgrwt>
<rscale>  0 0.15225425E+04</rscale>
<asrwt>0</asrwt>
<pdfrwt beam="1">  1        1 0.63243715E-01 0.15225425E+04</pdfrwt>
<pdfrwt beam="2">  1       -1 0.21688762E+00 0.15225425E+04</pdfrwt>
<totfact> 0.64494796E+00</totfact>
</mgrwt>
</event>
<event>
12    1  0.1489025E-007  0.1934849E+04  0.7818608E-02  0.8637702E-01
          2   -1    0    0  501    0  0.00000000000E+00  0.00000000000E+00  0.17009153670E+04  0.17009153670E+04  0.00000000000E+00 0. -1.
         -2   -1    0    0    0  501 -0.00000000000E+00 -0.00000000000E+00 -0.55023902586E+03  0.55023902586E+03  0.00000000000E+00 0.  1.
         23    2    1    2    0    0  0.55356164614E+03  0.48717012064E+03  0.28511495013E+03  0.79661635094E+03  0.97682410270E+02 0.  0.
        254    2    1    2    0    0 -0.55356164614E+03 -0.48717012064E+03  0.86556139102E+03  0.14545380419E+04  0.90703868234E+03 0.  0.
        -24    2    4    4    0    0 -0.12874266474E+03  0.14051889039E+03  0.62068843975E+03  0.65395741842E+03  0.78012393765E+02 0.  0.
         24    2    4    4    0    0 -0.42481898141E+03 -0.62768901104E+03  0.24487295127E+03  0.80058062351E+03  0.80634427726E+02 0.  0.
         13    1    3    3    0    0  0.20462375701E+03  0.15522404706E+03  0.14546629025E+03  0.29517084598E+03  0.00000000000E+00 0. -1.
        -13    1    3    3    0    0  0.34893788914E+03  0.33194607359E+03  0.13964865988E+03  0.50144550496E+03  0.00000000000E+00 0.  1.
          4    1    6    6  502    0 -0.35944303703E+03 -0.53235985984E+03  0.23717374540E+03  0.68473184733E+03  0.00000000000E+00 0. -1.
          1    1    5    5  503    0 -0.54723492072E+02  0.11408549519E+03  0.41028554552E+03  0.42935345540E+03  0.00000000000E+00 0. -1.
         -2    1    5    5    0  503 -0.74019172663E+02  0.26433395200E+02  0.21040289423E+03  0.22460396302E+03  0.00000000000E+00 0.  1.
         -3    1    6    6    0  502 -0.65375944374E+02 -0.95329151202E+02  0.76992058611E+01  0.11584877618E+03  0.00000000000E+00 0.  1.
<mgrwt>
<rscale>  0 0.19348488E+04</rscale>
<asrwt>0</asrwt>
<pdfrwt beam="1">  1        2 0.26167928E+00 0.19348488E+04</pdfrwt>
<pdfrwt beam="2">  1       -2 0.84652159E-01 0.19348488E+04</pdfrwt>
<totfact> 0.11126073E+01</totfact>
</mgrwt>
</event>
<event>
12    1  0.1489025E-007  0.2367864E+04  0.7818608E-02  0.8451634E-01
         -1   -1    0    0    0  501 -0.00000000000E+00  0.00000000000E+00  0.17745412062E+04  0.17745412062E+04  0.00000000000E+00 0.  1.
          1   -1    0    0  501    0  0.00000000000E+00 -0.00000000000E+00 -0.78989141336E+03  0.78989141336E+03  0.00000000000E+00 0. -1.
         23    2    1    2    0    0  0.70283086758E+03 -0.21043076304E+03 -0.33339659616E+03  0.81101948206E+03  0.91361783555E+02 0.  0.
        254    2    1    2    0    0 -0.70283086758E+03  0.21043076304E+03  0.13180463890E+04  0.17534131375E+04  0.89384507202E+03 0.  0.
        -24    2    4    4    0    0  0.16309809920E+03  0.17099434657E+03  0.50060123538E+03  0.55927223560E+03  0.79647850764E+02 0.  0.
         24    2    4    4    0    0 -0.86592896678E+03  0.39436416470E+02  0.81744515365E+03  0.11941409019E+04  0.79797919605E+02 0.  0.
         11    1    3    3    0    0  0.50934102365E+03 -0.13527362049E+03 -0.19686286263E+03  0.56256752258E+03  0.00000000000E+00 0. -1.
        -11    1    3    3    0    0  0.19348984393E+03 -0.75157142555E+02 -0.13653373353E+03  0.24845195948E+03  0.00000000000E+00 0.  1.
          4    1    6    6  502    0 -0.38459852180E+03  0.75372736145E+01  0.31038353544E+03  0.49427803162E+03  0.00000000000E+00 0. -1.
          3    1    5    5  503    0  0.99208458563E+02  0.10059558406E+03  0.38187953887E+03  0.40717781372E+03  0.00000000000E+00 0. -1.
         -4    1    5    5    0  503  0.63889640637E+02  0.70398762517E+02  0.11872169651E+03  0.15209442188E+03  0.00000000000E+00 0.  1.
         -3    1    6    6    0  502 -0.48133044498E+03  0.31899142856E+02  0.50706161820E+03  0.69986287031E+03  0.00000000000E+00 0.  1.
<mgrwt>
<rscale>  0 0.23678639E+04</rscale>
<asrwt>0</asrwt>
<pdfrwt beam="1">  1        1 0.12152176E+00 0.23678639E+04</pdfrwt>
<pdfrwt beam="2">  1       -1 0.27300634E+00 0.23678639E+04</pdfrwt>
<totfact> 0.10017450E+00</totfact>
</mgrwt>
</event>
<event>
12    1  0.1489025E-007  0.1098543E+04  0.7818608E-02  0.9206613E-01
          1   -1    0    0  501    0  0.00000000000E+00  0.00000000000E+00  0.20856381437E+04  0.20856381437E+04  0.00000000000E+00 0. -1.
         -1   -1    0    0    0  501 -0.00000000000E+00 -0.00000000000E+00 -0.14465549596E+03  0.14465549596E+03  0.00000000000E+00 0.  1.
         23    2    1    2    0    0  0.12620598819E+03 -0.11526232660E+02  0.51486912342E+03  0.53797151203E+03  0.90897348742E+02 0.  0.
        254    2    1    2    0    0 -0.12620598819E+03  0.11526232660E+02  0.14261135244E+04  0.16923221277E+04  0.90227135271E+03 0.  0.
        -24    2    4    4    0    0  0.19051588748E+03 -0.35555825232E+03  0.76395204820E+03  0.86756078925E+03  0.79504823316E+02 0.  0.
         24    2    4    4    0    0 -0.31672187567E+03  0.36708448498E+03  0.66216147616E+03  0.82476133841E+03  0.81912631407E+02 0.  0.
         13    1    3    3    0    0  0.25279272632E+02 -0.37964549096E+02  0.23278733101E+03  0.23721359593E+03  0.00000000000E+00 0.  1.
        -13    1    3    3    0    0  0.10092671556E+03  0.26438316436E+02  0.28208179241E+03  0.30075791610E+03  0.00000000000E+00 0. -1.
          4    1    6    6  502    0 -0.13565170845E+03  0.10179270376E+03  0.25308654178E+03  0.30465708292E+03  0.00000000000E+00 0. -1.
          3    1    5    5  503    0  0.59013975348E+02 -0.79114241579E+02  0.12682925832E+03  0.16070897073E+03  0.00000000000E+00 0. -1.
         -4    1    5    5    0  503  0.13150191213E+03 -0.27644401074E+03  0.63712278988E+03  0.70685181853E+03  0.00000000000E+00 0.  1.
         -3    1    6    6    0  502 -0.18107016722E+03  0.26529178121E+03  0.40907493438E+03  0.52010425549E+03  0.00000000000E+00 0.  1.
<mgrwt>
<rscale>  0 0.10985427E+04</rscale>
<asrwt>0</asrwt>
<pdfrwt beam="1">  1        1 0.32086738E+00 0.10985427E+04</pdfrwt>
<pdfrwt beam="2">  1       -1 0.22254693E-01 0.10985427E+04</pdfrwt>
<totfact> 0.44542278E+01</totfact>
</mgrwt>
</event>
<event>
12    1  0.1489025E-007  0.2326295E+04  0.7818608E-02  0.8467625E-01
          2   -1    0    0  501    0  0.00000000000E+00  0.00000000000E+00  0.18806673460E+04  0.18806673460E+04  0.00000000000E+00 0. -1.
         -2   -1    0    0    0  501 -0.00000000000E+00 -0.00000000000E+00 -0.71937859070E+03  0.71937859070E+03  0.00000000000E+00 0.  1.
         23    2    1    2    0    0  0.71094161134E+03  0.64460817091E+03  0.67022690718E+03  0.11740596897E+04  0.90853614333E+02 0.  0.
        254    2    1    2    0    0 -0.71094161134E+03 -0.64460817091E+03  0.49106184813E+03  0.14259862470E+04  0.93345453512E+03 0.  0.
        -24    2    4    4    0    0 -0.47124174913E+03 -0.57954086317E+03 -0.12003483557E+03  0.76085716873E+03  0.80986858541E+02 0.  0.
         24    2    4    4    0    0 -0.23969986221E+03 -0.65067307742E+02  0.61109668371E+03  0.66512907824E+03  0.85251131416E+02 0.  0.
         11    1    3    3    0    0  0.35753518613E+03  0.30241468561E+03  0.27521561712E+03  0.54316635324E+03  0.00000000000E+00 0.  1.
        -11    1    3    3    0    0  0.35340642521E+03  0.34219348530E+03  0.39501129006E+03  0.63089333650E+03  0.00000000000E+00 0. -1.
          4    1    6    6  502    0 -0.76958675508E+02  0.14975976496E+02  0.23187635417E+03  0.24477246828E+03  0.00000000000E+00 0. -1.
          3    1    5    5  503    0 -0.40299416898E+03 -0.53455160554E+03 -0.10226500708E+03  0.67720591469E+03  0.00000000000E+00 0. -1.
         -4    1    5    5    0  503 -0.68247580151E+02 -0.44989257627E+02 -0.17769828491E+02  0.83651254042E+02  0.00000000000E+00 0.  1.
         -3    1    6    6    0  502 -0.16274118670E+03 -0.80043284238E+02  0.37922032954E+03  0.42035660996E+03  0.00000000000E+00 0.  1.
<mgrwt>
<rscale>  0 0.23262948E+04</rscale>
<asrwt>0</asrwt>
<pdfrwt beam="1">  1        2 0.28933344E+00 0.23262948E+04</pdfrwt>
<pdfrwt beam="2">  1       -2 0.11067363E+00 0.23262948E+04</pdfrwt>
<totfact> 0.45584339E+00</totfact>
</mgrwt>
</event>
<event>
12    1  0.1489025E-007  0.1588828E+04  0.7818608E-02  0.8827441E-01
          2   -1    0    0  501    0  0.00000000000E+00  0.00000000000E+00  0.21692538476E+04  0.21692538476E+04  0.00000000000E+00 0. -1.
         -2   -1    0    0    0  501 -0.00000000000E+00 -0.00000000000E+00 -0.29092663576E+03  0.29092663576E+03  0.00000000000E+00 0.  1.
         23    2    1    2    0    0 -0.50814886831E+03  0.66471853900E+02  0.88448717786E+03  0.10262692092E+04  0.90978800472E+02 0.  0.
        254    2    1    2    0    0  0.50814886831E+03 -0.66471853900E+02  0.99384003397E+03  0.14339112742E+04  0.89763564403E+03 0.  0.
        -24    2    4    4    0    0  0.48730337654E+03  0.18808668100E+03  0.10356989671E+04  0.11628677923E+04  0.82146038480E+02 0.  0.
         24    2    4    4    0    0  0.20845491764E+02 -0.25455853490E+03 -0.41858933124E+02  0.27104348187E+03  0.80484884066E+02 0.  0.
         13    1    3    3    0    0 -0.22954350772E+03 -0.14125157198E+02  0.36928381354E+03  0.43504054632E+03  0.00000000000E+00 0.  1.
        -13    1    3    3    0    0 -0.27860536058E+03  0.80597011098E+02  0.51520336432E+03  0.59122866283E+03  0.00000000000E+00 0. -1.
          2    1    6    6  502    0  0.19036913794E+02 -0.26060259173E+03 -0.42386787447E+02  0.26471258877E+03  0.00000000000E+00 0. -1.
          1    1    5    5  503    0  0.43460993038E+03  0.16089493286E+03  0.85267307927E+03  0.97047635269E+03  0.00000000000E+00 0. -1.
         -2    1    5    5    0  503  0.52693446162E+02  0.27191748138E+02  0.18302588782E+03  0.19239143965E+03  0.00000000000E+00 0.  1.
         -1    1    6    6    0  502  0.18085779698E+01  0.60440568294E+01  0.52785432351E+00  0.63308930979E+01  0.00000000000E+00 0.  1.
<mgrwt>
<rscale>  0 0.15888282E+04</rscale>
<asrwt>0</asrwt>
<pdfrwt beam="1">  1        2 0.33373135E+00 0.15888282E+04</pdfrwt>
<pdfrwt beam="2">  1       -2 0.44757945E-01 0.15888282E+04</pdfrwt>
<totfact> 0.24431522E+01</totfact>
</mgrwt>
</event>
<event>
12    1  0.1489025E-007  0.1241380E+04  0.7818608E-02  0.9077389E-01
          2   -1    0    0  501    0  0.00000000000E+00  0.00000000000E+00  0.18990587635E+04  0.18990587635E+04  0.00000000000E+00 0. -1.
         -2   -1    0    0    0  501 -0.00000000000E+00 -0.00000000000E+00 -0.20286670065E+03  0.20286670065E+03  0.00000000000E+00 0.  1.
         23    2    1    2    0    0  0.27289430350E+03  0.63106715801E+02  0.39525435154E+03  0.49349715785E+03  0.94125894098E+02 0.  0.
        254    2    1    2    0    0 -0.27289430350E+03 -0.63106715801E+02  0.13009377114E+04  0.16084283063E+04  0.90340961326E+03 0.  0.
        -24    2    4    4    0    0  0.23185925352E+03 -0.29079643438E+03  0.62250555248E+03  0.72914884148E+03  0.76312452923E+02 0.  0.
         24    2    4    4    0    0 -0.50475355702E+03  0.22768971858E+03  0.67843215888E+03  0.87927946486E+03  0.79015326654E+02 0.  0.
         13    1    3    3    0    0  0.18669317115E+03  0.72914647472E+01  0.30003221829E+03  0.35344990822E+03  0.00000000000E+00 0.  1.
        -13    1    3    3    0    0  0.86201132352E+02  0.55815251054E+02  0.95222133245E+02  0.14004724963E+03  0.00000000000E+00 0. -1.
          2    1    6    6  502    0 -0.20551661691E+02  0.26546735462E+02  0.27191893005E+02  0.43202997664E+02  0.00000000000E+00 0. -1.
          3    1    5    5  503    0  0.75830547421E+02 -0.11532404635E+03  0.29991531363E+03  0.33015012182E+03  0.00000000000E+00 0. -1.
         -4    1    5    5    0  503  0.15602870610E+03 -0.17547238802E+03  0.32259023885E+03  0.39899871966E+03  0.00000000000E+00 0.  1.
         -1    1    6    6    0  502 -0.48420189533E+03  0.20114298312E+03  0.65124026587E+03  0.83607646719E+03  0.00000000000E+00 0.  1.
<mgrwt>
<rscale>  0 0.12413795E+04</rscale>
<asrwt>0</asrwt>
<pdfrwt beam="1">  1        2 0.29216287E+00 0.12413795E+04</pdfrwt>
<pdfrwt beam="2">  1       -2 0.31210263E-01 0.12413795E+04</pdfrwt>
<totfact> 0.71278988E+01</totfact>
</mgrwt>
</event>
<event>
12    1  0.1489025E-007  0.2271546E+04  0.7818608E-02  0.8489225E-01
          2   -1    0    0  501    0  0.00000000000E+00  0.00000000000E+00  0.13464550153E+04  0.13464550153E+04  0.00000000000E+00 0. -1.
         -2   -1    0    0    0  501 -0.00000000000E+00 -0.00000000000E+00 -0.95805711285E+03  0.95805711285E+03  0.00000000000E+00 0.  1.
         23    2    1    2    0    0 -0.33050590177E+03 -0.63056492541E+03 -0.48055747548E+03  0.86368976453E+03  0.90433654422E+02 0.  0.
        254    2    1    2    0    0  0.33050590177E+03  0.63056492541E+03  0.86895537790E+03  0.14408223636E+04  0.90224129719E+03 0.  0.
        -24    2    4    4    0    0  0.41739737417E+03  0.44813353731E+02  0.55008027089E+02  0.43101068469E+03  0.80718787370E+02 0.  0.
         24    2    4    4    0    0 -0.86891472398E+02  0.58575157168E+03  0.81394735081E+03  0.10098116789E+04  0.80958663775E+02 0.  0.
         13    1    3    3    0    0 -0.14296318972E+03 -0.35929465924E+03 -0.23470766144E+03  0.45234810944E+03  0.00000000000E+00 0. -1.
        -13    1    3    3    0    0 -0.18754271205E+03 -0.27127026617E+03 -0.24584981404E+03  0.41134165509E+03  0.00000000000E+00 0.  1.
          4    1    6    6  502    0  0.10118851495E+02  0.23257318606E+02  0.21849353126E+02  0.33476682278E+02  0.00000000000E+00 0. -1.
          1    1    5    5  503    0  0.15706718515E+02 -0.11675518572E+02 -0.67311124078E+01  0.20696053118E+02  0.00000000000E+00 0. -1.
         -2    1    5    5    0  503  0.40169065566E+03  0.56488872303E+02  0.61739139496E+02  0.41031463157E+03  0.00000000000E+00 0.  1.
         -3    1    6    6    0  502 -0.97010323894E+02  0.56249425307E+03  0.79209799769E+03  0.97633499662E+03  0.00000000000E+00 0.  1.
<mgrwt>
<rscale>  0 0.22715464E+04</rscale>
<asrwt>0</asrwt>
<pdfrwt beam="1">  1        2 0.20714693E+00 0.22715464E+04</pdfrwt>
<pdfrwt beam="2">  1       -2 0.14739340E+00 0.22715464E+04</pdfrwt>
<totfact> 0.44312784E+00</totfact>
</mgrwt>
</event>
<event>
12    1  0.1489025E-007  0.1311759E+04  0.7818608E-02  0.9020292E-01
          1   -1    0    0  501    0  0.00000000000E+00  0.00000000000E+00  0.71780826255E+03  0.71780826255E+03  0.00000000000E+00 0. -1.
         -1   -1    0    0    0  501 -0.00000000000E+00 -0.00000000000E+00 -0.59929380085E+03  0.59929380085E+03  0.00000000000E+00 0.  1.
         23    2    1    2    0    0  0.15724025803E+03  0.25458004100E+03 -0.11928715580E+03  0.33472966717E+03  0.90989167085E+02 0.  0.
        254    2    1    2    0    0 -0.15724025803E+03 -0.25458004100E+03  0.23780161750E+03  0.98237239623E+03  0.90496984456E+03 0.  0.
        -24    2    4    4    0    0  0.23866073699E+03  0.18238714656E+03  0.22855798071E+03  0.38592161407E+03  0.80453235160E+02 0.  0.
         24    2    4    4    0    0 -0.39590099502E+03 -0.43696718756E+03  0.92436367863E+01  0.59645078216E+03  0.89387750044E+02 0.  0.
         11    1    3    3    0    0  0.23494959098E+02  0.77049852324E+02 -0.70769655875E+02  0.10722423718E+03  0.00000000000E+00 0.  1.
        -11    1    3    3    0    0  0.13374529893E+03  0.17753018867E+03 -0.48517499924E+02  0.22750542999E+03  0.00000000000E+00 0. -1.
          2    1    6    6  502    0 -0.23200424187E+03 -0.31668741479E+03 -0.55558625822E+01  0.39261654900E+03  0.00000000000E+00 0. -1.
          3    1    5    5  503    0  0.99359804940E+02  0.11333346420E+03  0.78919259330E+02  0.17013257900E+03  0.00000000000E+00 0. -1.
         -4    1    5    5    0  503  0.13930093205E+03  0.69053682359E+02  0.14963872138E+03  0.21578903506E+03  0.00000000000E+00 0.  1.
         -1    1    6    6    0  502 -0.16389675314E+03 -0.12027977276E+03  0.14799499369E+02  0.20383423316E+03  0.00000000000E+00 0.  1.
<mgrwt>
<rscale>  0 0.13117592E+04</rscale>
<asrwt>0</asrwt>
<pdfrwt beam="1">  1        1 0.11043204E+00 0.13117592E+04</pdfrwt>
<pdfrwt beam="2">  1       -1 0.92199046E-01 0.13117592E+04</pdfrwt>
<totfact> 0.29480449E+01</totfact>
</mgrwt>
</event>
<event>
12    1  0.1489025E-007  0.2679392E+04  0.7818608E-02  0.8341723E-01
          2   -1    0    0  501    0  0.00000000000E+00  0.00000000000E+00  0.13861356345E+04  0.13861356345E+04  0.00000000000E+00 0.  1.
         -2   -1    0    0    0  501 -0.00000000000E+00 -0.00000000000E+00 -0.12948120208E+04  0.12948120208E+04  0.00000000000E+00 0. -1.
         23    2    1    2    0    0 -0.48578479253E+03  0.12704806051E+03  0.11163179705E+04  0.12273653861E+04  0.90177077812E+02 0.  0.
        254    2    1    2    0    0  0.48578479253E+03 -0.12704806051E+03 -0.10249943568E+04  0.14535822692E+04  0.90008883320E+03 0.  0.
        -24    2    4    4    0    0  0.64274073943E+03  0.15191655446E+03 -0.85233770877E+03  0.10811949864E+04  0.79427521679E+02 0.  0.
         24    2    4    4    0    0 -0.15695594690E+03 -0.27896461497E+03 -0.17265664800E+03  0.37238728281E+03  0.80034646419E+02 0.  0.
         11    1    3    3    0    0 -0.63885593419E+02 -0.12924590807E+02  0.16101988837E+03  0.17371188372E+03  0.00000000000E+00 0. -1.
        -11    1    3    3    0    0 -0.42189919911E+03  0.13997265132E+03  0.95529808216E+03  0.10536535024E+04  0.00000000000E+00 0.  1.
          2    1    6    6  502    0 -0.11411896737E+03 -0.24124090272E+03 -0.11296076973E+03  0.28979380145E+03  0.00000000000E+00 0. -1.
          1    1    5    5  503    0  0.57154338080E+03  0.10831550665E+03 -0.74678829860E+03  0.94661863918E+03  0.00000000000E+00 0. -1.
         -2    1    5    5    0  503  0.71197358632E+02  0.43601047809E+02 -0.10554941018E+03  0.13457634723E+03  0.00000000000E+00 0.  1.
         -1    1    6    6    0  502 -0.42836979535E+02 -0.37723712248E+02 -0.59695878269E+02  0.82593481364E+02  0.00000000000E+00 0.  1.
<mgrwt>
<rscale>  0 0.26793918E+04</rscale>
<asrwt>0</asrwt>
<pdfrwt beam="1">  1        2 0.21325164E+00 0.26793918E+04</pdfrwt>
<pdfrwt beam="2">  1       -2 0.19920185E+00 0.26793918E+04</pdfrwt>
<totfact> 0.17436458E+00</totfact>
</mgrwt>
</event>
<event>
12    1  0.1489025E-007  0.1804769E+04  0.7818608E-02  0.8703767E-01
          2   -1    0    0  501    0  0.00000000000E+00  0.00000000000E+00  0.31564952257E+04  0.31564952257E+04  0.00000000000E+00 0. -1.
         -2   -1    0    0    0  501 -0.00000000000E+00 -0.00000000000E+00 -0.25797532366E+03  0.25797532366E+03  0.00000000000E+00 0.  1.
         23    2    1    2    0    0  0.28392849226E+03 -0.94368966409E+02 -0.50746193610E+02  0.31677736988E+03  0.90839613410E+02 0.  0.
        254    2    1    2    0    0 -0.28392849226E+03  0.94368966409E+02  0.29492660956E+04  0.30976931794E+04  0.89889467719E+03 0.  0.
        -24    2    4    4    0    0  0.18697899765E+03 -0.27635614963E+03  0.10544167198E+04  0.11085805584E+04  0.76304445591E+02 0.  0.
         24    2    4    4    0    0 -0.47090748991E+03  0.37072511604E+03  0.18948493758E+04  0.19891126211E+04  0.83209894467E+02 0.  0.
         13    1    3    3    0    0  0.26137831275E+03 -0.76169032305E+02 -0.71080218437E+02  0.28137651166E+03  0.00000000000E+00 0.  1.
        -13    1    3    3    0    0  0.22550179503E+02 -0.18199934104E+02  0.20334024826E+02  0.35400858219E+02  0.00000000000E+00 0. -1.
          2    1    6    6  502    0 -0.14921939643E+03  0.70564398896E+02  0.50753612569E+03  0.53370280264E+03  0.00000000000E+00 0. -1.
          3    1    5    5  503    0  0.63166505915E+02 -0.64001655955E+02  0.19564934532E+03  0.21532506997E+03  0.00000000000E+00 0. -1.
         -4    1    5    5    0  503  0.12381249174E+03 -0.21235449367E+03  0.85876737446E+03  0.89325548839E+03  0.00000000000E+00 0.  1.
         -1    1    6    6    0  502 -0.32168809348E+03  0.30016071714E+03  0.13873132501E+04  0.14554098184E+04  0.00000000000E+00 0.  1.
<mgrwt>
<rscale>  0 0.18047691E+04</rscale>
<asrwt>0</asrwt>
<pdfrwt beam="1">  1        2 0.48561462E+00 0.18047691E+04</pdfrwt>
<pdfrwt beam="2">  1       -2 0.39688514E-01 0.18047691E+04</pdfrwt>
<totfact> 0.78831827E+00</totfact>
</mgrwt>
</event>
<event>
12    1  0.1489025E-007  0.1223857E+04  0.7818608E-02  0.9092227E-01
          2   -1    0    0  501    0  0.00000000000E+00  0.00000000000E+00  0.12204453557E+04  0.12204453557E+04  0.00000000000E+00 0.  1.
         -2   -1    0    0    0  501 -0.00000000000E+00 -0.00000000000E+00 -0.30681976939E+03  0.30681976939E+03  0.00000000000E+00 0. -1.
         23    2    1    2    0    0 -0.15731539206E+03  0.17794001531E+03  0.36245618244E+03  0.44257051360E+03  0.89907695408E+02 0.  0.
        254    2    1    2    0    0  0.15731539206E+03 -0.17794001531E+03  0.55116940382E+03  0.10846946114E+04  0.90352858657E+03 0.  0.
        -24    2    4    4    0    0  0.21721144238E+03 -0.46718677349E+02  0.77334845290E+03  0.80863647094E+03  0.80384494902E+02 0.  0.
         24    2    4    4    0    0 -0.59896050323E+02 -0.13122133796E+03 -0.22217904908E+03  0.27605814049E+03  0.77704508890E+02 0.  0.
         11    1    3    3    0    0 -0.13781292704E+03  0.13802909797E+03  0.34189893653E+03  0.39362331936E+03  0.00000000000E+00 0.  1.
        -11    1    3    3    0    0 -0.19502465015E+02  0.39910917338E+02  0.20557245914E+02  0.48947194241E+02  0.00000000000E+00 0. -1.
          2    1    6    6  502    0 -0.36960569895E+02 -0.87200086310E+01 -0.38406538752E+02  0.54010966445E+02  0.00000000000E+00 0. -1.
          3    1    5    5  503    0  0.60948702658E+02 -0.33279839181E+02  0.14161233388E+03  0.15772236734E+03  0.00000000000E+00 0. -1.
         -4    1    5    5    0  503  0.15626273972E+03 -0.13438838168E+02  0.63173611902E+03  0.65091410361E+03  0.00000000000E+00 0.  1.
         -1    1    6    6    0  502 -0.22935480428E+02 -0.12250132933E+03 -0.18377251033E+03  0.22204717405E+03  0.00000000000E+00 0.  1.
<mgrwt>
<rscale>  0 0.12238574E+04</rscale>
<asrwt>0</asrwt>
<pdfrwt beam="1">  1        2 0.18776082E+00 0.12238574E+04</pdfrwt>
<pdfrwt beam="2">  1       -2 0.47203042E-01 0.12238574E+04</pdfrwt>
<totfact> 0.77151099E+01</totfact>
</mgrwt>
</event>
<event>
12    1  0.1489025E-007  0.1642899E+04  0.7818608E-02  0.8794618E-01
         -1   -1    0    0    0  501 -0.00000000000E+00  0.00000000000E+00  0.17596192743E+04  0.17596192743E+04  0.00000000000E+00 0.  1.
          1   -1    0    0  501    0  0.00000000000E+00 -0.00000000000E+00 -0.38348026991E+03  0.38348026991E+03  0.00000000000E+00 0. -1.
         23    2    1    2    0    0  0.14419810695E+03  0.34243317986E+03 -0.75594286814E+02  0.39141271533E+03  0.97138256130E+02 0.  0.
        254    2    1    2    0    0 -0.14419810695E+03 -0.34243317986E+03  0.14517332912E+04  0.17516868289E+04  0.90709625783E+03 0.  0.
        -24    2    4    4    0    0  0.29831126050E+03  0.60230733087E+02  0.82259123613E+03  0.88034898154E+03  0.75766999342E+02 0.  0.
         24    2    4    4    0    0 -0.44250936745E+03 -0.40266391294E+03  0.62914205505E+03  0.87133784732E+03  0.73872536705E+02 0.  0.
         11    1    3    3    0    0  0.11532359401E+03  0.14879628537E+03 -0.38525838120E+02  0.19215646249E+03  0.00000000000E+00 0. -1.
        -11    1    3    3    0    0  0.28874512943E+02  0.19363689449E+03 -0.37068448693E+02  0.19925625283E+03  0.00000000000E+00 0.  1.
          2    1    6    6  502    0 -0.39798974717E+03 -0.36897136141E+03  0.59742527529E+03  0.80712617598E+03  0.00000000000E+00 0. -1.
          3    1    5    5  503    0  0.23944393611E+03  0.77416510395E+02  0.68285836805E+03  0.72775151352E+03  0.00000000000E+00 0. -1.
         -4    1    5    5    0  503  0.58867324386E+02 -0.17185777308E+02  0.13973286808E+03  0.15259746801E+03  0.00000000000E+00 0.  1.
         -1    1    6    6    0  502 -0.44519620280E+02 -0.33692551535E+02  0.31716779759E+02  0.64211671346E+02  0.00000000000E+00 0.  1.
<mgrwt>
<rscale>  0 0.16428990E+04</rscale>
<asrwt>0</asrwt>
<pdfrwt beam="1">  1        1 0.58996966E-01 0.16428990E+04</pdfrwt>
<pdfrwt beam="2">  1       -1 0.27071065E+00 0.16428990E+04</pdfrwt>
<totfact> 0.31047250E+00</totfact>
</mgrwt>
</event>
<event>
12    1  0.1489025E-007  0.1115178E+04  0.7818608E-02  0.9190523E-01
          1   -1    0    0  501    0  0.00000000000E+00  0.00000000000E+00  0.16931785278E+04  0.16931785278E+04  0.00000000000E+00 0. -1.
         -1   -1    0    0    0  501 -0.00000000000E+00 -0.00000000000E+00 -0.18362237046E+03  0.18362237046E+03  0.00000000000E+00 0.  1.
         23    2    1    2    0    0  0.88682982881E+02 -0.86022521896E+02  0.93320767217E+03  0.94566071699E+03  0.90183626800E+02 0.  0.
        254    2    1    2    0    0 -0.88682982881E+02  0.86022521896E+02  0.57634848515E+03  0.93114018124E+03  0.72081891974E+03 0.  0.
        -24    2    4    4    0    0  0.11172447687E+03  0.24987362037E+03  0.59491733996E+03  0.65969822219E+03  0.79724011958E+02 0.  0.
         24    2    4    4    0    0 -0.20040745975E+03 -0.16385109847E+03 -0.18568854817E+02  0.27144195905E+03  0.79533655569E+02 0.  0.
         13    1    3    3    0    0  0.19839502484E+02  0.92834121145E+01  0.49026565944E+02  0.53697223090E+02  0.00000000000E+00 0.  1.
        -13    1    3    3    0    0  0.68843480397E+02 -0.95305934010E+02  0.88418110623E+03  0.89196349390E+03  0.00000000000E+00 0. -1.
          4    1    6    6  502    0 -0.17184985985E+03 -0.99360987698E+02  0.57322575485E-02  0.19850687705E+03  0.00000000000E+00 0. -1.
          1    1    5    5  503    0  0.85534930000E+02  0.15308496434E+03  0.45449200661E+03  0.48714906818E+03  0.00000000000E+00 0. -1.
         -2    1    5    5    0  503  0.26189546866E+02  0.96788656034E+02  0.14042533335E+03  0.17254915401E+03  0.00000000000E+00 0.  1.
         -3    1    6    6    0  502 -0.28557599902E+02 -0.64490110777E+02 -0.18574587075E+02  0.72935081992E+02  0.00000000000E+00 0.  1.
<mgrwt>
<rscale>  0 0.11151779E+04</rscale>
<asrwt>0</asrwt>
<pdfrwt beam="1">  1        1 0.26048899E+00 0.11151779E+04</pdfrwt>
<pdfrwt beam="2">  1       -1 0.28249597E-01 0.11151779E+04</pdfrwt>
<totfact> 0.54397746E+01</totfact>
</mgrwt>
</event>
<event>
12    1  0.1489025E-007  0.1847859E+04  0.7818608E-02  0.8681255E-01
         -1   -1    0    0    0  501 -0.00000000000E+00  0.00000000000E+00  0.46543178323E+03  0.46543178323E+03  0.00000000000E+00 0.  1.
          1   -1    0    0  501    0  0.00000000000E+00 -0.00000000000E+00 -0.18340933452E+04  0.18340933452E+04  0.00000000000E+00 0. -1.
         23    2    1    2    0    0 -0.70368614861E+03 -0.38954500689E+02 -0.48905993207E+03  0.86267099963E+03  0.91268765588E+02 0.  0.
        254    2    1    2    0    0  0.70368614861E+03  0.38954500689E+02 -0.87960162992E+03  0.14368541288E+04  0.89115605326E+03 0.  0.
        -24    2    4    4    0    0  0.31759442402E+03  0.13593502114E+03  0.10658973423E+03  0.37034172409E+03  0.80293667313E+02 0.  0.
         24    2    4    4    0    0  0.38609172459E+03 -0.96980520455E+02 -0.98619136415E+03  0.10665124047E+04  0.80020382197E+02 0.  0.
         13    1    3    3    0    0 -0.62050595291E+03 -0.36189943622E+02 -0.46433225937E+03  0.77584908114E+03  0.00000000000E+00 0. -1.
        -13    1    3    3    0    0 -0.83180195704E+02 -0.27645570674E+01 -0.24727672703E+02  0.86821918491E+02  0.00000000000E+00 0.  1.
          4    1    6    6  502    0  0.36246977087E+03 -0.10544122493E+03 -0.95191678227E+03  0.10240350322E+04  0.00000000000E+00 0. -1.
          1    1    5    5  503    0  0.15743653477E+03  0.81209540684E+02  0.94207620157E+02  0.20063979584E+03  0.00000000000E+00 0. -1.
         -4    1    5    5    0  503  0.16015788926E+03  0.54725480460E+02  0.12382114076E+02  0.16970192825E+03  0.00000000000E+00 0.  1.
         -3    1    6    6    0  502  0.23621953721E+02  0.84607044723E+01 -0.34274581882E+02  0.42477372576E+02  0.00000000000E+00 0.  1.
<mgrwt>
<rscale>  0 0.18478586E+04</rscale>
<asrwt>0</asrwt>
<pdfrwt beam="1">  1        1 0.28216821E+00 0.18478586E+04</pdfrwt>
<pdfrwt beam="2">  1       -1 0.71604888E-01 0.18478586E+04</pdfrwt>
<totfact> 0.71462252E+00</totfact>
</mgrwt>
</event>
<event>
12    1  0.1489025E-007  0.1940229E+04  0.7818608E-02  0.8635087E-01
          1   -1    0    0  501    0  0.00000000000E+00  0.00000000000E+00  0.23086704503E+04  0.23086704503E+04  0.00000000000E+00 0. -1.
         -1   -1    0    0    0  501 -0.00000000000E+00 -0.00000000000E+00 -0.40764676617E+03  0.40764676617E+03  0.00000000000E+00 0.  1.
         23    2    1    2    0    0  0.28931965249E+02 -0.61895810551E+03  0.10377233530E+03  0.63480698225E+03  0.90912112282E+02 0.  0.
        254    2    1    2    0    0 -0.28931965249E+02  0.61895810551E+03  0.17972513489E+04  0.20815102343E+04  0.84771826058E+03 0.  0.
        -24    2    4    4    0    0 -0.24889616868E+03 -0.10926406877E+03  0.55000935915E+03  0.61845289939E+03  0.78011243441E+02 0.  0.
         24    2    4    4    0    0  0.21996420343E+03  0.72822217428E+03  0.12472419897E+04  0.14630573349E+04  0.78945539966E+02 0.  0.
         11    1    3    3    0    0  0.31997987417E+02 -0.54841072647E+03  0.62172587628E+02  0.55285045605E+03  0.00000000000E+00 0.  1.
        -11    1    3    3    0    0 -0.30660221681E+01 -0.70547379041E+02  0.41599747668E+02  0.81956526204E+02  0.00000000000E+00 0. -1.
          4    1    6    6  502    0  0.12454253062E+02  0.10443323089E+02  0.41620249834E+02  0.44681278101E+02  0.00000000000E+00 0. -1.
          1    1    5    5  503    0 -0.13853672379E+03 -0.73987906468E+02  0.39382324606E+03  0.42398512153E+03  0.00000000000E+00 0. -1.
         -2    1    5    5    0  503 -0.11035944489E+03 -0.35276162307E+02  0.15618611309E+03  0.19446777786E+03  0.00000000000E+00 0.  1.
         -3    1    6    6    0  502  0.20750995037E+03  0.71777885119E+03  0.12056217399E+04  0.14183760568E+04  0.00000000000E+00 0.  1.
<mgrwt>
<rscale>  0 0.19402289E+04</rscale>
<asrwt>0</asrwt>
<pdfrwt beam="1">  1        1 0.35518006E+00 0.19402289E+04</pdfrwt>
<pdfrwt beam="2">  1       -1 0.62714889E-01 0.19402289E+04</pdfrwt>
<totfact> 0.44155978E+00</totfact>
</mgrwt>
</event>
<event>
12    1  0.1489025E-007  0.1355052E+04  0.7818608E-02  0.8987012E-01
          2   -1    0    0  501    0  0.00000000000E+00  0.00000000000E+00  0.17652832213E+04  0.17652832213E+04  0.00000000000E+00 0. -1.
         -2   -1    0    0    0  501 -0.00000000000E+00 -0.00000000000E+00 -0.26003860223E+03  0.26003860223E+03  0.00000000000E+00 0.  1.
         23    2    1    2    0    0 -0.19541543892E+03  0.12571024584E+02  0.88256823188E+03  0.90854173642E+03  0.90422223256E+02 0.  0.
        254    2    1    2    0    0  0.19541543892E+03 -0.12571024584E+02  0.62267638718E+03  0.11167800871E+04  0.90616039164E+03 0.  0.
        -24    2    4    4    0    0  0.27118410413E+03  0.40566423110E+03  0.34513234185E+03  0.60292463077E+03  0.79356727925E+02 0.  0.
         24    2    4    4    0    0 -0.75768665209E+02 -0.41823525569E+03  0.27754404533E+03  0.51385545634E+03  0.79718963759E+02 0.  0.
         11    1    3    3    0    0 -0.16918212183E+03 -0.23582432242E+02  0.71508245840E+03  0.73520177079E+03  0.00000000000E+00 0. -1.
        -11    1    3    3    0    0 -0.26233317092E+02  0.36153456826E+02  0.16748577348E+03  0.17333996563E+03  0.00000000000E+00 0.  1.
          4    1    6    6  502    0 -0.87190171854E+02 -0.35928079273E+03  0.25751031631E+03  0.45055119254E+03  0.00000000000E+00 0. -1.
          1    1    5    5  503    0  0.18717813728E+03  0.22741174467E+03  0.17511552735E+03  0.34266193924E+03  0.00000000000E+00 0. -1.
         -2    1    5    5    0  503  0.84005966856E+02  0.17825248644E+03  0.17001681450E+03  0.26026269152E+03  0.00000000000E+00 0.  1.
         -3    1    6    6    0  502  0.11421506645E+02 -0.58954462962E+02  0.20033729022E+02  0.63304263803E+02  0.00000000000E+00 0.  1.
<mgrwt>
<rscale>  0 0.13550524E+04</rscale>
<asrwt>0</asrwt>
<pdfrwt beam="1">  1        2 0.27158203E+00 0.13550524E+04</pdfrwt>
<pdfrwt beam="2">  1       -2 0.40005940E-01 0.13550524E+04</pdfrwt>
<totfact> 0.52075968E+01</totfact>
</mgrwt>
</event>
<event>
12    1  0.1489025E-007  0.2025450E+04  0.7818608E-02  0.8594814E-01
         -2   -1    0    0    0  501 -0.00000000000E+00  0.00000000000E+00  0.33653916693E+03  0.33653916693E+03  0.00000000000E+00 0.  1.
          2   -1    0    0  501    0  0.00000000000E+00 -0.00000000000E+00 -0.30475250571E+04  0.30475250571E+04  0.00000000000E+00 0. -1.
         23    2    1    2    0    0 -0.76771247502E+02  0.80754659965E+03 -0.10463313291E+04  0.13270333493E+04  0.90459520527E+02 0.  0.
        254    2    1    2    0    0  0.76771247502E+02 -0.80754659965E+03 -0.16646545611E+04  0.20570308747E+04  0.89569854132E+03 0.  0.
        -24    2    4    4    0    0  0.42722203223E+02 -0.23707830447E+03 -0.13987969078E+04  0.14215674003E+04  0.78675124154E+02 0.  0.
         24    2    4    4    0    0  0.34049044279E+02 -0.57046829518E+03 -0.26585765324E+03  0.63546347444E+03  0.80871022891E+02 0.  0.
         13    1    3    3    0    0 -0.50470540782E+02  0.57198852298E+03 -0.80464049266E+03  0.98851629644E+03  0.00000000000E+00 0. -1.
        -13    1    3    3    0    0 -0.26300706720E+02  0.23555807667E+03 -0.24169083648E+03  0.33851705289E+03  0.00000000000E+00 0.  1.
          4    1    6    6  502    0 -0.20963740045E+02 -0.13087581489E+03 -0.41620774781E+02  0.13892532603E+03  0.00000000000E+00 0. -1.
          1    1    5    5  503    0  0.56805172973E+02 -0.16858818256E+03 -0.11251944764E+04  0.11391713711E+04  0.00000000000E+00 0. -1.
         -2    1    5    5    0  503 -0.14082969750E+02 -0.68490121912E+02 -0.27360243141E+03  0.28239602921E+03  0.00000000000E+00 0.  1.
         -3    1    6    6    0  502  0.55012784324E+02 -0.43959248029E+03 -0.22423687846E+03  0.49653814841E+03  0.00000000000E+00 0.  1.
<mgrwt>
<rscale>  0 0.20254496E+04</rscale>
<asrwt>0</asrwt>
<pdfrwt beam="1">  1        2 0.46885000E+00 0.20254496E+04</pdfrwt>
<pdfrwt beam="2">  1       -2 0.51775257E-01 0.20254496E+04</pdfrwt>
<totfact> 0.53213973E+00</totfact>
</mgrwt>
</event>
<event>
12    1  0.1489025E-007  0.1568493E+04  0.7818608E-02  0.8840141E-01
          2   -1    0    0  501    0  0.00000000000E+00  0.00000000000E+00  0.16426067586E+04  0.16426067586E+04  0.00000000000E+00 0. -1.
         -2   -1    0    0    0  501 -0.00000000000E+00 -0.00000000000E+00 -0.37443103796E+03  0.37443103796E+03  0.00000000000E+00 0.  1.
         23    2    1    2    0    0 -0.97204829543E+02  0.11510157119E+03  0.10661810716E+04  0.10806364522E+04  0.91301224832E+02 0.  0.
        254    2    1    2    0    0  0.97204829543E+02 -0.11510157119E+03  0.20199464897E+03  0.93640134436E+03  0.90185835303E+03 0.  0.
        -24    2    4    4    0    0  0.17007613898E+03  0.64244045223E+02 -0.31836269583E+03  0.37562927250E+03  0.81788470244E+02 0.  0.
         24    2    4    4    0    0 -0.72871309438E+02 -0.17934561641E+03  0.52035734480E+03  0.56077207186E+03  0.78857291560E+02 0.  0.
         13    1    3    3    0    0 -0.11145618649E+03  0.11722033411E+03  0.97697093583E+03  0.99027031546E+03  0.00000000000E+00 0. -1.
        -13    1    3    3    0    0  0.14251356950E+02 -0.21187629258E+01  0.89210135809E+02  0.90366136701E+02  0.00000000000E+00 0.  1.
          4    1    6    6  502    0 -0.56540595419E+02 -0.18334509165E+03  0.48658106374E+03  0.52304243915E+03  0.00000000000E+00 0. -1.
          3    1    5    5  503    0  0.15757714050E+03  0.61027407664E+02 -0.22505499932E+03  0.28143321128E+03  0.00000000000E+00 0. -1.
         -4    1    5    5    0  503  0.12498998476E+02  0.32166375587E+01 -0.93307696508E+02  0.94196061212E+02  0.00000000000E+00 0.  1.
         -3    1    6    6    0  502 -0.16330714019E+02  0.39994752385E+01  0.33776281052E+02  0.37729632707E+02  0.00000000000E+00 0.  1.
<mgrwt>
<rscale>  0 0.15684935E+04</rscale>
<asrwt>0</asrwt>
<pdfrwt beam="1">  1        2 0.25270873E+00 0.15684935E+04</pdfrwt>
<pdfrwt beam="2">  1       -2 0.57604776E-01 0.15684935E+04</pdfrwt>
<totfact> 0.28634574E+01</totfact>
</mgrwt>
</event>
<event>
12    1  0.1489025E-007  0.1484284E+04  0.7818608E-02  0.8894971E-01
          1   -1    0    0  501    0  0.00000000000E+00  0.00000000000E+00  0.36742035090E+03  0.36742035090E+03  0.00000000000E+00 0. -1.
         -1   -1    0    0    0  501 -0.00000000000E+00 -0.00000000000E+00 -0.14990322849E+04  0.14990322849E+04  0.00000000000E+00 0.  1.
         23    2    1    2    0    0 -0.29618451436E+03  0.24380557172E+03 -0.72874888148E+03  0.82867728699E+03  0.92003751909E+02 0.  0.
        254    2    1    2    0    0  0.29618451436E+03 -0.24380557172E+03 -0.40286305256E+03  0.10377753489E+04  0.87607797154E+03 0.  0.
        -24    2    4    4    0    0 -0.18388789308E+03 -0.35802782539E+03 -0.25927030115E+02  0.41156451732E+03  0.81941808912E+02 0.  0.
         24    2    4    4    0    0  0.48007240745E+03  0.11422225367E+03 -0.37693602244E+03  0.62621083154E+03  0.80888818112E+02 0.  0.
         13    1    3    3    0    0 -0.32391889579E+02  0.47763172375E+02 -0.58455901794E+02  0.82144066130E+02  0.00000000000E+00 0.  1.
        -13    1    3    3    0    0 -0.26379262479E+03  0.19604239934E+03 -0.67029297969E+03  0.74653322086E+03  0.00000000000E+00 0. -1.
          2    1    6    6  502    0  0.13031370402E+02  0.18973002741E+02 -0.12444261015E+02  0.26165838029E+02  0.00000000000E+00 0. -1.
          1    1    5    5  503    0 -0.33156959237E+02 -0.66730441913E+02 -0.37412319392E+02  0.83378759082E+02  0.00000000000E+00 0. -1.
         -2    1    5    5    0  503 -0.15073093385E+03 -0.29129738347E+03  0.11485289277E+02  0.32818575823E+03  0.00000000000E+00 0.  1.
         -1    1    6    6    0  502  0.46704103705E+03  0.95249250929E+02 -0.36449176143E+03  0.60004499351E+03  0.00000000000E+00 0.  1.
<mgrwt>
<rscale>  0 0.14842843E+04</rscale>
<asrwt>0</asrwt>
<pdfrwt beam="1">  1        1 0.56526207E-01 0.14842843E+04</pdfrwt>
<pdfrwt beam="2">  1       -1 0.23062035E+00 0.14842843E+04</pdfrwt>
<totfact> 0.60842520E+00</totfact>
</mgrwt>
</event>
<event>
12    1  0.1489025E-007  0.1282612E+04  0.7818608E-02  0.9043469E-01
         -2   -1    0    0    0  501 -0.00000000000E+00  0.00000000000E+00  0.18230640282E+03  0.18230640282E+03  0.00000000000E+00 0.  1.
          2   -1    0    0  501    0  0.00000000000E+00 -0.00000000000E+00 -0.22559454120E+04  0.22559454120E+04  0.00000000000E+00 0. -1.
         23    2    1    2    0    0  0.19389264086E+03  0.23466723312E+03 -0.67691330032E+03  0.74782896658E+03  0.91506724452E+02 0.  0.
        254    2    1    2    0    0 -0.19389264086E+03 -0.23466723312E+03 -0.13967257088E+04  0.16904228482E+04  0.90223258287E+03 0.  0.
        -24    2    4    4    0    0  0.61508739813E+02 -0.18827353311E+03 -0.14021858003E+04  0.14183232644E+04  0.79281874723E+02 0.  0.
         24    2    4    4    0    0 -0.25540138067E+03 -0.46393700019E+02  0.54600914363E+01  0.27209958377E+03  0.81401045699E+02 0.  0.
         13    1    3    3    0    0  0.18574596066E+02  0.71211597171E+02 -0.11025900972E+03  0.13256378244E+03  0.00000000000E+00 0.  1.
        -13    1    3    3    0    0  0.17531804479E+03  0.16345563595E+03 -0.56665429060E+03  0.61526518413E+03  0.00000000000E+00 0. -1.
          4    1    6    6  502    0 -0.98344114569E+02  0.21809685366E+02 -0.12490448131E+01  0.10074118998E+03  0.00000000000E+00 0. -1.
          1    1    5    5  503    0  0.53097330277E+02 -0.18740113314E+03 -0.11792888471E+04  0.11952659520E+04  0.00000000000E+00 0. -1.
         -2    1    5    5    0  503  0.84114095361E+01 -0.87239996703E+00 -0.22289695319E+03  0.22305731244E+03  0.00000000000E+00 0.  1.
         -3    1    6    6    0  502 -0.15705726610E+03 -0.68203385385E+02  0.67091362493E+01  0.17135839379E+03  0.00000000000E+00 0.  1.
<mgrwt>
<rscale>  0 0.12826119E+04</rscale>
<asrwt>0</asrwt>
<pdfrwt beam="1">  1        2 0.34706856E+00 0.12826119E+04</pdfrwt>
<pdfrwt beam="2">  1       -2 0.28047136E-01 0.12826119E+04</pdfrwt>
<totfact> 0.54906351E+01</totfact>
</mgrwt>
</event>
<event>
12    1  0.1489025E-007  0.1432660E+04  0.7818608E-02  0.8930511E-01
          2   -1    0    0  501    0  0.00000000000E+00  0.00000000000E+00  0.17153017754E+04  0.17153017754E+04  0.00000000000E+00 0. -1.
         -2   -1    0    0    0  501 -0.00000000000E+00 -0.00000000000E+00 -0.29914779320E+03  0.29914779320E+03  0.00000000000E+00 0.  1.
         23    2    1    2    0    0  0.98047929771E+02 -0.19353525306E+03 -0.84666552843E+02  0.25021621883E+03  0.91490110307E+02 0.  0.
        254    2    1    2    0    0 -0.98047929771E+02  0.19353525306E+03  0.15008205351E+04  0.17642333498E+04  0.90165832961E+03 0.  0.
        -24    2    4    4    0    0  0.25555983546E+02 -0.24819366127E+03  0.11551312706E+04  0.11844731301E+04  0.79969629947E+02 0.  0.
         24    2    4    4    0    0 -0.12360391332E+03  0.44172891433E+03  0.34568926444E+03  0.57976021972E+03  0.78857362871E+02 0.  0.
         11    1    3    3    0    0  0.97930484069E+02 -0.20321242004E+03 -0.83174868588E+02  0.24042405481E+03  0.00000000000E+00 0.  1.
        -11    1    3    3    0    0  0.11744570245E+00  0.96771669765E+01 -0.14916842547E+01  0.97921640152E+01  0.00000000000E+00 0. -1.
          4    1    6    6  502    0 -0.98425112197E+02  0.41936124271E+03  0.32984931687E+03  0.54254209647E+03  0.00000000000E+00 0. -1.
          3    1    5    5  503    0 -0.37539778846E+01 -0.22283714580E+03  0.10056169548E+04  0.10300174492E+04  0.00000000000E+00 0. -1.
         -4    1    5    5    0  503  0.29309961430E+02 -0.25356515473E+02  0.14951431583E+03  0.15445568088E+03  0.00000000000E+00 0.  1.
         -3    1    6    6    0  502 -0.25178801120E+02  0.22367671620E+02  0.15839947568E+02  0.37218123254E+02  0.00000000000E+00 0.  1.
<mgrwt>
<rscale>  0 0.14326601E+04</rscale>
<asrwt>0</asrwt>
<pdfrwt beam="1">  1        2 0.26389257E+00 0.14326601E+04</pdfrwt>
<pdfrwt beam="2">  1       -2 0.46022739E-01 0.14326601E+04</pdfrwt>
<totfact> 0.41796924E+01</totfact>
</mgrwt>
</event>
<event>
12    1  0.1489025E-007  0.1628361E+04  0.7818608E-02  0.8803312E-01
          2   -1    0    0  501    0  0.00000000000E+00  0.00000000000E+00  0.17974782929E+04  0.17974782929E+04  0.00000000000E+00 0. -1.
         -2   -1    0    0    0  501 -0.00000000000E+00 -0.00000000000E+00 -0.36878869240E+03  0.36878869240E+03  0.00000000000E+00 0.  1.
         23    2    1    2    0    0 -0.26024780995E+03 -0.33756034640E+03  0.12715010820E+02  0.43565967599E+03  0.89228760743E+02 0.  0.
        254    2    1    2    0    0  0.26024780995E+03  0.33756034640E+03  0.14159745897E+04  0.17306073093E+04  0.89907825598E+03 0.  0.
        -24    2    4    4    0    0 -0.26544511934E+03  0.36968055079E+03  0.68725112840E+03  0.82803455238E+03  0.78754589891E+02 0.  0.
         24    2    4    4    0    0  0.52569292929E+03 -0.32120204396E+02  0.72872346132E+03  0.90257275697E+03  0.78834859690E+02 0.  0.
         11    1    3    3    0    0 -0.50204215786E+02 -0.39891861023E+02 -0.26207163210E+02  0.69272211327E+02  0.00000000000E+00 0.  1.
        -11    1    3    3    0    0 -0.21004359416E+03 -0.29766848537E+03  0.38922174031E+02  0.36638746467E+03  0.00000000000E+00 0. -1.
          2    1    6    6  502    0  0.29613347425E+03 -0.55790731997E+02  0.39481908531E+03  0.49667871957E+03  0.00000000000E+00 0. -1.
          1    1    5    5  503    0 -0.93989023018E+00  0.19426367041E+02  0.55272422380E+02  0.58594434939E+02  0.00000000000E+00 0. -1.
         -2    1    5    5    0  503 -0.26450522911E+03  0.35025418375E+03  0.63197870602E+03  0.76944011744E+03  0.00000000000E+00 0.  1.
         -1    1    6    6    0  502  0.22955945504E+03  0.23670527600E+02  0.33390437601E+03  0.40589403739E+03  0.00000000000E+00 0.  1.
<mgrwt>
<rscale>  0 0.16283607E+04</rscale>
<asrwt>0</asrwt>
<pdfrwt beam="1">  1        2 0.27653512E+00 0.16283607E+04</pdfrwt>
<pdfrwt beam="2">  1       -2 0.56736723E-01 0.16283607E+04</pdfrwt>
<totfact> 0.24131764E+01</totfact>
</mgrwt>
</event>
<event>
12    1  0.1489025E-007  0.2722747E+04  0.7818608E-02  0.8327662E-01
          2   -1    0    0  501    0  0.00000000000E+00  0.00000000000E+00  0.24430500982E+04  0.24430500982E+04  0.00000000000E+00 0. -1.
         -2   -1    0    0    0  501 -0.00000000000E+00 -0.00000000000E+00 -0.75861631902E+03  0.75861631902E+03  0.00000000000E+00 0.  1.
         23    2    1    2    0    0  0.11136499860E+04 -0.42453024290E+03  0.99432463463E+03  0.15550846888E+04  0.95732397461E+02 0.  0.
        254    2    1    2    0    0 -0.11136499860E+04  0.42453024290E+03  0.69010914453E+03  0.16465817284E+04  0.90251788812E+03 0.  0.
        -24    2    4    4    0    0 -0.80558375240E+03  0.57234326566E+02  0.11228058620E+02  0.81171965787E+03  0.80757559436E+02 0.  0.
         24    2    4    4    0    0 -0.30806623361E+03  0.36729591633E+03  0.67888108592E+03  0.83486207050E+03  0.79398069932E+02 0.  0.
         13    1    3    3    0    0  0.69029196090E+03 -0.24394708283E+03  0.66585061429E+03  0.98963135109E+03  0.00000000000E+00 0.  1.
        -13    1    3    3    0    0  0.42335802511E+03 -0.18058316007E+03  0.32847402034E+03  0.56545333774E+03  0.00000000000E+00 0. -1.
          2    1    6    6  502    0 -0.29172799948E+03  0.32363360281E+03  0.57891091496E+03  0.72455626559E+03  0.00000000000E+00 0. -1.
          1    1    5    5  503    0 -0.68020321194E+03  0.31738465822E+02  0.33870242463E+02  0.68178510769E+03  0.00000000000E+00 0. -1.
         -2    1    5    5    0  503 -0.12538054046E+03  0.25495860744E+02 -0.22642183843E+02  0.12993455018E+03  0.00000000000E+00 0.  1.
         -1    1    6    6    0  502 -0.16338234129E+02  0.43662313518E+02  0.99970170954E+02  0.11030580491E+03  0.00000000000E+00 0.  1.
<mgrwt>
<rscale>  0 0.27227469E+04</rscale>
<asrwt>0</asrwt>
<pdfrwt beam="1">  1        2 0.37585386E+00 0.27227469E+04</pdfrwt>
<pdfrwt beam="2">  1       -2 0.11671020E+00 0.27227469E+04</pdfrwt>
<totfact> 0.18698090E+00</totfact>
</mgrwt>
</event>
<event>
12    1  0.1489025E-007  0.1354767E+04  0.7818608E-02  0.8987227E-01
         -1   -1    0    0    0  501 -0.00000000000E+00  0.00000000000E+00  0.48171614355E+03  0.48171614355E+03  0.00000000000E+00 0.  1.
          1   -1    0    0  501    0  0.00000000000E+00 -0.00000000000E+00 -0.95252871626E+03  0.95252871626E+03  0.00000000000E+00 0. -1.
         23    2    1    2    0    0  0.10353449604E+03  0.64170861691E+02  0.23701893498E+03  0.28137327347E+03  0.90308649220E+02 0.  0.
        254    2    1    2    0    0 -0.10353449604E+03 -0.64170861691E+02 -0.70783150769E+03  0.11528715863E+04  0.90180383673E+03 0.  0.
        -24    2    4    4    0    0 -0.37375373563E+03 -0.21268084098E+03 -0.74073299545E+02  0.44357308189E+03  0.79656953556E+02 0.  0.
         24    2    4    4    0    0  0.27021923960E+03  0.14850997929E+03 -0.63375820815E+03  0.70929850445E+03  0.79882730491E+02 0.  0.
         11    1    3    3    0    0  0.75228428914E+02  0.13321576583E+02  0.19546121869E+03  0.20986154705E+03  0.00000000000E+00 0.  1.
        -11    1    3    3    0    0  0.28306067122E+02  0.50849285108E+02  0.41557716293E+02  0.71511726419E+02  0.00000000000E+00 0. -1.
          4    1    6    6  502    0  0.88244009676E+02  0.24170994728E+02 -0.25712162374E+03  0.27291531951E+03  0.00000000000E+00 0. -1.
          1    1    5    5  503    0 -0.34546170542E+03 -0.16826556599E+03 -0.58740238634E+02  0.38872548957E+03  0.00000000000E+00 0. -1.
         -2    1    5    5    0  503 -0.28292030218E+02 -0.44415274986E+02 -0.15333060911E+02  0.54847592316E+02  0.00000000000E+00 0.  1.
         -3    1    6    6    0  502  0.18197522992E+03  0.12433898456E+03 -0.37663658441E+03  0.43638318494E+03  0.00000000000E+00 0.  1.
<mgrwt>
<rscale>  0 0.13547671E+04</rscale>
<asrwt>0</asrwt>
<pdfrwt beam="1">  1        1 0.14654288E+00 0.13547671E+04</pdfrwt>
<pdfrwt beam="2">  1       -1 0.74110176E-01 0.13547671E+04</pdfrwt>
<totfact> 0.29598009E+01</totfact>
</mgrwt>
</event>
<event>
12    1  0.1489025E-007  0.1702108E+04  0.7818608E-02  0.8760163E-01
         -1   -1    0    0    0  501 -0.00000000000E+00  0.00000000000E+00  0.10257613223E+04  0.10257613223E+04  0.00000000000E+00 0.  1.
          1   -1    0    0  501    0  0.00000000000E+00 -0.00000000000E+00 -0.70610317732E+03  0.70610317732E+03  0.00000000000E+00 0. -1.
         23    2    1    2    0    0  0.21880231616E+03  0.56187006794E+03  0.16521147157E+03  0.63277095052E+03  0.97631033408E+02 0.  0.
        254    2    1    2    0    0 -0.21880231616E+03 -0.56187006794E+03  0.15444667341E+03  0.10990935491E+04  0.90585894482E+03 0.  0.
        -24    2    4    4    0    0  0.21567420120E+03 -0.59663472237E+03  0.37628971389E+02  0.64110063664E+03  0.84295514774E+02 0.  0.
         24    2    4    4    0    0 -0.43447651736E+03  0.34764654434E+02  0.11681770202E+03  0.45799291244E+03  0.78311602007E+02 0.  0.
         11    1    3    3    0    0  0.23037373352E+02  0.12786160849E+02  0.16761858479E+02  0.31227654089E+02  0.00000000000E+00 0. -1.
        -11    1    3    3    0    0  0.19576494281E+03  0.54908390709E+03  0.14844961309E+03  0.60154329643E+03  0.00000000000E+00 0.  1.
          4    1    6    6  502    0 -0.16984240460E+03 -0.22799362519E+02  0.57452049580E+02  0.18074012098E+03  0.00000000000E+00 0. -1.
          3    1    5    5  503    0  0.10814016029E+03 -0.21320968836E+03 -0.14387574058E+02  0.23949878447E+03  0.00000000000E+00 0. -1.
         -4    1    5    5    0  503  0.10753404090E+03 -0.38342503402E+03  0.52016545447E+02  0.40160185217E+03  0.00000000000E+00 0.  1.
         -3    1    6    6    0  502 -0.26463411276E+03  0.57564016953E+02  0.59365652436E+02  0.27725279146E+03  0.00000000000E+00 0.  1.
<mgrwt>
<rscale>  0 0.17021085E+04</rscale>
<asrwt>0</asrwt>
<pdfrwt beam="1">  1        1 0.10863126E+00 0.17021085E+04</pdfrwt>
<pdfrwt beam="2">  1       -1 0.15780943E+00 0.17021085E+04</pdfrwt>
<totfact> 0.77682685E+00</totfact>
</mgrwt>
</event>
<event>
12    1  0.1839812E-007  0.1330017E+04  0.7818608E-02  0.9006094E-01
         -1   -1    0    0    0  501 -0.00000000000E+00  0.00000000000E+00  0.75498990964E+03  0.75498990964E+03  0.00000000000E+00 0.  1.
          1   -1    0    0  501    0  0.00000000000E+00 -0.00000000000E+00 -0.58575169352E+03  0.58575169352E+03  0.00000000000E+00 0. -1.
         23    2    1    2    0    0  0.74781565202E+02  0.22446242574E+03  0.30921943881E+03  0.39937578087E+03  0.88930815470E+02 0.  0.
        254    2    1    2    0    0 -0.74781565202E+02 -0.22446242574E+03 -0.13998122269E+03  0.94136582229E+03  0.90033283046E+03 0.  0.
        -24    2    4    4    0    0 -0.98360631681E+00  0.30652907989E+03 -0.23066514192E+03  0.39200318439E+03  0.80616651973E+02 0.  0.
         24    2    4    4    0    0 -0.73797958885E+02 -0.53099150563E+03  0.90683919232E+02  0.54936263789E+03  0.78597817526E+02 0.  0.
         11    1    3    3    0    0  0.21254901968E+02 -0.35160625610E+00  0.32691137134E+02  0.38994934693E+02  0.00000000000E+00 0. -1.
        -11    1    3    3    0    0  0.53526663234E+02  0.22481403200E+03  0.27652830168E+03  0.36038084617E+03  0.00000000000E+00 0.  1.
          2    1    6    6  502    0 -0.87169846665E+02 -0.50469102507E+03  0.82706648120E+02  0.51879861468E+03  0.00000000000E+00 0. -1.
          3    1    5    5  503    0  0.35065305147E+01  0.31073439230E+03 -0.22709959168E+03  0.38489269005E+03  0.00000000000E+00 0. -1.
         -4    1    5    5    0  503 -0.44901368315E+01 -0.42053124096E+01 -0.35655502448E+01  0.71104943412E+01  0.00000000000E+00 0.  1.
         -1    1    6    6    0  502  0.13371887779E+02 -0.26300480561E+02  0.79772711111E+01  0.30564023212E+02  0.00000000000E+00 0.  1.
<mgrwt>
<rscale>  0 0.13300175E+04</rscale>
<asrwt>0</asrwt>
<pdfrwt beam="1">  1        1 0.90115645E-01 0.13300175E+04</pdfrwt>
<pdfrwt beam="2">  1       -1 0.11615229E+00 0.13300175E+04</pdfrwt>
<totfact> 0.23302921E+01</totfact>
</mgrwt>
</event>
<event>
12    1  0.1489025E-007  0.1099977E+04  0.7818608E-02  0.9205214E-01
         -3   -1    0    0    0  501 -0.00000000000E+00  0.00000000000E+00  0.53053282410E+03  0.53053282410E+03  0.00000000000E+00 0. -1.
          3   -1    0    0  501    0  0.00000000000E+00 -0.00000000000E+00 -0.57015760156E+03  0.57015760156E+03  0.00000000000E+00 0.  1.
         23    2    1    2    0    0 -0.27506845222E+02  0.14853847184E+03 -0.47905752145E+02  0.18224440455E+03  0.89987542187E+02 0.  0.
        254    2    1    2    0    0  0.27506845222E+02 -0.14853847184E+03  0.82809746921E+01  0.91844602111E+03  0.90589967160E+03 0.  0.
        -24    2    4    4    0    0  0.41341450582E+03  0.12122850863E+03  0.38172879977E+02  0.44003148026E+03  0.81010060659E+02 0.  0.
         24    2    4    4    0    0 -0.38590766060E+03 -0.26976698047E+03 -0.29891905285E+02  0.47841454085E+03  0.79296914419E+02 0.  0.
         11    1    3    3    0    0 -0.19787712163E+02  0.84812069108E+01 -0.35381455709E+02  0.41416564698E+02  0.00000000000E+00 0.  1.
        -11    1    3    3    0    0 -0.77191330589E+01  0.14005726493E+03 -0.12524296436E+02  0.14082783985E+03  0.00000000000E+00 0. -1.
          2    1    6    6  502    0 -0.13496912206E+03 -0.12954080353E+03  0.14102665459E+02  0.18760695313E+03  0.00000000000E+00 0. -1.
          3    1    5    5  503    0  0.32340469725E+02  0.13435486815E+02  0.26354509710E+02  0.43828968389E+02  0.00000000000E+00 0. -1.
         -4    1    5    5    0  503  0.38107403610E+03  0.10779302181E+03  0.11818370266E+02  0.39620251187E+03  0.00000000000E+00 0.  1.
         -1    1    6    6    0  502 -0.25093853854E+03 -0.14022617694E+03 -0.43994570743E+02  0.29080758772E+03  0.00000000000E+00 0.  1.
<mgrwt>
<rscale>  0 0.10999769E+04</rscale>
<asrwt>0</asrwt>
<pdfrwt beam="1">  1        3 0.87716555E-01 0.10999769E+04</pdfrwt>
<pdfrwt beam="2">  1       -3 0.81620434E-01 0.10999769E+04</pdfrwt>
<totfact> 0.42809052E+00</totfact>
</mgrwt>
</event>
<event>
12    1  0.1489025E-007  0.2110778E+04  0.7818608E-02  0.8556510E-01
         -2   -1    0    0    0  501 -0.00000000000E+00  0.00000000000E+00  0.17068932370E+04  0.17068932370E+04  0.00000000000E+00 0.  1.
          2   -1    0    0  501    0  0.00000000000E+00 -0.00000000000E+00 -0.65255734186E+03  0.65255734186E+03  0.00000000000E+00 0. -1.
         23    2    1    2    0    0  0.46378857248E+03 -0.54429064310E+03  0.10094654712E+04  0.12405772086E+04  0.93054439245E+02 0.  0.
        254    2    1    2    0    0 -0.46378857248E+03  0.54429064310E+03  0.44870423916E+02  0.11188733703E+04  0.85936727870E+03 0.  0.
        -24    2    4    4    0    0 -0.20897622998E+03  0.43945353855E+03 -0.36851647870E+03  0.61567179156E+03  0.80354729841E+02 0.  0.
         24    2    4    4    0    0 -0.25481234249E+03  0.10483710456E+03  0.41338690262E+03  0.50320157874E+03  0.80018430476E+02 0.  0.
         13    1    3    3    0    0  0.30975359996E+03 -0.40841490072E+03  0.77101886915E+03  0.92586182576E+03  0.00000000000E+00 0.  1.
        -13    1    3    3    0    0  0.15403497252E+03 -0.13587574239E+03  0.23844660209E+03  0.31471538281E+03  0.00000000000E+00 0. -1.
          2    1    6    6  502    0 -0.47475825914E+02  0.56909225409E+02  0.10793406596E+03  0.13092889894E+03  0.00000000000E+00 0. -1.
          3    1    5    5  503    0 -0.25230150041E+01  0.34098721840E+02 -0.77005758368E+01  0.35048356653E+02  0.00000000000E+00 0. -1.
         -4    1    5    5    0  503 -0.20645321498E+03  0.40535481671E+03 -0.36081590286E+03  0.58062343491E+03  0.00000000000E+00 0.  1.
         -1    1    6    6    0  502 -0.20733651658E+03  0.47927879149E+02  0.30545283665E+03  0.37227267980E+03  0.00000000000E+00 0.  1.
<mgrwt>
<rscale>  0 0.21107778E+04</rscale>
<asrwt>0</asrwt>
<pdfrwt beam="1">  1        2 0.10039344E+00 0.21107778E+04</pdfrwt>
<pdfrwt beam="2">  1       -2 0.26259896E+00 0.21107778E+04</pdfrwt>
<totfact> 0.22158719E+00</totfact>
</mgrwt>
</event>
<event>
12    1  0.1489025E-007  0.1517333E+04  0.7818608E-02  0.8873008E-01
          1   -1    0    0  501    0  0.00000000000E+00  0.00000000000E+00  0.22245327934E+04  0.22245327934E+04  0.00000000000E+00 0. -1.
         -1   -1    0    0    0  501 -0.00000000000E+00 -0.00000000000E+00 -0.25873972105E+03  0.25873972105E+03  0.00000000000E+00 0.  1.
         23    2    1    2    0    0 -0.53483716213E+02 -0.29791589779E+03  0.12075650699E+04  0.12481099440E+04  0.89166385383E+02 0.  0.
        254    2    1    2    0    0  0.53483716213E+02  0.29791589779E+03  0.75822800241E+03  0.12351625704E+04  0.92687781372E+03 0.  0.
        -24    2    4    4    0    0  0.98816868081E+02  0.40613151187E+03  0.92367601103E+03  0.10169214552E+04  0.79020847400E+02 0.  0.
         24    2    4    4    0    0 -0.45333151868E+02 -0.10821561409E+03 -0.16544800862E+03  0.21824111519E+03  0.80563186457E+02 0.  0.
         13    1    3    3    0    0  0.98264348700E+01 -0.10697596060E+03  0.30398776284E+03  0.32241118921E+03  0.00000000000E+00 0.  1.
        -13    1    3    3    0    0 -0.63310151083E+02 -0.19093993718E+03  0.90357730706E+03  0.92569875482E+03  0.00000000000E+00 0. -1.
          4    1    6    6  502    0  0.30192560600E+01  0.59809399702E+01  0.43432276809E+01  0.79844334033E+01  0.00000000000E+00 0. -1.
          1    1    5    5  503    0  0.23652988481E+02  0.13672402687E+03  0.39757493095E+03  0.42109232848E+03  0.00000000000E+00 0. -1.
         -2    1    5    5    0  503  0.75163879601E+02  0.26940748501E+03  0.52610108007E+03  0.59582912671E+03  0.00000000000E+00 0.  1.
         -3    1    6    6    0  502 -0.48352407928E+02 -0.11419655406E+03 -0.16979123630E+03  0.21025668179E+03  0.00000000000E+00 0.  1.
<mgrwt>
<rscale>  0 0.15173332E+04</rscale>
<asrwt>0</asrwt>
<pdfrwt beam="1">  1        1 0.34223580E+00 0.15173332E+04</pdfrwt>
<pdfrwt beam="2">  1       -1 0.39806112E-01 0.15173332E+04</pdfrwt>
<totfact> 0.12459429E+01</totfact>
</mgrwt>
</event>
<event>
12    1  0.1489025E-007  0.1676162E+04  0.7818608E-02  0.8775078E-01
          2   -1    0    0  501    0  0.00000000000E+00  0.00000000000E+00  0.12714934863E+04  0.12714934863E+04  0.00000000000E+00 0. -1.
         -2   -1    0    0    0  501 -0.00000000000E+00 -0.00000000000E+00 -0.55240522518E+03  0.55240522518E+03  0.00000000000E+00 0.  1.
         23    2    1    2    0    0 -0.47814583627E+02 -0.28219121581E+03 -0.29982814980E+03  0.42453232921E+03  0.91720567206E+02 0.  0.
        254    2    1    2    0    0  0.47814583627E+02  0.28219121581E+03  0.10189164109E+04  0.13993663823E+04  0.91548757648E+03 0.  0.
        -24    2    4    4    0    0  0.40121867912E+03  0.39975105819E+03  0.53123188793E+03  0.78068903971E+03  0.80565010837E+02 0.  0.
         24    2    4    4    0    0 -0.35340409549E+03 -0.11755984238E+03  0.48768452299E+03  0.61867734255E+03  0.78807924557E+02 0.  0.
         13    1    3    3    0    0 -0.39917575844E+02 -0.72723826137E+02 -0.13246621329E+03  0.15629928154E+03  0.00000000000E+00 0. -1.
        -13    1    3    3    0    0 -0.78970077830E+01 -0.20946738967E+03 -0.16736193651E+03  0.26823304767E+03  0.00000000000E+00 0.  1.
          2    1    6    6  502    0 -0.49032585872E+02 -0.43756607788E+02  0.63357507065E+02  0.91285315927E+02  0.00000000000E+00 0. -1.
          1    1    5    5  503    0  0.23255351010E+01  0.20555807208E+02  0.28917208146E+02  0.35554946920E+02  0.00000000000E+00 0. -1.
         -2    1    5    5    0  503  0.39889314402E+03  0.37919525098E+03  0.50231467978E+03  0.74513409279E+03  0.00000000000E+00 0.  1.
         -1    1    6    6    0  502 -0.30437150962E+03 -0.73803234596E+02  0.42432701592E+03  0.52739202662E+03  0.00000000000E+00 0.  1.
<mgrwt>
<rscale>  0 0.16761619E+04</rscale>
<asrwt>0</asrwt>
<pdfrwt beam="1">  1        2 0.19561438E+00 0.16761619E+04</pdfrwt>
<pdfrwt beam="2">  1       -2 0.84985420E-01 0.16761619E+04</pdfrwt>
<totfact> 0.19743337E+01</totfact>
</mgrwt>
</event>
<event>
12    1  0.1489025E-007  0.2052548E+04  0.7818608E-02  0.8582439E-01
          1   -1    0    0  501    0  0.00000000000E+00  0.00000000000E+00  0.13733683216E+04  0.13733683216E+04  0.00000000000E+00 0. -1.
         -1   -1    0    0    0  501 -0.00000000000E+00 -0.00000000000E+00 -0.76690137466E+03  0.76690137466E+03  0.00000000000E+00 0.  1.
         23    2    1    2    0    0 -0.94087715817E+01 -0.80043006230E+03  0.44935775065E+03  0.92279293526E+03  0.94061701455E+02 0.  0.
        254    2    1    2    0    0  0.94087715817E+01  0.80043006230E+03  0.15710919629E+03  0.12174767610E+04  0.90376410330E+03 0.  0.
        -24    2    4    4    0    0 -0.31623295919E+03  0.10845429868E+03 -0.16910324540E+03  0.38307682974E+03  0.79914519924E+02 0.  0.
         24    2    4    4    0    0  0.32564173077E+03  0.69197576361E+03  0.32621244169E+03  0.83439993127E+03  0.70254494088E+02 0.  0.
         13    1    3    3    0    0  0.18373818274E+02 -0.31959058450E+02  0.24425058658E+02  0.44221737928E+02  0.00000000000E+00 0.  1.
        -13    1    3    3    0    0 -0.27782589856E+02 -0.76847100385E+03  0.42493269199E+03  0.87857119733E+03  0.00000000000E+00 0. -1.
          2    1    6    6  502    0  0.21551591674E+03  0.48183992269E+03  0.25814332077E+03  0.58758386255E+03  0.00000000000E+00 0. -1.
          1    1    5    5  503    0 -0.24185939330E+03  0.56579053632E+02 -0.15076376836E+03  0.29056302119E+03  0.00000000000E+00 0. -1.
         -2    1    5    5    0  503 -0.74373565895E+02  0.51875245052E+02 -0.18339477042E+02  0.92513808544E+02  0.00000000000E+00 0.  1.
         -1    1    6    6    0  502  0.11012581403E+03  0.21013584092E+03  0.68069120916E+02  0.24681606872E+03  0.00000000000E+00 0.  1.
<mgrwt>
<rscale>  0 0.20525477E+04</rscale>
<asrwt>0</asrwt>
<pdfrwt beam="1">  1        1 0.21128743E+00 0.20525477E+04</pdfrwt>
<pdfrwt beam="2">  1       -1 0.11798483E+00 0.20525477E+04</pdfrwt>
<totfact> 0.47801844E+00</totfact>
</mgrwt>
</event>
<event>
12    1  0.1489025E-007  0.1574901E+04  0.7818608E-02  0.8836117E-01
         -2   -1    0    0    0  501 -0.00000000000E+00  0.00000000000E+00  0.29698728720E+03  0.29698728720E+03  0.00000000000E+00 0.  1.
          2   -1    0    0  501    0  0.00000000000E+00 -0.00000000000E+00 -0.20878952447E+04  0.20878952447E+04  0.00000000000E+00 0. -1.
         23    2    1    2    0    0 -0.26218500855E+03  0.40693400312E+03 -0.30196721182E+03  0.57795400632E+03  0.92251692646E+02 0.  0.
        254    2    1    2    0    0  0.26218500855E+03 -0.40693400312E+03 -0.14889407457E+04  0.18069285255E+04  0.90205869586E+03 0.  0.
        -24    2    4    4    0    0  0.47305778328E+02 -0.65500970349E+03 -0.11592014950E+04  0.13347196323E+04  0.80329587286E+02 0.  0.
         24    2    4    4    0    0  0.21487923022E+03  0.24807570036E+03 -0.32973925068E+03  0.47220889324E+03  0.80861787802E+02 0.  0.
         11    1    3    3    0    0 -0.70587125146E+02  0.74734057467E+02 -0.10457712082E+03  0.14664274882E+03  0.00000000000E+00 0. -1.
        -11    1    3    3    0    0 -0.19159788341E+03  0.33219994566E+03 -0.19739009100E+03  0.43131125750E+03  0.00000000000E+00 0.  1.
          4    1    6    6  502    0  0.44583176943E+02  0.31133690410E+02 -0.21180441809E+02  0.58357325676E+02  0.00000000000E+00 0. -1.
          3    1    5    5  503    0  0.38631823537E+02 -0.29548347534E+03 -0.45314671345E+03  0.54235122006E+03  0.00000000000E+00 0. -1.
         -4    1    5    5    0  503  0.86739547910E+01 -0.35952622815E+03 -0.70605478152E+03  0.79236841225E+03  0.00000000000E+00 0.  1.
         -3    1    6    6    0  502  0.17029605328E+03  0.21694200995E+03 -0.30855880887E+03  0.41385156757E+03  0.00000000000E+00 0.  1.
<mgrwt>
<rscale>  0 0.15749011E+04</rscale>
<asrwt>0</asrwt>
<pdfrwt beam="1">  1        2 0.32121464E+00 0.15749011E+04</pdfrwt>
<pdfrwt beam="2">  1       -2 0.45690353E-01 0.15749011E+04</pdfrwt>
<totfact> 0.26058079E+01</totfact>
</mgrwt>
</event>
<event>
12    1  0.1489025E-007  0.1840346E+04  0.7818608E-02  0.8685133E-01
          2   -1    0    0  501    0  0.00000000000E+00  0.00000000000E+00  0.68976810541E+03  0.68976810541E+03  0.00000000000E+00 0. -1.
         -2   -1    0    0    0  501 -0.00000000000E+00 -0.00000000000E+00 -0.12275411358E+04  0.12275411358E+04  0.00000000000E+00 0.  1.
         23    2    1    2    0    0 -0.50137485085E+03  0.48420944844E+03 -0.13873584882E+03  0.71658192331E+03  0.91686891318E+02 0.  0.
        254    2    1    2    0    0  0.50137485085E+03 -0.48420944844E+03 -0.39903718156E+03  0.12007273179E+04  0.89256926266E+03 0.  0.
        -24    2    4    4    0    0  0.46190678761E+03  0.22994961925E+02 -0.48943205214E+03  0.67809634777E+03  0.79901655037E+02 0.  0.
         24    2    4    4    0    0  0.39468063240E+02 -0.50720441036E+03  0.90394870576E+02  0.52263097013E+03  0.78472010336E+02 0.  0.
         13    1    3    3    0    0 -0.41730120987E+03  0.39322869949E+03 -0.78161986528E+02  0.57868679438E+03  0.00000000000E+00 0. -1.
        -13    1    3    3    0    0 -0.84073640986E+02  0.90980748952E+02 -0.60573862287E+02  0.13789512892E+03  0.00000000000E+00 0.  1.
          4    1    6    6  502    0  0.53892607929E+02 -0.47176368709E+03  0.72301285764E+02  0.48030497142E+03  0.00000000000E+00 0. -1.
          1    1    5    5  503    0  0.35594497817E+03 -0.70188071031E+01 -0.40564416433E+03  0.53971592453E+03  0.00000000000E+00 0. -1.
         -2    1    5    5    0  503  0.10596180944E+03  0.30013769028E+02 -0.83787887811E+02  0.13838042324E+03  0.00000000000E+00 0.  1.
         -3    1    6    6    0  502 -0.14424544690E+02 -0.35440723269E+02  0.18093584813E+02  0.42325998709E+02  0.00000000000E+00 0.  1.
<mgrwt>
<rscale>  0 0.18403464E+04</rscale>
<asrwt>0</asrwt>
<pdfrwt beam="1">  1        2 0.10611817E+00 0.18403464E+04</pdfrwt>
<pdfrwt beam="2">  1       -2 0.18885248E+00 0.18403464E+04</pdfrwt>
<totfact> 0.61933875E+00</totfact>
</mgrwt>
</event>
<event>
12    1  0.1489025E-007  0.1767358E+04  0.7818608E-02  0.8723854E-01
         -2   -1    0    0    0  501 -0.00000000000E+00  0.00000000000E+00  0.38179034851E+03  0.38179034851E+03  0.00000000000E+00 0.  1.
          2   -1    0    0  501    0  0.00000000000E+00 -0.00000000000E+00 -0.20453324298E+04  0.20453324298E+04  0.00000000000E+00 0. -1.
         23    2    1    2    0    0 -0.49430858751E+03  0.30265563603E+03 -0.99576658623E+03  0.11553632692E+04  0.85859046876E+02 0.  0.
        254    2    1    2    0    0  0.49430858751E+03 -0.30265563603E+03 -0.66777549506E+03  0.12717595091E+04  0.91406056877E+03 0.  0.
        -24    2    4    4    0    0  0.93410099894E+01 -0.41902065931E+03 -0.63507231616E+03  0.76543196722E+03  0.83088400499E+02 0.  0.
         24    2    4    4    0    0  0.48496757752E+03  0.11636502328E+03 -0.32703178901E+02  0.50632754185E+03  0.81016737953E+02 0.  0.
         11    1    3    3    0    0 -0.34807402395E+03  0.23705355776E+03 -0.65366729222E+03  0.77758012083E+03  0.00000000000E+00 0.  1.
        -11    1    3    3    0    0 -0.14623456357E+03  0.65602078274E+02 -0.34209929401E+03  0.37778314841E+03  0.00000000000E+00 0. -1.
          2    1    6    6  502    0  0.44191366776E+03  0.86305854838E+02 -0.44667572076E+02  0.45247274209E+03  0.00000000000E+00 0. -1.
          1    1    5    5  503    0  0.33068609733E+02 -0.31440819533E+03 -0.51618464142E+03  0.60530375043E+03  0.00000000000E+00 0. -1.
         -2    1    5    5    0  503 -0.23727599744E+02 -0.10461246398E+03 -0.11888767473E+03  0.16012821679E+03  0.00000000000E+00 0.  1.
         -1    1    6    6    0  502  0.43053909760E+02  0.30059168443E+02  0.11964393174E+02  0.53854799760E+02  0.00000000000E+00 0.  1.
<mgrwt>
<rscale>  0 0.17673576E+04</rscale>
<asrwt>0</asrwt>
<pdfrwt beam="1">  1        2 0.31466653E+00 0.17673576E+04</pdfrwt>
<pdfrwt beam="2">  1       -2 0.58736976E-01 0.17673576E+04</pdfrwt>
<totfact> 0.16165037E+01</totfact>
</mgrwt>
</event>
<event>
12    1  0.1489025E-007  0.2100413E+04  0.7818608E-02  0.8561061E-01
          2   -1    0    0  501    0  0.00000000000E+00  0.00000000000E+00  0.75248370284E+03  0.75248370284E+03  0.00000000000E+00 0. -1.
         -2   -1    0    0    0  501 -0.00000000000E+00 -0.00000000000E+00 -0.14657245575E+04  0.14657245575E+04  0.00000000000E+00 0.  1.
         23    2    1    2    0    0  0.13797170114E+02 -0.18451525341E+03 -0.11754316131E+04  0.11935101740E+04  0.92686664334E+02 0.  0.
        254    2    1    2    0    0 -0.13797170114E+02  0.18451525341E+03  0.46219075842E+03  0.10246980864E+04  0.89562806475E+03 0.  0.
        -24    2    4    4    0    0  0.33348976221E+03  0.16098306076E+03  0.53954317977E+03  0.65931028898E+03  0.80325879820E+02 0.  0.
         24    2    4    4    0    0 -0.34728693233E+03  0.23532192650E+02 -0.77352421350E+02  0.36538779737E+03  0.79767586912E+02 0.  0.
         11    1    3    3    0    0  0.41122040448E+02 -0.33121927117E+02 -0.27292636660E+03  0.27798720448E+03  0.00000000000E+00 0. -1.
        -11    1    3    3    0    0 -0.27324870334E+02 -0.15139332629E+03 -0.90250524650E+03  0.91552296953E+03  0.00000000000E+00 0.  1.
          2    1    6    6  502    0 -0.11453148937E+03 -0.10283948487E+02  0.77808993778E+01  0.11525521267E+03  0.00000000000E+00 0. -1.
          3    1    5    5  503    0  0.56397761266E+02  0.31433143163E+02  0.48353031198E+02  0.80664524984E+02  0.00000000000E+00 0. -1.
         -4    1    5    5    0  503  0.27709200095E+03  0.12954991759E+03  0.49119014857E+03  0.57864576400E+03  0.00000000000E+00 0.  1.
         -1    1    6    6    0  502 -0.23275544296E+03  0.33816141136E+02 -0.85133320728E+02  0.25013258470E+03  0.00000000000E+00 0.  1.
<mgrwt>
<rscale>  0 0.21004131E+04</rscale>
<asrwt>0</asrwt>
<pdfrwt beam="1">  1        2 0.11576672E+00 0.21004131E+04</pdfrwt>
<pdfrwt beam="2">  1       -2 0.22549609E+00 0.21004131E+04</pdfrwt>
<totfact> 0.31383076E+00</totfact>
</mgrwt>
</event>
<event>
12    1  0.1489025E-007  0.2329816E+04  0.7818608E-02  0.8466257E-01
         -1   -1    0    0    0  501 -0.00000000000E+00  0.00000000000E+00  0.72248916374E+03  0.72248916374E+03  0.00000000000E+00 0.  1.
          1   -1    0    0  501    0  0.00000000000E+00 -0.00000000000E+00 -0.18782428268E+04  0.18782428268E+04  0.00000000000E+00 0. -1.
         23    2    1    2    0    0  0.18013094961E+03 -0.20210601551E+03 -0.15430171048E+04  0.15692952581E+04  0.92151075461E+02 0.  0.
        254    2    1    2    0    0 -0.18013094961E+03  0.20210601551E+03  0.38726344176E+03  0.10314367325E+04  0.91683954936E+03 0.  0.
        -24    2    4    4    0    0 -0.19773408963E+03  0.52792305885E+03  0.77382848867E+02  0.57452030070E+03  0.79271333771E+02 0.  0.
         24    2    4    4    0    0  0.17603140021E+02 -0.32581704334E+03  0.30988059289E+03  0.45691643177E+03  0.79246624559E+02 0.  0.
         11    1    3    3    0    0  0.15613614725E+03 -0.18116561824E+03 -0.11289393561E+04  0.11539946046E+04  0.00000000000E+00 0. -1.
        -11    1    3    3    0    0  0.23994802358E+02 -0.20940397263E+02 -0.41407774871E+03  0.41530065345E+03  0.00000000000E+00 0.  1.
          2    1    6    6  502    0 -0.29378633220E+02 -0.18398443251E+03  0.16800981412E+03  0.25087979819E+03  0.00000000000E+00 0. -1.
          3    1    5    5  503    0 -0.14514939482E+03  0.46475917197E+03  0.60839456805E+02  0.49068408803E+03  0.00000000000E+00 0. -1.
         -4    1    5    5    0  503 -0.52584694811E+02  0.63163886881E+02  0.16543392062E+02  0.83836212672E+02  0.00000000000E+00 0.  1.
         -1    1    6    6    0  502  0.46981773241E+02 -0.14183261083E+03  0.14187077877E+03  0.20603663358E+03  0.00000000000E+00 0.  1.
<mgrwt>
<rscale>  0 0.23298155E+04</rscale>
<asrwt>0</asrwt>
<pdfrwt beam="1">  1        1 0.28896043E+00 0.23298155E+04</pdfrwt>
<pdfrwt beam="2">  1       -1 0.11115218E+00 0.23298155E+04</pdfrwt>
<totfact> 0.24192877E+00</totfact>
</mgrwt>
</event>
<event>
12    1  0.1489025E-007  0.2945102E+04  0.7818608E-02  0.8259583E-01
          1   -1    0    0  501    0  0.00000000000E+00  0.00000000000E+00  0.15732235017E+04  0.15732235017E+04  0.00000000000E+00 0. -1.
         -1   -1    0    0    0  501 -0.00000000000E+00 -0.00000000000E+00 -0.13783209014E+04  0.13783209014E+04  0.00000000000E+00 0.  1.
         23    2    1    2    0    0 -0.94266950915E+03 -0.13105275719E+03  0.10231799124E+04  0.14003495685E+04  0.91000836849E+02 0.  0.
        254    2    1    2    0    0  0.94266950915E+03  0.13105275719E+03 -0.82827731211E+03  0.15511948345E+04  0.90241979156E+03 0.  0.
        -24    2    4    4    0    0  0.10327163159E+04 -0.11063856590E+03 -0.64726409918E+03  0.12263803266E+04  0.79460744996E+02 0.  0.
         24    2    4    4    0    0 -0.90046806714E+02  0.24169132309E+03 -0.18101321293E+03  0.32481450793E+03  0.78838811845E+02 0.  0.
         13    1    3    3    0    0 -0.12905043113E+03 -0.23357187922E+02  0.98750413258E+02  0.16416825552E+03  0.00000000000E+00 0.  1.
        -13    1    3    3    0    0 -0.81361907803E+03 -0.10769556927E+03  0.92442949916E+03  0.12361813130E+04  0.00000000000E+00 0. -1.
          4    1    6    6  502    0 -0.46708734926E+02  0.16554424207E+03 -0.75996631173E+02  0.18804810542E+03  0.00000000000E+00 0. -1.
          1    1    5    5  503    0  0.29521542730E+02 -0.16215054961E+02 -0.15495856793E+02  0.37075208298E+02  0.00000000000E+00 0. -1.
         -4    1    5    5    0  503  0.10031947731E+04 -0.94423510939E+02 -0.63176824239E+03  0.11893051183E+04  0.00000000000E+00 0.  1.
         -3    1    6    6    0  502 -0.43338071788E+02  0.76147081020E+02 -0.10501658175E+03  0.13676640252E+03  0.00000000000E+00 0.  1.
<mgrwt>
<rscale>  0 0.29451023E+04</rscale>
<asrwt>0</asrwt>
<pdfrwt beam="1">  1        1 0.24203438E+00 0.29451023E+04</pdfrwt>
<pdfrwt beam="2">  1       -1 0.21204937E+00 0.29451023E+04</pdfrwt>
<totfact> 0.61983906E-01</totfact>
</mgrwt>
</event>
<event>
12    1  0.1489025E-007  0.1559436E+04  0.7818608E-02  0.8845863E-01
          2   -1    0    0  501    0  0.00000000000E+00  0.00000000000E+00  0.19266493610E+04  0.19266493610E+04  0.00000000000E+00 0. -1.
         -2   -1    0    0    0  501 -0.00000000000E+00 -0.00000000000E+00 -0.31555311423E+03  0.31555311423E+03  0.00000000000E+00 0.  1.
         23    2    1    2    0    0 -0.57476790902E+02  0.50662895848E+03  0.42775964581E+03  0.67147399259E+03  0.89008567450E+02 0.  0.
        254    2    1    2    0    0  0.57476790902E+02 -0.50662895848E+03  0.11833366010E+04  0.15707284827E+04  0.89829058327E+03 0.  0.
        -24    2    4    4    0    0 -0.26469217007E+02  0.56306106630E+02  0.94215286153E+03  0.94744220115E+03  0.78254156000E+02 0.  0.
         24    2    4    4    0    0  0.83946007909E+02 -0.56293506511E+03  0.24118373946E+03  0.62328628153E+03  0.79833406483E+02 0.  0.
         11    1    3    3    0    0 -0.45145637991E+01  0.12490563743E+03  0.15608434597E+03  0.19996030257E+03  0.00000000000E+00 0. -1.
        -11    1    3    3    0    0 -0.52962227103E+02  0.38172332104E+03  0.27167529985E+03  0.47151369002E+03  0.00000000000E+00 0.  1.
          2    1    6    6  502    0  0.88556751311E+00 -0.14873690529E+03  0.33116097567E+02  0.15238151838E+03  0.00000000000E+00 0. -1.
          1    1    5    5  503    0  0.27976619168E+02  0.17998477316E+02  0.33759554283E+03  0.33923058079E+03  0.00000000000E+00 0. -1.
         -2    1    5    5    0  503 -0.54445836175E+02  0.38307629315E+02  0.60455731871E+03  0.60821162036E+03  0.00000000000E+00 0.  1.
         -1    1    6    6    0  502  0.83060440396E+02 -0.41419815982E+03  0.20806764190E+03  0.47090476315E+03  0.00000000000E+00 0.  1.
<mgrwt>
<rscale>  0 0.15594361E+04</rscale>
<asrwt>0</asrwt>
<pdfrwt beam="1">  1        2 0.29640759E+00 0.15594361E+04</pdfrwt>
<pdfrwt beam="2">  1       -2 0.48546634E-01 0.15594361E+04</pdfrwt>
<totfact> 0.28372729E+01</totfact>
</mgrwt>
</event>
<event>
12    1  0.1489025E-007  0.1775275E+04  0.7818608E-02  0.8719560E-01
          2   -1    0    0  501    0  0.00000000000E+00  0.00000000000E+00  0.35785398648E+04  0.35785398648E+04  0.00000000000E+00 0. -1.
         -2   -1    0    0    0  501 -0.00000000000E+00 -0.00000000000E+00 -0.22017365951E+03  0.22017365951E+03  0.00000000000E+00 0.  1.
         23    2    1    2    0    0  0.48582927315E+02 -0.13810040773E+03  0.26369260346E+04  0.26424764791E+04  0.88718696800E+02 0.  0.
        254    2    1    2    0    0 -0.48582927315E+02  0.13810040773E+03  0.72144017075E+03  0.11562370453E+04  0.89161435691E+03 0.  0.
        -24    2    4    4    0    0  0.16672087745E+03  0.14764104432E+02  0.84653786167E+03  0.86684960479E+03  0.82389661550E+02 0.  0.
         24    2    4    4    0    0 -0.21530380477E+03  0.12333630330E+03 -0.12509769091E+03  0.28938744049E+03  0.80796574067E+02 0.  0.
         13    1    3    3    0    0  0.25645880070E+02 -0.12836541560E+03  0.16319385377E+04  0.16371801312E+04  0.00000000000E+00 0. -1.
        -13    1    3    3    0    0  0.22937047245E+02 -0.97349921291E+01  0.10049874969E+04  0.10052963479E+04  0.00000000000E+00 0.  1.
          4    1    6    6  502    0 -0.18767473119E+03  0.12709992333E+03 -0.88385357270E+02  0.24328618254E+03  0.00000000000E+00 0. -1.
          1    1    5    5  503    0  0.15601990423E+03  0.14487896781E+02  0.83959366183E+03  0.85408994062E+03  0.00000000000E+00 0. -1.
         -2    1    5    5    0  503  0.10700973217E+02  0.27620765166E+00  0.69441998306E+01  0.12759664171E+02  0.00000000000E+00 0.  1.
         -3    1    6    6    0  502 -0.27629073580E+02 -0.37636200267E+01 -0.36712333645E+02  0.46101257946E+02  0.00000000000E+00 0.  1.
<mgrwt>
<rscale>  0 0.17752749E+04</rscale>
<asrwt>0</asrwt>
<pdfrwt beam="1">  1        2 0.55054455E+00 0.17752749E+04</pdfrwt>
<pdfrwt beam="2">  1       -2 0.33872873E-01 0.17752749E+04</pdfrwt>
<totfact> 0.55709252E+00</totfact>
</mgrwt>
</event>
<event>
12    1  0.1489025E-007  0.1233153E+04  0.7818608E-02  0.9084323E-01
         -1   -1    0    0    0  501 -0.00000000000E+00  0.00000000000E+00  0.66160543029E+03  0.66160543029E+03  0.00000000000E+00 0.  1.
          1   -1    0    0  501    0  0.00000000000E+00 -0.00000000000E+00 -0.57461189373E+03  0.57461189373E+03  0.00000000000E+00 0. -1.
         23    2    1    2    0    0  0.99912541683E+02  0.15428646669E+03 -0.18557282858E+03  0.27715281699E+03  0.92679984183E+02 0.  0.
        254    2    1    2    0    0 -0.99912541683E+02 -0.15428646669E+03  0.27256636515E+03  0.95906450703E+03  0.90095808751E+03 0.  0.
        -24    2    4    4    0    0 -0.24497400569E+03 -0.42512231790E+03  0.37803241897E+03  0.62429369523E+03  0.78056770838E+02 0.  0.
         24    2    4    4    0    0  0.14506146401E+03  0.27083585120E+03 -0.10546605382E+03  0.33477081180E+03  0.80953821952E+02 0.  0.
         13    1    3    3    0    0  0.60699586427E+02  0.35257767978E+02 -0.11096517503E+03  0.13130430330E+03  0.00000000000E+00 0. -1.
        -13    1    3    3    0    0  0.39212955255E+02  0.11902869871E+03 -0.74607653549E+02  0.14584851369E+03  0.00000000000E+00 0.  1.
          4    1    6    6  502    0  0.12924017343E+03  0.22634558455E+03 -0.11770745055E+03  0.28599019212E+03  0.00000000000E+00 0. -1.
          3    1    5    5  503    0 -0.11762564301E+03 -0.19366454102E+03  0.22334785918E+03  0.31816035665E+03  0.00000000000E+00 0. -1.
         -4    1    5    5    0  503 -0.12734836268E+03 -0.23145777688E+03  0.15468455979E+03  0.30613333858E+03  0.00000000000E+00 0.  1.
         -3    1    6    6    0  502  0.15821290577E+02  0.44490266651E+02  0.12241396734E+02  0.48780619678E+02  0.00000000000E+00 0.  1.
<mgrwt>
<rscale>  0 0.12331526E+04</rscale>
<asrwt>0</asrwt>
<pdfrwt beam="1">  1        1 0.88401830E-01 0.12331526E+04</pdfrwt>
<pdfrwt beam="2">  1       -1 0.10178545E+00 0.12331526E+04</pdfrwt>
<totfact> 0.32949141E+01</totfact>
</mgrwt>
</event>
<event>
12    1  0.1489025E-007  0.1863126E+04  0.7818608E-02  0.8673432E-01
          2   -1    0    0  501    0  0.00000000000E+00  0.00000000000E+00  0.10260227098E+04  0.10260227098E+04  0.00000000000E+00 0. -1.
         -2   -1    0    0    0  501 -0.00000000000E+00 -0.00000000000E+00 -0.84579946985E+03  0.84579946985E+03  0.00000000000E+00 0.  1.
         23    2    1    2    0    0  0.59036314059E+03 -0.33357975112E+03  0.26314168580E+03  0.73310901325E+03  0.91658007697E+02 0.  0.
        254    2    1    2    0    0 -0.59036314059E+03  0.33357975112E+03 -0.82918445892E+02  0.11387131664E+04  0.91103683703E+03 0.  0.
        -24    2    4    4    0    0 -0.56132435295E+03  0.24615140982E+02 -0.39593555956E+03  0.69211090418E+03  0.81003715909E+02 0.  0.
         24    2    4    4    0    0 -0.29038787644E+02  0.30896461014E+03  0.31301711367E+03  0.44660226217E+03  0.71913042070E+02 0.  0.
         11    1    3    3    0    0  0.26882566811E+03 -0.16775969695E+03  0.76300289544E+02  0.32593295313E+03  0.00000000000E+00 0.  1.
        -11    1    3    3    0    0  0.32153747248E+03 -0.16582005417E+03  0.18684139625E+03  0.40717606012E+03  0.00000000000E+00 0. -1.
          2    1    6    6  502    0  0.89990665467E+01  0.49814393801E+02  0.22361825063E+02  0.55339933579E+02  0.00000000000E+00 0. -1.
          3    1    5    5  503    0 -0.77275384944E+02 -0.12705049335E+02 -0.85065906455E+02  0.11562487551E+03  0.00000000000E+00 0. -1.
         -4    1    5    5    0  503 -0.48404896800E+03  0.37320190317E+02 -0.31086965310E+03  0.57648602867E+03  0.00000000000E+00 0.  1.
         -1    1    6    6    0  502 -0.38037854191E+02  0.25915021634E+03  0.29065528860E+03  0.39126232859E+03  0.00000000000E+00 0.  1.
<mgrwt>
<rscale>  0 0.18631258E+04</rscale>
<asrwt>0</asrwt>
<pdfrwt beam="1">  1        2 0.15784965E+00 0.18631258E+04</pdfrwt>
<pdfrwt beam="2">  1       -2 0.13012299E+00 0.18631258E+04</pdfrwt>
<totfact> 0.98657088E+00</totfact>
</mgrwt>
</event>
<event>
12    1  0.1489025E-007  0.4423614E+04  0.7818608E-02  0.7924148E-01
          1   -1    0    0  501    0  0.00000000000E+00  0.00000000000E+00  0.24482357180E+04  0.24482357180E+04  0.00000000000E+00 0. -1.
         -1   -1    0    0    0  501 -0.00000000000E+00 -0.00000000000E+00 -0.19982106597E+04  0.19982106597E+04  0.00000000000E+00 0.  1.
         23    2    1    2    0    0 -0.51207066853E+03 -0.72140923051E+03  0.21446356460E+04  0.23218332667E+04  0.93808405336E+02 0.  0.
        254    2    1    2    0    0  0.51207066853E+03  0.72140923051E+03 -0.16946105877E+04  0.21246131111E+04  0.92716135612E+03 0.  0.
        -24    2    4    4    0    0 -0.69017432341E+02  0.39639119799E+01  0.73642732263E+02  0.12814021801E+03  0.78851410204E+02 0.  0.
         24    2    4    4    0    0  0.58108810087E+03  0.71744531853E+03 -0.17682533200E+04  0.19964728930E+04  0.82419918953E+02 0.  0.
         11    1    3    3    0    0 -0.49683424173E+03 -0.71755321646E+03  0.21198353373E+04  0.22924721894E+04  0.00000000000E+00 0. -1.
        -11    1    3    3    0    0 -0.15236426800E+02 -0.38560140558E+01  0.24800308723E+02  0.29361077276E+02  0.00000000000E+00 0.  1.
          4    1    6    6  502    0  0.47300241039E+03  0.60377910744E+03 -0.15253340681E+04  0.17073150003E+04  0.00000000000E+00 0. -1.
          3    1    5    5  503    0 -0.72903768485E+02  0.21131494137E+02  0.79181993627E+02  0.10968722632E+03  0.00000000000E+00 0. -1.
         -4    1    5    5    0  503  0.38863361432E+01 -0.17167582158E+02 -0.55392613631E+01  0.18452991687E+02  0.00000000000E+00 0.  1.
         -3    1    6    6    0  502  0.10808569048E+03  0.11366621109E+03 -0.24291925183E+03  0.28915789275E+03  0.00000000000E+00 0.  1.
<mgrwt>
<rscale>  0 0.44236142E+04</rscale>
<asrwt>0</asrwt>
<pdfrwt beam="1">  1        1 0.37665165E+00 0.44236142E+04</pdfrwt>
<pdfrwt beam="2">  1       -1 0.30741703E+00 0.44236142E+04</pdfrwt>
<totfact> 0.32886173E-02</totfact>
</mgrwt>
</event>
<event>
12    1  0.1489025E-007  0.1610001E+04  0.7818608E-02  0.8814427E-01
         -2   -1    0    0    0  501 -0.00000000000E+00  0.00000000000E+00  0.10114089063E+04  0.10114089063E+04  0.00000000000E+00 0.  1.
          2   -1    0    0  501    0  0.00000000000E+00 -0.00000000000E+00 -0.64071598197E+03  0.64071598197E+03  0.00000000000E+00 0. -1.
         23    2    1    2    0    0 -0.16921436125E+03  0.54460679834E+02 -0.39513502351E+03  0.44299772306E+03  0.92281255593E+02 0.  0.
        254    2    1    2    0    0  0.16921436125E+03 -0.54460679834E+02  0.76582794786E+03  0.12091271652E+04  0.91863844373E+03 0.  0.
        -24    2    4    4    0    0 -0.13454104456E+03  0.64200906910E+02 -0.15476416129E+03  0.22917476271E+03  0.79662269138E+02 0.  0.
         24    2    4    4    0    0  0.30375540581E+03 -0.11866158674E+03  0.92059210915E+03  0.97995240253E+03  0.80429851768E+02 0.  0.
         13    1    3    3    0    0 -0.49612751507E+02 -0.15069991788E+02 -0.53929250664E+02  0.74812390964E+02  0.00000000000E+00 0.  1.
        -13    1    3    3    0    0 -0.11960160974E+03  0.69530671622E+02 -0.34120577284E+03  0.36818533209E+03  0.00000000000E+00 0. -1.
          4    1    6    6  502    0  0.12777647849E+02  0.34151543568E+01  0.11070918381E+02  0.17248095478E+02  0.00000000000E+00 0. -1.
          3    1    5    5  503    0 -0.49201579315E+02 -0.99242975052E+00 -0.12223870048E+02  0.50707034254E+02  0.00000000000E+00 0. -1.
         -4    1    5    5    0  503 -0.85339465249E+02  0.65193336660E+02 -0.14254029124E+03  0.17846772846E+03  0.00000000000E+00 0.  1.
         -3    1    6    6    0  502  0.29097775796E+03 -0.12207674110E+03  0.90952119077E+03  0.96270430705E+03  0.00000000000E+00 0.  1.
<mgrwt>
<rscale>  0 0.16100011E+04</rscale>
<asrwt>0</asrwt>
<pdfrwt beam="1">  1        2 0.98571690E-01 0.16100011E+04</pdfrwt>
<pdfrwt beam="2">  1       -2 0.15560137E+00 0.16100011E+04</pdfrwt>
<totfact> 0.11906106E+01</totfact>
</mgrwt>
</event>
<event>
12    1  0.1489025E-007  0.1110483E+04  0.7818608E-02  0.9195034E-01
          1   -1    0    0  501    0  0.00000000000E+00  0.00000000000E+00  0.51549786897E+03  0.51549786897E+03  0.00000000000E+00 0. -1.
         -1   -1    0    0    0  501 -0.00000000000E+00 -0.00000000000E+00 -0.59804949978E+03  0.59804949978E+03  0.00000000000E+00 0.  1.
         23    2    1    2    0    0 -0.15305256950E+03  0.66843605456E+02  0.61831356457E+02  0.19994610281E+03  0.90896483793E+02 0.  0.
        254    2    1    2    0    0  0.15305256950E+03 -0.66843605456E+02 -0.14438298726E+03  0.91360126594E+03  0.88652561694E+03 0.  0.
        -24    2    4    4    0    0  0.45849383240E+02 -0.33103204951E+03  0.24637124674E+03  0.42336520220E+03  0.82794441051E+02 0.  0.
         24    2    4    4    0    0  0.10720318626E+03  0.26418844406E+03 -0.39075423401E+03  0.49023606374E+03  0.79714927585E+02 0.  0.
         13    1    3    3    0    0 -0.10337376076E+02 -0.19114175614E+02  0.16505158656E+02  0.27287970166E+02  0.00000000000E+00 0.  1.
        -13    1    3    3    0    0 -0.14271519342E+03  0.85957781069E+02  0.45326197801E+02  0.17265813264E+03  0.00000000000E+00 0. -1.
          4    1    6    6  502    0  0.29877125891E+02  0.53255597385E+02 -0.37701965943E+02  0.71765169409E+02  0.00000000000E+00 0. -1.
          1    1    5    5  503    0  0.37365294238E+02 -0.54561467861E+02  0.64178481647E+02  0.92152029252E+02  0.00000000000E+00 0. -1.
         -2    1    5    5    0  503  0.84840890016E+01 -0.27647058165E+03  0.18219276509E+03  0.33121317295E+03  0.00000000000E+00 0.  1.
         -3    1    6    6    0  502  0.77326060369E+02  0.21093284667E+03 -0.35305226806E+03  0.41847089433E+03  0.00000000000E+00 0.  1.
<mgrwt>
<rscale>  0 0.11104832E+04</rscale>
<asrwt>0</asrwt>
<pdfrwt beam="1">  1        1 0.79307365E-01 0.11104832E+04</pdfrwt>
<pdfrwt beam="2">  1       -1 0.92007615E-01 0.11104832E+04</pdfrwt>
<totfact> 0.48690580E+01</totfact>
</mgrwt>
</event>
<event>
12    1  0.1489025E-007  0.1735902E+04  0.7818608E-02  0.8741149E-01
          1   -1    0    0  501    0  0.00000000000E+00  0.00000000000E+00  0.17490251185E+04  0.17490251185E+04  0.00000000000E+00 0. -1.
         -1   -1    0    0    0  501 -0.00000000000E+00 -0.00000000000E+00 -0.43071952628E+03  0.43071952628E+03  0.00000000000E+00 0.  1.
         23    2    1    2    0    0  0.79903257887E+02  0.55799738794E+03  0.12900466295E+03  0.58533649504E+03  0.90724824514E+02 0.  0.
        254    2    1    2    0    0 -0.79903257887E+02 -0.55799738794E+03  0.11893009292E+04  0.15944081497E+04  0.89997501743E+03 0.  0.
        -24    2    4    4    0    0  0.27063860345E+03  0.10905619266E+03  0.28832578231E+03  0.41713187635E+03  0.75688431677E+02 0.  0.
         24    2    4    4    0    0 -0.35054186134E+03 -0.66705358061E+03  0.90097514693E+03  0.11772762734E+04  0.79894508435E+02 0.  0.
         13    1    3    3    0    0  0.47990837596E+02  0.26514447361E+03  0.10703078873E+03  0.28993154729E+03  0.00000000000E+00 0.  1.
        -13    1    3    3    0    0  0.31912420291E+02  0.29285291434E+03  0.21973874224E+02  0.29540494775E+03  0.00000000000E+00 0. -1.
          2    1    6    6  502    0 -0.30977468268E+03 -0.62742309986E+03  0.84953277339E+03  0.11006025774E+04  0.00000000000E+00 0. -1.
          1    1    5    5  503    0  0.19480651332E+03  0.10466564226E+03  0.18169503357E+03  0.28621243776E+03  0.00000000000E+00 0. -1.
         -2    1    5    5    0  503  0.75832090123E+02  0.43905504049E+01  0.10663074873E+03  0.13091943859E+03  0.00000000000E+00 0.  1.
         -1    1    6    6    0  502 -0.40767178658E+02 -0.39630480752E+02  0.51442373537E+02  0.76673695982E+02  0.00000000000E+00 0.  1.
<mgrwt>
<rscale>  0 0.17359024E+04</rscale>
<asrwt>0</asrwt>
<pdfrwt beam="1">  1        1 0.26908078E+00 0.17359024E+04</pdfrwt>
<pdfrwt beam="2">  1       -1 0.66264544E-01 0.17359024E+04</pdfrwt>
<totfact> 0.96621187E+00</totfact>
</mgrwt>
</event>
<event>
12    1  0.1489025E-007  0.2306368E+04  0.7818608E-02  0.8475414E-01
          1   -1    0    0  501    0  0.00000000000E+00  0.00000000000E+00  0.16190927578E+04  0.16190927578E+04  0.00000000000E+00 0. -1.
         -1   -1    0    0    0  501 -0.00000000000E+00 -0.00000000000E+00 -0.82134506494E+03  0.82134506494E+03  0.00000000000E+00 0.  1.
         23    2    1    2    0    0 -0.60233589578E+03  0.21061460734E+03 -0.42543496984E+03  0.77259700762E+03  0.93510311986E+02 0.  0.
        254    2    1    2    0    0  0.60233589578E+03 -0.21061460734E+03  0.12231826627E+04  0.16678408151E+04  0.93720334724E+03 0.  0.
        -24    2    4    4    0    0 -0.20090377661E+03  0.91252073050E+01  0.55905337613E+03  0.59949834583E+03  0.80074917565E+02 0.  0.
         24    2    4    4    0    0  0.80323967239E+03 -0.21973981465E+03  0.66412928659E+03  0.10683424693E+04  0.82512816980E+02 0.  0.
         11    1    3    3    0    0 -0.58772487636E+03  0.20101312232E+03 -0.42881377781E+03  0.75479007789E+03  0.00000000000E+00 0.  1.
        -11    1    3    3    0    0 -0.14611019419E+02  0.96014850196E+01  0.33788079727E+01  0.17806929729E+02  0.00000000000E+00 0. -1.
          4    1    6    6  502    0  0.59070915964E+03 -0.19031532691E+03  0.46343062372E+03  0.77454837030E+03  0.00000000000E+00 0. -1.
          3    1    5    5  503    0 -0.18417769111E+03 -0.32112019497E+01  0.41621200109E+03  0.45515290131E+03  0.00000000000E+00 0. -1.
         -4    1    5    5    0  503 -0.16726085502E+02  0.12336409255E+02  0.14284137504E+03  0.14434544452E+03  0.00000000000E+00 0.  1.
         -3    1    6    6    0  502  0.21253051275E+03 -0.29424487739E+02  0.20069866287E+03  0.29379409900E+03  0.00000000000E+00 0.  1.
<mgrwt>
<rscale>  0 0.23063684E+04</rscale>
<asrwt>0</asrwt>
<pdfrwt beam="1">  1        1 0.24909119E+00 0.23063684E+04</pdfrwt>
<pdfrwt beam="2">  1       -1 0.12636078E+00 0.23063684E+04</pdfrwt>
<totfact> 0.26640878E+00</totfact>
</mgrwt>
</event>
<event>
12    1  0.1489025E-007  0.1746200E+04  0.7818608E-02  0.8735445E-01
          1   -1    0    0  501    0  0.00000000000E+00  0.00000000000E+00  0.13659356476E+04  0.13659356476E+04  0.00000000000E+00 0. -1.
         -1   -1    0    0    0  501 -0.00000000000E+00 -0.00000000000E+00 -0.55808162869E+03  0.55808162869E+03  0.00000000000E+00 0.  1.
         23    2    1    2    0    0 -0.30750261573E+03 -0.39765262545E+03 -0.12997938051E+03  0.52844237630E+03  0.98342445092E+02 0.  0.
        254    2    1    2    0    0  0.30750261573E+03  0.39765262545E+03  0.93783339944E+03  0.13955749000E+04  0.90300185340E+03 0.  0.
        -24    2    4    4    0    0  0.13224932476E+03  0.43297760174E+02 -0.15968719856E+03  0.22636900710E+03  0.79864548168E+02 0.  0.
         24    2    4    4    0    0  0.17525329098E+03  0.35435486527E+03  0.10975205980E+04  0.11692058929E+04  0.78802731266E+02 0.  0.
         13    1    3    3    0    0 -0.27320220406E+03 -0.34414844583E+03 -0.14577214803E+03  0.46295476692E+03  0.00000000000E+00 0.  1.
        -13    1    3    3    0    0 -0.34300411677E+02 -0.53504179612E+02  0.15792767514E+02  0.65487609385E+02  0.00000000000E+00 0. -1.
          2    1    6    6  502    0  0.10588027468E+03  0.19219148312E+03  0.49621593488E+03  0.54256654226E+03  0.00000000000E+00 0. -1.
          3    1    5    5  503    0  0.43622081260E+02  0.28735555759E+01 -0.10708029735E+03  0.11566042268E+03  0.00000000000E+00 0. -1.
         -4    1    5    5    0  503  0.88627243496E+02  0.40424204599E+02 -0.52606901215E+02  0.11070858441E+03  0.00000000000E+00 0.  1.
         -1    1    6    6    0  502  0.69373016297E+02  0.16216338215E+03  0.60130466313E+03  0.62663935067E+03  0.00000000000E+00 0.  1.
<mgrwt>
<rscale>  0 0.17462000E+04</rscale>
<asrwt>0</asrwt>
<pdfrwt beam="1">  1        1 0.21014394E+00 0.17462000E+04</pdfrwt>
<pdfrwt beam="2">  1       -1 0.85858712E-01 0.17462000E+04</pdfrwt>
<totfact> 0.10309969E+01</totfact>
</mgrwt>
</event>
<event>
12    1  0.1489025E-007  0.2134630E+04  0.7818608E-02  0.8546140E-01
          1   -1    0    0  501    0  0.00000000000E+00  0.00000000000E+00  0.58116336458E+03  0.58116336458E+03  0.00000000000E+00 0. -1.
         -1   -1    0    0    0  501 -0.00000000000E+00 -0.00000000000E+00 -0.19601391745E+04  0.19601391745E+04  0.00000000000E+00 0.  1.
         23    2    1    2    0    0  0.32874260902E+03  0.80965152341E+03 -0.77581534897E+03  0.11719867437E+04  0.89756222157E+02 0.  0.
        254    2    1    2    0    0 -0.32874260902E+03 -0.80965152341E+03 -0.60316046096E+03  0.13693157954E+04  0.86464785516E+03 0.  0.
        -24    2    4    4    0    0 -0.43603703215E+03 -0.68625168690E+03 -0.86164564016E+02  0.82139656920E+03  0.78729413853E+02 0.  0.
         24    2    4    4    0    0  0.10729442313E+03 -0.12339983650E+03 -0.51699589695E+03  0.54791922617E+03  0.78683594610E+02 0.  0.
         11    1    3    3    0    0  0.17010267145E+03  0.30253882466E+03 -0.30304717601E+03  0.46076268311E+03  0.00000000000E+00 0. -1.
        -11    1    3    3    0    0  0.15863993757E+03  0.50711269875E+03 -0.47276817296E+03  0.71122406061E+03  0.00000000000E+00 0.  1.
          2    1    6    6  502    0  0.11521311823E+03 -0.97778307507E+02 -0.39286748818E+03  0.42092698096E+03  0.00000000000E+00 0. -1.
          3    1    5    5  503    0 -0.16874330466E+03 -0.22327888490E+03 -0.59582414351E+02  0.28614301915E+03  0.00000000000E+00 0. -1.
         -4    1    5    5    0  503 -0.26729372750E+03 -0.46297280200E+03 -0.26582149665E+02  0.53525355004E+03  0.00000000000E+00 0.  1.
         -1    1    6    6    0  502 -0.79186950964E+01 -0.25621528997E+02 -0.12412840877E+03  0.12699224521E+03  0.00000000000E+00 0.  1.
<mgrwt>
<rscale>  0 0.21346298E+04</rscale>
<asrwt>0</asrwt>
<pdfrwt beam="1">  1        1 0.89409748E-01 0.21346298E+04</pdfrwt>
<pdfrwt beam="2">  1       -1 0.30155987E+00 0.21346298E+04</pdfrwt>
<totfact> 0.10614125E+00</totfact>
</mgrwt>
</event>
<event>
12    1  0.1489025E-007  0.2377346E+04  0.7818608E-02  0.8448034E-01
          1   -1    0    0  501    0  0.00000000000E+00  0.00000000000E+00  0.89205918345E+03  0.89205918345E+03  0.00000000000E+00 0. -1.
         -1   -1    0    0    0  501 -0.00000000000E+00 -0.00000000000E+00 -0.15839122500E+04  0.15839122500E+04  0.00000000000E+00 0.  1.
         23    2    1    2    0    0 -0.49691364359E+03  0.84729229918E+03 -0.14367156182E+02  0.98670763711E+03  0.92510196841E+02 0.  0.
        254    2    1    2    0    0  0.49691364359E+03 -0.84729229918E+03 -0.67748591035E+03  0.14892637963E+04  0.89111844716E+03 0.  0.
        -24    2    4    4    0    0 -0.16721349686E+02 -0.18464773943E+02 -0.48561490046E+03  0.49269995134E+03  0.79440915703E+02 0.  0.
         24    2    4    4    0    0  0.51363499327E+03 -0.82882752524E+03 -0.19187100990E+03  0.99656384498E+03  0.74491877274E+02 0.  0.
         11    1    3    3    0    0 -0.62225108514E+02  0.14234165054E+03 -0.30687238754E+02  0.15835029596E+03  0.00000000000E+00 0.  1.
        -11    1    3    3    0    0 -0.43468853507E+03  0.70495064865E+03  0.16320082572E+02  0.82835734116E+03  0.00000000000E+00 0. -1.
          2    1    6    6  502    0  0.30788335265E+03 -0.55213696987E+03 -0.14492999481E+03  0.64857697749E+03  0.00000000000E+00 0. -1.
          3    1    5    5  503    0  0.19184570438E+02  0.21976755587E+02 -0.17169796751E+03  0.17415859892E+03  0.00000000000E+00 0. -1.
         -4    1    5    5    0  503 -0.35905920124E+02 -0.40441529530E+02 -0.31391693294E+03  0.31854135242E+03  0.00000000000E+00 0.  1.
         -1    1    6    6    0  502  0.20575164062E+03 -0.27669055537E+03 -0.46941015090E+02  0.34798686749E+03  0.00000000000E+00 0.  1.
<mgrwt>
<rscale>  0 0.23773460E+04</rscale>
<asrwt>0</asrwt>
<pdfrwt beam="1">  1        1 0.13723988E+00 0.23773460E+04</pdfrwt>
<pdfrwt beam="2">  1       -1 0.24367880E+00 0.23773460E+04</pdfrwt>
<totfact> 0.12718848E+00</totfact>
</mgrwt>
</event>
<event>
12    1  0.1489025E-007  0.1574040E+04  0.7818608E-02  0.8836657E-01
         -1   -1    0    0    0  501 -0.00000000000E+00  0.00000000000E+00  0.40915065702E+03  0.40915065702E+03  0.00000000000E+00 0.  1.
          1   -1    0    0  501    0  0.00000000000E+00 -0.00000000000E+00 -0.15138685235E+04  0.15138685235E+04  0.00000000000E+00 0. -1.
         23    2    1    2    0    0 -0.37107992825E+03  0.33910149773E+03 -0.18763937590E+03  0.54462752717E+03  0.93383451671E+02 0.  0.
        254    2    1    2    0    0  0.37107992825E+03 -0.33910149773E+03 -0.91707849053E+03  0.13783916533E+04  0.89790893370E+03 0.  0.
        -24    2    4    4    0    0 -0.24499891826E+03 -0.26840597275E+03 -0.51350222631E+03  0.63437158433E+03  0.81710063205E+02 0.  0.
         24    2    4    4    0    0  0.61607884651E+03 -0.70695524977E+02 -0.40357626422E+03  0.74402006898E+03  0.78364913269E+02 0.  0.
         13    1    3    3    0    0 -0.26460259882E+03  0.27858000265E+03 -0.11013424094E+03  0.39968850897E+03  0.00000000000E+00 0.  1.
        -13    1    3    3    0    0 -0.10647732944E+03  0.60521495082E+02 -0.77505134960E+02  0.14493901820E+03  0.00000000000E+00 0. -1.
          4    1    6    6  502    0  0.37252625756E+02 -0.24053722447E+02 -0.27679002462E+02  0.52273003229E+02  0.00000000000E+00 0. -1.
          1    1    5    5  503    0 -0.96450986335E+02 -0.89565072713E+02 -0.12441986942E+03  0.18112150320E+03  0.00000000000E+00 0. -1.
         -2    1    5    5    0  503 -0.14854793192E+03 -0.17884090004E+03 -0.38908235689E+03  0.45325008113E+03  0.00000000000E+00 0.  1.
         -3    1    6    6    0  502  0.57882622075E+03 -0.46641802530E+02 -0.37589726176E+03  0.69174706575E+03  0.00000000000E+00 0.  1.
<mgrwt>
<rscale>  0 0.15740398E+04</rscale>
<asrwt>0</asrwt>
<pdfrwt beam="1">  1        1 0.23290285E+00 0.15740398E+04</pdfrwt>
<pdfrwt beam="2">  1       -1 0.62946255E-01 0.15740398E+04</pdfrwt>
<totfact> 0.15748611E+01</totfact>
</mgrwt>
</event>
<event>
12    1  0.1489025E-007  0.2721890E+04  0.7818608E-02  0.8327937E-01
         -2   -1    0    0    0  501 -0.00000000000E+00  0.00000000000E+00  0.77757265401E+03  0.77757265401E+03  0.00000000000E+00 0.  1.
          2   -1    0    0  501    0  0.00000000000E+00 -0.00000000000E+00 -0.23819917128E+04  0.23819917128E+04  0.00000000000E+00 0. -1.
         23    2    1    2    0    0 -0.10456209944E+04 -0.57666728930E+03 -0.93127652976E+03  0.15171010327E+04  0.91930092966E+02 0.  0.
        254    2    1    2    0    0  0.10456209944E+04  0.57666728930E+03 -0.67314252900E+03  0.16424633341E+04  0.90481849721E+03 0.  0.
        -24    2    4    4    0    0  0.88586178477E+03  0.69823124698E+03 -0.80598562359E+03  0.13886259071E+04  0.79944408254E+02 0.  0.
         24    2    4    4    0    0  0.15975920966E+03 -0.12156395768E+03  0.13284309459E+03  0.25383742699E+03  0.80531675051E+02 0.  0.
         11    1    3    3    0    0 -0.10339817756E+04 -0.57939391822E+03 -0.92571572891E+03  0.15039166318E+04  0.00000000000E+00 0. -1.
        -11    1    3    3    0    0 -0.11639218825E+02  0.27266289172E+01 -0.55608008479E+01  0.13184400865E+02  0.00000000000E+00 0.  1.
          4    1    6    6  502    0  0.12349199843E+03 -0.12161360420E+03  0.13147395455E+03  0.21754434750E+03  0.00000000000E+00 0. -1.
          1    1    5    5  503    0  0.12004937962E+03  0.13094779321E+03 -0.13328874356E+03  0.22209247456E+03  0.00000000000E+00 0. -1.
         -2    1    5    5    0  503  0.76581240515E+03  0.56728345377E+03 -0.67269688002E+03  0.11665334325E+04  0.00000000000E+00 0.  1.
         -3    1    6    6    0  502  0.36267211227E+02  0.49646522542E-01  0.13691400389E+01  0.36293079497E+02  0.00000000000E+00 0.  1.
<mgrwt>
<rscale>  0 0.27218902E+04</rscale>
<asrwt>0</asrwt>
<pdfrwt beam="1">  1        2 0.36646026E+00 0.27218902E+04</pdfrwt>
<pdfrwt beam="2">  1       -2 0.11962656E+00 0.27218902E+04</pdfrwt>
<totfact> 0.19075082E+00</totfact>
</mgrwt>
</event>
<event>
12    1  0.1489025E-007  0.2397573E+04  0.7818608E-02  0.8440413E-01
         -2   -1    0    0    0  501 -0.00000000000E+00  0.00000000000E+00  0.13698341717E+04  0.13698341717E+04  0.00000000000E+00 0.  1.
          2   -1    0    0  501    0  0.00000000000E+00 -0.00000000000E+00 -0.10490971782E+04  0.10490971782E+04  0.00000000000E+00 0. -1.
         23    2    1    2    0    0  0.52895176082E+03 -0.41282301158E+03 -0.64391636874E+03  0.93453526699E+03  0.92277143171E+02 0.  0.
        254    2    1    2    0    0 -0.52895176082E+03  0.41282301158E+03  0.96465336217E+03  0.14843960829E+04  0.90700761722E+03 0.  0.
        -24    2    4    4    0    0  0.14722127448E+03  0.41273285278E+03  0.34270024295E+03  0.56219736205E+03  0.81239805221E+02 0.  0.
         24    2    4    4    0    0 -0.67617303530E+03  0.90158796425E-01  0.62195311922E+03  0.92219872087E+03  0.80092549429E+02 0.  0.
         11    1    3    3    0    0  0.12609340995E+03 -0.13027414524E+03 -0.13045567721E+03  0.22335976510E+03  0.00000000000E+00 0.  1.
        -11    1    3    3    0    0  0.40285835088E+03 -0.28254886634E+03 -0.51346069154E+03  0.71117550189E+03  0.00000000000E+00 0. -1.
          2    1    6    6  502    0 -0.20797313349E+03  0.14473255454E+02  0.23909861949E+03  0.31722302757E+03  0.00000000000E+00 0. -1.
          1    1    5    5  503    0 -0.74711621438E+00  0.10131331127E+02 -0.37470285875E+01  0.10827847260E+02  0.00000000000E+00 0. -1.
         -2    1    5    5    0  503  0.14796839070E+03  0.40260152165E+03  0.34644727154E+03  0.55136951479E+03  0.00000000000E+00 0.  1.
         -1    1    6    6    0  502 -0.46819990182E+03 -0.14383096657E+02  0.38285449973E+03  0.60497569331E+03  0.00000000000E+00 0.  1.
<mgrwt>
<rscale>  0 0.23975731E+04</rscale>
<asrwt>0</asrwt>
<pdfrwt beam="1">  1        2 0.16139957E+00 0.23975731E+04</pdfrwt>
<pdfrwt beam="2">  1       -2 0.21074372E+00 0.23975731E+04</pdfrwt>
<totfact> 0.23871298E+00</totfact>
</mgrwt>
</event>
<event>
12    1  0.1489025E-007  0.1917741E+04  0.7818608E-02  0.8646076E-01
         -2   -1    0    0    0  501 -0.00000000000E+00  0.00000000000E+00  0.45278494293E+03  0.45278494293E+03  0.00000000000E+00 0.  1.
          2   -1    0    0  501    0  0.00000000000E+00 -0.00000000000E+00 -0.20306165759E+04  0.20306165759E+04  0.00000000000E+00 0. -1.
         23    2    1    2    0    0  0.33657998061E+03 -0.47714954879E+03 -0.12154453023E+04  0.13513765942E+04  0.89183189206E+02 0.  0.
        254    2    1    2    0    0 -0.33657998061E+03  0.47714954879E+03 -0.36238633066E+03  0.11320249246E+04  0.89955477990E+03 0.  0.
        -24    2    4    4    0    0 -0.59902114917E+03  0.49269145403E+03 -0.17377087297E+03  0.79882507221E+03  0.79711816453E+02 0.  0.
         24    2    4    4    0    0  0.26244116856E+03 -0.15541905235E+02 -0.18861545770E+03  0.33319985240E+03  0.79557733638E+02 0.  0.
         13    1    3    3    0    0  0.22176731601E+03 -0.37772624225E+03 -0.93234415369E+03  0.10301084785E+04  0.00000000000E+00 0. -1.
        -13    1    3    3    0    0  0.11481266459E+03 -0.99423306543E+02 -0.28310114865E+03  0.32126811575E+03  0.00000000000E+00 0.  1.
          2    1    6    6  502    0  0.25853051417E+03 -0.19861701397E+02 -0.16152069373E+03  0.30548559449E+03  0.00000000000E+00 0. -1.
          3    1    5    5  503    0 -0.50634428806E+03  0.44980442039E+03 -0.15838746588E+03  0.69555383975E+03  0.00000000000E+00 0. -1.
         -4    1    5    5    0  503 -0.92676861113E+02  0.42887033636E+02 -0.15383407084E+02  0.10327123246E+03  0.00000000000E+00 0.  1.
         -3    1    6    6    0  502  0.39106543884E+01  0.43197961622E+01 -0.27094763969E+02  0.27714257904E+02  0.00000000000E+00 0.  1.
<mgrwt>
<rscale>  0 0.19177410E+04</rscale>
<asrwt>0</asrwt>
<pdfrwt beam="1">  1        2 0.31240256E+00 0.19177410E+04</pdfrwt>
<pdfrwt beam="2">  1       -2 0.69659221E-01 0.19177410E+04</pdfrwt>
<totfact> 0.11287422E+01</totfact>
</mgrwt>
</event>
<event>
12    1  0.1489025E-007  0.1490121E+04  0.7818608E-02  0.8891049E-01
          1   -1    0    0  501    0  0.00000000000E+00  0.00000000000E+00  0.53324192668E+03  0.53324192668E+03  0.00000000000E+00 0. -1.
         -1   -1    0    0    0  501 -0.00000000000E+00 -0.00000000000E+00 -0.10410195679E+04  0.10410195679E+04  0.00000000000E+00 0.  1.
         23    2    1    2    0    0 -0.35926991657E+03 -0.21944920060E+03  0.31309973986E+02  0.43175964692E+03  0.90571814849E+02 0.  0.
        254    2    1    2    0    0  0.35926991657E+03  0.21944920060E+03 -0.53908761517E+03  0.11425018476E+04  0.91512960306E+03 0.  0.
        -24    2    4    4    0    0  0.10741710321E+03  0.41882522404E+03 -0.65737490774E+03  0.79098836299E+03  0.81042079827E+02 0.  0.
         24    2    4    4    0    0  0.25185281335E+03 -0.19937602345E+03  0.11828729257E+03  0.35151348464E+03  0.79932521396E+02 0.  0.
         13    1    3    3    0    0 -0.36295037977E+03 -0.22195750152E+03  0.33577554942E+02  0.42676171672E+03  0.00000000000E+00 0. -1.
        -13    1    3    3    0    0  0.36804632043E+01  0.25083009261E+01 -0.22675809560E+01  0.49979302043E+01  0.00000000000E+00 0.  1.
          2    1    6    6  502    0  0.22348948122E+03 -0.19456042888E+03  0.86586710550E+02  0.30870466006E+03  0.00000000000E+00 0. -1.
          3    1    5    5  503    0  0.84235666077E+02  0.34705396666E+03 -0.48032722791E+03  0.59854519385E+03  0.00000000000E+00 0. -1.
         -4    1    5    5    0  503  0.23181437137E+02  0.71771257382E+02 -0.17704767983E+03  0.19244316913E+03  0.00000000000E+00 0.  1.
         -1    1    6    6    0  502  0.28363332139E+02 -0.48155945697E+01  0.31700582020E+02  0.42808824575E+02  0.00000000000E+00 0.  1.
<mgrwt>
<rscale>  0 0.14901212E+04</rscale>
<asrwt>0</asrwt>
<pdfrwt beam="1">  1        1 0.82037221E-01 0.14901212E+04</pdfrwt>
<pdfrwt beam="2">  1       -1 0.16015685E+00 0.14901212E+04</pdfrwt>
<totfact> 0.11432575E+01</totfact>
</mgrwt>
</event>
<event>
12    1  0.1489025E-007  0.1883554E+04  0.7818608E-02  0.8663086E-01
         -2   -1    0    0    0  501 -0.00000000000E+00  0.00000000000E+00  0.32737308106E+03  0.32737308106E+03  0.00000000000E+00 0.  1.
          2   -1    0    0  501    0  0.00000000000E+00 -0.00000000000E+00 -0.27092746737E+04  0.27092746737E+04  0.00000000000E+00 0. -1.
         23    2    1    2    0    0 -0.50290316269E+03  0.27838060743E+03 -0.16342429425E+04  0.17342788326E+04  0.81029132918E+02 0.  0.
        254    2    1    2    0    0  0.50290316269E+03 -0.27838060743E+03 -0.74765865020E+03  0.13023689222E+04  0.89820042237E+03 0.  0.
        -24    2    4    4    0    0  0.25549821862E+03  0.15063372279E+03  0.95175500529E+02  0.32155364296E+03  0.79802952588E+02 0.  0.
         24    2    4    4    0    0  0.24740494407E+03 -0.42901433022E+03 -0.84283415073E+03  0.98081527927E+03  0.79791632008E+02 0.  0.
         11    1    3    3    0    0 -0.33395690401E+03  0.20493501190E+03 -0.12071891005E+04  0.12691852099E+04  0.00000000000E+00 0. -1.
        -11    1    3    3    0    0 -0.16894625868E+03  0.73445595531E+02 -0.42705384200E+03  0.46509362261E+03  0.00000000000E+00 0.  1.
          4    1    6    6  502    0  0.46016373935E+02 -0.43346757579E+02 -0.14892686678E+03  0.16178893569E+03  0.00000000000E+00 0. -1.
          1    1    5    5  503    0  0.23151610886E+01 -0.71372991062E+01 -0.20742507811E+01  0.77848266326E+01  0.00000000000E+00 0. -1.
         -2    1    5    5    0  503  0.25318305753E+03  0.15777102189E+03  0.97249751310E+02  0.31376881633E+03  0.00000000000E+00 0.  1.
         -3    1    6    6    0  502  0.20138857014E+03 -0.38566757264E+03 -0.69390728394E+03  0.81902634358E+03  0.00000000000E+00 0.  1.
<mgrwt>
<rscale>  0 0.18835537E+04</rscale>
<asrwt>0</asrwt>
<pdfrwt beam="1">  1        2 0.41681150E+00 0.18835537E+04</pdfrwt>
<pdfrwt beam="2">  1       -2 0.50365088E-01 0.18835537E+04</pdfrwt>
<totfact> 0.91826391E+00</totfact>
</mgrwt>
</event>
<event>
12    1  0.1489025E-007  0.2327649E+04  0.7818608E-02  0.8467099E-01
          1   -1    0    0  501    0  0.00000000000E+00  0.00000000000E+00  0.12326118872E+04  0.12326118872E+04  0.00000000000E+00 0. -1.
         -1   -1    0    0    0  501 -0.00000000000E+00 -0.00000000000E+00 -0.10988758138E+04  0.10988758138E+04  0.00000000000E+00 0.  1.
         23    2    1    2    0    0  0.91937627347E+03  0.36676951600E+03 -0.11237800065E+03  0.10003991372E+04  0.91635192469E+02 0.  0.
        254    2    1    2    0    0 -0.91937627347E+03 -0.36676951600E+03  0.24611407404E+03  0.13310885638E+04  0.85524968120E+03 0.  0.
        -24    2    4    4    0    0 -0.10638726659E+04 -0.37673772325E+03  0.15470080549E+03  0.11418785086E+04  0.78726284138E+02 0.  0.
         24    2    4    4    0    0  0.14449639245E+03  0.99682072465E+01  0.91413268560E+02  0.18921005520E+03  0.80408250419E+02 0.  0.
         11    1    3    3    0    0  0.76978003391E+03  0.28879334862E+03 -0.12322117648E+03  0.83135212584E+03  0.00000000000E+00 0.  1.
        -11    1    3    3    0    0  0.14959623956E+03  0.77976167386E+02  0.10843175830E+02  0.16904701131E+03  0.00000000000E+00 0. -1.
          2    1    6    6  502    0  0.65358983243E+02 -0.33305955828E+02  0.56093643498E+02  0.92344898208E+02  0.00000000000E+00 0. -1.
          1    1    5    5  503    0 -0.26410680092E+03 -0.63019220100E+02  0.19632037900E+02  0.27223012564E+03  0.00000000000E+00 0. -1.
         -4    1    5    5    0  503 -0.79976586500E+03 -0.31371850315E+03  0.13506876759E+03  0.86964838297E+03  0.00000000000E+00 0.  1.
         -1    1    6    6    0  502  0.79137409203E+02  0.43274163074E+02  0.35319625062E+02  0.96865156995E+02  0.00000000000E+00 0.  1.
<mgrwt>
<rscale>  0 0.23276489E+04</rscale>
<asrwt>0</asrwt>
<pdfrwt beam="1">  1        1 0.18963260E+00 0.23276489E+04</pdfrwt>
<pdfrwt beam="2">  1       -1 0.16905782E+00 0.23276489E+04</pdfrwt>
<totfact> 0.22809491E+00</totfact>
</mgrwt>
</event>
<event>
12    1  0.1489025E-007  0.1544870E+04  0.7818608E-02  0.8855151E-01
          2   -1    0    0  501    0  0.00000000000E+00  0.00000000000E+00  0.80260160378E+03  0.80260160378E+03  0.00000000000E+00 0. -1.
         -2   -1    0    0    0  501 -0.00000000000E+00 -0.00000000000E+00 -0.74340263021E+03  0.74340263021E+03  0.00000000000E+00 0.  1.
         23    2    1    2    0    0  0.15594798048E+03  0.31408456622E+02 -0.46193544043E+03  0.49701419348E+03  0.91282493571E+02 0.  0.
        254    2    1    2    0    0 -0.15594798048E+03 -0.31408456622E+02  0.52113441400E+03  0.10489900405E+04  0.89637757886E+03 0.  0.
        -24    2    4    4    0    0  0.81449243905E+02 -0.40641457170E+03  0.10373190664E+03  0.43451005596E+03  0.78942364114E+02 0.  0.
         24    2    4    4    0    0 -0.23739722438E+03  0.37500611508E+03  0.41740250736E+03  0.61447998455E+03  0.79835892751E+02 0.  0.
         11    1    3    3    0    0  0.15309664115E+03  0.24263832142E+02 -0.46386879585E+03  0.48908238043E+03  0.00000000000E+00 0.  1.
        -11    1    3    3    0    0  0.28513393292E+01  0.71446244805E+01  0.19333554296E+01  0.79318130434E+01  0.00000000000E+00 0. -1.
          4    1    6    6  502    0 -0.17735287890E+02  0.68299178025E+02  0.94276417811E+02  0.11775976015E+03  0.00000000000E+00 0. -1.
          3    1    5    5  503    0  0.69053978519E+02 -0.30468115347E+03  0.42926982564E+02  0.31534391236E+03  0.00000000000E+00 0. -1.
         -4    1    5    5    0  503  0.12395265386E+02 -0.10173341823E+03  0.60804924080E+02  0.11916614360E+03  0.00000000000E+00 0.  1.
         -3    1    6    6    0  502 -0.21966193649E+03  0.30670693706E+03  0.32312608955E+03  0.49672022440E+03  0.00000000000E+00 0.  1.
<mgrwt>
<rscale>  0 0.15448704E+04</rscale>
<asrwt>0</asrwt>
<pdfrwt beam="1">  1        2 0.12347717E+00 0.15448704E+04</pdfrwt>
<pdfrwt beam="2">  1       -2 0.11436964E+00 0.15448704E+04</pdfrwt>
<totfact> 0.19737759E+01</totfact>
</mgrwt>
</event>
<event>
12    1  0.1489025E-007  0.1497809E+04  0.7818608E-02  0.8885911E-01
          1   -1    0    0  501    0  0.00000000000E+00  0.00000000000E+00  0.23994282115E+04  0.23994282115E+04  0.00000000000E+00 0. -1.
         -1   -1    0    0    0  501 -0.00000000000E+00 -0.00000000000E+00 -0.23374662090E+03  0.23374662090E+03  0.00000000000E+00 0.  1.
         23    2    1    2    0    0 -0.47021951842E+02  0.47231725397E+03  0.63656289624E+03  0.79939202444E+03  0.92307288553E+02 0.  0.
        254    2    1    2    0    0  0.47021951842E+02 -0.47231725397E+03  0.15291186944E+04  0.18337828080E+04  0.89401384385E+03 0.  0.
        -24    2    4    4    0    0 -0.14553063222E+03  0.13747008047E+03  0.92623200342E+03  0.95122906000E+03  0.82787755671E+02 0.  0.
         24    2    4    4    0    0  0.19255258406E+03 -0.60978733444E+03  0.60288669093E+03  0.88255374796E+03  0.80694888686E+02 0.  0.
         13    1    3    3    0    0 -0.39679354772E+02  0.30768059888E+03  0.48354416003E+03  0.57450566300E+03  0.00000000000E+00 0. -1.
        -13    1    3    3    0    0 -0.73425970700E+01  0.16463665509E+03  0.15301873622E+03  0.22488636145E+03  0.00000000000E+00 0.  1.
          4    1    6    6  502    0  0.21875742320E+01 -0.70341061432E+02  0.45171348391E+02  0.83624763796E+02  0.00000000000E+00 0. -1.
          1    1    5    5  503    0 -0.11812538624E+02  0.61446682468E+02  0.28880315818E+03  0.29550379868E+03  0.00000000000E+00 0. -1.
         -2    1    5    5    0  503 -0.13371809359E+03  0.76023398003E+02  0.63742884524E+03  0.65572526132E+03  0.00000000000E+00 0.  1.
         -3    1    6    6    0  502  0.19036500983E+03 -0.53944627301E+03  0.55771534254E+03  0.79892898416E+03  0.00000000000E+00 0.  1.
<mgrwt>
<rscale>  0 0.14978094E+04</rscale>
<asrwt>0</asrwt>
<pdfrwt beam="1">  1        1 0.36914279E+00 0.14978094E+04</pdfrwt>
<pdfrwt beam="2">  1       -1 0.35961020E-01 0.14978094E+04</pdfrwt>
<totfact> 0.11394969E+01</totfact>
</mgrwt>
</event>
<event>
12    1  0.1489025E-007  0.3719014E+04  0.7818608E-02  0.8063761E-01
         -2   -1    0    0    0  501 -0.00000000000E+00  0.00000000000E+00  0.17474267477E+04  0.17474267477E+04  0.00000000000E+00 0.  1.
          2   -1    0    0  501    0  0.00000000000E+00 -0.00000000000E+00 -0.19787764183E+04  0.19787764183E+04  0.00000000000E+00 0. -1.
         23    2    1    2    0    0 -0.13390629463E+04 -0.43855712097E+03 -0.11548657736E+04  0.18241394102E+04  0.91365805995E+02 0.  0.
        254    2    1    2    0    0  0.13390629463E+04  0.43855712097E+03  0.92351610299E+03  0.19020637558E+04  0.88291710599E+03 0.  0.
        -24    2    4    4    0    0  0.76181004645E+03  0.11620504987E+03  0.96159443961E+03  0.12349205631E+04  0.80664554030E+02 0.  0.
         24    2    4    4    0    0  0.57725289983E+03  0.32235207110E+03 -0.38078336626E+02  0.66714319270E+03  0.80612106701E+02 0.  0.
         13    1    3    3    0    0 -0.14261001204E+03 -0.70376485447E+02 -0.15429604516E+03  0.22158008662E+03  0.00000000000E+00 0.  1.
        -13    1    3    3    0    0 -0.11964529342E+04 -0.36818063552E+03 -0.10005697284E+04  0.16025593236E+04  0.00000000000E+00 0. -1.
          2    1    6    6  502    0  0.23594893796E+03  0.10433202279E+03 -0.46076904383E+02  0.26206898600E+03  0.00000000000E+00 0. -1.
          1    1    5    5  503    0  0.90905586528E+02  0.39239565895E+02  0.10839697113E+03  0.14681100961E+03  0.00000000000E+00 0. -1.
         -2    1    5    5    0  503  0.67090445992E+03  0.76965483976E+02  0.85319746849E+03  0.10881095534E+04  0.00000000000E+00 0.  1.
         -1    1    6    6    0  502  0.34130396186E+03  0.21802004831E+03  0.79985677571E+01  0.40507420670E+03  0.00000000000E+00 0.  1.
<mgrwt>
<rscale>  0 0.37190143E+04</rscale>
<asrwt>0</asrwt>
<pdfrwt beam="1">  1        2 0.30442714E+00 0.37190143E+04</pdfrwt>
<pdfrwt beam="2">  1       -2 0.26883488E+00 0.37190143E+04</pdfrwt>
<totfact> 0.27302632E-01</totfact>
</mgrwt>
</event>
<event>
12    1  0.1489025E-007  0.2157921E+04  0.7818608E-02  0.8536149E-01
         -2   -1    0    0    0  501 -0.00000000000E+00  0.00000000000E+00  0.10300830062E+04  0.10300830062E+04  0.00000000000E+00 0.  1.
          2   -1    0    0  501    0  0.00000000000E+00 -0.00000000000E+00 -0.11301576813E+04  0.11301576813E+04  0.00000000000E+00 0. -1.
         23    2    1    2    0    0  0.49118775589E+02 -0.44109129666E+03  0.72713609469E+03  0.85668368057E+03  0.90586103986E+02 0.  0.
        254    2    1    2    0    0 -0.49118775589E+02  0.44109129666E+03 -0.82721076978E+03  0.13035570070E+04  0.90443851460E+03 0.  0.
        -24    2    4    4    0    0 -0.12751241058E+03  0.53889631502E+03 -0.95590418690E+03  0.11076602829E+04  0.80559509466E+02 0.  0.
         24    2    4    4    0    0  0.78393634995E+02 -0.97805018358E+02  0.12869341712E+03  0.19589672409E+03  0.78116242075E+02 0.  0.
         13    1    3    3    0    0  0.34609450489E+02 -0.45797336938E+02  0.93344056765E+02  0.10958249435E+03  0.00000000000E+00 0. -1.
        -13    1    3    3    0    0  0.14509325099E+02 -0.39529395973E+03  0.63379203793E+03  0.74710118622E+03  0.00000000000E+00 0.  1.
          2    1    6    6  502    0  0.77395725581E+02 -0.10655419949E+03  0.13202730516E+03  0.18648084372E+03  0.00000000000E+00 0. -1.
          3    1    5    5  503    0 -0.10958247449E+03  0.31344425842E+03 -0.60652391015E+03  0.69146719043E+03  0.00000000000E+00 0. -1.
         -4    1    5    5    0  503 -0.17929936096E+02  0.22545205660E+03 -0.34938027674E+03  0.41619309246E+03  0.00000000000E+00 0.  1.
         -1    1    6    6    0  502  0.99790941405E+00  0.87491811313E+01 -0.33338880413E+01  0.94158803699E+01  0.00000000000E+00 0.  1.
<mgrwt>
<rscale>  0 0.21579214E+04</rscale>
<asrwt>0</asrwt>
<pdfrwt beam="1">  1        2 0.17387041E+00 0.21579214E+04</pdfrwt>
<pdfrwt beam="2">  1       -2 0.15847431E+00 0.21579214E+04</pdfrwt>
<totfact> 0.49504287E+00</totfact>
</mgrwt>
</event>
<event>
12    1  0.1489025E-007  0.1526557E+04  0.7818608E-02  0.8866983E-01
         -1   -1    0    0    0  501 -0.00000000000E+00  0.00000000000E+00  0.11752518084E+04  0.11752518084E+04  0.00000000000E+00 0.  1.
          1   -1    0    0  501    0  0.00000000000E+00 -0.00000000000E+00 -0.49571837974E+03  0.49571837974E+03  0.00000000000E+00 0. -1.
         23    2    1    2    0    0 -0.33050573903E+03 -0.33712676349E+03  0.86207200734E+02  0.48914678860E+03  0.94574844149E+02 0.  0.
        254    2    1    2    0    0  0.33050573903E+03  0.33712676349E+03  0.59332622791E+03  0.11818233995E+04  0.90652194498E+03 0.  0.
        -24    2    4    4    0    0  0.26105341668E+03 -0.22112489522E+03  0.49208694536E+03  0.60469380771E+03  0.80373712424E+02 0.  0.
         24    2    4    4    0    0  0.69452322349E+02  0.55825165872E+03  0.10123928256E+03  0.57712959181E+03  0.79753582173E+02 0.  0.
         11    1    3    3    0    0 -0.11906223599E+03 -0.16796578346E+03  0.71564814039E+02  0.21796752754E+03  0.00000000000E+00 0. -1.
        -11    1    3    3    0    0 -0.21144350304E+03 -0.16916098003E+03  0.14642386695E+02  0.27117926106E+03  0.00000000000E+00 0.  1.
          4    1    6    6  502    0  0.82539002918E+02  0.36550548632E+03  0.58176829541E+02  0.37919848500E+03  0.00000000000E+00 0. -1.
          3    1    5    5  503    0  0.18581261592E+03 -0.19323251399E+03  0.41031358768E+03  0.49012485443E+03  0.00000000000E+00 0. -1.
         -4    1    5    5    0  503  0.75240800764E+02 -0.27892381229E+02  0.81773357680E+02  0.11456895328E+03  0.00000000000E+00 0.  1.
         -3    1    6    6    0  502 -0.13086680570E+02  0.19274617239E+03  0.43062453015E+02  0.19793110680E+03  0.00000000000E+00 0.  1.
<mgrwt>
<rscale>  0 0.15265568E+04</rscale>
<asrwt>0</asrwt>
<pdfrwt beam="1">  1        1 0.76264367E-01 0.15265568E+04</pdfrwt>
<pdfrwt beam="2">  1       -1 0.18080797E+00 0.15265568E+04</pdfrwt>
<totfact> 0.88891466E+00</totfact>
</mgrwt>
</event>
<event>
12    1  0.1489025E-007  0.1449170E+04  0.7818608E-02  0.8918976E-01
         -2   -1    0    0    0  501 -0.00000000000E+00  0.00000000000E+00  0.49828030909E+03  0.49828030909E+03  0.00000000000E+00 0.  1.
          2   -1    0    0  501    0  0.00000000000E+00 -0.00000000000E+00 -0.10536701433E+04  0.10536701433E+04  0.00000000000E+00 0. -1.
         23    2    1    2    0    0  0.11773033038E+03  0.31264213393E+03  0.13563560763E+03  0.37002399315E+03  0.83157698685E+02 0.  0.
        254    2    1    2    0    0 -0.11773033038E+03 -0.31264213393E+03 -0.69102544184E+03  0.11819264592E+04  0.89879277878E+03 0.  0.
        -24    2    4    4    0    0  0.74339576547E+02 -0.49928565452E+03 -0.89558965348E+02  0.51877976573E+03  0.79366867239E+02 0.  0.
         24    2    4    4    0    0 -0.19206990693E+03  0.18664352058E+03 -0.60146647650E+03  0.66314669351E+03  0.79214656760E+02 0.  0.
         11    1    3    3    0    0  0.64952326602E+02  0.21666824672E+03  0.51687746912E+02  0.23202490610E+03  0.00000000000E+00 0.  1.
        -11    1    3    3    0    0  0.52778003781E+02  0.95973887209E+02  0.83947860717E+02  0.13799908706E+03  0.00000000000E+00 0. -1.
          2    1    6    6  502    0 -0.47193111594E+02  0.14596225108E+02 -0.16352261376E+03  0.17082120705E+03  0.00000000000E+00 0. -1.
          1    1    5    5  503    0  0.60032744642E+01 -0.20772208333E+03 -0.60818076505E+01  0.20789779121E+03  0.00000000000E+00 0. -1.
         -4    1    5    5    0  503  0.68336302083E+02 -0.29156357119E+03 -0.83477157698E+02  0.31088197452E+03  0.00000000000E+00 0.  1.
         -1    1    6    6    0  502 -0.14487679534E+03  0.17204729548E+03 -0.43794386274E+03  0.49232548646E+03  0.00000000000E+00 0.  1.
<mgrwt>
<rscale>  0 0.14491695E+04</rscale>
<asrwt>0</asrwt>
<pdfrwt beam="1">  1        2 0.16210310E+00 0.14491695E+04</pdfrwt>
<pdfrwt beam="2">  1       -2 0.76658510E-01 0.14491695E+04</pdfrwt>
<totfact> 0.34353640E+01</totfact>
</mgrwt>
</event>
<event>
12    1  0.1489025E-007  0.1641214E+04  0.7818608E-02  0.8795621E-01
         -2   -1    0    0    0  501 -0.00000000000E+00  0.00000000000E+00  0.11849997686E+04  0.11849997686E+04  0.00000000000E+00 0.  1.
          2   -1    0    0  501    0  0.00000000000E+00 -0.00000000000E+00 -0.56826684652E+03  0.56826684652E+03  0.00000000000E+00 0. -1.
         23    2    1    2    0    0  0.22212411880E+03 -0.34275741358E+03 -0.21271532475E+03  0.46912789536E+03  0.89506447266E+02 0.  0.
        254    2    1    2    0    0 -0.22212411880E+03  0.34275741358E+03  0.82944824681E+03  0.12841387197E+04  0.89118241046E+03 0.  0.
        -24    2    4    4    0    0 -0.36332215054E+03 -0.72910305918E+02  0.46185966833E+02  0.38258967175E+03  0.83203459129E+02 0.  0.
         24    2    4    4    0    0  0.14119803175E+03  0.41566771950E+03  0.78326227998E+03  0.90154904800E+03  0.81082362571E+02 0.  0.
         13    1    3    3    0    0  0.22541961998E+03 -0.34578829065E+03 -0.20672122056E+03  0.46164619575E+03  0.00000000000E+00 0. -1.
        -13    1    3    3    0    0 -0.32955011832E+01  0.30308770732E+01 -0.59941041907E+01  0.74816996017E+01  0.00000000000E+00 0.  1.
          2    1    6    6  502    0  0.15548573285E+02  0.74005146641E+02  0.20211951086E+03  0.21580272596E+03  0.00000000000E+00 0. -1.
          1    1    5    5  503    0 -0.59143393484E+00 -0.11192106332E+02  0.52474001370E+01  0.12375307933E+02  0.00000000000E+00 0. -1.
         -2    1    5    5    0  503 -0.36273071661E+03 -0.61718199587E+02  0.40938566696E+02  0.37021436381E+03  0.00000000000E+00 0.  1.
         -1    1    6    6    0  502  0.12564945846E+03  0.34166257285E+03  0.58114276912E+03  0.68574632204E+03  0.00000000000E+00 0.  1.
<mgrwt>
<rscale>  0 0.16412143E+04</rscale>
<asrwt>0</asrwt>
<pdfrwt beam="1">  1        2 0.87425669E-01 0.16412143E+04</pdfrwt>
<pdfrwt beam="2">  1       -2 0.18230766E+00 0.16412143E+04</pdfrwt>
<totfact> 0.88392597E+00</totfact>
</mgrwt>
</event>
<event>
12    1  0.1798012E-007  0.2189854E+04  0.7818608E-02  0.8522663E-01
          2   -1    0    0  501    0  0.00000000000E+00  0.00000000000E+00  0.20617322910E+04  0.20617322910E+04  0.00000000000E+00 0. -1.
         -2   -1    0    0    0  501 -0.00000000000E+00 -0.00000000000E+00 -0.58148419848E+03  0.58148419848E+03  0.00000000000E+00 0.  1.
         23    2    1    2    0    0 -0.80507089976E+02  0.40997078125E+03  0.15943021182E+04  0.16505886278E+04  0.89922972700E+02 0.  0.
        254    2    1    2    0    0  0.80507089976E+02 -0.40997078125E+03 -0.11405402570E+03  0.99262786168E+03  0.89316533632E+03 0.  0.
        -24    2    4    4    0    0  0.15265378500E+02 -0.57416915459E+03 -0.35772937293E+03  0.68174675958E+03  0.83096871630E+02 0.  0.
         24    2    4    4    0    0  0.65241711476E+02  0.16419837334E+03  0.24367534723E+03  0.31088110210E+03  0.77793303523E+02 0.  0.
         13    1    3    3    0    0 -0.12717383756E+02  0.59619616817E+01  0.10636866986E+03  0.10729198835E+03  0.00000000000E+00 0.  1.
        -13    1    3    3    0    0 -0.67789706221E+02  0.40400881957E+03  0.14879334484E+04  0.15432966394E+04  0.00000000000E+00 0. -1.
          2    1    6    6  502    0  0.80993574750E+02  0.13468876089E+03  0.18003079542E+03  0.23898139836E+03  0.00000000000E+00 0. -1.
          1    1    5    5  503    0  0.97140580049E-01 -0.53465783389E+03 -0.34914582556E+03  0.63856230415E+03  0.00000000000E+00 0. -1.
         -2    1    5    5    0  503  0.15168237920E+02 -0.39511320706E+02 -0.85835473702E+01  0.43184455432E+02  0.00000000000E+00 0.  1.
         -1    1    6    6    0  502 -0.15751863274E+02  0.29509612450E+02  0.63644551813E+02  0.71899703748E+02  0.00000000000E+00 0.  1.
<mgrwt>
<rscale>  0 0.21898536E+04</rscale>
<asrwt>0</asrwt>
<pdfrwt beam="1">  1        2 0.31718958E+00 0.21898536E+04</pdfrwt>
<pdfrwt beam="2">  1       -2 0.89459108E-01 0.21898536E+04</pdfrwt>
<totfact> 0.60502125E+00</totfact>
</mgrwt>
</event>
<event>
12    1  0.1489025E-007  0.1748960E+04  0.7818608E-02  0.8733923E-01
          1   -1    0    0  501    0  0.00000000000E+00  0.00000000000E+00  0.13195571540E+04  0.13195571540E+04  0.00000000000E+00 0. -1.
         -1   -1    0    0    0  501 -0.00000000000E+00 -0.00000000000E+00 -0.57952401975E+03  0.57952401975E+03  0.00000000000E+00 0.  1.
         23    2    1    2    0    0  0.49108002860E+03 -0.41943591466E+03  0.24576645982E+03  0.69660873141E+03  0.88184414222E+02 0.  0.
        254    2    1    2    0    0 -0.49108002860E+03  0.41943591466E+03  0.49426667445E+03  0.12024724423E+04  0.88575072574E+03 0.  0.
        -24    2    4    4    0    0 -0.19797593872E+02  0.46538505734E+03  0.54217722804E+03  0.71950093096E+03  0.82159885119E+02 0.  0.
         24    2    4    4    0    0 -0.47128243473E+03 -0.45949142686E+02 -0.47910553593E+02  0.48297151139E+03  0.82143792668E+02 0.  0.
         13    1    3    3    0    0  0.12893694896E+01 -0.12025068883E+02 -0.33496310256E+01  0.12549294136E+02  0.00000000000E+00 0. -1.
        -13    1    3    3    0    0  0.48979065911E+03 -0.40741084578E+03  0.24911609084E+03  0.68405943727E+03  0.00000000000E+00 0.  1.
          2    1    6    6  502    0 -0.45059720361E+03 -0.56005469292E+02 -0.58191735191E+02  0.45777803632E+03  0.00000000000E+00 0. -1.
          3    1    5    5  503    0  0.26298558302E+02  0.13734776046E+03  0.13241625714E+03  0.19258786728E+03  0.00000000000E+00 0. -1.
         -4    1    5    5    0  503 -0.46096152174E+02  0.32803729689E+03  0.40976097090E+03  0.52691306367E+03  0.00000000000E+00 0.  1.
         -1    1    6    6    0  502 -0.20685231120E+02  0.10056326606E+02  0.10281181598E+02  0.25193475075E+02  0.00000000000E+00 0.  1.
<mgrwt>
<rscale>  0 0.17489598E+04</rscale>
<asrwt>0</asrwt>
<pdfrwt beam="1">  1        1 0.20300879E+00 0.17489598E+04</pdfrwt>
<pdfrwt beam="2">  1       -1 0.89157542E-01 0.17489598E+04</pdfrwt>
<totfact> 0.10238079E+01</totfact>
</mgrwt>
</event>
<event>
12    1  0.1489025E-007  0.2101804E+04  0.7818608E-02  0.8560449E-01
          2   -1    0    0  501    0  0.00000000000E+00  0.00000000000E+00  0.66448167948E+03  0.66448167948E+03  0.00000000000E+00 0.  1.
         -2   -1    0    0    0  501 -0.00000000000E+00 -0.00000000000E+00 -0.16620402926E+04  0.16620402926E+04  0.00000000000E+00 0. -1.
         23    2    1    2    0    0  0.94285879356E+02 -0.77734852454E+03 -0.78416342034E+03  0.11121497217E+04  0.93830581967E+02 0.  0.
        254    2    1    2    0    0 -0.94285879356E+02  0.77734852454E+03 -0.21339519278E+03  0.12143722503E+04  0.90332823406E+03 0.  0.
        -24    2    4    4    0    0  0.36994357083E+03  0.55989996844E+03 -0.14489944579E+03  0.69141664915E+03  0.81944573212E+02 0.  0.
         24    2    4    4    0    0 -0.46422945018E+03  0.21744855610E+03 -0.68495746987E+02  0.52295560119E+03  0.77446991496E+02 0.  0.
         11    1    3    3    0    0  0.91942821738E+02 -0.65867157184E+03 -0.70660910331E+03  0.97035980281E+03  0.00000000000E+00 0. -1.
        -11    1    3    3    0    0  0.23430576180E+01 -0.11867695270E+03 -0.77554317030E+02  0.14178991893E+03  0.00000000000E+00 0.  1.
          4    1    6    6  502    0 -0.45689163903E+03  0.22010894669E+03 -0.75168019839E+02  0.51268718478E+03  0.00000000000E+00 0. -1.
          3    1    5    5  503    0  0.10235660965E+03  0.13108769873E+03 -0.69992075817E+02  0.18044320706E+03  0.00000000000E+00 0. -1.
         -4    1    5    5    0  503  0.26758696118E+03  0.42881226971E+03 -0.74907369977E+02  0.51097344209E+03  0.00000000000E+00 0.  1.
         -3    1    6    6    0  502 -0.73378111545E+01 -0.26603905881E+01  0.66722728519E+01  0.10268416413E+02  0.00000000000E+00 0.  1.
<mgrwt>
<rscale>  0 0.21018043E+04</rscale>
<asrwt>0</asrwt>
<pdfrwt beam="1">  1        2 0.10222795E+00 0.21018043E+04</pdfrwt>
<pdfrwt beam="2">  1       -2 0.25569851E+00 0.21018043E+04</pdfrwt>
<totfact> 0.23893905E+00</totfact>
</mgrwt>
</event>
<event>
12    1  0.1489025E-007  0.2477434E+04  0.7818608E-02  0.8411069E-01
         -1   -1    0    0    0  501 -0.00000000000E+00  0.00000000000E+00  0.87760612238E+03  0.87760612238E+03  0.00000000000E+00 0.  1.
          1   -1    0    0  501    0  0.00000000000E+00 -0.00000000000E+00 -0.17484151263E+04  0.17484151263E+04  0.00000000000E+00 0. -1.
         23    2    1    2    0    0  0.52089701293E+03 -0.92393920135E+03 -0.20915108788E+03  0.10848046062E+04  0.89774774591E+02 0.  0.
        254    2    1    2    0    0 -0.52089701293E+03  0.92393920135E+03 -0.66165791605E+03  0.15412166425E+04  0.90142120864E+03 0.  0.
        -24    2    4    4    0    0 -0.83958331181E+02  0.18381613944E+03  0.22007791118E+03  0.30735140008E+03  0.72064010766E+02 0.  0.
         24    2    4    4    0    0 -0.43693868175E+03  0.74012306191E+03 -0.88173582722E+03  0.12338652424E+04  0.79169495840E+02 0.  0.
         11    1    3    3    0    0  0.21540029110E+03 -0.44750771437E+03 -0.12957313573E+03  0.51327345278E+03  0.00000000000E+00 0. -1.
        -11    1    3    3    0    0  0.30549672183E+03 -0.47643148698E+03 -0.79577952148E+02  0.57153115340E+03  0.00000000000E+00 0.  1.
          4    1    6    6  502    0 -0.15017406002E+03  0.31670982731E+03 -0.32659019831E+03  0.47908091242E+03  0.00000000000E+00 0. -1.
          1    1    5    5  503    0  0.22696264954E+01 -0.17048412163E+01  0.23373604763E+02  0.23545341102E+02  0.00000000000E+00 0. -1.
         -2    1    5    5    0  503 -0.86227957677E+02  0.18552098066E+03  0.19670430642E+03  0.28380605898E+03  0.00000000000E+00 0.  1.
         -3    1    6    6    0  502 -0.28676462173E+03  0.42341323460E+03 -0.55514562892E+03  0.75478433000E+03  0.00000000000E+00 0.  1.
<mgrwt>
<rscale>  0 0.24774340E+04</rscale>
<asrwt>0</asrwt>
<pdfrwt beam="1">  1        1 0.26898694E+00 0.24774340E+04</pdfrwt>
<pdfrwt beam="2">  1       -1 0.13501633E+00 0.24774340E+04</pdfrwt>
<totfact> 0.18105009E+00</totfact>
</mgrwt>
</event>
<event>
12    1  0.2428618E-007  0.2617414E+04  0.7818608E-02  0.8362310E-01
          2   -1    0    0  501    0  0.00000000000E+00  0.00000000000E+00  0.27811129916E+04  0.27811129916E+04  0.00000000000E+00 0. -1.
         -2   -1    0    0    0  501 -0.00000000000E+00 -0.00000000000E+00 -0.61583768836E+03  0.61583768836E+03  0.00000000000E+00 0.  1.
         23    2    1    2    0    0 -0.19819591670E+03  0.17398167746E+03  0.23679738876E+04  0.23860265380E+04  0.12755807335E+03 0.  0.
        254    2    1    2    0    0  0.19819591670E+03 -0.17398167746E+03 -0.20269858442E+03  0.10109241419E+04  0.95463587776E+03 0.  0.
        -24    2    4    4    0    0  0.61692905846E+02  0.31413018002E+03 -0.34618389986E+03  0.47799950273E+03  0.78463032426E+02 0.  0.
         24    2    4    4    0    0  0.13650301085E+03 -0.48811185748E+03  0.14348531544E+03  0.53292463919E+03  0.80835499116E+02 0.  0.
         11    1    3    3    0    0 -0.13338009573E+02  0.29848606858E+02  0.85332864150E+02  0.91381286568E+02  0.00000000000E+00 0.  1.
        -11    1    3    3    0    0 -0.18485790713E+03  0.14413307060E+03  0.22826410235E+04  0.22946452515E+04  0.00000000000E+00 0. -1.
          4    1    6    6  502    0  0.11523167495E+03 -0.46502961733E+03  0.14748720045E+03  0.50128171541E+03  0.00000000000E+00 0. -1.
          1    1    5    5  503    0  0.64076472859E+02  0.31074514016E+03 -0.31693738548E+03  0.44846141732E+03  0.00000000000E+00 0. -1.
         -2    1    5    5    0  503 -0.23835670134E+01  0.33850398599E+01 -0.29246514377E+02  0.29538085412E+02  0.00000000000E+00 0.  1.
         -1    1    6    6    0  502  0.21271335905E+02 -0.23082240153E+02 -0.40018850088E+01  0.31642923779E+02  0.00000000000E+00 0.  1.
<mgrwt>
<rscale>  0 0.26174141E+04</rscale>
<asrwt>0</asrwt>
<pdfrwt beam="1">  1        2 0.42786353E+00 0.26174141E+04</pdfrwt>
<pdfrwt beam="2">  1       -2 0.94744261E-01 0.26174141E+04</pdfrwt>
<totfact> 0.19662922E+00</totfact>
</mgrwt>
</event>
<event>
12    1  0.1489025E-007  0.1384889E+04  0.7818608E-02  0.8964830E-01
         -1   -1    0    0    0  501 -0.00000000000E+00  0.00000000000E+00  0.68644785601E+03  0.68644785601E+03  0.00000000000E+00 0.  1.
          1   -1    0    0  501    0  0.00000000000E+00 -0.00000000000E+00 -0.69849330680E+03  0.69849330680E+03  0.00000000000E+00 0. -1.
         23    2    1    2    0    0  0.23880276433E+03 -0.57785590923E+02  0.27823673418E+03  0.38250302594E+03  0.92341484903E+02 0.  0.
        254    2    1    2    0    0 -0.23880276433E+03  0.57785590923E+02 -0.29028218497E+03  0.10024381369E+04  0.92749799816E+03 0.  0.
        -24    2    4    4    0    0 -0.52158540748E+03 -0.92419284695E+02 -0.38470960391E+03  0.65933914168E+03  0.78319620279E+02 0.  0.
         24    2    4    4    0    0  0.28278264315E+03  0.15020487562E+03  0.94427418940E+02  0.34309899520E+03  0.79201358157E+02 0.  0.
         13    1    3    3    0    0  0.10329710153E+03  0.86479200611E+01  0.69012982040E+02  0.12453059622E+03  0.00000000000E+00 0. -1.
        -13    1    3    3    0    0  0.13550566280E+03 -0.66433510985E+02  0.20922375214E+03  0.25797242972E+03  0.00000000000E+00 0.  1.
          2    1    6    6  502    0  0.14799008304E+03  0.53875201681E+02  0.11722296696E+02  0.15792724361E+03  0.00000000000E+00 0. -1.
          1    1    5    5  503    0 -0.19329092589E+03 -0.20063000404E+02 -0.98680790881E+02  0.21794908695E+03  0.00000000000E+00 0. -1.
         -2    1    5    5    0  503 -0.32829448160E+03 -0.72356284291E+02 -0.28602881303E+03  0.44139005472E+03  0.00000000000E+00 0.  1.
         -1    1    6    6    0  502  0.13479256011E+03  0.96329673937E+02  0.82705122245E+02  0.18517175159E+03  0.00000000000E+00 0.  1.
<mgrwt>
<rscale>  0 0.13848888E+04</rscale>
<asrwt>0</asrwt>
<pdfrwt beam="1">  1        1 0.10746051E+00 0.13848888E+04</pdfrwt>
<pdfrwt beam="2">  1       -1 0.10560736E+00 0.13848888E+04</pdfrwt>
<totfact> 0.22423161E+01</totfact>
</mgrwt>
</event>
<event>
12    1  0.1489025E-007  0.1145261E+04  0.7818608E-02  0.9162166E-01
          1   -1    0    0  501    0  0.00000000000E+00  0.00000000000E+00  0.33905392299E+03  0.33905392299E+03  0.00000000000E+00 0. -1.
         -1   -1    0    0    0  501 -0.00000000000E+00 -0.00000000000E+00 -0.96711990560E+03  0.96711990560E+03  0.00000000000E+00 0.  1.
         23    2    1    2    0    0  0.18129066185E+03 -0.79640442630E+02 -0.77790444937E+02  0.23415115473E+03  0.97808515799E+02 0.  0.
        254    2    1    2    0    0 -0.18129066185E+03  0.79640442630E+02 -0.55027553767E+03  0.10720226739E+04  0.89845452958E+03 0.  0.
        -24    2    4    4    0    0  0.29178134714E+03  0.16105280911E+03 -0.74840860270E+01  0.34248957031E+03  0.78541278145E+02 0.  0.
         24    2    4    4    0    0 -0.47307200898E+03 -0.81412366479E+02 -0.54279145165E+03  0.72953310354E+03  0.84681108156E+02 0.  0.
         11    1    3    3    0    0  0.87925706317E+02 -0.25824853343E+02  0.13862597708E+02  0.92682385040E+02  0.00000000000E+00 0. -1.
        -11    1    3    3    0    0  0.93364955529E+02 -0.53815589287E+02 -0.91653042645E+02  0.14146876969E+03  0.00000000000E+00 0.  1.
          4    1    6    6  502    0 -0.40258995720E+03 -0.58614305952E+02 -0.49765860774E+03  0.64278954593E+03  0.00000000000E+00 0. -1.
          1    1    5    5  503    0  0.14928287075E+03  0.10570586059E+03 -0.37445082365E+02  0.18671164574E+03  0.00000000000E+00 0. -1.
         -2    1    5    5    0  503  0.14249847639E+03  0.55346948518E+02  0.29960996338E+02  0.15577792457E+03  0.00000000000E+00 0.  1.
         -3    1    6    6    0  502 -0.70482051778E+02 -0.22798060527E+02 -0.45132843905E+02  0.86743557603E+02  0.00000000000E+00 0.  1.
<mgrwt>
<rscale>  0 0.11452612E+04</rscale>
<asrwt>0</asrwt>
<pdfrwt beam="1">  1        1 0.52162143E-01 0.11452612E+04</pdfrwt>
<pdfrwt beam="2">  1       -1 0.14878767E+00 0.11452612E+04</pdfrwt>
<totfact> 0.26461103E+01</totfact>
</mgrwt>
</event>
<event>
12    1  0.1489025E-007  0.1359334E+04  0.7818608E-02  0.8983792E-01
         -2   -1    0    0    0  501 -0.00000000000E+00  0.00000000000E+00  0.50156118694E+03  0.50156118694E+03  0.00000000000E+00 0. -1.
          2   -1    0    0  501    0  0.00000000000E+00 -0.00000000000E+00 -0.92101894024E+03  0.92101894024E+03  0.00000000000E+00 0.  1.
         23    2    1    2    0    0 -0.29240005223E+02 -0.36767209880E+03 -0.75906927275E+02  0.38816848675E+03  0.94208080089E+02 0.  0.
        254    2    1    2    0    0  0.29240005223E+02  0.36767209880E+03 -0.34355082603E+03  0.10344116404E+04  0.90329536790E+03 0.  0.
        -24    2    4    4    0    0  0.40163691423E+03  0.16232143793E+03 -0.40412811425E+03  0.59754959477E+03  0.78009777538E+02 0.  0.
         24    2    4    4    0    0 -0.37239690901E+03  0.20535066087E+03  0.60577288224E+02  0.43686204567E+03  0.79564359739E+02 0.  0.
         13    1    3    3    0    0 -0.18138487136E+02 -0.14774993795E+03  0.15672723669E+02  0.14968193994E+03  0.00000000000E+00 0. -1.
        -13    1    3    3    0    0 -0.11101518087E+02 -0.21992216085E+03 -0.91579650944E+02  0.23848654680E+03  0.00000000000E+00 0.  1.
          2    1    6    6  502    0 -0.46775416165E+02  0.12925799057E+02 -0.15727625604E+02  0.51013469258E+02  0.00000000000E+00 0. -1.
          3    1    5    5  503    0  0.68507091755E+02  0.13139404574E+02 -0.33577763918E+02  0.77416611932E+02  0.00000000000E+00 0. -1.
         -4    1    5    5    0  503  0.33312982247E+03  0.14918203335E+03 -0.37055035034E+03  0.52013298283E+03  0.00000000000E+00 0.  1.
         -1    1    6    6    0  502 -0.32562149284E+03  0.19242486181E+03  0.76304913828E+02  0.38584857641E+03  0.00000000000E+00 0.  1.
<mgrwt>
<rscale>  0 0.13593342E+04</rscale>
<asrwt>0</asrwt>
<pdfrwt beam="1">  1        2 0.14169522E+00 0.13593342E+04</pdfrwt>
<pdfrwt beam="2">  1       -2 0.77163261E-01 0.13593342E+04</pdfrwt>
<totfact> 0.41536904E+01</totfact>
</mgrwt>
</event>
<event>
12    1  0.1489025E-007  0.2223808E+04  0.7818608E-02  0.8508584E-01
         -2   -1    0    0    0  501 -0.00000000000E+00  0.00000000000E+00  0.52401111529E+03  0.52401111529E+03  0.00000000000E+00 0.  1.
          2   -1    0    0  501    0  0.00000000000E+00 -0.00000000000E+00 -0.23593589678E+04  0.23593589678E+04  0.00000000000E+00 0. -1.
         23    2    1    2    0    0 -0.66618818752E+03  0.50267893333E+03 -0.13009619331E+04  0.15482360838E+04  0.89667209881E+02 0.  0.
        254    2    1    2    0    0  0.66618818752E+03 -0.50267893333E+03 -0.53438591941E+03  0.13351339993E+04  0.89471876813E+03 0.  0.
        -24    2    4    4    0    0  0.70726796084E+03 -0.47536318498E+03 -0.72272656290E+03  0.11207915476E+04  0.87417860442E+02 0.  0.
         24    2    4    4    0    0 -0.41079773318E+02 -0.27315748354E+02  0.18834064349E+03  0.21434245174E+03  0.89648149696E+02 0.  0.
         13    1    3    3    0    0 -0.64771930227E+03  0.50179263126E+03 -0.12560384230E+04  0.14996561804E+04  0.00000000000E+00 0. -1.
        -13    1    3    3    0    0 -0.18468885255E+02  0.88630207176E+00 -0.44923510101E+02  0.48579903393E+02  0.00000000000E+00 0.  1.
          4    1    6    6  502    0  0.19523787908E+02 -0.26445923054E+02  0.28897421801E+02  0.43767866377E+02  0.00000000000E+00 0. -1.
          1    1    5    5  503    0  0.12708914095E+03 -0.12620139294E+03 -0.13747416163E+03  0.22578216591E+03  0.00000000000E+00 0. -1.
         -2    1    5    5    0  503  0.58017881989E+03 -0.34916179204E+03 -0.58525240127E+03  0.89500938166E+03  0.00000000000E+00 0.  1.
         -3    1    6    6    0  502 -0.60603561226E+02 -0.86982530022E+00  0.15944322169E+03  0.17057458536E+03  0.00000000000E+00 0.  1.
<mgrwt>
<rscale>  0 0.22238078E+04</rscale>
<asrwt>0</asrwt>
<pdfrwt beam="1">  1        2 0.36297830E+00 0.22238078E+04</pdfrwt>
<pdfrwt beam="2">  1       -2 0.80617096E-01 0.22238078E+04</pdfrwt>
<totfact> 0.51977738E+00</totfact>
</mgrwt>
</event>
<event>
12    1  0.1489025E-007  0.1371399E+04  0.7818608E-02  0.8974786E-01
         -1   -1    0    0    0  501 -0.00000000000E+00  0.00000000000E+00  0.34230444716E+03  0.34230444716E+03  0.00000000000E+00 0.  1.
          1   -1    0    0  501    0  0.00000000000E+00 -0.00000000000E+00 -0.13735838975E+04  0.13735838975E+04  0.00000000000E+00 0. -1.
         23    2    1    2    0    0  0.35644697718E+03 -0.10265879486E+03 -0.17852170062E+03  0.42156273063E+03  0.90839763104E+02 0.  0.
        254    2    1    2    0    0 -0.35644697718E+03  0.10265879486E+03 -0.85275774968E+03  0.12943256140E+04  0.90027203648E+03 0.  0.
        -24    2    4    4    0    0  0.31621674859E+02 -0.19748846704E+03  0.87820253039E+02  0.23062953699E+03  0.73999740218E+02 0.  0.
         24    2    4    4    0    0 -0.38806865204E+03  0.30014726189E+03 -0.94057800272E+03  0.10636960770E+04  0.77953239232E+02 0.  0.
         13    1    3    3    0    0  0.39621935970E+02 -0.28814283166E+02 -0.54818355315E+02  0.73520152365E+02  0.00000000000E+00 0. -1.
        -13    1    3    3    0    0  0.31682504121E+03 -0.73844511689E+02 -0.12370334530E+03  0.34804257826E+03  0.00000000000E+00 0.  1.
          2    1    6    6  502    0 -0.35277194315E+03  0.28441351874E+03 -0.90011896375E+03  0.10077466162E+04  0.00000000000E+00 0. -1.
          3    1    5    5  503    0  0.35567569487E+02 -0.18568484057E+03  0.99427508378E+02  0.21361119222E+03  0.00000000000E+00 0. -1.
         -4    1    5    5    0  503 -0.39458946288E+01 -0.11803626466E+02 -0.11607255340E+02  0.17018344769E+02  0.00000000000E+00 0.  1.
         -1    1    6    6    0  502 -0.35296708889E+02  0.15733743159E+02 -0.40459038977E+02  0.55949460829E+02  0.00000000000E+00 0.  1.
<mgrwt>
<rscale>  0 0.13713991E+04</rscale>
<asrwt>0</asrwt>
<pdfrwt beam="1">  1        1 0.21132060E+00 0.13713991E+04</pdfrwt>
<pdfrwt beam="2">  1       -1 0.52662223E-01 0.13713991E+04</pdfrwt>
<totfact> 0.28474921E+01</totfact>
</mgrwt>
</event>
<event>
12    1  0.1489025E-007  0.1294460E+04  0.7818608E-02  0.9033970E-01
          2   -1    0    0  501    0  0.00000000000E+00  0.00000000000E+00  0.31538396624E+03  0.31538396624E+03  0.00000000000E+00 0. -1.
         -2   -1    0    0    0  501 -0.00000000000E+00 -0.00000000000E+00 -0.13282429305E+04  0.13282429305E+04  0.00000000000E+00 0.  1.
         23    2    1    2    0    0 -0.14401962146E+03 -0.16816362566E+03  0.35509380275E+02  0.24164175542E+03  0.90050905124E+02 0.  0.
        254    2    1    2    0    0  0.14401962146E+03  0.16816362566E+03 -0.10483683445E+04  0.14019851413E+04  0.90413798410E+03 0.  0.
        -24    2    4    4    0    0  0.40595452997E+03  0.35036952718E+03 -0.39751980240E+03  0.67242818870E+03  0.81115902696E+02 0.  0.
         24    2    4    4    0    0 -0.26193490852E+03 -0.18220590152E+03 -0.65084854213E+03  0.72955695262E+03  0.82708134232E+02 0.  0.
         13    1    3    3    0    0 -0.14037897901E+02 -0.37782864744E+02  0.40947737695E+02  0.57457155064E+02  0.00000000000E+00 0.  1.
        -13    1    3    3    0    0 -0.12998172356E+03 -0.13038076092E+03 -0.54383574195E+01  0.18418460035E+03  0.00000000000E+00 0. -1.
          2    1    6    6  502    0 -0.16355105658E+02  0.82773952655E+01 -0.27897964231E+02  0.33381149796E+02  0.00000000000E+00 0. -1.
          1    1    5    5  503    0  0.14739454735E+03  0.82750920678E+02 -0.10385632797E+03  0.19839103891E+03  0.00000000000E+00 0. -1.
         -2    1    5    5    0  503  0.25855998263E+03  0.26761860651E+03 -0.29366347442E+03  0.47403714978E+03  0.00000000000E+00 0.  1.
         -3    1    6    6    0  502 -0.24557980286E+03 -0.19048329679E+03 -0.62295057790E+03  0.69617580282E+03  0.00000000000E+00 0.  1.
<mgrwt>
<rscale>  0 0.12944598E+04</rscale>
<asrwt>0</asrwt>
<pdfrwt beam="1">  1        2 0.48520610E-01 0.12944598E+04</pdfrwt>
<pdfrwt beam="2">  1       -2 0.20434507E+00 0.12944598E+04</pdfrwt>
<totfact> 0.12674159E+01</totfact>
</mgrwt>
</event>
<event>
12    1  0.1489025E-007  0.1715672E+04  0.7818608E-02  0.8752476E-01
          1   -1    0    0  501    0  0.00000000000E+00  0.00000000000E+00  0.10203615592E+04  0.10203615592E+04  0.00000000000E+00 0. -1.
         -1   -1    0    0    0  501 -0.00000000000E+00 -0.00000000000E+00 -0.72119753504E+03  0.72119753504E+03  0.00000000000E+00 0.  1.
         23    2    1    2    0    0 -0.21252367305E+03  0.23727910085E+03 -0.42649523160E+03  0.54052815525E+03  0.93834006272E+02 0.  0.
        254    2    1    2    0    0  0.21252367305E+03 -0.23727910085E+03  0.72565925577E+03  0.12010309390E+04  0.90245569291E+03 0.  0.
        -24    2    4    4    0    0  0.29863396692E+03 -0.27743187083E+03 -0.47860541365E+02  0.41762013631E+03  0.77235080649E+02 0.  0.
         24    2    4    4    0    0 -0.86110293874E+02  0.40152769979E+02  0.77351979713E+03  0.78341080269E+03  0.79827198193E+02 0.  0.
         11    1    3    3    0    0 -0.20272614522E+03  0.17520918150E+03 -0.32576082669E+03  0.42180121319E+03  0.00000000000E+00 0. -1.
        -11    1    3    3    0    0 -0.97975278281E+01  0.62069919345E+02 -0.10073440491E+03  0.11872694206E+03  0.00000000000E+00 0.  1.
          4    1    6    6  502    0 -0.64072918317E+02  0.64710260228E+02  0.57589675109E+03  0.58305216281E+03  0.00000000000E+00 0. -1.
          3    1    5    5  503    0  0.18070396132E+03 -0.18520732310E+03  0.51317102819E+01  0.25880882639E+03  0.00000000000E+00 0. -1.
         -4    1    5    5    0  503  0.11793000560E+03 -0.92224547732E+02 -0.52992251647E+02  0.15881130993E+03  0.00000000000E+00 0.  1.
         -3    1    6    6    0  502 -0.22037375556E+02 -0.24557490249E+02  0.19762304605E+03  0.20035863989E+03  0.00000000000E+00 0.  1.
<mgrwt>
<rscale>  0 0.17156716E+04</rscale>
<asrwt>0</asrwt>
<pdfrwt beam="1">  1        1 0.15697870E+00 0.17156716E+04</pdfrwt>
<pdfrwt beam="2">  1       -1 0.11095347E+00 0.17156716E+04</pdfrwt>
<totfact> 0.10368265E+01</totfact>
</mgrwt>
</event>
<event>
12    1  0.1489025E-007  0.1395217E+04  0.7818608E-02  0.8957288E-01
          2   -1    0    0  501    0  0.00000000000E+00  0.00000000000E+00  0.61455441799E+03  0.61455441799E+03  0.00000000000E+00 0. -1.
         -2   -1    0    0    0  501 -0.00000000000E+00 -0.00000000000E+00 -0.79188747503E+03  0.79188747503E+03  0.00000000000E+00 0.  1.
         23    2    1    2    0    0 -0.37942683278E+03  0.34509779707E+02  0.89697008712E+02  0.40204729592E+03  0.91873981419E+02 0.  0.
        254    2    1    2    0    0  0.37942683278E+03 -0.34509779707E+02 -0.26703006574E+03  0.10043945971E+04  0.89013920503E+03 0.  0.
        -24    2    4    4    0    0 -0.26687474335E+03 -0.10344328441E+02  0.44029583609E+02  0.28223170902E+03  0.79918706043E+02 0.  0.
         24    2    4    4    0    0  0.64630157613E+03 -0.24165451266E+02 -0.31105964935E+03  0.72216288807E+03  0.80445230484E+02 0.  0.
         13    1    3    3    0    0 -0.14319605413E+03  0.30133327190E+02  0.77195007193E+02  0.16544544860E+03  0.00000000000E+00 0. -1.
        -13    1    3    3    0    0 -0.23623077865E+03  0.43764525172E+01  0.12502001519E+02  0.23660184733E+03  0.00000000000E+00 0.  1.
          4    1    6    6  502    0  0.13550185752E+03  0.25959788930E+02 -0.77805892470E+02  0.15839324776E+03  0.00000000000E+00 0. -1.
          1    1    5    5  503    0 -0.34455240777E+02 -0.16843969083E+02  0.31074000458E+02  0.49360676819E+02  0.00000000000E+00 0. -1.
         -2    1    5    5    0  503 -0.23241950258E+03  0.64996406422E+01  0.12955583151E+02  0.23287103221E+03  0.00000000000E+00 0.  1.
         -3    1    6    6    0  502  0.51079971861E+03 -0.50125240195E+02 -0.23325375688E+03  0.56376964031E+03  0.00000000000E+00 0.  1.
<mgrwt>
<rscale>  0 0.13952175E+04</rscale>
<asrwt>0</asrwt>
<pdfrwt beam="1">  1        2 0.94546834E-01 0.13952175E+04</pdfrwt>
<pdfrwt beam="2">  1       -2 0.12182884E+00 0.13952175E+04</pdfrwt>
<totfact> 0.23977944E+01</totfact>
</mgrwt>
</event>
<event>
12    1  0.1489025E-007  0.1781302E+04  0.7818608E-02  0.8716306E-01
          2   -1    0    0  501    0  0.00000000000E+00  0.00000000000E+00  0.18310443512E+04  0.18310443512E+04  0.00000000000E+00 0. -1.
         -2   -1    0    0    0  501 -0.00000000000E+00 -0.00000000000E+00 -0.43322796522E+03  0.43322796522E+03  0.00000000000E+00 0.  1.
         23    2    1    2    0    0 -0.31145918710E+03  0.38287125945E+03 -0.36501926922E+02  0.50140552830E+03  0.80485319166E+02 0.  0.
        254    2    1    2    0    0  0.31145918710E+03 -0.38287125945E+03  0.14343183129E+04  0.17628667881E+04  0.89823886766E+03 0.  0.
        -24    2    4    4    0    0  0.62312111135E+03 -0.24726087830E+03  0.90422207845E+03  0.11283683423E+04  0.78610988090E+02 0.  0.
         24    2    4    4    0    0 -0.31166192425E+03 -0.13561038115E+03  0.53009623447E+03  0.63449844582E+03  0.77864815137E+02 0.  0.
         13    1    3    3    0    0 -0.20533378979E+03  0.21913412767E+03  0.11294829766E+02  0.30051506505E+03  0.00000000000E+00 0.  1.
        -13    1    3    3    0    0 -0.10612539731E+03  0.16373713178E+03 -0.47796756688E+02  0.20089046326E+03  0.00000000000E+00 0. -1.
          2    1    6    6  502    0 -0.27833489544E+03 -0.96645547099E+02  0.41991229242E+03  0.51296881886E+03  0.00000000000E+00 0. -1.
          1    1    5    5  503    0  0.55700534920E+03 -0.19982303484E+03  0.76578351872E+03  0.96778541105E+03  0.00000000000E+00 0. -1.
         -2    1    5    5    0  503  0.66115762148E+02 -0.47437843457E+02  0.13843855973E+03  0.16058293127E+03  0.00000000000E+00 0.  1.
         -1    1    6    6    0  502 -0.33327028805E+02 -0.38964834054E+02  0.11018394205E+03  0.12152962696E+03  0.00000000000E+00 0.  1.
<mgrwt>
<rscale>  0 0.17813025E+04</rscale>
<asrwt>0</asrwt>
<pdfrwt beam="1">  1        2 0.28169913E+00 0.17813025E+04</pdfrwt>
<pdfrwt beam="2">  1       -2 0.66650457E-01 0.17813025E+04</pdfrwt>
<totfact> 0.16214551E+01</totfact>
</mgrwt>
</event>
<event>
12    1  0.1489025E-007  0.1439517E+04  0.7818608E-02  0.8925700E-01
         -2   -1    0    0    0  501 -0.00000000000E+00  0.00000000000E+00  0.21366576890E+03  0.21366576890E+03  0.00000000000E+00 0.  1.
          2   -1    0    0  501    0  0.00000000000E+00 -0.00000000000E+00 -0.24245923763E+04  0.24245923763E+04  0.00000000000E+00 0. -1.
         23    2    1    2    0    0  0.21650720172E+03  0.28227868595E+03 -0.23290066563E+03  0.43496094855E+03  0.91606122999E+02 0.  0.
        254    2    1    2    0    0 -0.21650720172E+03 -0.28227868595E+03 -0.19780259418E+04  0.22032971967E+04  0.90298133178E+03 0.  0.
        -24    2    4    4    0    0  0.71148394237E+02  0.19593144916E+03 -0.13124472396E+04  0.13313360847E+04  0.80540591143E+02 0.  0.
         24    2    4    4    0    0 -0.28765559596E+03 -0.47821013511E+03 -0.66557870220E+03  0.87196111202E+03  0.76749572246E+02 0.  0.
         13    1    3    3    0    0  0.50060134132E+01  0.15569585382E+02 -0.41138663038E+02  0.44270325906E+02  0.00000000000E+00 0. -1.
        -13    1    3    3    0    0  0.21150118831E+03  0.26670910057E+03 -0.19176200260E+03  0.39069062264E+03  0.00000000000E+00 0.  1.
          4    1    6    6  502    0 -0.19261231782E+03 -0.33554394994E+03 -0.51245342438E+03  0.64210416560E+03  0.00000000000E+00 0. -1.
          1    1    5    5  503    0  0.25815750255E+02  0.81594069066E+02 -0.31811471021E+03  0.32942527820E+03  0.00000000000E+00 0. -1.
         -2    1    5    5    0  503  0.45332643982E+02  0.11433738010E+03 -0.99433252940E+03  0.10019108065E+04  0.00000000000E+00 0.  1.
         -3    1    6    6    0  502 -0.95043278142E+02 -0.14266618517E+03 -0.15312527782E+03  0.22985694642E+03  0.00000000000E+00 0.  1.
<mgrwt>
<rscale>  0 0.14395171E+04</rscale>
<asrwt>0</asrwt>
<pdfrwt beam="1">  1        2 0.37301419E+00 0.14395171E+04</pdfrwt>
<pdfrwt beam="2">  1       -2 0.32871658E-01 0.14395171E+04</pdfrwt>
<totfact> 0.32334257E+01</totfact>
</mgrwt>
</event>
<event>
12    1  0.1489025E-007  0.1549765E+04  0.7818608E-02  0.8852018E-01
          2   -1    0    0  501    0  0.00000000000E+00  0.00000000000E+00  0.11479679640E+04  0.11479679640E+04  0.00000000000E+00 0. -1.
         -2   -1    0    0    0  501 -0.00000000000E+00 -0.00000000000E+00 -0.52304815749E+03  0.52304815749E+03  0.00000000000E+00 0.  1.
         23    2    1    2    0    0 -0.17087126756E+02 -0.25010041701E+03  0.57459109250E+03  0.63339066605E+03  0.90479963358E+02 0.  0.
        254    2    1    2    0    0  0.17087126756E+02  0.25010041701E+03  0.50328714034E+02  0.10376254555E+04  0.10056298613E+04 0.  0.
        -24    2    4    4    0    0 -0.22190539801E+03  0.52387926485E+03  0.23588917902E+03  0.62113279011E+03  0.80440962014E+02 0.  0.
         24    2    4    4    0    0  0.23899252476E+03 -0.27377884784E+03 -0.18556046499E+03  0.41649266536E+03  0.83433624627E+02 0.  0.
         11    1    3    3    0    0  0.29235391275E+02 -0.16782632826E+03  0.40325388829E+03  0.43776030311E+03  0.00000000000E+00 0. -1.
        -11    1    3    3    0    0 -0.46322518031E+02 -0.82274088755E+02  0.17133720421E+03  0.19563036294E+03  0.00000000000E+00 0.  1.
          2    1    6    6  502    0  0.41803805718E+02 -0.12929848620E+02 -0.82840526890E+01  0.44534982731E+02  0.00000000000E+00 0. -1.
          1    1    5    5  503    0 -0.15294633000E+03  0.37406094885E+03  0.12741939890E+03  0.42373326107E+03  0.00000000000E+00 0. -1.
         -2    1    5    5    0  503 -0.68959068005E+02  0.14981831599E+03  0.10846978012E+03  0.19739952904E+03  0.00000000000E+00 0.  1.
         -1    1    6    6    0  502  0.19718871904E+03 -0.26084899922E+03 -0.17727641230E+03  0.37195768263E+03  0.00000000000E+00 0.  1.
<mgrwt>
<rscale>  0 0.15497645E+04</rscale>
<asrwt>0</asrwt>
<pdfrwt beam="1">  1        2 0.17661046E+00 0.15497645E+04</pdfrwt>
<pdfrwt beam="2">  1       -2 0.80468948E-01 0.15497645E+04</pdfrwt>
<totfact> 0.26741086E+01</totfact>
</mgrwt>
</event>
<event>
12    1  0.1489025E-007  0.1488925E+04  0.7818608E-02  0.8891851E-01
         -1   -1    0    0    0  501 -0.00000000000E+00  0.00000000000E+00  0.19348618117E+03  0.19348618117E+03  0.00000000000E+00 0.  1.
          1   -1    0    0  501    0  0.00000000000E+00 -0.00000000000E+00 -0.28644140892E+04  0.28644140892E+04  0.00000000000E+00 0. -1.
         23    2    1    2    0    0  0.84343040439E+02 -0.34705092343E+03 -0.26427746997E+03  0.45363990180E+03  0.91588686237E+02 0.  0.
        254    2    1    2    0    0 -0.84343040439E+02  0.34705092343E+03 -0.24066504381E+04  0.26042603686E+04  0.92878826669E+03 0.  0.
        -24    2    4    4    0    0 -0.31779706591E+03  0.53978514451E+03 -0.11841948067E+04  0.13420769929E+04  0.80562630497E+02 0.  0.
         24    2    4    4    0    0  0.23345402547E+03 -0.19273422109E+03 -0.12224556314E+04  0.12621833756E+04  0.84034761070E+02 0.  0.
         11    1    3    3    0    0  0.10056253948E+03 -0.32868886353E+03 -0.25219207148E+03  0.42632151515E+03  0.00000000000E+00 0.  1.
        -11    1    3    3    0    0 -0.16219499039E+02 -0.18362059894E+02 -0.12085398483E+02  0.27318386649E+02  0.00000000000E+00 0. -1.
          2    1    6    6  502    0  0.12975486047E+03 -0.14791197864E+03 -0.66992813035E+03  0.69822487572E+03  0.00000000000E+00 0. -1.
          1    1    5    5  503    0 -0.31466284694E+03  0.53255391156E+03 -0.11817055578E+04  0.13338119812E+04  0.00000000000E+00 0. -1.
         -2    1    5    5    0  503 -0.31342189668E+01  0.72312329520E+01 -0.24892489196E+01  0.82650117194E+01  0.00000000000E+00 0.  1.
         -1    1    6    6    0  502  0.10369916500E+03 -0.44822242450E+02 -0.55252750101E+03  0.56395849990E+03  0.00000000000E+00 0.  1.
<mgrwt>
<rscale>  0 0.14889252E+04</rscale>
<asrwt>0</asrwt>
<pdfrwt beam="1">  1        1 0.44067909E+00 0.14889252E+04</pdfrwt>
<pdfrwt beam="2">  1       -1 0.29767105E-01 0.14889252E+04</pdfrwt>
<totfact> 0.75454169E+00</totfact>
</mgrwt>
</event>
<event>
12    1  0.1807105E-007  0.1926066E+04  0.7818608E-02  0.8641990E-01
          2   -1    0    0  501    0  0.00000000000E+00  0.00000000000E+00  0.19859795831E+04  0.19859795831E+04  0.00000000000E+00 0. -1.
         -2   -1    0    0    0  501 -0.00000000000E+00 -0.00000000000E+00 -0.46698975643E+03  0.46698975643E+03  0.00000000000E+00 0.  1.
         23    2    1    2    0    0  0.21570543878E+02  0.59019610997E+03  0.29328628424E+01  0.59750771075E+03  0.90609746371E+02 0.  0.
        254    2    1    2    0    0 -0.21570543878E+02 -0.59019610997E+03  0.15160569638E+04  0.18554616288E+04  0.89191501934E+03 0.  0.
        -24    2    4    4    0    0 -0.24289714111E+03 -0.19580539243E+03  0.13150362610E+04  0.13539285308E+04  0.80394811181E+02 0.  0.
         24    2    4    4    0    0  0.22132659723E+03 -0.39439071754E+03  0.20102070279E+03  0.50153309803E+03  0.81219608160E+02 0.  0.
         13    1    3    3    0    0  0.33276700910E+02  0.44804530615E+03  0.37201136088E+02  0.45081688046E+03  0.00000000000E+00 0.  1.
        -13    1    3    3    0    0 -0.11706157031E+02  0.14215080382E+03 -0.34268273245E+02  0.14669083029E+03  0.00000000000E+00 0. -1.
          4    1    6    6  502    0  0.97178510960E+01 -0.79354483632E+02  0.37146592962E+02  0.88155771626E+02  0.00000000000E+00 0. -1.
          1    1    5    5  503    0 -0.55430985678E+01 -0.48594451680E+01  0.13518508679E+03  0.13538592187E+03  0.00000000000E+00 0. -1.
         -2    1    5    5    0  503 -0.23735404254E+03 -0.19094594726E+03  0.11798511743E+04  0.12185426089E+04  0.00000000000E+00 0.  1.
         -3    1    6    6    0  502  0.21160874613E+03 -0.31503623391E+03  0.16387410983E+03  0.41337732641E+03  0.00000000000E+00 0.  1.
<mgrwt>
<rscale>  0 0.19260655E+04</rscale>
<asrwt>0</asrwt>
<pdfrwt beam="1">  1        2 0.30553531E+00 0.19260655E+04</pdfrwt>
<pdfrwt beam="2">  1       -2 0.71844579E-01 0.19260655E+04</pdfrwt>
<totfact> 0.11162143E+01</totfact>
</mgrwt>
</event>
<event>
12    1  0.1489025E-007  0.1026524E+04  0.7818608E-02  0.9279923E-01
         -2   -1    0    0    0  501 -0.00000000000E+00  0.00000000000E+00  0.15356949211E+03  0.15356949211E+03  0.00000000000E+00 0.  1.
          2   -1    0    0  501    0  0.00000000000E+00 -0.00000000000E+00 -0.17154312140E+04  0.17154312140E+04  0.00000000000E+00 0. -1.
         23    2    1    2    0    0  0.56169609071E+02 -0.30748740614E+02 -0.27177245116E+03  0.29412131599E+03  0.92447678592E+02 0.  0.
        254    2    1    2    0    0 -0.56169609071E+02  0.30748740614E+02 -0.12900892707E+04  0.15748793901E+04  0.90100735676E+03 0.  0.
        -24    2    4    4    0    0 -0.35777338985E+03  0.13164259322E+02 -0.15567267206E+03  0.39832126097E+03  0.79061684196E+02 0.  0.
         24    2    4    4    0    0  0.30160378077E+03  0.17584481292E+02 -0.11344165987E+04  0.11765581291E+04  0.78191798674E+02 0.  0.
         11    1    3    3    0    0  0.13224858829E+02 -0.28339562612E+02 -0.23632323710E+03  0.23838351473E+03  0.00000000000E+00 0. -1.
        -11    1    3    3    0    0  0.42944750242E+02 -0.24091780019E+01 -0.35449214058E+02  0.55737801260E+02  0.00000000000E+00 0.  1.
          2    1    6    6  502    0  0.28093415090E+03  0.16573811949E+02 -0.94498920735E+03  0.98600369695E+03  0.00000000000E+00 0. -1.
          3    1    5    5  503    0 -0.33652177575E+03  0.15020814382E+02 -0.12162231412E+03  0.35814036035E+03  0.00000000000E+00 0. -1.
         -4    1    5    5    0  503 -0.21251614093E+02 -0.18565550605E+01 -0.34050357948E+02  0.40180900620E+02  0.00000000000E+00 0.  1.
         -1    1    6    6    0  502  0.20669629875E+02  0.10106693431E+01 -0.18942739130E+03  0.19055443219E+03  0.00000000000E+00 0.  1.
<mgrwt>
<rscale>  0 0.10265240E+04</rscale>
<asrwt>0</asrwt>
<pdfrwt beam="1">  1        2 0.26391250E+00 0.10265240E+04</pdfrwt>
<pdfrwt beam="2">  1       -2 0.23626075E-01 0.10265240E+04</pdfrwt>
<totfact> 0.15237711E+02</totfact>
</mgrwt>
</event>
<event>
12    1  0.1489025E-007  0.1391389E+04  0.7818608E-02  0.8960075E-01
          2   -1    0    0  501    0  0.00000000000E+00  0.00000000000E+00  0.19513294456E+04  0.19513294456E+04  0.00000000000E+00 0. -1.
         -2   -1    0    0    0  501 -0.00000000000E+00 -0.00000000000E+00 -0.24803129554E+03  0.24803129554E+03  0.00000000000E+00 0.  1.
         23    2    1    2    0    0 -0.19130792428E+03  0.18946247322E+03  0.12109016840E+04  0.12442148588E+04  0.96400082507E+02 0.  0.
        254    2    1    2    0    0  0.19130792428E+03 -0.18946247322E+03  0.49239646603E+03  0.95514588230E+03  0.77288720138E+03 0.  0.
        -24    2    4    4    0    0  0.13362670752E+03 -0.25577207556E+03 -0.12548739069E+03  0.32605636872E+03  0.85382777911E+02 0.  0.
         24    2    4    4    0    0  0.57681216758E+02  0.66309602337E+02  0.61788385672E+03  0.62908951358E+03  0.79051056723E+02 0.  0.
         13    1    3    3    0    0 -0.15459447110E+03  0.11349220958E+03  0.97487367215E+03  0.99355855831E+03  0.00000000000E+00 0. -1.
        -13    1    3    3    0    0 -0.36713453183E+02  0.75970263646E+02  0.23602801183E+03  0.25065630049E+03  0.00000000000E+00 0.  1.
          2    1    6    6  502    0  0.43259724338E+02  0.77212617348E+02  0.58414723641E+03  0.59081400274E+03  0.00000000000E+00 0. -1.
          3    1    5    5  503    0  0.11737469373E+03 -0.22244914387E+03 -0.73186988168E+02  0.26194803984E+03  0.00000000000E+00 0. -1.
         -4    1    5    5    0  503  0.16252013793E+02 -0.33322931686E+02 -0.52300402522E+02  0.64108328885E+02  0.00000000000E+00 0.  1.
         -1    1    6    6    0  502  0.14421492419E+02 -0.10903015012E+02  0.33736620309E+02  0.38275510837E+02  0.00000000000E+00 0.  1.
<mgrwt>
<rscale>  0 0.13913889E+04</rscale>
<asrwt>0</asrwt>
<pdfrwt beam="1">  1        2 0.30020452E+00 0.13913889E+04</pdfrwt>
<pdfrwt beam="2">  1       -2 0.38158662E-01 0.13913889E+04</pdfrwt>
<totfact> 0.44926191E+01</totfact>
</mgrwt>
</event>
<event>
12    1  0.1489025E-007  0.3696033E+04  0.7818608E-02  0.8068842E-01
         -1   -1    0    0    0  501 -0.00000000000E+00  0.00000000000E+00  0.13166223635E+04  0.13166223635E+04  0.00000000000E+00 0.  1.
          1   -1    0    0  501    0  0.00000000000E+00 -0.00000000000E+00 -0.25938828432E+04  0.25938828432E+04  0.00000000000E+00 0. -1.
         23    2    1    2    0    0  0.69820950793E+03  0.20269593352E+02 -0.22824417416E+04  0.23887207621E+04  0.92407804663E+02 0.  0.
        254    2    1    2    0    0 -0.69820950793E+03 -0.20269593352E+02  0.10051812618E+04  0.15217844446E+04  0.90417429367E+03 0.  0.
        -24    2    4    4    0    0 -0.78661942823E+03  0.24289552320E+03  0.59034226878E+03  0.10159921372E+04  0.77250686476E+02 0.  0.
         24    2    4    4    0    0  0.88409920300E+02 -0.26316511655E+03  0.41483899304E+03  0.50579230737E+03  0.81622763135E+02 0.  0.
         13    1    3    3    0    0  0.69156583359E+03  0.27407481822E+02 -0.22159748722E+04  0.23215423982E+04  0.00000000000E+00 0. -1.
        -13    1    3    3    0    0  0.66436743386E+01 -0.71378884699E+01 -0.66466869366E+02  0.67178363956E+02  0.00000000000E+00 0.  1.
          2    1    6    6  502    0  0.40288335712E+02 -0.22226200397E+03  0.31396685529E+03  0.38677995634E+03  0.00000000000E+00 0. -1.
          3    1    5    5  503    0 -0.11806589249E+03  0.65160455338E+02  0.87117788095E+02  0.16054578447E+03  0.00000000000E+00 0. -1.
         -4    1    5    5    0  503 -0.66855353574E+03  0.17773506786E+03  0.50322448068E+03  0.85544635277E+03  0.00000000000E+00 0.  1.
         -1    1    6    6    0  502  0.48121584588E+02 -0.40903112585E+02  0.10087213775E+03  0.11901235103E+03  0.00000000000E+00 0.  1.
<mgrwt>
<rscale>  0 0.36960326E+04</rscale>
<asrwt>0</asrwt>
<pdfrwt beam="1">  1        1 0.39905890E+00 0.36960326E+04</pdfrwt>
<pdfrwt beam="2">  1       -1 0.20255729E+00 0.36960326E+04</pdfrwt>
<totfact> 0.13514136E-01</totfact>
</mgrwt>
</event>
<event>
12    1  0.1489025E-007  0.1960947E+04  0.7818608E-02  0.8625100E-01
         -1   -1    0    0    0  501 -0.00000000000E+00  0.00000000000E+00  0.23288880117E+04  0.23288880117E+04  0.00000000000E+00 0.  1.
          1   -1    0    0  501    0  0.00000000000E+00 -0.00000000000E+00 -0.41278434155E+03  0.41278434155E+03  0.00000000000E+00 0. -1.
         23    2    1    2    0    0 -0.33613191941E+03 -0.41564642054E+03 -0.23956227797E+02  0.54270060543E+03  0.90572800173E+02 0.  0.
        254    2    1    2    0    0  0.33613191941E+03  0.41564642054E+03  0.19400598979E+04  0.21989717478E+04  0.88650872859E+03 0.  0.
        -24    2    4    4    0    0  0.56629594650E+03  0.39557044941E+03  0.93745322018E+03  0.11670789709E+04  0.78023745902E+02 0.  0.
         24    2    4    4    0    0 -0.23016402709E+03  0.20075971128E+02  0.10026066777E+04  0.10318927768E+04  0.78765656578E+02 0.  0.
         13    1    3    3    0    0 -0.25187049112E+03 -0.30867925858E+03 -0.57327233285E+02  0.40250222440E+03  0.00000000000E+00 0. -1.
        -13    1    3    3    0    0 -0.84261428295E+02 -0.10696716197E+03  0.33371005488E+02  0.14019838103E+03  0.00000000000E+00 0.  1.
          2    1    6    6  502    0 -0.15275094606E+03 -0.92822441657E+00  0.49643124911E+03  0.51940128823E+03  0.00000000000E+00 0. -1.
          3    1    5    5  503    0  0.31646740596E+03  0.24278884910E+03  0.59726667064E+03  0.71820994155E+03  0.00000000000E+00 0. -1.
         -4    1    5    5    0  503  0.24982854054E+03  0.15278160032E+03  0.34018654954E+03  0.44886902940E+03  0.00000000000E+00 0.  1.
         -1    1    6    6    0  502 -0.77413081028E+02  0.21004195545E+02  0.50617542861E+03  0.51249148859E+03  0.00000000000E+00 0.  1.
<mgrwt>
<rscale>  0 0.19609472E+04</rscale>
<asrwt>0</asrwt>
<pdfrwt beam="1">  1        1 0.63505284E-01 0.19609472E+04</pdfrwt>
<pdfrwt beam="2">  1       -1 0.35829046E+00 0.19609472E+04</pdfrwt>
<totfact> 0.73410138E-01</totfact>
</mgrwt>
</event>
<event>
12    1  0.1489025E-007  0.1176519E+04  0.7818608E-02  0.9133661E-01
         -1   -1    0    0    0  501 -0.00000000000E+00  0.00000000000E+00  0.19917114467E+03  0.19917114467E+03  0.00000000000E+00 0.  1.
          1   -1    0    0  501    0  0.00000000000E+00 -0.00000000000E+00 -0.17374480572E+04  0.17374480572E+04  0.00000000000E+00 0. -1.
         23    2    1    2    0    0  0.18377427180E+03 -0.11800459769E+03 -0.20147027265E+03  0.31063605811E+03  0.90589302824E+02 0.  0.
        254    2    1    2    0    0 -0.18377427180E+03  0.11800459769E+03 -0.13368066399E+04  0.16259831438E+04  0.89948380937E+03 0.  0.
        -24    2    4    4    0    0 -0.19019976946E+03 -0.37316585860E+03 -0.62782536322E+03  0.75907269932E+03  0.81227863630E+02 0.  0.
         24    2    4    4    0    0  0.64254976582E+01  0.49117045629E+03 -0.70898127665E+03  0.86691044443E+03  0.87118102958E+02 0.  0.
         13    1    3    3    0    0  0.60454747285E+01 -0.33454432405E+02 -0.85879880809E+01  0.35064231797E+02  0.00000000000E+00 0.  1.
        -13    1    3    3    0    0  0.17772879707E+03 -0.84550165288E+02 -0.19288228457E+03  0.27557182632E+03  0.00000000000E+00 0. -1.
          2    1    6    6  502    0 -0.35790604307E+02  0.19041295135E+03 -0.24464996663E+03  0.31207637778E+03  0.00000000000E+00 0. -1.
          1    1    5    5  503    0 -0.17674802822E+02 -0.99228229176E+02 -0.11849097452E+03  0.15555947789E+03  0.00000000000E+00 0. -1.
         -2    1    5    5    0  503 -0.17252496663E+03 -0.27393762942E+03 -0.50933438870E+03  0.60351322143E+03  0.00000000000E+00 0.  1.
         -3    1    6    6    0  502  0.42216101966E+02  0.30075750495E+03 -0.46433131002E+03  0.55483406665E+03  0.00000000000E+00 0.  1.
<mgrwt>
<rscale>  0 0.11765195E+04</rscale>
<asrwt>0</asrwt>
<pdfrwt beam="1">  1        1 0.26729970E+00 0.11765195E+04</pdfrwt>
<pdfrwt beam="2">  1       -1 0.30641715E-01 0.11765195E+04</pdfrwt>
<totfact> 0.43819043E+01</totfact>
</mgrwt>
</event>
<event>
12    1  0.1489025E-007  0.1570234E+04  0.7818608E-02  0.8839046E-01
         -2   -1    0    0    0  501 -0.00000000000E+00  0.00000000000E+00  0.62754065661E+03  0.62754065661E+03  0.00000000000E+00 0.  1.
          2   -1    0    0  501    0  0.00000000000E+00 -0.00000000000E+00 -0.98226036745E+03  0.98226036745E+03  0.00000000000E+00 0. -1.
         23    2    1    2    0    0 -0.31963536153E+03  0.40580884321E+03 -0.61017688401E+02  0.52820775899E+03  0.91829716278E+02 0.  0.
        254    2    1    2    0    0  0.31963536153E+03 -0.40580884321E+03 -0.29370202243E+03  0.10815932651E+04  0.90373421507E+03 0.  0.
        -24    2    4    4    0    0  0.62109173981E+03 -0.36333332122E+03 -0.17338555857E+03  0.74453485820E+03  0.80644600489E+02 0.  0.
         24    2    4    4    0    0 -0.30145637827E+03 -0.42475521990E+02 -0.12031646386E+03  0.33705840687E+03  0.80325588668E+02 0.  0.
         11    1    3    3    0    0 -0.27167321697E+03  0.33564257357E+03 -0.16185175331E+02  0.43211599589E+03  0.00000000000E+00 0.  1.
        -11    1    3    3    0    0 -0.47962144569E+02  0.70166269647E+02 -0.44832513070E+02  0.96091763102E+02  0.00000000000E+00 0. -1.
          2    1    6    6  502    0 -0.16924231496E+03 -0.49146125959E+02 -0.35318091007E+02  0.17973778240E+03  0.00000000000E+00 0. -1.
          3    1    5    5  503    0  0.54209938323E+03 -0.28626464868E+03 -0.15829169262E+03  0.63314725801E+03  0.00000000000E+00 0. -1.
         -4    1    5    5    0  503  0.78992356577E+02 -0.77068672547E+02 -0.15093865950E+02  0.11138760019E+03  0.00000000000E+00 0.  1.
         -1    1    6    6    0  502 -0.13221406331E+03  0.66706039688E+01 -0.84998372855E+02  0.15732062446E+03  0.00000000000E+00 0.  1.
<mgrwt>
<rscale>  0 0.15702335E+04</rscale>
<asrwt>0</asrwt>
<pdfrwt beam="1">  1        2 0.15111698E+00 0.15702335E+04</pdfrwt>
<pdfrwt beam="2">  1       -2 0.96544716E-01 0.15702335E+04</pdfrwt>
<totfact> 0.22311662E+01</totfact>
</mgrwt>
</event>
<event>
12    1  0.1489025E-007  0.1893812E+04  0.7818608E-02  0.8657943E-01
         -2   -1    0    0    0  501 -0.00000000000E+00  0.00000000000E+00  0.80755206437E+03  0.80755206437E+03  0.00000000000E+00 0. -1.
          2   -1    0    0  501    0  0.00000000000E+00 -0.00000000000E+00 -0.11103074440E+04  0.11103074440E+04  0.00000000000E+00 0.  1.
         23    2    1    2    0    0  0.56635812536E+03  0.27892927290E+03  0.23322141131E+03  0.68129601097E+03  0.10587238747E+03 0.  0.
        254    2    1    2    0    0 -0.56635812536E+03 -0.27892927290E+03 -0.53597679094E+03  0.12365634974E+04  0.91828922309E+03 0.  0.
        -24    2    4    4    0    0  0.14703010979E+03  0.12602268277E+03 -0.32339005230E+03  0.38531364757E+03  0.79911897273E+02 0.  0.
         24    2    4    4    0    0 -0.71338823514E+03 -0.40495195567E+03 -0.21258673864E+03  0.85124984983E+03  0.80773293527E+02 0.  0.
         13    1    3    3    0    0 -0.37995000565E+01  0.13138209411E+01 -0.25179227441E+01  0.47436548241E+01  0.00000000000E+00 0.  1.
        -13    1    3    3    0    0  0.57015762541E+03  0.27761545196E+03  0.23573933406E+03  0.67655235615E+03  0.00000000000E+00 0. -1.
          4    1    6    6  502    0 -0.85073137055E+02 -0.54742416385E+02 -0.53913195945E+02  0.11463334374E+03  0.00000000000E+00 0. -1.
          1    1    5    5  503    0  0.68323678822E+02  0.11950844084E+02 -0.13064584017E+03  0.14791647412E+03  0.00000000000E+00 0. -1.
         -2    1    5    5    0  503  0.78706430963E+02  0.11407183868E+03 -0.19274421213E+03  0.23739717346E+03  0.00000000000E+00 0.  1.
         -3    1    6    6    0  502 -0.62831509809E+03 -0.35020953928E+03 -0.15867354270E+03  0.73661650609E+03  0.00000000000E+00 0.  1.
<mgrwt>
<rscale>  0 0.18938121E+04</rscale>
<asrwt>0</asrwt>
<pdfrwt beam="1">  1        2 0.17081653E+00 0.18938121E+04</pdfrwt>
<pdfrwt beam="2">  1       -2 0.12423878E+00 0.18938121E+04</pdfrwt>
<totfact> 0.97961324E+00</totfact>
</mgrwt>
</event>
<event>
12    1  0.1489025E-007  0.2013229E+04  0.7818608E-02  0.8600461E-01
         -1   -1    0    0    0  501 -0.00000000000E+00  0.00000000000E+00  0.46258961132E+03  0.46258961132E+03  0.00000000000E+00 0.  1.
          1   -1    0    0  501    0  0.00000000000E+00 -0.00000000000E+00 -0.21904353884E+04  0.21904353884E+04  0.00000000000E+00 0. -1.
         23    2    1    2    0    0 -0.39522074407E+03 -0.59010005762E+03 -0.11739160462E+04  0.13751478665E+04  0.92386452510E+02 0.  0.
        254    2    1    2    0    0  0.39522074407E+03  0.59010005762E+03 -0.55392973086E+03  0.12778771332E+04  0.90648458693E+03 0.  0.
        -24    2    4    4    0    0 -0.65076048565E+02  0.31743957018E+03 -0.64787800886E+03  0.72884551834E+03  0.80418296530E+02 0.  0.
         24    2    4    4    0    0  0.46029679264E+03  0.27266048744E+03  0.93948278003E+02  0.54903161489E+03  0.79953464497E+02 0.  0.
         13    1    3    3    0    0 -0.18492941842E+03 -0.20032992119E+03 -0.41827119620E+03  0.49928124408E+03  0.00000000000E+00 0.  1.
        -13    1    3    3    0    0 -0.21029132565E+03 -0.38977013643E+03 -0.75564484999E+03  0.87586662239E+03  0.00000000000E+00 0. -1.
          2    1    6    6  502    0  0.13570777627E+03  0.50361505864E+02  0.85794672676E+00  0.14475364550E+03  0.00000000000E+00 0. -1.
          3    1    5    5  503    0 -0.99346614683E+01  0.20851019870E+03 -0.45458629721E+03  0.50022385196E+03  0.00000000000E+00 0. -1.
         -4    1    5    5    0  503 -0.55141387097E+02  0.10892937148E+03 -0.19329171166E+03  0.22862166638E+03  0.00000000000E+00 0.  1.
         -1    1    6    6    0  502  0.32458901637E+03  0.22229898157E+03  0.93090331276E+02  0.40427796939E+03  0.00000000000E+00 0.  1.
<mgrwt>
<rscale>  0 0.20132289E+04</rscale>
<asrwt>0</asrwt>
<pdfrwt beam="1">  1        1 0.33699006E+00 0.20132289E+04</pdfrwt>
<pdfrwt beam="2">  1       -1 0.71167632E-01 0.20132289E+04</pdfrwt>
<totfact> 0.40863155E+00</totfact>
</mgrwt>
</event>
<event>
12    1  0.1489025E-007  0.2237333E+04  0.7818608E-02  0.8503048E-01
         -2   -1    0    0    0  501 -0.00000000000E+00  0.00000000000E+00  0.64391476051E+03  0.64391476051E+03  0.00000000000E+00 0.  1.
          2   -1    0    0  501    0  0.00000000000E+00 -0.00000000000E+00 -0.19434486776E+04  0.19434486776E+04  0.00000000000E+00 0. -1.
         23    2    1    2    0    0  0.33869925419E+03  0.84775422584E+03 -0.30866144645E+03  0.96788243544E+03  0.90111642353E+02 0.  0.
        254    2    1    2    0    0 -0.33869925419E+03 -0.84775422584E+03 -0.99087247065E+03  0.16194810027E+04  0.89860227729E+03 0.  0.
        -24    2    4    4    0    0 -0.48765368270E+03 -0.85578344015E+03 -0.10495533559E+04  0.14415239796E+04  0.79105790963E+02 0.  0.
         24    2    4    4    0    0  0.14895442850E+03  0.80292143151E+01  0.58680885238E+02  0.17795702310E+03  0.77287552207E+02 0.  0.
         13    1    3    3    0    0 -0.13799430547E+01  0.21487113637E+02 -0.18632750096E+02  0.28474193077E+02  0.00000000000E+00 0. -1.
        -13    1    3    3    0    0  0.34007919725E+03  0.82626711220E+03 -0.29002869635E+03  0.93940824236E+03  0.00000000000E+00 0.  1.
          4    1    6    6  502    0  0.86352361808E+01  0.12765433017E+02  0.31334442895E+02  0.34919491628E+02  0.00000000000E+00 0. -1.
          1    1    5    5  503    0 -0.31054924036E+03 -0.61013901223E+03 -0.75219946900E+03  0.10171108524E+04  0.00000000000E+00 0. -1.
         -2    1    5    5    0  503 -0.17710444234E+03 -0.24564442792E+03 -0.29735388689E+03  0.42441312717E+03  0.00000000000E+00 0.  1.
         -3    1    6    6    0  502  0.14031919232E+03 -0.47362187019E+01  0.27346442343E+02  0.14303753148E+03  0.00000000000E+00 0.  1.
<mgrwt>
<rscale>  0 0.22373335E+04</rscale>
<asrwt>0</asrwt>
<pdfrwt beam="1">  1        2 0.29899210E+00 0.22373335E+04</pdfrwt>
<pdfrwt beam="2">  1       -2 0.99063809E-01 0.22373335E+04</pdfrwt>
<totfact> 0.55280903E+00</totfact>
</mgrwt>
</event>
<event>
12    1  0.1489025E-007  0.1745434E+04  0.7818608E-02  0.8735868E-01
          1   -1    0    0  501    0  0.00000000000E+00  0.00000000000E+00  0.21627686537E+04  0.21627686537E+04  0.00000000000E+00 0. -1.
         -1   -1    0    0    0  501 -0.00000000000E+00 -0.00000000000E+00 -0.35215732638E+03  0.35215732638E+03  0.00000000000E+00 0.  1.
         23    2    1    2    0    0 -0.62891450009E+03 -0.80327660411E+02  0.67706644389E+03  0.93177128061E+03  0.88276658719E+02 0.  0.
        254    2    1    2    0    0  0.62891450009E+03  0.80327660411E+02  0.11335448834E+04  0.15831546995E+04  0.90524517025E+03 0.  0.
        -24    2    4    4    0    0  0.13081228722E+02 -0.11216108158E+03 -0.11222973224E+03  0.17783831270E+03  0.79244721595E+02 0.  0.
         24    2    4    4    0    0  0.61583327137E+03  0.19248874199E+03  0.12457746157E+04  0.14053163868E+04  0.81591788630E+02 0.  0.
         11    1    3    3    0    0 -0.62696991197E+03 -0.71696326025E+02  0.66448934062E+03  0.91639386590E+03  0.00000000000E+00 0. -1.
        -11    1    3    3    0    0 -0.19445881261E+01 -0.86313343854E+01  0.12577103270E+02  0.15377414702E+02  0.00000000000E+00 0.  1.
          4    1    6    6  502    0  0.58956660585E+03  0.17632442476E+03  0.11444492975E+04  0.12994011237E+04  0.00000000000E+00 0. -1.
          1    1    5    5  503    0  0.13361416029E+02 -0.10481058804E+03 -0.53097450792E+02  0.11825026886E+03  0.00000000000E+00 0. -1.
         -2    1    5    5    0  503 -0.28018730681E+00 -0.73504935330E+01 -0.59132281443E+02  0.59588043841E+02  0.00000000000E+00 0.  1.
         -3    1    6    6    0  502  0.26266665524E+02  0.16164317229E+02  0.10132531813E+03  0.10591526313E+03  0.00000000000E+00 0.  1.
<mgrwt>
<rscale>  0 0.17454338E+04</rscale>
<asrwt>0</asrwt>
<pdfrwt beam="1">  1        1 0.33273363E+00 0.17454338E+04</pdfrwt>
<pdfrwt beam="2">  1       -1 0.54178052E-01 0.17454338E+04</pdfrwt>
<totfact> 0.75357602E+00</totfact>
</mgrwt>
</event>
<event>
12    1  0.1489025E-007  0.1765117E+04  0.7818608E-02  0.8725073E-01
          2   -1    0    0  501    0  0.00000000000E+00  0.00000000000E+00  0.64540304636E+03  0.64540304636E+03  0.00000000000E+00 0. -1.
         -2   -1    0    0    0  501 -0.00000000000E+00 -0.00000000000E+00 -0.12068573206E+04  0.12068573206E+04  0.00000000000E+00 0.  1.
         23    2    1    2    0    0  0.28432595966E+03  0.20501669115E+03 -0.78956661989E+03  0.86903611617E+03  0.94526340117E+02 0.  0.
        254    2    1    2    0    0 -0.28432595966E+03 -0.20501669115E+03  0.22811234565E+03  0.98322425079E+03  0.88984357620E+03 0.  0.
        -24    2    4    4    0    0  0.13523115002E+02 -0.38637718702E+03  0.42074549618E+03  0.57702230437E+03  0.80360200883E+02 0.  0.
         24    2    4    4    0    0 -0.29784907466E+03  0.18136049587E+03 -0.19263315053E+03  0.40620194642E+03  0.79289279552E+02 0.  0.
         13    1    3    3    0    0  0.28089807629E+02  0.63548840449E+02 -0.17648669332E+03  0.18967088689E+03  0.00000000000E+00 0. -1.
        -13    1    3    3    0    0  0.25623615203E+03  0.14146785070E+03 -0.61307992657E+03  0.67936522928E+03  0.00000000000E+00 0.  1.
          4    1    6    6  502    0 -0.23214826720E+03  0.16178279884E+03 -0.18298217939E+03  0.33697028049E+03  0.00000000000E+00 0. -1.
          3    1    5    5  503    0  0.27133762701E+02 -0.33692172589E+03  0.39417221422E+03  0.51925352663E+03  0.00000000000E+00 0. -1.
         -4    1    5    5    0  503 -0.13610647699E+02 -0.49455461132E+02  0.26573281960E+02  0.57768777732E+02  0.00000000000E+00 0.  1.
         -3    1    6    6    0  502 -0.65700807468E+02  0.19577697027E+02 -0.96509711444E+01  0.69231665926E+02  0.00000000000E+00 0.  1.
<mgrwt>
<rscale>  0 0.17651169E+04</rscale>
<asrwt>0</asrwt>
<pdfrwt beam="1">  1        2 0.99292776E-01 0.17651169E+04</pdfrwt>
<pdfrwt beam="2">  1       -2 0.18567036E+00 0.17651169E+04</pdfrwt>
<totfact> 0.71138093E+00</totfact>
</mgrwt>
</event>
<event>
12    1  0.1489025E-007  0.1394242E+04  0.7818608E-02  0.8957997E-01
         -2   -1    0    0    0  501 -0.00000000000E+00  0.00000000000E+00  0.38457354430E+03  0.38457354430E+03  0.00000000000E+00 0.  1.
          2   -1    0    0  501    0  0.00000000000E+00 -0.00000000000E+00 -0.12636797340E+04  0.12636797340E+04  0.00000000000E+00 0. -1.
         23    2    1    2    0    0 -0.26526903317E+03 -0.30168938310E+03 -0.22602851015E+03  0.46998338182E+03  0.91713401139E+02 0.  0.
        254    2    1    2    0    0  0.26526903317E+03  0.30168938310E+03 -0.65307767960E+03  0.11782698965E+04  0.89466493708E+03 0.  0.
        -24    2    4    4    0    0 -0.17085874947E+03  0.90488831214E+02  0.13615410246E+03  0.24868496143E+03  0.76976162420E+02 0.  0.
         24    2    4    4    0    0  0.43612778264E+03  0.21120055189E+03 -0.78923178206E+03  0.92958493509E+03  0.80176242283E+02 0.  0.
         11    1    3    3    0    0 -0.20665227517E+03 -0.28104472254E+03 -0.20361693244E+03  0.40391973717E+03  0.00000000000E+00 0.  1.
        -11    1    3    3    0    0 -0.58616758005E+02 -0.20644660560E+02 -0.22411577712E+02  0.66063644648E+02  0.00000000000E+00 0. -1.
          2    1    6    6  502    0  0.31172900460E+03  0.14124109958E+03 -0.62019835471E+03  0.70835726841E+03  0.00000000000E+00 0. -1.
          3    1    5    5  503    0 -0.11994000566E+03  0.76851739197E+02  0.13454939159E+03  0.19594727238E+03  0.00000000000E+00 0. -1.
         -4    1    5    5    0  503 -0.50918743811E+02  0.13637092016E+02  0.16047108733E+01  0.52737689056E+02  0.00000000000E+00 0.  1.
         -1    1    6    6    0  502  0.12439877804E+03  0.69959452304E+02 -0.16903342735E+03  0.22122766669E+03  0.00000000000E+00 0.  1.
<mgrwt>
<rscale>  0 0.13942422E+04</rscale>
<asrwt>0</asrwt>
<pdfrwt beam="1">  1        2 0.19441227E+00 0.13942422E+04</pdfrwt>
<pdfrwt beam="2">  1       -2 0.59165160E-01 0.13942422E+04</pdfrwt>
<totfact> 0.45098621E+01</totfact>
</mgrwt>
</event>
<event>
12    1  0.1489025E-007  0.2308101E+04  0.7818608E-02  0.8474734E-01
          1   -1    0    0  501    0  0.00000000000E+00  0.00000000000E+00  0.22676755551E+04  0.22676755551E+04  0.00000000000E+00 0. -1.
         -1   -1    0    0    0  501 -0.00000000000E+00 -0.00000000000E+00 -0.58731168876E+03  0.58731168876E+03  0.00000000000E+00 0.  1.
         23    2    1    2    0    0 -0.75166618281E+03  0.39417573434E+02 -0.70664816920E+02  0.76117177043E+03  0.88505097393E+02 0.  0.
        254    2    1    2    0    0  0.75166618281E+03 -0.39417573434E+02  0.17510286832E+04  0.20938154734E+04  0.86683677338E+03 0.  0.
        -24    2    4    4    0    0  0.16976503913E+03 -0.30268215481E+03  0.18974429440E+03  0.40507926649E+03  0.87462332078E+02 0.  0.
         24    2    4    4    0    0  0.58190114368E+03  0.26326458138E+03  0.15612843888E+04  0.16887362069E+04  0.79396806552E+02 0.  0.
         13    1    3    3    0    0 -0.11002270026E+03  0.20527962218E+02  0.17302548558E+02  0.11325091608E+03  0.00000000000E+00 0. -1.
        -13    1    3    3    0    0 -0.64164348255E+03  0.18889611215E+02 -0.87967365477E+02  0.64792085435E+03  0.00000000000E+00 0.  1.
          4    1    6    6  502    0  0.56630415591E+03  0.26855976301E+03  0.15295575327E+04  0.16529885024E+04  0.00000000000E+00 0. -1.
          3    1    5    5  503    0  0.73856175039E+02 -0.15842604881E+03  0.14250568441E+03  0.22552476055E+03  0.00000000000E+00 0. -1.
         -4    1    5    5    0  503  0.95908864090E+02 -0.14425610601E+03  0.47238609994E+02  0.17955450595E+03  0.00000000000E+00 0.  1.
         -3    1    6    6    0  502  0.15596987776E+02 -0.52951816291E+01  0.31726856174E+02  0.35747704526E+02  0.00000000000E+00 0.  1.
<mgrwt>
<rscale>  0 0.23081008E+04</rscale>
<asrwt>0</asrwt>
<pdfrwt beam="1">  1        1 0.34887316E+00 0.23081008E+04</pdfrwt>
<pdfrwt beam="2">  1       -1 0.90355646E-01 0.23081008E+04</pdfrwt>
<totfact> 0.21178764E+00</totfact>
</mgrwt>
</event>
<event>
12    1  0.1489025E-007  0.1289347E+04  0.7818608E-02  0.9038056E-01
          1   -1    0    0  501    0  0.00000000000E+00  0.00000000000E+00  0.94967291677E+03  0.94967291677E+03  0.00000000000E+00 0. -1.
         -1   -1    0    0    0  501 -0.00000000000E+00 -0.00000000000E+00 -0.43762874568E+03  0.43762874568E+03  0.00000000000E+00 0.  1.
         23    2    1    2    0    0  0.18472419111E+03  0.22528013485E+03 -0.12506636582E+02  0.30556281690E+03  0.91312940901E+02 0.  0.
        254    2    1    2    0    0 -0.18472419111E+03 -0.22528013485E+03  0.52455080767E+03  0.10817388455E+04  0.90007289383E+03 0.  0.
        -24    2    4    4    0    0 -0.17071005120E+03 -0.56438678820E+03  0.37464724196E+03  0.70335714834E+03  0.81708958762E+02 0.  0.
         24    2    4    4    0    0 -0.14014139905E+02  0.33910665335E+03  0.14990356571E+03  0.37838169721E+03  0.74242247438E+02 0.  0.
         11    1    3    3    0    0  0.14230578422E+03  0.14655463710E+03  0.30139153837E+02  0.20648865943E+03  0.00000000000E+00 0. -1.
        -11    1    3    3    0    0  0.42418406885E+02  0.78725497747E+02 -0.42645790419E+02  0.99074157471E+02  0.00000000000E+00 0.  1.
          2    1    6    6  502    0 -0.14095518363E+02  0.25604215431E+03  0.14632293313E+03  0.29524001961E+03  0.00000000000E+00 0. -1.
          3    1    5    5  503    0 -0.10031497462E+03 -0.27678187600E+03  0.23126792968E+03  0.37437435317E+03  0.00000000000E+00 0. -1.
         -4    1    5    5    0  503 -0.70395076579E+02 -0.28760491220E+03  0.14337931228E+03  0.32898279517E+03  0.00000000000E+00 0.  1.
         -1    1    6    6    0  502  0.81378458620E-01  0.83064499041E+02  0.35806325809E+01  0.83141677594E+02  0.00000000000E+00 0.  1.
<mgrwt>
<rscale>  0 0.12893474E+04</rscale>
<asrwt>0</asrwt>
<pdfrwt beam="1">  1        1 0.14610353E+00 0.12893474E+04</pdfrwt>
<pdfrwt beam="2">  1       -1 0.67327499E-01 0.12893474E+04</pdfrwt>
<totfact> 0.36444267E+01</totfact>
</mgrwt>
</event>
<event>
12    1  0.1489025E-007  0.2397327E+04  0.7818608E-02  0.8440505E-01
          2   -1    0    0  501    0  0.00000000000E+00  0.00000000000E+00  0.22497641297E+04  0.22497641297E+04  0.00000000000E+00 0. -1.
         -2   -1    0    0    0  501 -0.00000000000E+00 -0.00000000000E+00 -0.63864191795E+03  0.63864191795E+03  0.00000000000E+00 0.  1.
         23    2    1    2    0    0  0.14794708034E+03 -0.55611432558E+03  0.17203808423E+04  0.18164306871E+04  0.92513333160E+02 0.  0.
        254    2    1    2    0    0 -0.14794708034E+03  0.55611432558E+03 -0.10925863063E+03  0.10719753605E+04  0.89779855389E+03 0.  0.
        -24    2    4    4    0    0 -0.32746225054E+03  0.84738426157E+02  0.26671396907E+03  0.43801874971E+03  0.79447828202E+02 0.  0.
         24    2    4    4    0    0  0.17951517020E+03  0.47137589943E+03 -0.37597259970E+03  0.63395661075E+03  0.78260166712E+02 0.  0.
         13    1    3    3    0    0  0.67687712206E+02 -0.16353852806E+03  0.64428481854E+03  0.66815372778E+03  0.00000000000E+00 0.  1.
        -13    1    3    3    0    0  0.80259368133E+02 -0.39257579752E+03  0.10760960238E+04  0.11482769594E+04  0.00000000000E+00 0. -1.
          2    1    6    6  502    0  0.16001795003E+03  0.45373106092E+03 -0.37012708969E+03  0.60701868381E+03  0.00000000000E+00 0. -1.
          3    1    5    5  503    0 -0.17294047612E+03  0.32484263254E+02  0.18592032752E+03  0.25598828845E+03  0.00000000000E+00 0. -1.
         -4    1    5    5    0  503 -0.15452177443E+03  0.52254162903E+02  0.80793641545E+02  0.18203046126E+03  0.00000000000E+00 0.  1.
         -1    1    6    6    0  502  0.19497220174E+02  0.17644838511E+02 -0.58455100125E+01  0.26937926941E+02  0.00000000000E+00 0.  1.
<mgrwt>
<rscale>  0 0.23973266E+04</rscale>
<asrwt>0</asrwt>
<pdfrwt beam="1">  1        2 0.34611755E+00 0.23973266E+04</pdfrwt>
<pdfrwt beam="2">  1       -2 0.98252604E-01 0.23973266E+04</pdfrwt>
<totfact> 0.37487714E+00</totfact>
</mgrwt>
</event>
<event>
12    1  0.1489025E-007  0.3374043E+04  0.7818608E-02  0.8144307E-01
          1   -1    0    0  501    0  0.00000000000E+00  0.00000000000E+00  0.26513097039E+04  0.26513097039E+04  0.00000000000E+00 0. -1.
         -1   -1    0    0    0  501 -0.00000000000E+00 -0.00000000000E+00 -0.10734471234E+04  0.10734471234E+04  0.00000000000E+00 0.  1.
         23    2    1    2    0    0 -0.14340848336E+04  0.46488373212E+03  0.11992381415E+04  0.19285345160E+04  0.91416982702E+02 0.  0.
        254    2    1    2    0    0  0.14340848336E+04 -0.46488373212E+03  0.37862443896E+03  0.17962223113E+04  0.90018994181E+03 0.  0.
        -24    2    4    4    0    0  0.53765213423E+03  0.18699929057E+03  0.37221911199E+03  0.68485641995E+03  0.80266409573E+02 0.  0.
         24    2    4    4    0    0  0.89643269940E+03 -0.65188302269E+03  0.64053269708E+01  0.11113658913E+04  0.80932418558E+02 0.  0.
         13    1    3    3    0    0 -0.12228767433E+04  0.42977622842E+03  0.10261311481E+04  0.16532030331E+04  0.00000000000E+00 0. -1.
        -13    1    3    3    0    0 -0.21120809035E+03  0.35107503708E+02  0.17310699346E+03  0.27533148282E+03  0.00000000000E+00 0.  1.
          4    1    6    6  502    0  0.78121012265E+03 -0.59154012779E+03 -0.12174955878E+02  0.97997816714E+03  0.00000000000E+00 0. -1.
          1    1    5    5  503    0  0.31943243373E+03  0.89328104436E+02  0.25620066504E+03  0.41911259911E+03  0.00000000000E+00 0. -1.
         -2    1    5    5    0  503  0.21821970050E+03  0.97671186134E+02  0.11601844695E+03  0.26574382085E+03  0.00000000000E+00 0.  1.
         -3    1    6    6    0  502  0.11522257675E+03 -0.60342894905E+02  0.18580282849E+02  0.13138772420E+03  0.00000000000E+00 0.  1.
<mgrwt>
<rscale>  0 0.33740425E+04</rscale>
<asrwt>0</asrwt>
<pdfrwt beam="1">  1        1 0.40789380E+00 0.33740425E+04</pdfrwt>
<pdfrwt beam="2">  1       -1 0.16514571E+00 0.33740425E+04</pdfrwt>
<totfact> 0.23398680E-01</totfact>
</mgrwt>
</event>
<event>
12    1  0.1489025E-007  0.1694641E+04  0.7818608E-02  0.8764427E-01
          1   -1    0    0  501    0  0.00000000000E+00  0.00000000000E+00  0.12774060762E+04  0.12774060762E+04  0.00000000000E+00 0. -1.
         -1   -1    0    0    0  501 -0.00000000000E+00 -0.00000000000E+00 -0.56203879977E+03  0.56203879977E+03  0.00000000000E+00 0.  1.
         23    2    1    2    0    0  0.20762606988E+03 -0.18408466033E+03  0.84567439808E+03  0.89494337001E+03  0.93609299147E+02 0.  0.
        254    2    1    2    0    0 -0.20762606988E+03  0.18408466033E+03 -0.13030712160E+03  0.94450150600E+03  0.89336856999E+03 0.  0.
        -24    2    4    4    0    0  0.11701200754E+03  0.46976215474E+03 -0.18947640043E+02  0.49098764326E+03  0.79633917606E+02 0.  0.
         24    2    4    4    0    0 -0.32463807743E+03 -0.28567749441E+03 -0.11135948156E+03  0.45351386275E+03  0.79198342441E+02 0.  0.
         13    1    3    3    0    0  0.13625412379E+01  0.69738203235E+01  0.61137210120E+02  0.61548754251E+02  0.00000000000E+00 0.  1.
        -13    1    3    3    0    0  0.20626352865E+03 -0.19105848066E+03  0.78453718796E+03  0.83339461576E+03  0.00000000000E+00 0. -1.
          4    1    6    6  502    0 -0.43132476516E+01 -0.14050351655E+01 -0.13444509760E+02  0.14189188553E+02  0.00000000000E+00 0. -1.
          1    1    5    5  503    0  0.20242695285E+02  0.96763922932E+02  0.28112559875E+02  0.10277810816E+03  0.00000000000E+00 0. -1.
         -2    1    5    5    0  503  0.96769312257E+02  0.37299823181E+03 -0.47060199918E+02  0.38820953510E+03  0.00000000000E+00 0.  1.
         -3    1    6    6    0  502 -0.32032482977E+03 -0.28427245924E+03 -0.97914971800E+02  0.43932467419E+03  0.00000000000E+00 0.  1.
<mgrwt>
<rscale>  0 0.16946407E+04</rscale>
<asrwt>0</asrwt>
<pdfrwt beam="1">  1        1 0.19652401E+00 0.16946407E+04</pdfrwt>
<pdfrwt beam="2">  1       -1 0.86467508E-01 0.16946407E+04</pdfrwt>
<totfact> 0.11791598E+01</totfact>
</mgrwt>
</event>
<event>
12    1  0.1489025E-007  0.2312437E+04  0.7818608E-02  0.8473034E-01
          2   -1    0    0  501    0  0.00000000000E+00  0.00000000000E+00  0.19887896794E+04  0.19887896794E+04  0.00000000000E+00 0. -1.
         -2   -1    0    0    0  501 -0.00000000000E+00 -0.00000000000E+00 -0.67218820432E+03  0.67218820432E+03  0.00000000000E+00 0.  1.
         23    2    1    2    0    0  0.34849807857E+03  0.55810065624E+03  0.13962814381E+04  0.15463805799E+04  0.93615117448E+02 0.  0.
        254    2    1    2    0    0 -0.34849807857E+03 -0.55810065624E+03 -0.79679963014E+02  0.11145973038E+04  0.89613112877E+03 0.  0.
        -24    2    4    4    0    0 -0.50139597966E+03  0.16745494637E+02 -0.80853701919E+02  0.51440664379E+03  0.79990837314E+02 0.  0.
         24    2    4    4    0    0  0.15289790109E+03 -0.57484615088E+03  0.11737389047E+01  0.60019066004E+03  0.80009908135E+02 0.  0.
         13    1    3    3    0    0  0.13393618202E+03  0.29956628593E+03  0.71937583883E+03  0.79068353848E+03  0.00000000000E+00 0. -1.
        -13    1    3    3    0    0  0.21456189655E+03  0.25853437031E+03  0.67690559925E+03  0.75569704139E+03  0.00000000000E+00 0.  1.
          2    1    6    6  502    0  0.12781717428E+03 -0.49284744430E+03 -0.27176781521E+02  0.50987685852E+03  0.00000000000E+00 0. -1.
          1    1    5    5  503    0 -0.44314958067E+03  0.36893300568E+02 -0.84606755346E+02  0.45265988283E+03  0.00000000000E+00 0. -1.
         -2    1    5    5    0  503 -0.58246398992E+02 -0.20147805931E+02  0.37530534279E+01  0.61746760963E+02  0.00000000000E+00 0.  1.
         -1    1    6    6    0  502  0.25080726812E+02 -0.81998706577E+02  0.28350520426E+02  0.90313801526E+02  0.00000000000E+00 0.  1.
<mgrwt>
<rscale>  0 0.23124368E+04</rscale>
<asrwt>0</asrwt>
<pdfrwt beam="1">  1        2 0.30596764E+00 0.23124368E+04</pdfrwt>
<pdfrwt beam="2">  1       -2 0.10341357E+00 0.23124368E+04</pdfrwt>
<totfact> 0.46800612E+00</totfact>
</mgrwt>
</event>
<event>
12    1  0.1489025E-007  0.4574165E+04  0.7818608E-02  0.7897780E-01
         -1   -1    0    0    0  501 -0.00000000000E+00  0.00000000000E+00  0.14415575475E+04  0.14415575475E+04  0.00000000000E+00 0.  1.
          1   -1    0    0  501    0  0.00000000000E+00 -0.00000000000E+00 -0.36285385815E+04  0.36285385815E+04  0.00000000000E+00 0. -1.
         23    2    1    2    0    0  0.72110527420E+03  0.18075740149E+04  0.72573205304E+02  0.19498320237E+04  0.96236245050E+02 0.  0.
        254    2    1    2    0    0 -0.72110527420E+03 -0.18075740149E+04 -0.22595542393E+04  0.31202641053E+04  0.91822986824E+03 0.  0.
        -24    2    4    4    0    0  0.11435305531E+03 -0.16632569838E+03 -0.17115985469E+02  0.21741451931E+03  0.78963643831E+02 0.  0.
         24    2    4    4    0    0 -0.83545832950E+03 -0.16412483165E+04 -0.22424382538E+04  0.29028495860E+04  0.79496792939E+02 0.  0.
         13    1    3    3    0    0  0.47600087893E+03  0.13092258236E+04  0.58001908724E+02  0.13942787797E+04  0.00000000000E+00 0.  1.
        -13    1    3    3    0    0  0.24510439526E+03  0.49834819124E+03  0.14571296579E+02  0.55555324405E+03  0.00000000000E+00 0. -1.
          2    1    6    6  502    0 -0.25741712430E+03 -0.51270262598E+03 -0.75708893913E+03  0.94990063707E+03  0.00000000000E+00 0. -1.
          1    1    5    5  503    0  0.97137786919E+01 -0.79742489846E+02  0.13859866797E+01  0.80343905446E+02  0.00000000000E+00 0. -1.
         -2    1    5    5    0  503  0.10463927662E+03 -0.86583208534E+02 -0.18501972149E+02  0.13707061386E+03  0.00000000000E+00 0.  1.
         -1    1    6    6    0  502 -0.57804120520E+03 -0.11285456905E+04 -0.14853493147E+04  0.19529489489E+04  0.00000000000E+00 0.  1.
<mgrwt>
<rscale>  0 0.45741654E+04</rscale>
<asrwt>0</asrwt>
<pdfrwt beam="1">  1        1 0.55823670E+00 0.45741654E+04</pdfrwt>
<pdfrwt beam="2">  1       -1 0.22177809E+00 0.45741654E+04</pdfrwt>
<totfact> 0.15750131E-02</totfact>
</mgrwt>
</event>
<event>
12    1  0.1489025E-007  0.2278661E+04  0.7818608E-02  0.8486382E-01
          1   -1    0    0  501    0  0.00000000000E+00  0.00000000000E+00  0.11544265895E+04  0.11544265895E+04  0.00000000000E+00 0. -1.
         -1   -1    0    0    0  501 -0.00000000000E+00 -0.00000000000E+00 -0.11244320964E+04  0.11244320964E+04  0.00000000000E+00 0.  1.
         23    2    1    2    0    0 -0.53110121589E+03 -0.77703886829E+03  0.18777989636E+03  0.96404737725E+03  0.90929377749E+02 0.  0.
        254    2    1    2    0    0  0.53110121589E+03  0.77703886829E+03 -0.15778540333E+03  0.13148113087E+04  0.90441950417E+03 0.  0.
        -24    2    4    4    0    0  0.54862217577E+03  0.59982334158E+03  0.25707345616E+03  0.85617499966E+03  0.78578211506E+02 0.  0.
         24    2    4    4    0    0 -0.17520959879E+02  0.17721552672E+03 -0.41485885948E+03  0.45863630900E+03  0.80790245082E+02 0.  0.
         13    1    3    3    0    0 -0.31726683579E+02 -0.65851621783E+02  0.37479733146E+02  0.82144682963E+02  0.00000000000E+00 0.  1.
        -13    1    3    3    0    0 -0.49937453232E+03 -0.71118724651E+03  0.15030016321E+03  0.88190269429E+03  0.00000000000E+00 0. -1.
          2    1    6    6  502    0 -0.48236224307E+02  0.11396900493E+03 -0.29079974053E+03  0.31603822002E+03  0.00000000000E+00 0. -1.
          3    1    5    5  503    0  0.54790181482E+03  0.59639736734E+03  0.24885132032E+03  0.84723857212E+03  0.00000000000E+00 0. -1.
         -4    1    5    5    0  503  0.72036095033E+00  0.34259742354E+01  0.82221358425E+01  0.89364275397E+01  0.00000000000E+00 0.  1.
         -1    1    6    6    0  502  0.30715264428E+02  0.63246521782E+02 -0.12405911896E+03  0.14259808899E+03  0.00000000000E+00 0.  1.
<mgrwt>
<rscale>  0 0.22786613E+04</rscale>
<asrwt>0</asrwt>
<pdfrwt beam="1">  1        1 0.17760409E+00 0.22786613E+04</pdfrwt>
<pdfrwt beam="2">  1       -1 0.17298955E+00 0.22786613E+04</pdfrwt>
<totfact> 0.24459859E+00</totfact>
</mgrwt>
</event>
<event>
12    1  0.1489025E-007  0.3538442E+04  0.7818608E-02  0.8104740E-01
          1   -1    0    0  501    0  0.00000000000E+00  0.00000000000E+00  0.26753498918E+04  0.26753498918E+04  0.00000000000E+00 0. -1.
         -1   -1    0    0    0  501 -0.00000000000E+00 -0.00000000000E+00 -0.11699935855E+04  0.11699935855E+04  0.00000000000E+00 0.  1.
         23    2    1    2    0    0  0.27072887080E+03 -0.60805780303E+03 -0.93404910635E+03  0.11507244811E+04  0.93223844036E+02 0.  0.
        254    2    1    2    0    0 -0.27072887080E+03  0.60805780303E+03  0.24394054126E+04  0.26946189962E+04  0.93125955253E+03 0.  0.
        -24    2    4    4    0    0  0.32769096367E+03  0.30518079275E+03  0.78637526308E+03  0.90891585063E+03  0.85001677776E+02 0.  0.
         24    2    4    4    0    0 -0.59841983447E+03  0.30287701028E+03  0.16530301495E+04  0.17857031455E+04  0.79914123210E+02 0.  0.
         11    1    3    3    0    0  0.26141744019E+03 -0.54755288475E+03 -0.88096186271E+03  0.10696948365E+04  0.00000000000E+00 0.  1.
        -11    1    3    3    0    0  0.93114306090E+01 -0.60504918281E+02 -0.53087243642E+02  0.81029644660E+02  0.00000000000E+00 0. -1.
          2    1    6    6  502    0 -0.80905281729E+02  0.44683439331E+02  0.30886089524E+03  0.32239312488E+03  0.00000000000E+00 0. -1.
          1    1    5    5  503    0  0.12731426800E+03  0.73520697228E+02  0.30083159986E+03  0.33483408911E+03  0.00000000000E+00 0. -1.
         -2    1    5    5    0  503  0.20037669567E+03  0.23166009552E+03  0.48554366322E+03  0.57408176152E+03  0.00000000000E+00 0.  1.
         -1    1    6    6    0  502 -0.51751455274E+03  0.25819357095E+03  0.13441692543E+04  0.14633100207E+04  0.00000000000E+00 0.  1.
<mgrwt>
<rscale>  0 0.35384416E+04</rscale>
<asrwt>0</asrwt>
<pdfrwt beam="1">  1        1 0.41159229E+00 0.35384416E+04</pdfrwt>
<pdfrwt beam="2">  1       -1 0.17999901E+00 0.35384416E+04</pdfrwt>
<totfact> 0.17282275E-01</totfact>
</mgrwt>
</event>
<event>
12    1  0.1489025E-007  0.1319982E+04  0.7818608E-02  0.9013868E-01
          1   -1    0    0  501    0  0.00000000000E+00  0.00000000000E+00  0.50275699561E+03  0.50275699561E+03  0.00000000000E+00 0. -1.
         -1   -1    0    0    0  501 -0.00000000000E+00 -0.00000000000E+00 -0.86639900225E+03  0.86639900225E+03  0.00000000000E+00 0.  1.
         23    2    1    2    0    0 -0.13970281546E+03 -0.30634492507E+03 -0.81293147926E+01  0.34879828003E+03  0.90719703642E+02 0.  0.
        254    2    1    2    0    0  0.13970281546E+03  0.30634492507E+03 -0.35551269185E+03  0.10203577178E+04  0.89519635193E+03 0.  0.
        -24    2    4    4    0    0  0.41488383245E+03  0.41944263946E+03 -0.38839406862E+03  0.71061164623E+03  0.77834677349E+02 0.  0.
         24    2    4    4    0    0 -0.27518101699E+03 -0.11309771439E+03  0.32881376768E+02  0.30974607160E+03  0.79660271291E+02 0.  0.
         11    1    3    3    0    0 -0.10031182782E+03 -0.16114776666E+03  0.33380483147E+02  0.19273121738E+03  0.00000000000E+00 0. -1.
        -11    1    3    3    0    0 -0.39390987649E+02 -0.14519715841E+03 -0.41509797940E+02  0.15606706265E+03  0.00000000000E+00 0.  1.
          4    1    6    6  502    0 -0.10501628703E+03 -0.52382552783E+02  0.51418175151E+02  0.12812564581E+03  0.00000000000E+00 0. -1.
          3    1    5    5  503    0  0.98543389235E+02  0.12116164502E+03 -0.14074901593E+03  0.21024088392E+03  0.00000000000E+00 0. -1.
         -4    1    5    5    0  503  0.31634044322E+03  0.29828099443E+03 -0.24764505269E+03  0.50037076231E+03  0.00000000000E+00 0.  1.
         -3    1    6    6    0  502 -0.17016472995E+03 -0.60715161606E+02 -0.18536798383E+02  0.18162042579E+03  0.00000000000E+00 0.  1.
<mgrwt>
<rscale>  0 0.13199821E+04</rscale>
<asrwt>0</asrwt>
<pdfrwt beam="1">  1        1 0.77347231E-01 0.13199821E+04</pdfrwt>
<pdfrwt beam="2">  1       -1 0.13329215E+00 0.13199821E+04</pdfrwt>
<totfact> 0.20541889E+01</totfact>
</mgrwt>
</event>
<event>
12    1  0.1489025E-007  0.1244658E+04  0.7818608E-02  0.9074641E-01
         -2   -1    0    0    0  501 -0.00000000000E+00  0.00000000000E+00  0.68327739718E+03  0.68327739718E+03  0.00000000000E+00 0.  1.
          2   -1    0    0  501    0  0.00000000000E+00 -0.00000000000E+00 -0.56681704518E+03  0.56681704518E+03  0.00000000000E+00 0. -1.
         23    2    1    2    0    0  0.25543471971E+03 -0.48098829352E+02  0.14258005342E+03  0.31010288495E+03  0.90963367397E+02 0.  0.
        254    2    1    2    0    0 -0.25543471971E+03  0.48098829352E+02 -0.26119701419E+02  0.93999155740E+03  0.90296262147E+03 0.  0.
        -24    2    4    4    0    0 -0.51528237289E+03  0.48676801507E+02  0.22501278799E+03  0.56998783628E+03  0.79812429699E+02 0.  0.
         24    2    4    4    0    0  0.25984765319E+03 -0.57797215505E+00 -0.25113248941E+03  0.37000372112E+03  0.79461245187E+02 0.  0.
         13    1    3    3    0    0  0.23547179787E+03 -0.63536254205E+02  0.14658130076E+03  0.28455210582E+03  0.00000000000E+00 0.  1.
        -13    1    3    3    0    0  0.19962921832E+02  0.15437424853E+02 -0.40012473444E+01  0.25550779136E+02  0.00000000000E+00 0. -1.
          2    1    6    6  502    0  0.14711723794E+03 -0.37392324213E+02 -0.15906228406E+03  0.21986922891E+03  0.00000000000E+00 0. -1.
          3    1    5    5  503    0 -0.26428665725E+03  0.60101491665E+02  0.13758407995E+03  0.30395559801E+03  0.00000000000E+00 0. -1.
         -4    1    5    5    0  503 -0.25099571564E+03 -0.11424690158E+02  0.87428708034E+02  0.26603223828E+03  0.00000000000E+00 0.  1.
         -1    1    6    6    0  502  0.11273041524E+03  0.36814352058E+02 -0.92070205345E+02  0.15013449221E+03  0.00000000000E+00 0.  1.
<mgrwt>
<rscale>  0 0.12446578E+04</rscale>
<asrwt>0</asrwt>
<pdfrwt beam="1">  1        2 0.87202623E-01 0.12446578E+04</pdfrwt>
<pdfrwt beam="2">  1       -2 0.10511960E+00 0.12446578E+04</pdfrwt>
<totfact> 0.38311006E+01</totfact>
</mgrwt>
</event>
<event>
12    1  0.1489025E-007  0.1923144E+04  0.7818608E-02  0.8643421E-01
         -2   -1    0    0    0  501 -0.00000000000E+00  0.00000000000E+00  0.34673920616E+03  0.34673920616E+03  0.00000000000E+00 0. -1.
          2   -1    0    0  501    0  0.00000000000E+00 -0.00000000000E+00 -0.26666165716E+04  0.26666165716E+04  0.00000000000E+00 0.  1.
         23    2    1    2    0    0 -0.11550848525E+02 -0.47250349773E+03  0.66119471739E+00  0.48129029280E+03  0.90812616390E+02 0.  0.
        254    2    1    2    0    0  0.11550848525E+02  0.47250349773E+03 -0.23205385601E+04  0.25320654849E+04  0.89613806608E+03 0.  0.
        -24    2    4    4    0    0  0.27485748856E+03 -0.14764115590E+03 -0.95455020324E+03  0.10072025761E+04  0.77112832046E+02 0.  0.
         24    2    4    4    0    0 -0.26330664003E+03  0.62014465363E+03 -0.13659883569E+04  0.15248629088E+04  0.73300214689E+02 0.  0.
         13    1    3    3    0    0  0.26094871571E+01 -0.42182315869E+03 -0.25347734475E+02  0.42259211336E+03  0.00000000000E+00 0. -1.
        -13    1    3    3    0    0 -0.14160335682E+02 -0.50680339040E+02  0.26008929192E+02  0.58698179440E+02  0.00000000000E+00 0.  1.
          4    1    6    6  502    0 -0.13151119856E+03  0.36546760833E+03 -0.85020904582E+03  0.93472840423E+03  0.00000000000E+00 0. -1.
          1    1    5    5  503    0  0.57760625278E+02 -0.25483550424E+02 -0.30627571636E+03  0.31271475118E+03  0.00000000000E+00 0. -1.
         -2    1    5    5    0  503  0.21709686328E+03 -0.12215760547E+03 -0.64827448688E+03  0.69448782492E+03  0.00000000000E+00 0.  1.
         -3    1    6    6    0  502 -0.13179544147E+03  0.25467704530E+03 -0.51577931107E+03  0.59013450461E+03  0.00000000000E+00 0.  1.
<mgrwt>
<rscale>  0 0.19231438E+04</rscale>
<asrwt>0</asrwt>
<pdfrwt beam="1">  1        2 0.41024869E+00 0.19231438E+04</pdfrwt>
<pdfrwt beam="2">  1       -2 0.53344494E-01 0.19231438E+04</pdfrwt>
<totfact> 0.86193248E+00</totfact>
</mgrwt>
</event>
<event>
12    1  0.1489025E-007  0.1333017E+04  0.7818608E-02  0.9003784E-01
         -2   -1    0    0    0  501 -0.00000000000E+00  0.00000000000E+00  0.52202770688E+03  0.52202770688E+03  0.00000000000E+00 0.  1.
          2   -1    0    0  501    0  0.00000000000E+00 -0.00000000000E+00 -0.85097764070E+03  0.85097764070E+03  0.00000000000E+00 0. -1.
         23    2    1    2    0    0  0.12873679071E+03  0.13280233401E+03 -0.40240305202E+03  0.45236788389E+03  0.92189288409E+02 0.  0.
        254    2    1    2    0    0 -0.12873679071E+03 -0.13280233401E+03  0.73453118202E+02  0.92063746370E+03  0.89887060125E+03 0.  0.
        -24    2    4    4    0    0 -0.41419184687E+02 -0.16449077828E+03 -0.39475673851E+03  0.43662796889E+03  0.77706728290E+02 0.  0.
         24    2    4    4    0    0 -0.87317606025E+02  0.31688444271E+02  0.46820985671E+03  0.48400949480E+03  0.80101181755E+02 0.  0.
         13    1    3    3    0    0  0.55549988776E+02  0.11095160840E+03 -0.29975393739E+03  0.32442022693E+03  0.00000000000E+00 0. -1.
        -13    1    3    3    0    0  0.73186801936E+02  0.21850725613E+02 -0.10264911463E+03  0.12794765696E+03  0.00000000000E+00 0.  1.
          2    1    6    6  502    0 -0.97366717356E+02  0.43857218202E+02  0.41378506916E+03  0.42734273914E+03  0.00000000000E+00 0. -1.
          3    1    5    5  503    0 -0.23343258178E+02 -0.16141635575E+03 -0.31416880951E+03  0.35398049165E+03  0.00000000000E+00 0. -1.
         -4    1    5    5    0  503 -0.18075926510E+02 -0.30744225352E+01 -0.80587929000E+02  0.82647477237E+02  0.00000000000E+00 0.  1.
         -1    1    6    6    0  502  0.10049111331E+02 -0.12168773931E+02  0.54424787548E+02  0.56666755661E+02  0.00000000000E+00 0.  1.
<mgrwt>
<rscale>  0 0.13330175E+04</rscale>
<asrwt>0</asrwt>
<pdfrwt beam="1">  1        2 0.13091964E+00 0.13330175E+04</pdfrwt>
<pdfrwt beam="2">  1       -2 0.80311955E-01 0.13330175E+04</pdfrwt>
<totfact> 0.42479137E+01</totfact>
</mgrwt>
</event>
<event>
12    1  0.1489025E-007  0.1487325E+04  0.7818608E-02  0.8892926E-01
         -1   -1    0    0    0  501 -0.00000000000E+00  0.00000000000E+00  0.87119208188E+03  0.87119208188E+03  0.00000000000E+00 0.  1.
          1   -1    0    0  501    0  0.00000000000E+00 -0.00000000000E+00 -0.63480132374E+03  0.63480132374E+03  0.00000000000E+00 0. -1.
         23    2    1    2    0    0  0.62752848141E+02  0.40882735122E+03  0.28875076815E+03  0.51169979751E+03  0.85918296093E+02 0.  0.
        254    2    1    2    0    0 -0.62752848141E+02 -0.40882735122E+03 -0.52360010004E+02  0.99429360811E+03  0.90266299659E+03 0.  0.
        -24    2    4    4    0    0  0.42727052595E+02 -0.65333212744E+03 -0.18690160732E+03  0.68547700209E+03  0.79234082413E+02 0.  0.
         24    2    4    4    0    0 -0.10547990074E+03  0.24450477621E+03  0.13454159732E+03  0.30881660601E+03  0.79734933943E+02 0.  0.
         11    1    3    3    0    0  0.24506987075E+02  0.27472208150E+03  0.23464069573E+03  0.36211748172E+03  0.00000000000E+00 0.  1.
        -11    1    3    3    0    0  0.38245861066E+02  0.13410526973E+03  0.54110072413E+02  0.14958231578E+03  0.00000000000E+00 0. -1.
          2    1    6    6  502    0 -0.72324525443E+02  0.72249546226E+02  0.42414602035E+02  0.11067896086E+03  0.00000000000E+00 0. -1.
          1    1    5    5  503    0  0.81390253628E+01 -0.44787377010E+02  0.65454312115E+01  0.45989080693E+02  0.00000000000E+00 0. -1.
         -2    1    5    5    0  503  0.34588027232E+02 -0.60854475043E+03 -0.19344703853E+03  0.63948792140E+03  0.00000000000E+00 0.  1.
         -1    1    6    6    0  502 -0.33155375293E+02  0.17225522999E+03  0.92126995283E+02  0.19813764516E+03  0.00000000000E+00 0.  1.
<mgrwt>
<rscale>  0 0.14873250E+04</rscale>
<asrwt>0</asrwt>
<pdfrwt beam="1">  1        1 0.97661743E-01 0.14873250E+04</pdfrwt>
<pdfrwt beam="2">  1       -1 0.13402955E+00 0.14873250E+04</pdfrwt>
<totfact> 0.14334878E+01</totfact>
</mgrwt>
</event>
<event>
12    1  0.1489025E-007  0.3020647E+04  0.7818608E-02  0.8237859E-01
         -1   -1    0    0    0  501 -0.00000000000E+00  0.00000000000E+00  0.15726595929E+04  0.15726595929E+04  0.00000000000E+00 0.  1.
          1   -1    0    0  501    0  0.00000000000E+00 -0.00000000000E+00 -0.14504584105E+04  0.14504584105E+04  0.00000000000E+00 0. -1.
         23    2    1    2    0    0  0.44891946640E+03  0.13072558298E+04  0.79345524945E+02  0.13872876119E+04  0.88457413255E+02 0.  0.
        254    2    1    2    0    0 -0.44891946640E+03 -0.13072558298E+04  0.42855657396E+02  0.16358303915E+04  0.87387526034E+03 0.  0.
        -24    2    4    4    0    0  0.14317620657E+01 -0.27811931635E+03  0.36310575259E+03  0.46496824956E+03  0.83649754732E+02 0.  0.
         24    2    4    4    0    0 -0.45035122846E+03 -0.10291365134E+04 -0.32025009519E+03  0.11708621419E+04  0.80123902458E+02 0.  0.
         11    1    3    3    0    0  0.39100130953E+03  0.10333357842E+04  0.72845829490E+02  0.11072359197E+04  0.00000000000E+00 0.  1.
        -11    1    3    3    0    0  0.57918156866E+02  0.27392004554E+03  0.64996954555E+01  0.28005169217E+03  0.00000000000E+00 0. -1.
          4    1    6    6  502    0 -0.20137511216E+02 -0.55501772531E+02  0.81517379737E+00  0.59047697841E+02  0.00000000000E+00 0. -1.
          3    1    5    5  503    0  0.14308129821E+02 -0.10221664796E+03  0.76622555327E+02  0.12854564047E+03  0.00000000000E+00 0. -1.
         -2    1    5    5    0  503 -0.12876367755E+02 -0.17590266839E+03  0.28648319726E+03  0.33642260909E+03  0.00000000000E+00 0.  1.
         -3    1    6    6    0  502 -0.43021371725E+03 -0.97363474088E+03 -0.32106526899E+03  0.11118144441E+04  0.00000000000E+00 0.  1.
<mgrwt>
<rscale>  0 0.30206472E+04</rscale>
<asrwt>0</asrwt>
<pdfrwt beam="1">  1        1 0.22314745E+00 0.30206472E+04</pdfrwt>
<pdfrwt beam="2">  1       -1 0.24194763E+00 0.30206472E+04</pdfrwt>
<totfact> 0.47364314E-01</totfact>
</mgrwt>
</event>
<event>
12    1  0.1489025E-007  0.1690666E+04  0.7818608E-02  0.8766706E-01
          2   -1    0    0  501    0  0.00000000000E+00  0.00000000000E+00  0.72395997914E+03  0.72395997914E+03  0.00000000000E+00 0. -1.
         -2   -1    0    0    0  501 -0.00000000000E+00 -0.00000000000E+00 -0.98705439139E+03  0.98705439139E+03  0.00000000000E+00 0.  1.
         23    2    1    2    0    0 -0.26630351308E+03 -0.36950035333E+03 -0.52457097024E+03  0.69944910020E+03  0.81278956435E+02 0.  0.
        254    2    1    2    0    0  0.26630351308E+03  0.36950035333E+03  0.26147655798E+03  0.10115652703E+04  0.86454972880E+03 0.  0.
        -24    2    4    4    0    0  0.49460079850E+03  0.44964665689E+03  0.40962548686E+02  0.67450405061E+03  0.80409688268E+02 0.  0.
         24    2    4    4    0    0 -0.22829728542E+03 -0.80146303562E+02  0.22051400930E+03  0.33706121972E+03  0.80254327231E+02 0.  0.
         11    1    3    3    0    0 -0.20872987374E+03 -0.29303999104E+03 -0.46002309964E+03  0.58400500747E+03  0.00000000000E+00 0. -1.
        -11    1    3    3    0    0 -0.57573639344E+02 -0.76460362286E+02 -0.64547870603E+02  0.11544409274E+03  0.00000000000E+00 0.  1.
          2    1    6    6  502    0 -0.12906369724E+03 -0.50634541010E+02  0.17681295601E+03  0.22468670655E+03  0.00000000000E+00 0. -1.
          3    1    5    5  503    0  0.28361967223E+02  0.53372255639E+01 -0.26896920709E+01  0.28984851301E+02  0.00000000000E+00 0. -1.
         -4    1    5    5    0  503  0.46623883127E+03  0.44430943133E+03  0.43652240757E+02  0.64551919931E+03  0.00000000000E+00 0.  1.
         -1    1    6    6    0  502 -0.99233588174E+02 -0.29511762552E+02  0.43701053289E+02  0.11237451317E+03  0.00000000000E+00 0.  1.
<mgrwt>
<rscale>  0 0.16906660E+04</rscale>
<asrwt>0</asrwt>
<pdfrwt beam="1">  1        2 0.11137846E+00 0.16906660E+04</pdfrwt>
<pdfrwt beam="2">  1       -2 0.15185452E+00 0.16906660E+04</pdfrwt>
<totfact> 0.10832872E+01</totfact>
</mgrwt>
</event>
<event>
12    1  0.1489025E-007  0.1385752E+04  0.7818608E-02  0.8964197E-01
         -2   -1    0    0    0  501 -0.00000000000E+00  0.00000000000E+00  0.19237951112E+03  0.19237951112E+03  0.00000000000E+00 0.  1.
          2   -1    0    0  501    0  0.00000000000E+00 -0.00000000000E+00 -0.24954706488E+04  0.24954706488E+04  0.00000000000E+00 0. -1.
         23    2    1    2    0    0  0.15204278765E+03  0.57866865508E+02 -0.13664878609E+04  0.13791711467E+04  0.91424256258E+02 0.  0.
        254    2    1    2    0    0 -0.15204278765E+03 -0.57866865508E+02 -0.93660327681E+03  0.13086790132E+04  0.89941618734E+03 0.  0.
        -24    2    4    4    0    0 -0.22809381230E+03  0.35581886322E+03 -0.24458874495E+03  0.49494506570E+03  0.80703861534E+02 0.  0.
         24    2    4    4    0    0  0.76051024648E+02 -0.41368572873E+03 -0.69201453186E+03  0.81373394750E+03  0.79744495128E+02 0.  0.
         13    1    3    3    0    0  0.37921285131E+02  0.14074926676E+02 -0.11854033592E+03  0.12525150166E+03  0.00000000000E+00 0.  1.
        -13    1    3    3    0    0  0.11412150252E+03  0.43791938832E+02 -0.12479475250E+04  0.12539196451E+04  0.00000000000E+00 0. -1.
          2    1    6    6  502    0  0.32360843569E+02 -0.33374933228E+03 -0.57234937525E+03  0.66333976840E+03  0.00000000000E+00 0. -1.
          3    1    5    5  503    0 -0.22224450663E+03  0.29844915294E+03 -0.20332081555E+03  0.42403286624E+03  0.00000000000E+00 0. -1.
         -4    1    5    5    0  503 -0.58493056751E+01  0.57369710280E+02 -0.41267929405E+02  0.70912199457E+02  0.00000000000E+00 0.  1.
         -1    1    6    6    0  502  0.43690181079E+02 -0.79936396445E+02 -0.11966515661E+03  0.15039417909E+03  0.00000000000E+00 0.  1.
<mgrwt>
<rscale>  0 0.13857524E+04</rscale>
<asrwt>0</asrwt>
<pdfrwt beam="1">  1        2 0.38391852E+00 0.13857524E+04</pdfrwt>
<pdfrwt beam="2">  1       -2 0.29596851E-01 0.13857524E+04</pdfrwt>
<totfact> 0.36021252E+01</totfact>
</mgrwt>
</event>
<event>
12    1  0.1489025E-007  0.1127406E+04  0.7818608E-02  0.9178884E-01
          1   -1    0    0  501    0  0.00000000000E+00  0.00000000000E+00  0.76438654577E+03  0.76438654577E+03  0.00000000000E+00 0. -1.
         -1   -1    0    0    0  501 -0.00000000000E+00 -0.00000000000E+00 -0.41570723991E+03  0.41570723991E+03  0.00000000000E+00 0.  1.
         23    2    1    2    0    0  0.15651753484E+02  0.18146912607E+03  0.11481454492E+03  0.23686300853E+03  0.98720230863E+02 0.  0.
        254    2    1    2    0    0 -0.15651753484E+02 -0.18146912607E+03  0.23386476094E+03  0.94323077715E+03  0.89544153994E+03 0.  0.
        -24    2    4    4    0    0 -0.21055281565E+03  0.23442904191E+03 -0.13175475564E+03  0.35081121379E+03  0.80123206478E+02 0.  0.
         24    2    4    4    0    0  0.19490106217E+03 -0.41589816798E+03  0.36561951658E+03  0.59241956337E+03  0.79533628084E+02 0.  0.
         13    1    3    3    0    0  0.31360736437E+02  0.14299878981E+03  0.12673449330E+03  0.19363311047E+03  0.00000000000E+00 0. -1.
        -13    1    3    3    0    0 -0.15708982954E+02  0.38470336256E+02 -0.11919948380E+02  0.43229898062E+02  0.00000000000E+00 0.  1.
          4    1    6    6  502    0  0.66010475320E+02 -0.23435369063E+03  0.19356700695E+03  0.31104215364E+03  0.00000000000E+00 0. -1.
          3    1    5    5  503    0 -0.11388851929E+03  0.70423472263E+02 -0.41957382066E+02  0.14032277855E+03  0.00000000000E+00 0. -1.
         -4    1    5    5    0  503 -0.96664296362E+02  0.16400556964E+03 -0.89797373575E+02  0.21048843523E+03  0.00000000000E+00 0.  1.
         -3    1    6    6    0  502  0.12889058685E+03 -0.18154447735E+03  0.17205250962E+03  0.28137740972E+03  0.00000000000E+00 0.  1.
<mgrwt>
<rscale>  0 0.11274059E+04</rscale>
<asrwt>0</asrwt>
<pdfrwt beam="1">  1        1 0.11759793E+00 0.11274059E+04</pdfrwt>
<pdfrwt beam="2">  1       -1 0.63954960E-01 0.11274059E+04</pdfrwt>
<totfact> 0.58640781E+01</totfact>
</mgrwt>
</event>
<event>
12    1  0.1489025E-007  0.1688500E+04  0.7818608E-02  0.8767951E-01
          1   -1    0    0  501    0  0.00000000000E+00  0.00000000000E+00  0.32310406780E+03  0.32310406780E+03  0.00000000000E+00 0. -1.
         -1   -1    0    0    0  501 -0.00000000000E+00 -0.00000000000E+00 -0.22059698652E+04  0.22059698652E+04  0.00000000000E+00 0.  1.
         23    2    1    2    0    0 -0.48000488753E+03  0.33910310508E+03 -0.47975020217E+03  0.76440505663E+03  0.93590737777E+02 0.  0.
        254    2    1    2    0    0  0.48000488753E+03 -0.33910310508E+03 -0.14031155952E+04  0.17646688763E+04  0.89438652811E+03 0.  0.
        -24    2    4    4    0    0  0.63734333788E+03 -0.50866665377E+03 -0.99947382247E+03  0.12919407903E+04  0.72213494046E+02 0.  0.
         24    2    4    4    0    0 -0.15733845035E+03  0.16956354869E+03 -0.40364177274E+03  0.47272808608E+03  0.83892655636E+02 0.  0.
         11    1    3    3    0    0 -0.24682596896E+03  0.22412242144E+03 -0.24052138342E+03  0.41110151378E+03  0.00000000000E+00 0. -1.
        -11    1    3    3    0    0 -0.23317891857E+03  0.11498068363E+03 -0.23922881874E+03  0.35330354285E+03  0.00000000000E+00 0.  1.
          2    1    6    6  502    0 -0.13731324274E+03  0.14932504736E+03 -0.39311865550E+03  0.44237447226E+03  0.00000000000E+00 0. -1.
          1    1    5    5  503    0  0.54306861171E+03 -0.39854938729E+03 -0.82807680010E+03  0.10674625605E+04  0.00000000000E+00 0. -1.
         -4    1    5    5    0  503  0.94274726171E+02 -0.11011726648E+03 -0.17139702237E+03  0.22447822978E+03  0.00000000000E+00 0.  1.
         -3    1    6    6    0  502 -0.20025207607E+02  0.20238501335E+02 -0.10523117236E+02  0.30353613827E+02  0.00000000000E+00 0.  1.
<mgrwt>
<rscale>  0 0.16884997E+04</rscale>
<asrwt>0</asrwt>
<pdfrwt beam="1">  1        1 0.49708316E-01 0.16884997E+04</pdfrwt>
<pdfrwt beam="2">  1       -1 0.33938000E+00 0.16884997E+04</pdfrwt>
<totfact> 0.13882111E+00</totfact>
</mgrwt>
</event>
<event>
12    1  0.1489025E-007  0.1535225E+04  0.7818608E-02  0.8861361E-01
          1   -1    0    0  501    0  0.00000000000E+00  0.00000000000E+00  0.90717933621E+03  0.90717933621E+03  0.00000000000E+00 0. -1.
         -1   -1    0    0    0  501 -0.00000000000E+00 -0.00000000000E+00 -0.64951727290E+03  0.64951727290E+03  0.00000000000E+00 0.  1.
         23    2    1    2    0    0  0.48509113383E+02 -0.74875232195E+02  0.52855975025E+03  0.54362659169E+03  0.90526389162E+02 0.  0.
        254    2    1    2    0    0 -0.48509113383E+02  0.74875232195E+02 -0.27089768694E+03  0.10130700174E+04  0.97209354948E+03 0.  0.
        -24    2    4    4    0    0  0.12508933541E+03  0.34785465819E+03  0.20635053414E+03  0.43107224479E+03  0.81194410086E+02 0.  0.
         24    2    4    4    0    0 -0.17359844879E+03 -0.27297942600E+03 -0.47724822108E+03  0.58199777263E+03  0.79381070697E+02 0.  0.
         11    1    3    3    0    0  0.38589380956E+02 -0.96054957753E+02  0.41892501418E+03  0.43152504300E+03  0.00000000000E+00 0.  1.
        -11    1    3    3    0    0  0.99197324269E+01  0.21179725558E+02  0.10963473607E+03  0.11210154870E+03  0.00000000000E+00 0. -1.
          4    1    6    6  502    0 -0.11555293681E+03 -0.22051575220E+03 -0.40558057551E+03  0.47589419140E+03  0.00000000000E+00 0. -1.
          3    1    5    5  503    0  0.13487044167E+03  0.30129937506E+03  0.18932265359E+03  0.38054489435E+03  0.00000000000E+00 0. -1.
         -4    1    5    5    0  503 -0.97811062623E+01  0.46555283129E+02  0.17027880554E+02  0.50527350446E+02  0.00000000000E+00 0.  1.
         -1    1    6    6    0  502 -0.58045511984E+02 -0.52463673793E+02 -0.71667645568E+02  0.10610358123E+03  0.00000000000E+00 0.  1.
<mgrwt>
<rscale>  0 0.15352246E+04</rscale>
<asrwt>0</asrwt>
<pdfrwt beam="1">  1        1 0.13956605E+00 0.15352246E+04</pdfrwt>
<pdfrwt beam="2">  1       -1 0.99925734E-01 0.15352246E+04</pdfrwt>
<totfact> 0.16537606E+01</totfact>
</mgrwt>
</event>
<event>
12    1  0.1489025E-007  0.1223694E+04  0.7818608E-02  0.9092366E-01
          2   -1    0    0  501    0  0.00000000000E+00  0.00000000000E+00  0.27228025247E+04  0.27228025247E+04  0.00000000000E+00 0. -1.
         -2   -1    0    0    0  501 -0.00000000000E+00 -0.00000000000E+00 -0.13748947922E+03  0.13748947922E+03  0.00000000000E+00 0.  1.
         23    2    1    2    0    0 -0.10218094170E+03 -0.20997952937E+03  0.29150483885E+03  0.38759846610E+03  0.10356231095E+03 0.  0.
        254    2    1    2    0    0  0.10218094170E+03  0.20997952937E+03  0.22938082066E+04  0.24726935378E+04  0.89337836080E+03 0.  0.
        -24    2    4    4    0    0 -0.16050451231E+03 -0.21617586449E+03  0.28122419753E+03  0.39747180753E+03  0.80019282959E+02 0.  0.
         24    2    4    4    0    0  0.26268545401E+03  0.42615539385E+03  0.20125840091E+04  0.20752217303E+04  0.73748008099E+02 0.  0.
         13    1    3    3    0    0  0.22707554414E+01  0.12453792768E+01  0.50401581536E+02  0.50468076258E+02  0.00000000000E+00 0. -1.
        -13    1    3    3    0    0 -0.10445169714E+03 -0.21122490864E+03  0.24110325731E+03  0.33713038984E+03  0.00000000000E+00 0.  1.
          4    1    6    6  502    0  0.24197446082E+03  0.41720570043E+03  0.18892110244E+04  0.19498026902E+04  0.00000000000E+00 0. -1.
          1    1    5    5  503    0 -0.13555292305E+03 -0.17003777662E+03  0.26450587588E+03  0.34241903977E+03  0.00000000000E+00 0. -1.
         -2    1    5    5    0  503 -0.24951589264E+02 -0.46138087872E+02  0.16718321655E+02  0.55052767762E+02  0.00000000000E+00 0.  1.
         -1    1    6    6    0  502  0.20710993193E+02  0.89496934288E+01  0.12337298473E+03  0.12541904007E+03  0.00000000000E+00 0.  1.
<mgrwt>
<rscale>  0 0.12236939E+04</rscale>
<asrwt>0</asrwt>
<pdfrwt beam="1">  1        2 0.41889266E+00 0.12236939E+04</pdfrwt>
<pdfrwt beam="2">  1       -2 0.21152230E-01 0.12236939E+04</pdfrwt>
<totfact> 0.49538153E+01</totfact>
</mgrwt>
</event>
<event>
12    1  0.1489025E-007  0.1525757E+04  0.7818608E-02  0.8867503E-01
          1   -1    0    0  501    0  0.00000000000E+00  0.00000000000E+00  0.62188120100E+03  0.62188120100E+03  0.00000000000E+00 0. -1.
         -1   -1    0    0    0  501 -0.00000000000E+00 -0.00000000000E+00 -0.93584362697E+03  0.93584362697E+03  0.00000000000E+00 0.  1.
         23    2    1    2    0    0  0.14110568023E+03  0.37700662527E+03 -0.38564478974E+03  0.56449979830E+03  0.88844301646E+02 0.  0.
        254    2    1    2    0    0 -0.14110568023E+03 -0.37700662527E+03  0.71682363761E+02  0.99322502968E+03  0.90515898593E+03 0.  0.
        -24    2    4    4    0    0  0.36784303421E+03 -0.24490250072E+03 -0.32056889127E+02  0.45045200828E+03  0.81201200399E+02 0.  0.
         24    2    4    4    0    0 -0.50894871444E+03 -0.13210412455E+03  0.10373925289E+03  0.54277302140E+03  0.85792928072E+02 0.  0.
         13    1    3    3    0    0  0.35161113021E+01  0.74402844419E+02 -0.38431968647E+02  0.83816242522E+02  0.00000000000E+00 0. -1.
        -13    1    3    3    0    0  0.13758956893E+03  0.30260378085E+03 -0.34721282109E+03  0.48068355578E+03  0.00000000000E+00 0.  1.
          4    1    6    6  502    0 -0.35651955542E+03 -0.56698198871E+02  0.50138470569E+02  0.36446501256E+03  0.00000000000E+00 0. -1.
          1    1    5    5  503    0  0.36243307824E+03 -0.24383120955E+03 -0.20096876363E+02  0.43728169341E+03  0.00000000000E+00 0. -1.
         -4    1    5    5    0  503  0.54099559714E+01 -0.10712911666E+01 -0.11960012764E+02  0.13170314867E+02  0.00000000000E+00 0.  1.
         -3    1    6    6    0  502 -0.15242915903E+03 -0.75405925679E+02  0.53600782319E+02  0.17830800883E+03  0.00000000000E+00 0.  1.
<mgrwt>
<rscale>  0 0.15257569E+04</rscale>
<asrwt>0</asrwt>
<pdfrwt beam="1">  1        1 0.95674031E-01 0.15257569E+04</pdfrwt>
<pdfrwt beam="2">  1       -1 0.14397594E+00 0.15257569E+04</pdfrwt>
<totfact> 0.12219451E+01</totfact>
</mgrwt>
</event>
<event>
12    1  0.1489025E-007  0.2302695E+04  0.7818608E-02  0.8476859E-01
         -2   -1    0    0    0  501 -0.00000000000E+00  0.00000000000E+00  0.12670694946E+04  0.12670694946E+04  0.00000000000E+00 0.  1.
          2   -1    0    0  501    0  0.00000000000E+00 -0.00000000000E+00 -0.10461942215E+04  0.10461942215E+04  0.00000000000E+00 0. -1.
         23    2    1    2    0    0 -0.24793223749E+03  0.46790517062E+03  0.91532187256E+03  0.10616153063E+04  0.93847136539E+02 0.  0.
        254    2    1    2    0    0  0.24793223749E+03 -0.46790517062E+03 -0.69444659947E+03  0.12516484098E+04  0.89663929154E+03 0.  0.
        -24    2    4    4    0    0  0.52395246341E+03 -0.23845737564E+03 -0.66467621619E+03  0.88276541298E+03  0.78052534075E+02 0.  0.
         24    2    4    4    0    0 -0.27602022593E+03 -0.22944779498E+03 -0.29770383278E+02  0.36888299680E+03  0.79717839087E+02 0.  0.
         11    1    3    3    0    0 -0.24268257078E+03  0.46406199821E+03  0.86720924806E+03  0.10130647799E+04  0.00000000000E+00 0.  1.
        -11    1    3    3    0    0 -0.52496667044E+01  0.38431724090E+01  0.48112624500E+02  0.48550526371E+02  0.00000000000E+00 0. -1.
          2    1    6    6  502    0 -0.24927337095E+03 -0.19732119877E+03 -0.62087067642E+00  0.31792020136E+03  0.00000000000E+00 0. -1.
          1    1    5    5  503    0  0.40254821319E+03 -0.21662612011E+03 -0.50901222425E+03  0.68415304157E+03  0.00000000000E+00 0. -1.
         -2    1    5    5    0  503  0.12140425023E+03 -0.21831255527E+02 -0.15566399194E+03  0.19861237141E+03  0.00000000000E+00 0.  1.
         -1    1    6    6    0  502 -0.26746854980E+02 -0.32126596203E+02 -0.29149512602E+02  0.50962795448E+02  0.00000000000E+00 0.  1.
<mgrwt>
<rscale>  0 0.23026948E+04</rscale>
<asrwt>0</asrwt>
<pdfrwt beam="1">  1        2 0.16095296E+00 0.23026948E+04</pdfrwt>
<pdfrwt beam="2">  1       -2 0.19493377E+00 0.23026948E+04</pdfrwt>
<totfact> 0.30645704E+00</totfact>
</mgrwt>
</event>
<event>
12    1  0.1489025E-007  0.1533151E+04  0.7818608E-02  0.8862702E-01
          2   -1    0    0  501    0  0.00000000000E+00  0.00000000000E+00  0.12306188395E+04  0.12306188395E+04  0.00000000000E+00 0. -1.
         -2   -1    0    0    0  501 -0.00000000000E+00 -0.00000000000E+00 -0.47751437965E+03  0.47751437965E+03  0.00000000000E+00 0.  1.
         23    2    1    2    0    0 -0.44536568020E+03 -0.13221195044E+03  0.49178798278E+03  0.68248143237E+03  0.89971643213E+02 0.  0.
        254    2    1    2    0    0  0.44536568020E+03  0.13221195044E+03  0.26131647710E+03  0.10256517868E+04  0.87626748067E+03 0.  0.
        -24    2    4    4    0    0 -0.83917531427E+02  0.32678686743E+03 -0.89047812537E+02  0.35690937830E+03  0.74986549408E+02 0.  0.
         24    2    4    4    0    0  0.52928321162E+03 -0.19457491699E+03  0.35036428964E+03  0.66874240853E+03  0.80381322977E+02 0.  0.
         11    1    3    3    0    0 -0.18838564384E+03 -0.44639412870E+02  0.14405174569E+03  0.24131459430E+03  0.00000000000E+00 0. -1.
        -11    1    3    3    0    0 -0.25698003636E+03 -0.87572537573E+02  0.34773623710E+03  0.44116683807E+03  0.00000000000E+00 0.  1.
          4    1    6    6  502    0  0.27796269207E+03 -0.13179190153E+03  0.22389296725E+03  0.38047394691E+03  0.00000000000E+00 0. -1.
          3    1    5    5  503    0 -0.97038108045E+02  0.25924351823E+03 -0.70429038111E+02  0.28562885983E+03  0.00000000000E+00 0. -1.
         -4    1    5    5    0  503  0.13120576617E+02  0.67543349200E+02 -0.18618774426E+02  0.71280518468E+02  0.00000000000E+00 0.  1.
         -3    1    6    6    0  502  0.25132051955E+03 -0.62783015456E+02  0.12647132239E+03  0.28826846162E+03  0.00000000000E+00 0.  1.
<mgrwt>
<rscale>  0 0.15331513E+04</rscale>
<asrwt>0</asrwt>
<pdfrwt beam="1">  1        2 0.18932597E+00 0.15331513E+04</pdfrwt>
<pdfrwt beam="2">  1       -2 0.73463751E-01 0.15331513E+04</pdfrwt>
<totfact> 0.29263514E+01</totfact>
</mgrwt>
</event>
<event>
12    1  0.1489025E-007  0.1301149E+04  0.7818608E-02  0.9028654E-01
          2   -1    0    0  501    0  0.00000000000E+00  0.00000000000E+00  0.15138153552E+04  0.15138153552E+04  0.00000000000E+00 0.  1.
         -2   -1    0    0    0  501 -0.00000000000E+00 -0.00000000000E+00 -0.27958980573E+03  0.27958980573E+03  0.00000000000E+00 0. -1.
         23    2    1    2    0    0  0.31288827287E+03  0.10838513677E+03  0.42318306514E+03  0.54531917700E+03  0.92966063754E+02 0.  0.
        254    2    1    2    0    0 -0.31288827287E+03 -0.10838513677E+03  0.81104248433E+03  0.12480859839E+04  0.88897823525E+03 0.  0.
        -24    2    4    4    0    0 -0.40117056078E+03  0.25627312309E+03  0.69706423050E+03  0.84794717141E+03  0.80635795992E+02 0.  0.
         24    2    4    4    0    0  0.88282287918E+02 -0.36465825986E+03  0.11397825383E+03  0.40013881253E+03  0.79690765471E+02 0.  0.
         11    1    3    3    0    0  0.24780228923E+03  0.64250401341E+02  0.37170363706E+03  0.45132879636E+03  0.00000000000E+00 0.  1.
        -11    1    3    3    0    0  0.65085983633E+02  0.44134735426E+02  0.51479428082E+02  0.93990380636E+02  0.00000000000E+00 0. -1.
          2    1    6    6  502    0  0.73296901525E+02 -0.28256955126E+03  0.52771581474E+02  0.29665270416E+03  0.00000000000E+00 0. -1.
          1    1    5    5  503    0 -0.39414930690E+03  0.25939426150E+03  0.69491629803E+03  0.83996888056E+03  0.00000000000E+00 0. -1.
         -2    1    5    5    0  503 -0.70212538805E+01 -0.31211384062E+01  0.21479324656E+01  0.79782908497E+01  0.00000000000E+00 0.  1.
         -1    1    6    6    0  502  0.14985386393E+02 -0.82088708600E+02  0.61206672355E+02  0.10348610837E+03  0.00000000000E+00 0.  1.
<mgrwt>
<rscale>  0 0.13011492E+04</rscale>
<asrwt>0</asrwt>
<pdfrwt beam="1">  1        2 0.23289466E+00 0.13011492E+04</pdfrwt>
<pdfrwt beam="2">  1       -2 0.43013817E-01 0.13011492E+04</pdfrwt>
<totfact> 0.62595443E+01</totfact>
</mgrwt>
</event>
<event>
12    1  0.1489025E-007  0.1531540E+04  0.7818608E-02  0.8863746E-01
          1   -1    0    0  501    0  0.00000000000E+00  0.00000000000E+00  0.15949620865E+04  0.15949620865E+04  0.00000000000E+00 0. -1.
         -1   -1    0    0    0  501 -0.00000000000E+00 -0.00000000000E+00 -0.36766013961E+03  0.36766013961E+03  0.00000000000E+00 0.  1.
         23    2    1    2    0    0  0.18075081685E+03 -0.27792252747E+03  0.82093889437E+03  0.89001942381E+03  0.91006139383E+02 0.  0.
        254    2    1    2    0    0 -0.18075081685E+03  0.27792252747E+03  0.40636305251E+03  0.10726028023E+04  0.93564632846E+03 0.  0.
        -24    2    4    4    0    0  0.23711217050E+03 -0.21096453617E+03  0.23260636849E+03  0.40175431741E+03  0.81071523824E+02 0.  0.
         24    2    4    4    0    0 -0.41786298735E+03  0.48888706364E+03  0.17375668402E+03  0.67084848487E+03  0.78906699461E+02 0.  0.
         11    1    3    3    0    0  0.15712837385E+02 -0.41192812526E+02  0.20695128964E+03  0.21159531504E+03  0.00000000000E+00 0.  1.
        -11    1    3    3    0    0  0.16503797946E+03 -0.23672971494E+03  0.61398760473E+03  0.67842410878E+03  0.00000000000E+00 0. -1.
          4    1    6    6  502    0 -0.18500832499E+03  0.16641658141E+03  0.88083543070E+02  0.26397209975E+03  0.00000000000E+00 0. -1.
          3    1    5    5  503    0  0.12795430408E+03 -0.15652963494E+03  0.17253919837E+03  0.26578864822E+03  0.00000000000E+00 0. -1.
         -4    1    5    5    0  503  0.10915786642E+03 -0.54434901237E+02  0.60067170115E+02  0.13596566919E+03  0.00000000000E+00 0.  1.
         -3    1    6    6    0  502 -0.23285466235E+03  0.32247048223E+03  0.85673140951E+02  0.40687638512E+03  0.00000000000E+00 0.  1.
<mgrwt>
<rscale>  0 0.15315404E+04</rscale>
<asrwt>0</asrwt>
<pdfrwt beam="1">  1        1 0.24537878E+00 0.15315404E+04</pdfrwt>
<pdfrwt beam="2">  1       -1 0.56563099E-01 0.15315404E+04</pdfrwt>
<totfact> 0.17168439E+01</totfact>
</mgrwt>
</event>
<event>
12    1  0.1489025E-007  0.2849408E+04  0.7818608E-02  0.8288091E-01
          2   -1    0    0  501    0  0.00000000000E+00  0.00000000000E+00  0.27924709737E+04  0.27924709737E+04  0.00000000000E+00 0. -1.
         -2   -1    0    0    0  501 -0.00000000000E+00 -0.00000000000E+00 -0.72687646361E+03  0.72687646361E+03  0.00000000000E+00 0.  1.
         23    2    1    2    0    0 -0.69226033130E+03 -0.56360018958E+03  0.20810235564E+04  0.22662537382E+04  0.91528268455E+02 0.  0.
        254    2    1    2    0    0  0.69226033130E+03  0.56360018958E+03 -0.15429046235E+02  0.12530936991E+04  0.87928165187E+03 0.  0.
        -24    2    4    4    0    0  0.77054340640E+03  0.39880685794E+03 -0.28597770534E+03  0.91724299396E+03  0.82264274906E+02 0.  0.
         24    2    4    4    0    0 -0.78283075101E+02  0.16479333164E+03  0.27054865910E+03  0.33585070516E+03  0.79460916267E+02 0.  0.
         13    1    3    3    0    0 -0.58247846751E+03 -0.43500054384E+03  0.16390006246E+04  0.17929946140E+04  0.00000000000E+00 0. -1.
        -13    1    3    3    0    0 -0.10978186379E+03 -0.12859964575E+03  0.44202293175E+03  0.47325912426E+03  0.00000000000E+00 0.  1.
          2    1    6    6  502    0 -0.74262059940E+02  0.17361426243E+03  0.25173134340E+03  0.31468307059E+03  0.00000000000E+00 0. -1.
          3    1    5    5  503    0  0.69662564695E+03  0.33141522714E+03 -0.24992166284E+03  0.81091564439E+03  0.00000000000E+00 0. -1.
         -4    1    5    5    0  503  0.73917759453E+02  0.67391630804E+02 -0.36056042502E+02  0.10632734957E+03  0.00000000000E+00 0.  1.
         -1    1    6    6    0  502 -0.40210151604E+01 -0.88209307934E+01  0.18817315701E+02  0.21167634568E+02  0.00000000000E+00 0.  1.
<mgrwt>
<rscale>  0 0.28494080E+04</rscale>
<asrwt>0</asrwt>
<pdfrwt beam="1">  1        2 0.42961091E+00 0.28494080E+04</pdfrwt>
<pdfrwt beam="2">  1       -2 0.11182715E+00 0.28494080E+04</pdfrwt>
<totfact> 0.12779104E+00</totfact>
</mgrwt>
</event>
<event>
12    1  0.1489025E-007  0.1393057E+04  0.7818608E-02  0.8958860E-01
          1   -1    0    0  501    0  0.00000000000E+00  0.00000000000E+00  0.14107327085E+04  0.14107327085E+04  0.00000000000E+00 0. -1.
         -1   -1    0    0    0  501 -0.00000000000E+00 -0.00000000000E+00 -0.34390059180E+03  0.34390059180E+03  0.00000000000E+00 0.  1.
         23    2    1    2    0    0 -0.30533949396E+03 -0.24146385420E+03  0.16311314260E+03  0.43185155157E+03  0.91394014274E+02 0.  0.
        254    2    1    2    0    0  0.30533949396E+03  0.24146385420E+03  0.90371897412E+03  0.13227817488E+04  0.88402860316E+03 0.  0.
        -24    2    4    4    0    0  0.18618688358E+03 -0.28701528811E+03  0.60114023553E+03  0.69630147742E+03  0.80142582075E+02 0.  0.
         24    2    4    4    0    0  0.11915261037E+03  0.52847914231E+03  0.30257873859E+03  0.62648027133E+03  0.86232760073E+02 0.  0.
         11    1    3    3    0    0 -0.65266901571E+01  0.80629821850E+01  0.21760381859E+01  0.10599269235E+02  0.00000000000E+00 0. -1.
        -11    1    3    3    0    0 -0.29881280380E+03 -0.24952683639E+03  0.16093710442E+03  0.42125228233E+03  0.00000000000E+00 0.  1.
          2    1    6    6  502    0  0.11467815368E+03  0.48388348527E+03  0.30170337740E+03  0.58165215910E+03  0.00000000000E+00 0. -1.
          1    1    5    5  503    0  0.17040844269E+03 -0.21112313076E+03  0.50005029620E+03  0.56891327319E+03  0.00000000000E+00 0. -1.
         -2    1    5    5    0  503  0.15778440888E+02 -0.75892157345E+02  0.10108993933E+03  0.12738820423E+03  0.00000000000E+00 0.  1.
         -1    1    6    6    0  502  0.44744566935E+01  0.44595657038E+02  0.87536118901E+00  0.44828112235E+02  0.00000000000E+00 0.  1.
<mgrwt>
<rscale>  0 0.13930568E+04</rscale>
<asrwt>0</asrwt>
<pdfrwt beam="1">  1        1 0.21703580E+00 0.13930568E+04</pdfrwt>
<pdfrwt beam="2">  1       -1 0.52907784E-01 0.13930568E+04</pdfrwt>
<totfact> 0.26527307E+01</totfact>
</mgrwt>
</event>
<event>
12    1  0.1489025E-007  0.1763039E+04  0.7818608E-02  0.8726206E-01
          2   -1    0    0  501    0  0.00000000000E+00  0.00000000000E+00  0.41982975955E+04  0.41982975955E+04  0.00000000000E+00 0. -1.
         -2   -1    0    0    0  501 -0.00000000000E+00 -0.00000000000E+00 -0.18509322191E+03  0.18509322191E+03  0.00000000000E+00 0.  1.
         23    2    1    2    0    0  0.61743009327E+03 -0.15458460156E+03  0.11509285675E+04  0.13183947318E+04  0.91715769001E+02 0.  0.
        254    2    1    2    0    0 -0.61743009327E+03  0.15458460156E+03  0.28622758061E+04  0.30649960856E+04  0.89244713876E+03 0.  0.
        -24    2    4    4    0    0 -0.28633124855E+03 -0.36443604932E+03  0.13736754892E+04  0.14519312684E+04  0.79503714901E+02 0.  0.
         24    2    4    4    0    0 -0.33109884472E+03  0.51902065089E+03  0.14886003170E+04  0.16130648172E+04  0.83894695353E+02 0.  0.
         13    1    3    3    0    0  0.68109832046E+02 -0.44972031548E+02  0.17602029532E+03  0.19402210494E+03  0.00000000000E+00 0.  1.
        -13    1    3    3    0    0  0.54932026122E+03 -0.10961257001E+03  0.97490827216E+03  0.11243726269E+04  0.00000000000E+00 0. -1.
          2    1    6    6  502    0 -0.20632654261E+03  0.28760952720E+03  0.94800322580E+03  0.10119288505E+04  0.00000000000E+00 0. -1.
          1    1    5    5  503    0 -0.66539583550E+02 -0.65941810582E+02  0.19488457372E+03  0.21623097751E+03  0.00000000000E+00 0. -1.
         -4    1    5    5    0  503 -0.21979166500E+03 -0.29849423874E+03  0.11787909155E+04  0.12357002909E+04  0.00000000000E+00 0.  1.
         -1    1    6    6    0  502 -0.12477230211E+03  0.23141112369E+03  0.54059709116E+03  0.60113596674E+03  0.00000000000E+00 0.  1.
<mgrwt>
<rscale>  0 0.17630388E+04</rscale>
<asrwt>0</asrwt>
<pdfrwt beam="1">  1        2 0.64589186E+00 0.17630388E+04</pdfrwt>
<pdfrwt beam="2">  1       -2 0.28475884E-01 0.17630388E+04</pdfrwt>
<totfact> 0.25433605E+00</totfact>
</mgrwt>
</event>
<event>
12    1  0.1489025E-007  0.1267385E+04  0.7818608E-02  0.9055836E-01
          2   -1    0    0  501    0  0.00000000000E+00  0.00000000000E+00  0.26684906360E+04  0.26684906360E+04  0.00000000000E+00 0. -1.
         -2   -1    0    0    0  501 -0.00000000000E+00 -0.00000000000E+00 -0.15048446525E+03  0.15048446525E+03  0.00000000000E+00 0.  1.
         23    2    1    2    0    0  0.85765554775E+02  0.26964906674E+03  0.76853905123E+03  0.82605453848E+03  0.10792348077E+03 0.  0.
        254    2    1    2    0    0 -0.85765554775E+02 -0.26964906674E+03  0.17494671195E+04  0.19929205628E+04  0.91160891705E+03 0.  0.
        -24    2    4    4    0    0  0.26414231043E+03 -0.45712237354E+03  0.11720847394E+04  0.12879835068E+04  0.79917787432E+02 0.  0.
         24    2    4    4    0    0 -0.34990786521E+03  0.18747330680E+03  0.57738238006E+03  0.70493705597E+03  0.77356869033E+02 0.  0.
         13    1    3    3    0    0  0.41242424375E+02  0.15549824791E+02  0.13476460225E+03  0.14178939536E+03  0.00000000000E+00 0.  1.
        -13    1    3    3    0    0  0.44523130400E+02  0.25409924195E+03  0.63377444899E+03  0.68426514312E+03  0.00000000000E+00 0. -1.
          4    1    6    6  502    0 -0.30933347079E+03  0.18902722906E+03  0.50056230393E+03  0.61804620345E+03  0.00000000000E+00 0. -1.
          3    1    5    5  503    0  0.24195381386E+03 -0.35615213591E+03  0.94060810734E+03  0.10344706876E+04  0.00000000000E+00 0. -1.
         -4    1    5    5    0  503  0.22188496568E+02 -0.10097023762E+03  0.23147663211E+03  0.25351281916E+03  0.00000000000E+00 0.  1.
         -1    1    6    6    0  502 -0.40574394419E+02 -0.15539222618E+01  0.76820076127E+02  0.86890852528E+02  0.00000000000E+00 0.  1.
<mgrwt>
<rscale>  0 0.12673853E+04</rscale>
<asrwt>0</asrwt>
<pdfrwt beam="1">  1        2 0.41053699E+00 0.12673853E+04</pdfrwt>
<pdfrwt beam="2">  1       -2 0.23151458E-01 0.12673853E+04</pdfrwt>
<totfact> 0.45216086E+01</totfact>
</mgrwt>
</event>
<event>
12    1  0.1489025E-007  0.1091321E+04  0.7818608E-02  0.9213692E-01
         -2   -1    0    0    0  501 -0.00000000000E+00  0.00000000000E+00  0.39154659233E+03  0.39154659233E+03  0.00000000000E+00 0.  1.
          2   -1    0    0  501    0  0.00000000000E+00 -0.00000000000E+00 -0.76043425468E+03  0.76043425468E+03  0.00000000000E+00 0. -1.
         23    2    1    2    0    0  0.45246799028E+02 -0.83412866250E+02 -0.22700752196E+03  0.26460368771E+03  0.97353569259E+02 0.  0.
        254    2    1    2    0    0 -0.45246799028E+02  0.83412866250E+02 -0.14188014040E+03  0.88737715930E+03  0.87080610329E+03 0.  0.
        -24    2    4    4    0    0  0.20989718640E+03  0.46658429898E+02  0.29485862809E+03  0.37382078527E+03  0.81034134806E+02 0.  0.
         24    2    4    4    0    0 -0.25514398543E+03  0.36754436352E+02 -0.43673876849E+03  0.51355637402E+03  0.80932413188E+02 0.  0.
         13    1    3    3    0    0 -0.38985355538E+01 -0.26991483794E+01  0.91144328452E+01  0.10274087187E+02  0.00000000000E+00 0.  1.
        -13    1    3    3    0    0  0.49145334582E+02 -0.80713717871E+02 -0.23612195480E+03  0.25432960052E+03  0.00000000000E+00 0. -1.
          2    1    6    6  502    0 -0.71316468616E+02 -0.24817656623E+02 -0.10516452559E+03  0.12946633624E+03  0.00000000000E+00 0. -1.
          1    1    5    5  503    0  0.15507536600E+01  0.19281386234E+02  0.19836076580E+02  0.27706436547E+02  0.00000000000E+00 0. -1.
         -2    1    5    5    0  503  0.20834643274E+03  0.27377043664E+02  0.27502255151E+03  0.34611434873E+03  0.00000000000E+00 0.  1.
         -1    1    6    6    0  502 -0.18382751681E+03  0.61572092975E+02 -0.33157424290E+03  0.38409003778E+03  0.00000000000E+00 0.  1.
<mgrwt>
<rscale>  0 0.10913211E+04</rscale>
<asrwt>0</asrwt>
<pdfrwt beam="1">  1        2 0.11698988E+00 0.10913211E+04</pdfrwt>
<pdfrwt beam="2">  1       -2 0.60237938E-01 0.10913211E+04</pdfrwt>
<totfact> 0.94003982E+01</totfact>
</mgrwt>
</event>
<event>
12    1  0.1489025E-007  0.1928436E+04  0.7818608E-02  0.8640830E-01
         -3   -1    0    0    0  501 -0.00000000000E+00  0.00000000000E+00  0.87397180158E+03  0.87397180158E+03  0.00000000000E+00 0.  1.
          3   -1    0    0  501    0  0.00000000000E+00 -0.00000000000E+00 -0.10637830239E+04  0.10637830239E+04  0.00000000000E+00 0. -1.
         23    2    1    2    0    0  0.32823420686E+03  0.22099941207E+03  0.56650095106E+03  0.69692029282E+03  0.90532493046E+02 0.  0.
        254    2    1    2    0    0 -0.32823420686E+03 -0.22099941207E+03 -0.75631217342E+03  0.12408345327E+04  0.90060190939E+03 0.  0.
        -24    2    4    4    0    0 -0.51326123678E+03  0.16678696177E+03 -0.44953075346E+03  0.70695805299E+03  0.80354231927E+02 0.  0.
         24    2    4    4    0    0  0.18502702992E+03 -0.38778637383E+03 -0.30678141996E+03  0.53387647971E+03  0.79347226968E+02 0.  0.
         11    1    3    3    0    0  0.17294570539E+03  0.81852860735E+02  0.21143108708E+03  0.28515471662E+03  0.00000000000E+00 0. -1.
        -11    1    3    3    0    0  0.15528850147E+03  0.13914655133E+03  0.35506986398E+03  0.41176557620E+03  0.00000000000E+00 0.  1.
          4    1    6    6  502    0 -0.22787409122E+01 -0.50640908145E+01  0.36876325788E+01  0.66660565524E+01  0.00000000000E+00 0. -1.
          1    1    5    5  503    0 -0.12753189828E+03  0.77140483513E+02 -0.13758064425E+03  0.20283853911E+03  0.00000000000E+00 0. -1.
         -2    1    5    5    0  503 -0.38572933850E+03  0.89646478253E+02 -0.31195010922E+03  0.50411951389E+03  0.00000000000E+00 0.  1.
         -3    1    6    6    0  502  0.18730577083E+03 -0.38272228302E+03 -0.31046905254E+03  0.52721042316E+03  0.00000000000E+00 0.  1.
<mgrwt>
<rscale>  0 0.19284360E+04</rscale>
<asrwt>0</asrwt>
<pdfrwt beam="1">  1        3 0.16365893E+00 0.19284360E+04</pdfrwt>
<pdfrwt beam="2">  1       -3 0.13445720E+00 0.19284360E+04</pdfrwt>
<totfact> 0.26805107E-01</totfact>
</mgrwt>
</event>
<event>
12    1  0.1489025E-007  0.1073045E+04  0.7818608E-02  0.9231869E-01
          1   -1    0    0  501    0  0.00000000000E+00  0.00000000000E+00  0.64456378203E+03  0.64456378203E+03  0.00000000000E+00 0. -1.
         -1   -1    0    0    0  501 -0.00000000000E+00 -0.00000000000E+00 -0.44659123768E+03  0.44659123768E+03  0.00000000000E+00 0.  1.
         23    2    1    2    0    0 -0.48136182937E-01  0.58288239924E+02  0.14282641024E+03  0.17803759312E+03  0.88884643617E+02 0.  0.
        254    2    1    2    0    0  0.48136182937E-01 -0.58288239924E+02  0.55146134109E+02  0.91311742660E+03  0.90958496987E+03 0.  0.
        -24    2    4    4    0    0  0.31148986108E+03 -0.33169549313E+03  0.13993128838E+03  0.48264879780E+03  0.79506369764E+02 0.  0.
         24    2    4    4    0    0 -0.31144172490E+03  0.27340725320E+03 -0.84785154275E+02  0.43046862880E+03  0.79795011653E+02 0.  0.
         13    1    3    3    0    0 -0.10379273123E+02  0.27084687173E+02 -0.24316420860E+01  0.29107086303E+02  0.00000000000E+00 0.  1.
        -13    1    3    3    0    0  0.10331136940E+02  0.31203552752E+02  0.14525805233E+03  0.14893050682E+03  0.00000000000E+00 0. -1.
          2    1    6    6  502    0 -0.28199753583E+03  0.22505016095E+03 -0.50572446329E+02  0.36431820911E+03  0.00000000000E+00 0. -1.
          3    1    5    5  503    0  0.26298740560E+03 -0.23521367607E+03  0.12109824221E+03  0.37303167853E+03  0.00000000000E+00 0. -1.
         -4    1    5    5    0  503  0.48502455474E+02 -0.96481817057E+02  0.18833046169E+02  0.10961711927E+03  0.00000000000E+00 0.  1.
         -1    1    6    6    0  502 -0.29444189068E+02  0.48357092247E+02 -0.34212707945E+02  0.66150419692E+02  0.00000000000E+00 0.  1.
<mgrwt>
<rscale>  0 0.10730453E+04</rscale>
<asrwt>0</asrwt>
<pdfrwt beam="1">  1        1 0.99163659E-01 0.10730453E+04</pdfrwt>
<pdfrwt beam="2">  1       -1 0.68706344E-01 0.10730453E+04</pdfrwt>
<totfact> 0.66015872E+01</totfact>
</mgrwt>
</event>
<event>
12    1  0.1489025E-007  0.1092527E+04  0.7818608E-02  0.9212507E-01
          2   -1    0    0  501    0  0.00000000000E+00  0.00000000000E+00  0.28637552621E+04  0.28637552621E+04  0.00000000000E+00 0. -1.
         -2   -1    0    0    0  501 -0.00000000000E+00 -0.00000000000E+00 -0.10420012169E+03  0.10420012169E+03  0.00000000000E+00 0.  1.
         23    2    1    2    0    0 -0.10608266191E+03 -0.23480047506E+02  0.74036690311E+03  0.75382278589E+03  0.91108712643E+02 0.  0.
        254    2    1    2    0    0  0.10608266191E+03  0.23480047506E+02  0.20191882373E+04  0.22141325979E+04  0.90191861032E+03 0.  0.
        -24    2    4    4    0    0  0.12603248600E+03  0.24824513822E+03  0.14165915599E+03  0.32144776220E+03  0.75838718171E+02 0.  0.
         24    2    4    4    0    0 -0.19949824093E+02 -0.22476509071E+03  0.18775290813E+04  0.18926848357E+04  0.78886593361E+02 0.  0.
         11    1    3    3    0    0 -0.38545218307E+02 -0.12191917403E+02  0.77334841306E+02  0.87264278970E+02  0.00000000000E+00 0.  1.
        -11    1    3    3    0    0 -0.67537443605E+02 -0.11288130103E+02  0.66303206181E+03  0.66655850692E+03  0.00000000000E+00 0. -1.
          4    1    6    6  502    0  0.17156723574E+02 -0.14556305608E+03  0.13527148795E+04  0.13606323904E+04  0.00000000000E+00 0. -1.
          1    1    5    5  503    0  0.99450186743E+02  0.20614250913E+03  0.80588052444E+02  0.24265100023E+03  0.00000000000E+00 0. -1.
         -2    1    5    5    0  503  0.26582299262E+02  0.42102629083E+02  0.61071103543E+02  0.78796761974E+02  0.00000000000E+00 0.  1.
         -3    1    6    6    0  502 -0.37106547667E+02 -0.79202034632E+02  0.52481420181E+03  0.53205244534E+03  0.00000000000E+00 0.  1.
<mgrwt>
<rscale>  0 0.10925267E+04</rscale>
<asrwt>0</asrwt>
<pdfrwt beam="1">  1        2 0.44057767E+00 0.10925267E+04</pdfrwt>
<pdfrwt beam="2">  1       -2 0.16030790E-01 0.10925267E+04</pdfrwt>
<totfact> 0.66941147E+01</totfact>
</mgrwt>
</event>
<event>
12    1  0.1489025E-007  0.1942934E+04  0.7818608E-02  0.8633776E-01
          2   -1    0    0  501    0  0.00000000000E+00  0.00000000000E+00  0.33808131778E+04  0.33808131778E+04  0.00000000000E+00 0.  1.
         -2   -1    0    0    0  501 -0.00000000000E+00 -0.00000000000E+00 -0.27914823472E+03  0.27914823472E+03  0.00000000000E+00 0. -1.
         23    2    1    2    0    0  0.87807061982E+02 -0.33541417802E+02 -0.19835467400E+03  0.23660018101E+03  0.88317394180E+02 0.  0.
        254    2    1    2    0    0 -0.87807061982E+02  0.33541417802E+02  0.33000196171E+04  0.34233612315E+04  0.90578007342E+03 0.  0.
        -24    2    4    4    0    0  0.13566890089E+03  0.47650494547E+02  0.31214674621E+04  0.31257660504E+04  0.78598122508E+02 0.  0.
         24    2    4    4    0    0 -0.22347596287E+03 -0.14109076745E+02  0.17855215503E+03  0.29759518111E+03  0.80879216880E+02 0.  0.
         11    1    3    3    0    0  0.99966255007E+02 -0.20749439125E+02 -0.19268573534E+03  0.21806325681E+03  0.00000000000E+00 0. -1.
        -11    1    3    3    0    0 -0.12159193025E+02 -0.12791978677E+02 -0.56689386560E+01  0.18536924204E+02  0.00000000000E+00 0.  1.
          4    1    6    6  502    0 -0.13654553792E+03  0.14756290909E+02  0.65694082754E+02  0.15224370120E+03  0.00000000000E+00 0. -1.
          3    1    5    5  503    0  0.11111735481E+03  0.77592231037E+01  0.25280667452E+04  0.25305194605E+04  0.00000000000E+00 0. -1.
         -4    1    5    5    0  503  0.24551546083E+02  0.39891271444E+02  0.59340071690E+03  0.59524658989E+03  0.00000000000E+00 0.  1.
         -3    1    6    6    0  502 -0.86930424956E+02 -0.28865367655E+02  0.11285807227E+03  0.14535147990E+03  0.00000000000E+00 0.  1.
<mgrwt>
<rscale>  0 0.19429339E+04</rscale>
<asrwt>0</asrwt>
<pdfrwt beam="1">  1        2 0.52012508E+00 0.19429339E+04</pdfrwt>
<pdfrwt beam="2">  1       -2 0.42945885E-01 0.19429339E+04</pdfrwt>
<totfact> 0.47393832E+00</totfact>
</mgrwt>
</event>
<event>
12    1  0.1489025E-007  0.1305490E+04  0.7818608E-02  0.9025223E-01
          2   -1    0    0  501    0  0.00000000000E+00  0.00000000000E+00  0.20226302388E+04  0.20226302388E+04  0.00000000000E+00 0. -1.
         -2   -1    0    0    0  501 -0.00000000000E+00 -0.00000000000E+00 -0.21065453077E+03  0.21065453077E+03  0.00000000000E+00 0.  1.
         23    2    1    2    0    0  0.18758812799E+03 -0.27281016787E+03  0.38075210536E+03  0.51223959038E+03  0.88331980418E+02 0.  0.
        254    2    1    2    0    0 -0.18758812799E+03  0.27281016787E+03  0.14312236026E+04  0.17210451791E+04  0.89664977246E+03 0.  0.
        -24    2    4    4    0    0 -0.50923761444E+03  0.33723498113E+03  0.88433388086E+03  0.10779511339E+04  0.82956939576E+02 0.  0.
         24    2    4    4    0    0  0.32164948645E+03 -0.64424813258E+02  0.54688972178E+03  0.64309404522E+03  0.82901354121E+02 0.  0.
         13    1    3    3    0    0  0.36515505413E+02 -0.61191672703E+02  0.34333744091E+02  0.79098728985E+02  0.00000000000E+00 0.  1.
        -13    1    3    3    0    0  0.15107262258E+03 -0.21161849517E+03  0.34641836127E+03  0.43314086140E+03  0.00000000000E+00 0. -1.
          2    1    6    6  502    0  0.49671050784E+02 -0.40891345825E+02  0.85691597392E+02  0.10715579925E+03  0.00000000000E+00 0. -1.
          1    1    5    5  503    0 -0.15253267760E+03  0.14781588296E+03  0.31420241131E+03  0.37926100283E+03  0.00000000000E+00 0. -1.
         -2    1    5    5    0  503 -0.35670493684E+03  0.18941909817E+03  0.57013146955E+03  0.69869013109E+03  0.00000000000E+00 0.  1.
         -1    1    6    6    0  502  0.27197843567E+03 -0.23533467433E+02  0.46119812439E+03  0.53593824597E+03  0.00000000000E+00 0.  1.
<mgrwt>
<rscale>  0 0.13054903E+04</rscale>
<asrwt>0</asrwt>
<pdfrwt beam="1">  1        2 0.31117387E+00 0.13054903E+04</pdfrwt>
<pdfrwt beam="2">  1       -2 0.32408391E-01 0.13054903E+04</pdfrwt>
<totfact> 0.56454148E+01</totfact>
</mgrwt>
</event>
<event>
12    1  0.1489025E-007  0.3374643E+04  0.7818608E-02  0.8144158E-01
          2   -1    0    0  501    0  0.00000000000E+00  0.00000000000E+00  0.18539985853E+04  0.18539985853E+04  0.00000000000E+00 0. -1.
         -2   -1    0    0    0  501 -0.00000000000E+00 -0.00000000000E+00 -0.15356287057E+04  0.15356287057E+04  0.00000000000E+00 0.  1.
         23    2    1    2    0    0 -0.87382028512E+02  0.12747734722E+04  0.10590428952E+04  0.16624311959E+04  0.97070091713E+02 0.  0.
        254    2    1    2    0    0  0.87382028512E+02 -0.12747734722E+04 -0.74067301561E+03  0.17271960952E+04  0.89550366328E+03 0.  0.
        -24    2    4    4    0    0 -0.23246737576E+03 -0.27017254477E+02 -0.23465219856E+03  0.34112861698E+03  0.80845941162E+02 0.  0.
         24    2    4    4    0    0  0.31984940427E+03 -0.12477562177E+04 -0.50602081705E+03  0.13860674782E+04  0.76985496455E+02 0.  0.
         13    1    3    3    0    0 -0.47376538082E+02  0.23600990530E+03  0.17167960770E+03  0.29566721067E+03  0.00000000000E+00 0.  1.
        -13    1    3    3    0    0 -0.40005490430E+02  0.10387635669E+04  0.88736328755E+03  0.13667639852E+04  0.00000000000E+00 0. -1.
          2    1    6    6  502    0  0.13506345816E+03 -0.39243461174E+03 -0.14849999430E+03  0.44079395473E+03  0.00000000000E+00 0. -1.
          1    1    5    5  503    0 -0.85120891551E+02 -0.13451296741E+01 -0.14085899230E+03  0.16458624263E+03  0.00000000000E+00 0. -1.
         -4    1    5    5    0  503 -0.14734648421E+03 -0.25672124802E+02 -0.93793206265E+02  0.17654237435E+03  0.00000000000E+00 0.  1.
         -3    1    6    6    0  502  0.18478594611E+03 -0.85532160596E+03 -0.35752082275E+03  0.94527352348E+03  0.00000000000E+00 0.  1.
<mgrwt>
<rscale>  0 0.33746428E+04</rscale>
<asrwt>0</asrwt>
<pdfrwt beam="1">  1        2 0.28523055E+00 0.33746428E+04</pdfrwt>
<pdfrwt beam="2">  1       -2 0.23625057E+00 0.33746428E+04</pdfrwt>
<totfact> 0.52252813E-01</totfact>
</mgrwt>
</event>
<event>
12    1  0.1489025E-007  0.2134501E+04  0.7818608E-02  0.8546196E-01
          1   -1    0    0  501    0  0.00000000000E+00  0.00000000000E+00  0.24954522753E+04  0.24954522753E+04  0.00000000000E+00 0. -1.
         -1   -1    0    0    0  501 -0.00000000000E+00 -0.00000000000E+00 -0.45643958212E+03  0.45643958212E+03  0.00000000000E+00 0.  1.
         23    2    1    2    0    0 -0.33126060944E+03  0.45577993648E+03  0.17685383855E+04  0.18583719761E+04  0.91375261562E+02 0.  0.
        254    2    1    2    0    0  0.33126060944E+03 -0.45577993648E+03  0.27047430768E+03  0.10935198814E+04  0.89730732641E+03 0.  0.
        -24    2    4    4    0    0  0.23784064837E+03 -0.64373661833E+03  0.43412094843E+03  0.81553047231E+03  0.75259189584E+02 0.  0.
         24    2    4    4    0    0  0.93419961066E+02  0.18795668185E+03 -0.16364664075E+03  0.27798940908E+03  0.80267584717E+02 0.  0.
         13    1    3    3    0    0 -0.47726815442E+02  0.23677482621E+02  0.19402726722E+03  0.20120897724E+03  0.00000000000E+00 0.  1.
        -13    1    3    3    0    0 -0.28353379400E+03  0.43210245386E+03  0.15745111183E+04  0.16571629988E+04  0.00000000000E+00 0. -1.
          2    1    6    6  502    0  0.14817037676E+01  0.81801649927E+02 -0.80549667217E+02  0.11481269209E+03  0.00000000000E+00 0. -1.
          1    1    5    5  503    0  0.23458294500E+03 -0.57458707268E+03  0.39989238178E+03  0.73830439467E+03  0.00000000000E+00 0. -1.
         -2    1    5    5    0  503  0.32577033722E+01 -0.69149545646E+02  0.34228566649E+02  0.77226077649E+02  0.00000000000E+00 0.  1.
         -1    1    6    6    0  502  0.91938257298E+02  0.10615503192E+03 -0.83096973535E+02  0.16317671699E+03  0.00000000000E+00 0.  1.
<mgrwt>
<rscale>  0 0.21345006E+04</rscale>
<asrwt>0</asrwt>
<pdfrwt beam="1">  1        1 0.38391572E+00 0.21345006E+04</pdfrwt>
<pdfrwt beam="2">  1       -1 0.70221476E-01 0.21345006E+04</pdfrwt>
<totfact> 0.25653336E+00</totfact>
</mgrwt>
</event>
<event>
12    1  0.1489025E-007  0.1914414E+04  0.7818608E-02  0.8647715E-01
          1   -1    0    0  501    0  0.00000000000E+00  0.00000000000E+00  0.26305090565E+04  0.26305090565E+04  0.00000000000E+00 0.  1.
         -1   -1    0    0    0  501 -0.00000000000E+00 -0.00000000000E+00 -0.34831487219E+03  0.34831487219E+03  0.00000000000E+00 0. -1.
         23    2    1    2    0    0 -0.59592489365E+03 -0.11872440139E+03  0.16830160607E+04  0.17916940630E+04  0.91665655293E+02 0.  0.
        254    2    1    2    0    0  0.59592489365E+03  0.11872440139E+03  0.59917812362E+03  0.11871298657E+04  0.82525204146E+03 0.  0.
        -24    2    4    4    0    0  0.18477294408E+03  0.41708757798E+03  0.10731071931E+03  0.47538959278E+03  0.79853527614E+02 0.  0.
         24    2    4    4    0    0  0.41115194956E+03 -0.29836317658E+03  0.49186740431E+03  0.71174027296E+03  0.81081205925E+02 0.  0.
         11    1    3    3    0    0 -0.37446025214E+03 -0.37898116959E+02  0.11100912675E+04  0.11721601298E+04  0.00000000000E+00 0.  1.
        -11    1    3    3    0    0 -0.22146464151E+03 -0.80826284433E+02  0.57292479317E+03  0.61953393315E+03  0.00000000000E+00 0. -1.
          2    1    6    6  502    0  0.76473727324E+02 -0.88322923757E+02  0.14284794375E+03  0.18453916892E+03  0.00000000000E+00 0. -1.
          1    1    5    5  503    0  0.15887852405E+03  0.32824855088E+03  0.54164483705E+02  0.36867775612E+03  0.00000000000E+00 0. -1.
         -2    1    5    5    0  503  0.25894420036E+02  0.88839027096E+02  0.53146235607E+02  0.10671183666E+03  0.00000000000E+00 0.  1.
         -1    1    6    6    0  502  0.33467822224E+03 -0.21004025283E+03  0.34901946057E+03  0.52720110404E+03  0.00000000000E+00 0.  1.
<mgrwt>
<rscale>  0 0.19144142E+04</rscale>
<asrwt>0</asrwt>
<pdfrwt beam="1">  1        1 0.40469369E+00 0.19144142E+04</pdfrwt>
<pdfrwt beam="2">  1       -1 0.53586905E-01 0.19144142E+04</pdfrwt>
<totfact> 0.36106286E+00</totfact>
</mgrwt>
</event>
<event>
12    1  0.1489025E-007  0.2746259E+04  0.7818608E-02  0.8320150E-01
          1   -1    0    0  501    0  0.00000000000E+00  0.00000000000E+00  0.28854124075E+04  0.28854124075E+04  0.00000000000E+00 0. -1.
         -1   -1    0    0    0  501 -0.00000000000E+00 -0.00000000000E+00 -0.65345435500E+03  0.65345435500E+03  0.00000000000E+00 0.  1.
         23    2    1    2    0    0  0.93977013240E+03 -0.26911172152E+02  0.20189274774E+04  0.22289653872E+04  0.91249249661E+02 0.  0.
        254    2    1    2    0    0 -0.93977013240E+03  0.26911172152E+02  0.21303057509E+03  0.13099013753E+04  0.88688639297E+03 0.  0.
        -24    2    4    4    0    0 -0.34532912260E+03 -0.10733589762E+02 -0.34159966536E+03  0.49195487091E+03  0.77213022066E+02 0.  0.
         24    2    4    4    0    0 -0.59444100979E+03  0.37644761914E+02  0.55463024044E+03  0.81794650434E+03  0.81514036335E+02 0.  0.
         13    1    3    3    0    0  0.68660999649E+03  0.16436062355E+02  0.15123522835E+04  0.16609975500E+04  0.00000000000E+00 0. -1.
        -13    1    3    3    0    0  0.25316013591E+03 -0.43347234507E+02  0.50657519384E+03  0.56796783727E+03  0.00000000000E+00 0.  1.
          4    1    6    6  502    0 -0.57604819405E+03  0.50309845448E+02  0.52646669014E+03  0.78200369452E+03  0.00000000000E+00 0. -1.
          3    1    5    5  503    0 -0.25322840349E+03 -0.40854371206E+02 -0.23473239739E+03  0.34769671031E+03  0.00000000000E+00 0. -1.
         -4    1    5    5    0  503 -0.92100719114E+02  0.30120781444E+02 -0.10686726797E+03  0.14425816060E+03  0.00000000000E+00 0.  1.
         -3    1    6    6    0  502 -0.18392815747E+02 -0.12665083534E+02  0.28163550301E+02  0.35942809818E+02  0.00000000000E+00 0.  1.
<mgrwt>
<rscale>  0 0.27462595E+04</rscale>
<asrwt>0</asrwt>
<pdfrwt beam="1">  1        1 0.44390959E+00 0.27462595E+04</pdfrwt>
<pdfrwt beam="2">  1       -1 0.10053144E+00 0.27462595E+04</pdfrwt>
<totfact> 0.59241223E-01</totfact>
</mgrwt>
</event>
<event>
12    1  0.1489025E-007  0.2185686E+04  0.7818608E-02  0.8524410E-01
          2   -1    0    0  501    0  0.00000000000E+00  0.00000000000E+00  0.99628091269E+03  0.99628091269E+03  0.00000000000E+00 0. -1.
         -2   -1    0    0    0  501 -0.00000000000E+00 -0.00000000000E+00 -0.11987640798E+04  0.11987640798E+04  0.00000000000E+00 0.  1.
         23    2    1    2    0    0 -0.56705640980E+03 -0.27986369133E+03 -0.73683755609E+03  0.97528417336E+03  0.91503973300E+02 0.  0.
        254    2    1    2    0    0  0.56705640980E+03  0.27986369133E+03  0.53435438897E+03  0.12197608191E+04  0.89577072136E+03 0.  0.
        -24    2    4    4    0    0  0.23267691437E+03 -0.10131269700E+03 -0.19289193940E+03  0.32968222471E+03  0.84144280559E+02 0.  0.
         24    2    4    4    0    0  0.33437949543E+03  0.38117638833E+03  0.72724632837E+03  0.89007859442E+03  0.79041736652E+02 0.  0.
         11    1    3    3    0    0 -0.13112883562E+03 -0.74918814584E+02 -0.12151615586E+03  0.19383956367E+03  0.00000000000E+00 0.  1.
        -11    1    3    3    0    0 -0.43592757418E+03 -0.20494487675E+03 -0.61532140023E+03  0.78144460969E+03  0.00000000000E+00 0. -1.
          2    1    6    6  502    0  0.14243562842E+03  0.13456395248E+03  0.22311286383E+03  0.29694227648E+03  0.00000000000E+00 0. -1.
          1    1    5    5  503    0  0.32127984788E+02 -0.49261457963E+02 -0.29393262634E+02  0.65748479339E+02  0.00000000000E+00 0. -1.
         -2    1    5    5    0  503  0.20054892958E+03 -0.52051239037E+02 -0.16349867676E+03  0.26393374537E+03  0.00000000000E+00 0.  1.
         -3    1    6    6    0  502  0.19194386701E+03  0.24661243585E+03  0.50413346453E+03  0.59313631794E+03  0.00000000000E+00 0.  1.
<mgrwt>
<rscale>  0 0.21856860E+04</rscale>
<asrwt>0</asrwt>
<pdfrwt beam="1">  1        2 0.15327399E+00 0.21856860E+04</pdfrwt>
<pdfrwt beam="2">  1       -2 0.18442524E+00 0.21856860E+04</pdfrwt>
<totfact> 0.39178279E+00</totfact>
</mgrwt>
</event>
<event>
12    1  0.1489025E-007  0.1868944E+04  0.7818608E-02  0.8670471E-01
          2   -1    0    0  501    0  0.00000000000E+00  0.00000000000E+00  0.37130082724E+04  0.37130082724E+04  0.00000000000E+00 0. -1.
         -2   -1    0    0    0  501 -0.00000000000E+00 -0.00000000000E+00 -0.23518345499E+03  0.23518345499E+03  0.00000000000E+00 0.  1.
         23    2    1    2    0    0  0.31211816004E+03 -0.63941451846E+03  0.15836359421E+04  0.17386055140E+04  0.92615679641E+02 0.  0.
        254    2    1    2    0    0 -0.31211816004E+03  0.63941451846E+03  0.18941888753E+04  0.22095862134E+04  0.88772240404E+03 0.  0.
        -24    2    4    4    0    0 -0.35327278664E+03 -0.32692417886E+02  0.28251082214E+03  0.46098586308E+03  0.82614438028E+02 0.  0.
         24    2    4    4    0    0  0.41154626597E+02  0.67210693635E+03  0.16116780532E+04  0.17486003503E+04  0.81704349281E+02 0.  0.
         13    1    3    3    0    0  0.16198400796E+03 -0.23235002443E+03  0.59665864208E+03  0.66047474429E+03  0.00000000000E+00 0.  1.
        -13    1    3    3    0    0  0.15013415208E+03 -0.40706449404E+03  0.98697729999E+03  0.10781307697E+04  0.00000000000E+00 0. -1.
          2    1    6    6  502    0 -0.53059536987E+01  0.94237344641E+02  0.30052371044E+03  0.31499735047E+03  0.00000000000E+00 0. -1.
          3    1    5    5  503    0 -0.15916424170E+03  0.21580919632E+02  0.10091610078E+03  0.18969199067E+03  0.00000000000E+00 0. -1.
         -4    1    5    5    0  503 -0.19410854494E+03 -0.54273337518E+02  0.18159472136E+03  0.27129387241E+03  0.00000000000E+00 0.  1.
         -1    1    6    6    0  502  0.46460580295E+02  0.57786959171E+03  0.13111543428E+04  0.14336029998E+04  0.00000000000E+00 0.  1.
<mgrwt>
<rscale>  0 0.18689442E+04</rscale>
<asrwt>0</asrwt>
<pdfrwt beam="1">  1        2 0.57123200E+00 0.18689442E+04</pdfrwt>
<pdfrwt beam="2">  1       -2 0.36182073E-01 0.18689442E+04</pdfrwt>
<totfact> 0.38891157E+00</totfact>
</mgrwt>
</event>
<event>
12    1  0.1489025E-007  0.1548471E+04  0.7818608E-02  0.8852845E-01
         -2   -1    0    0    0  501 -0.00000000000E+00  0.00000000000E+00  0.20194561464E+03  0.20194561464E+03  0.00000000000E+00 0.  1.
          2   -1    0    0  501    0  0.00000000000E+00 -0.00000000000E+00 -0.29683270387E+04  0.29683270387E+04  0.00000000000E+00 0. -1.
         23    2    1    2    0    0  0.38350134279E+02  0.18322100446E+03  0.44328962263E+02  0.21270276221E+03  0.90756481207E+02 0.  0.
        254    2    1    2    0    0 -0.38350134279E+02 -0.18322100446E+03 -0.28107103863E+04  0.29575698911E+04  0.90115820805E+03 0.  0.
        -24    2    4    4    0    0  0.27196024395E+03 -0.23266749851E+03 -0.24297718299E+04  0.24572379475E+04  0.78298441794E+02 0.  0.
         24    2    4    4    0    0 -0.31031037823E+03  0.49446494053E+02 -0.38093855638E+03  0.50033194362E+03  0.80500828941E+02 0.  0.
         11    1    3    3    0    0  0.65272719160E+02  0.15451035362E+03  0.27827256014E+02  0.17002450829E+03  0.00000000000E+00 0.  1.
        -11    1    3    3    0    0 -0.26922584881E+02  0.28710650840E+02  0.16501706248E+02  0.42678253917E+02  0.00000000000E+00 0. -1.
          4    1    6    6  502    0 -0.26337674081E+03  0.42680288855E+02 -0.26955171223E+03  0.37927172347E+03  0.00000000000E+00 0. -1.
          1    1    5    5  503    0  0.27009185689E+03 -0.23691988099E+03 -0.24185948814E+04  0.24451343197E+04  0.00000000000E+00 0. -1.
         -2    1    5    5    0  503  0.18683870615E+01  0.42523824823E+01 -0.11176948531E+02  0.12103627781E+02  0.00000000000E+00 0.  1.
         -3    1    6    6    0  502 -0.46933637425E+02  0.67662051977E+01 -0.11138684415E+03  0.12106022016E+03  0.00000000000E+00 0.  1.
<mgrwt>
<rscale>  0 0.15484710E+04</rscale>
<asrwt>0</asrwt>
<pdfrwt beam="1">  1        2 0.45666568E+00 0.15484710E+04</pdfrwt>
<pdfrwt beam="2">  1       -2 0.31068557E-01 0.15484710E+04</pdfrwt>
<totfact> 0.16955261E+01</totfact>
</mgrwt>
</event>
<event>
12    1  0.1489025E-007  0.1596213E+04  0.7818608E-02  0.8822878E-01
          1   -1    0    0  501    0  0.00000000000E+00  0.00000000000E+00  0.87689382148E+03  0.87689382148E+03  0.00000000000E+00 0. -1.
         -1   -1    0    0    0  501 -0.00000000000E+00 -0.00000000000E+00 -0.72639812037E+03  0.72639812037E+03  0.00000000000E+00 0.  1.
         23    2    1    2    0    0 -0.32926250157E+03  0.43271588694E+03  0.10604620338E+03  0.56156334151E+03  0.91927990984E+02 0.  0.
        254    2    1    2    0    0  0.32926250157E+03 -0.43271588694E+03  0.44449497739E+02  0.10417286003E+04  0.88744908878E+03 0.  0.
        -24    2    4    4    0    0  0.50646475431E+03 -0.59533144812E+03  0.48922988230E+01  0.78553792801E+03  0.78229286607E+02 0.  0.
         24    2    4    4    0    0 -0.17720225274E+03  0.16261556118E+03  0.39557198916E+02  0.25619067233E+03  0.78895053658E+02 0.  0.
         11    1    3    3    0    0 -0.29110040099E+03  0.40315892882E+03  0.11955482739E+03  0.51143906978E+03  0.00000000000E+00 0. -1.
        -11    1    3    3    0    0 -0.38162100580E+02  0.29556958118E+02 -0.13508624009E+02  0.50124271730E+02  0.00000000000E+00 0.  1.
          4    1    6    6  502    0 -0.94818567967E+02  0.58752518251E+02  0.51937909092E+02  0.12304456767E+03  0.00000000000E+00 0. -1.
          3    1    5    5  503    0  0.44198514868E+03 -0.47401534553E+03  0.66256019113E+01  0.64813989080E+03  0.00000000000E+00 0. -1.
         -4    1    5    5    0  503  0.64479605630E+02 -0.12131610259E+03 -0.17333030883E+01  0.13739803721E+03  0.00000000000E+00 0.  1.
         -3    1    6    6    0  502 -0.82383684771E+02  0.10386304293E+03 -0.12380710176E+02  0.13314610467E+03  0.00000000000E+00 0.  1.
<mgrwt>
<rscale>  0 0.15962130E+04</rscale>
<asrwt>0</asrwt>
<pdfrwt beam="1">  1        1 0.13490674E+00 0.15962130E+04</pdfrwt>
<pdfrwt beam="2">  1       -1 0.11175356E+00 0.15962130E+04</pdfrwt>
<totfact> 0.13419096E+01</totfact>
</mgrwt>
</event>
<event>
12    1  0.1489025E-007  0.1409278E+04  0.7818608E-02  0.8947130E-01
          2   -1    0    0  501    0  0.00000000000E+00  0.00000000000E+00  0.21757982916E+04  0.21757982916E+04  0.00000000000E+00 0. -1.
         -2   -1    0    0    0  501 -0.00000000000E+00 -0.00000000000E+00 -0.22819954251E+03  0.22819954251E+03  0.00000000000E+00 0.  1.
         23    2    1    2    0    0  0.10577224916E+03 -0.25199145533E+03  0.59602910571E+02  0.29261471614E+03  0.85926729830E+02 0.  0.
        254    2    1    2    0    0 -0.10577224916E+03  0.25199145533E+03  0.18879958385E+04  0.21113831180E+04  0.90483309089E+03 0.  0.
        -24    2    4    4    0    0 -0.43579234069E+03  0.35889084991E+03  0.94145442981E+03  0.11001393035E+04  0.72473701732E+02 0.  0.
         24    2    4    4    0    0  0.33002009153E+03 -0.10689939458E+03  0.94654140872E+03  0.10112438144E+04  0.79578090248E+02 0.  0.
         11    1    3    3    0    0  0.10371050949E+03 -0.24029384115E+03  0.33395652050E+02  0.26384137175E+03  0.00000000000E+00 0.  1.
        -11    1    3    3    0    0  0.20617396736E+01 -0.11697614185E+02  0.26207258520E+02  0.28773344388E+02  0.00000000000E+00 0. -1.
          4    1    6    6  502    0  0.65005658181E+02 -0.55552680389E+02  0.20636053463E+03  0.22337525858E+03  0.00000000000E+00 0. -1.
          1    1    5    5  503    0 -0.96750927304E+02  0.11737056489E+03  0.27848830586E+03  0.31732054446E+03  0.00000000000E+00 0. -1.
         -2    1    5    5    0  503 -0.33904141339E+03  0.24152028502E+03  0.66296612395E+03  0.78281875908E+03  0.00000000000E+00 0.  1.
         -3    1    6    6    0  502  0.26501443335E+03 -0.51346714192E+02  0.74018087409E+03  0.78786855586E+03  0.00000000000E+00 0.  1.
<mgrwt>
<rscale>  0 0.14092781E+04</rscale>
<asrwt>0</asrwt>
<pdfrwt beam="1">  1        2 0.33473818E+00 0.14092781E+04</pdfrwt>
<pdfrwt beam="2">  1       -2 0.35107623E-01 0.14092781E+04</pdfrwt>
<totfact> 0.39523603E+01</totfact>
</mgrwt>
</event>
<event>
12    1  0.1489025E-007  0.2227575E+04  0.7818608E-02  0.8507038E-01
         -2   -1    0    0    0  501 -0.00000000000E+00  0.00000000000E+00  0.42251491100E+03  0.42251491100E+03  0.00000000000E+00 0.  1.
          2   -1    0    0  501    0  0.00000000000E+00 -0.00000000000E+00 -0.29360455517E+04  0.29360455517E+04  0.00000000000E+00 0. -1.
         23    2    1    2    0    0 -0.92119999405E+03  0.11907595935E+03 -0.10790642504E+04  0.14267794443E+04  0.92365648452E+02 0.  0.
        254    2    1    2    0    0  0.92119999405E+03 -0.11907595935E+03 -0.14344663902E+04  0.19317810183E+04  0.90071947079E+03 0.  0.
        -24    2    4    4    0    0 -0.12955852594E+02 -0.58415833361E+02 -0.78126703603E+03  0.78756210270E+03  0.79344945048E+02 0.  0.
         24    2    4    4    0    0  0.93415584664E+03 -0.60660125993E+02 -0.65319935418E+03  0.11442189157E+04  0.78998315999E+02 0.  0.
         11    1    3    3    0    0 -0.17101047734E+02  0.95340202433E+01 -0.43643202662E+02  0.47833800959E+02  0.00000000000E+00 0.  1.
        -11    1    3    3    0    0 -0.90409894632E+03  0.10954193911E+03 -0.10354210478E+04  0.13789456434E+04  0.00000000000E+00 0. -1.
          4    1    6    6  502    0  0.26771022254E+03 -0.22716235435E-01 -0.22542333438E+03  0.34997777565E+03  0.00000000000E+00 0. -1.
          1    1    5    5  503    0  0.28974245805E+02 -0.51623382126E+01 -0.16772152518E+03  0.17028407637E+03  0.00000000000E+00 0. -1.
         -2    1    5    5    0  503 -0.41930098399E+02 -0.53253495149E+02 -0.61354551085E+03  0.61727802632E+03  0.00000000000E+00 0.  1.
         -3    1    6    6    0  502  0.66644562411E+03 -0.60637409757E+02 -0.42777601980E+03  0.79424114000E+03  0.00000000000E+00 0.  1.
<mgrwt>
<rscale>  0 0.22275754E+04</rscale>
<asrwt>0</asrwt>
<pdfrwt beam="1">  1        2 0.45169930E+00 0.22275754E+04</pdfrwt>
<pdfrwt beam="2">  1       -2 0.65002297E-01 0.22275754E+04</pdfrwt>
<totfact> 0.38031718E+00</totfact>
</mgrwt>
</event>
<event>
12    1  0.1489025E-007  0.2161428E+04  0.7818608E-02  0.8534656E-01
          1   -1    0    0  501    0  0.00000000000E+00  0.00000000000E+00  0.96892814207E+03  0.96892814207E+03  0.00000000000E+00 0. -1.
         -1   -1    0    0    0  501 -0.00000000000E+00 -0.00000000000E+00 -0.12053966247E+04  0.12053966247E+04  0.00000000000E+00 0.  1.
         23    2    1    2    0    0  0.10148286010E+03 -0.33274474318E+03 -0.92808888856E+03  0.99531557718E+03  0.91028995939E+02 0.  0.
        254    2    1    2    0    0 -0.10148286010E+03  0.33274474318E+03  0.69162040590E+03  0.11790091896E+04  0.88921653624E+03 0.  0.
        -24    2    4    4    0    0 -0.40633395611E+03  0.12469198691E+03  0.50860355783E+02  0.43528243579E+03  0.78921781726E+02 0.  0.
         24    2    4    4    0    0  0.30485109600E+03  0.20805275627E+03  0.64076005012E+03  0.74372675382E+03  0.79598381884E+02 0.  0.
         11    1    3    3    0    0  0.23162287159E+01 -0.12424131568E+03 -0.25368203327E+03  0.28248158072E+03  0.00000000000E+00 0. -1.
        -11    1    3    3    0    0  0.99166631389E+02 -0.20850342750E+03 -0.67440685528E+03  0.71283399646E+03  0.00000000000E+00 0.  1.
          4    1    6    6  502    0  0.22236021258E+03  0.11568377884E+03  0.47169505806E+03  0.53415637094E+03  0.00000000000E+00 0. -1.
          1    1    5    5  503    0 -0.37290290890E+03  0.12696169517E+03  0.64379831560E+02  0.39914986435E+03  0.00000000000E+00 0. -1.
         -2    1    5    5    0  503 -0.33431047214E+02 -0.22697082559E+01 -0.13519475777E+02  0.36132571438E+02  0.00000000000E+00 0.  1.
         -3    1    6    6    0  502  0.82490883425E+02  0.92368977426E+02  0.16906499206E+03  0.20957038288E+03  0.00000000000E+00 0.  1.
<mgrwt>
<rscale>  0 0.21614280E+04</rscale>
<asrwt>0</asrwt>
<pdfrwt beam="1">  1        1 0.14906587E+00 0.21614280E+04</pdfrwt>
<pdfrwt beam="2">  1       -1 0.18544563E+00 0.21614280E+04</pdfrwt>
<totfact> 0.27865589E+00</totfact>
</mgrwt>
</event>
<event>
12    1  0.1489025E-007  0.1745459E+04  0.7818608E-02  0.8735854E-01
         -2   -1    0    0    0  501 -0.00000000000E+00  0.00000000000E+00  0.44259648393E+03  0.44259648393E+03  0.00000000000E+00 0. -1.
          2   -1    0    0  501    0  0.00000000000E+00 -0.00000000000E+00 -0.17208838961E+04  0.17208838961E+04  0.00000000000E+00 0.  1.
         23    2    1    2    0    0 -0.44546408701E+03 -0.39368656481E+03 -0.17030368145E+03  0.62508281215E+03  0.91092337797E+02 0.  0.
        254    2    1    2    0    0  0.44546408701E+03  0.39368656481E+03 -0.11079837307E+04  0.15383975679E+04  0.88634742916E+03 0.  0.
        -24    2    4    4    0    0  0.58614137449E+03  0.16676135951E+03 -0.11003052647E+04  0.12605666361E+04  0.83579343672E+02 0.  0.
         24    2    4    4    0    0 -0.14067728748E+03  0.22692520530E+03 -0.76784660516E+01  0.27783093178E+03  0.76458614940E+02 0.  0.
         13    1    3    3    0    0 -0.44968424072E+03 -0.39145694435E+03 -0.17104969592E+03  0.62025192793E+03  0.00000000000E+00 0.  1.
        -13    1    3    3    0    0  0.42201537100E+01 -0.22296204602E+01  0.74601447212E+00  0.48308842178E+01  0.00000000000E+00 0. -1.
          4    1    6    6  502    0 -0.10620326476E+03  0.21585513733E+03  0.11185714573E+01  0.24056979229E+03  0.00000000000E+00 0. -1.
          3    1    5    5  503    0  0.31680939761E+03  0.13035616842E+03 -0.58257441687E+03  0.67583568731E+03  0.00000000000E+00 0. -1.
         -4    1    5    5    0  503  0.26933197688E+03  0.36405191085E+02 -0.51773084778E+03  0.58473094878E+03  0.00000000000E+00 0.  1.
         -1    1    6    6    0  502 -0.34474022719E+02  0.11070067968E+02 -0.87970375089E+01  0.37261139491E+02  0.00000000000E+00 0.  1.
<mgrwt>
<rscale>  0 0.17454594E+04</rscale>
<asrwt>0</asrwt>
<pdfrwt beam="1">  1        2 0.26475137E+00 0.17454594E+04</pdfrwt>
<pdfrwt beam="2">  1       -2 0.68091766E-01 0.17454594E+04</pdfrwt>
<totfact> 0.17872086E+01</totfact>
</mgrwt>
</event>
<event>
12    1  0.1489025E-007  0.1663054E+04  0.7818608E-02  0.8782721E-01
         -2   -1    0    0    0  501 -0.00000000000E+00  0.00000000000E+00  0.25044500376E+03  0.25044500376E+03  0.00000000000E+00 0.  1.
          2   -1    0    0  501    0  0.00000000000E+00 -0.00000000000E+00 -0.27608353610E+04  0.27608353610E+04  0.00000000000E+00 0. -1.
         23    2    1    2    0    0  0.35414579935E+03 -0.47018923013E+03 -0.10688650875E+04  0.12236212717E+04  0.90990559581E+02 0.  0.
        254    2    1    2    0    0 -0.35414579935E+03  0.47018923013E+03 -0.14415252698E+04  0.17876590931E+04  0.87819859397E+03 0.  0.
        -24    2    4    4    0    0 -0.59320619662E+03  0.48695600834E+03 -0.12564730926E+04  0.14744671451E+04  0.79429111988E+02 0.  0.
         24    2    4    4    0    0  0.23906039726E+03 -0.16766778205E+02 -0.18505217717E+03  0.31319194799E+03  0.80086763075E+02 0.  0.
         13    1    3    3    0    0  0.14708468311E+03 -0.14173052441E+03 -0.31093397337E+03  0.37202336130E+03  0.00000000000E+00 0.  1.
        -13    1    3    3    0    0  0.20706111624E+03 -0.32845870573E+03 -0.75793111415E+03  0.85159791041E+03  0.00000000000E+00 0. -1.
          2    1    6    6  502    0  0.13435707901E+03  0.10465122650E+02 -0.14467133566E+03  0.19771479164E+03  0.00000000000E+00 0. -1.
          1    1    5    5  503    0 -0.13551304503E+03  0.72709847704E+02 -0.27159583895E+03  0.31211345222E+03  0.00000000000E+00 0. -1.
         -2    1    5    5    0  503 -0.45769315159E+03  0.41424616064E+03 -0.98487725365E+03  0.11623536929E+04  0.00000000000E+00 0.  1.
         -1    1    6    6    0  502  0.10470331825E+03 -0.27231900855E+02 -0.40380841508E+02  0.11547715635E+03  0.00000000000E+00 0.  1.
<mgrwt>
<rscale>  0 0.16630543E+04</rscale>
<asrwt>0</asrwt>
<pdfrwt beam="1">  1        2 0.42474389E+00 0.16630543E+04</pdfrwt>
<pdfrwt beam="2">  1       -2 0.38530002E-01 0.16630543E+04</pdfrwt>
<totfact> 0.14877540E+01</totfact>
</mgrwt>
</event>
<event>
12    1  0.1489025E-007  0.3790778E+04  0.7818608E-02  0.8048137E-01
         -1   -1    0    0    0  501 -0.00000000000E+00  0.00000000000E+00  0.82053651742E+03  0.82053651742E+03  0.00000000000E+00 0.  1.
          1   -1    0    0  501    0  0.00000000000E+00 -0.00000000000E+00 -0.43782321830E+04  0.43782321830E+04  0.00000000000E+00 0. -1.
         23    2    1    2    0    0  0.13819640490E+03 -0.65837630280E+03  0.58958008434E+03  0.89865438875E+03  0.86124515318E+02 0.  0.
        254    2    1    2    0    0 -0.13819640490E+03  0.65837630280E+03 -0.41472757499E+04  0.43001143117E+04  0.91571247950E+03 0.  0.
        -24    2    4    4    0    0 -0.40502780386E+03  0.18796195518E+03 -0.90712537412E+03  0.10142315205E+04  0.80074429262E+02 0.  0.
         24    2    4    4    0    0  0.26683139896E+03  0.47041434762E+03 -0.32401503758E+04  0.32858827912E+04  0.77217911532E+02 0.  0.
         13    1    3    3    0    0  0.69574884024E+01 -0.58980984809E+02  0.23656134685E+02  0.63927896275E+02  0.00000000000E+00 0. -1.
        -13    1    3    3    0    0  0.13123891650E+03 -0.59939531799E+03  0.56592394966E+03  0.83472649247E+03  0.00000000000E+00 0.  1.
          2    1    6    6  502    0  0.21443266036E+03  0.34139534405E+03 -0.25686796567E+04  0.26001244827E+04  0.00000000000E+00 0. -1.
          3    1    5    5  503    0 -0.40863434627E+03  0.18548265339E+03 -0.89258009902E+03  0.99904207961E+03  0.00000000000E+00 0. -1.
         -4    1    5    5    0  503  0.36065424140E+01  0.24793017893E+01 -0.14545275094E+02  0.15189440842E+02  0.00000000000E+00 0.  1.
         -1    1    6    6    0  502  0.52398738600E+02  0.12901900357E+03 -0.67147071910E+03  0.68575830851E+03  0.00000000000E+00 0.  1.
<mgrwt>
<rscale>  0 0.37907780E+04</rscale>
<asrwt>0</asrwt>
<pdfrwt beam="1">  1        1 0.67357415E+00 0.37907780E+04</pdfrwt>
<pdfrwt beam="2">  1       -1 0.12623639E+00 0.37907780E+04</pdfrwt>
<totfact> 0.18483848E-02</totfact>
</mgrwt>
</event>
<event>
12    1  0.1489025E-007  0.1539557E+04  0.7818608E-02  0.8858566E-01
          1   -1    0    0  501    0  0.00000000000E+00  0.00000000000E+00  0.17561489461E+04  0.17561489461E+04  0.00000000000E+00 0. -1.
         -1   -1    0    0    0  501 -0.00000000000E+00 -0.00000000000E+00 -0.33741945641E+03  0.33741945641E+03  0.00000000000E+00 0.  1.
         23    2    1    2    0    0  0.78872550049E+02  0.39095332612E+03  0.87802208293E+03  0.96862362886E+03  0.90794129248E+02 0.  0.
        254    2    1    2    0    0 -0.78872550049E+02 -0.39095332612E+03  0.54070740680E+03  0.11249447737E+04  0.90225875542E+03 0.  0.
        -24    2    4    4    0    0 -0.22305810612E+03  0.14649068950E+03  0.48585043943E+03  0.56003153966E+03  0.79813752590E+02 0.  0.
         24    2    4    4    0    0  0.14418555607E+03 -0.53744401562E+03  0.54856967365E+02  0.56491323402E+03  0.80511679907E+02 0.  0.
         11    1    3    3    0    0  0.75161359338E+02  0.34337876016E+03  0.82783536418E+03  0.89937177688E+03  0.00000000000E+00 0. -1.
        -11    1    3    3    0    0  0.37111907107E+01  0.47574565956E+02  0.50186718753E+02  0.69251851972E+02  0.00000000000E+00 0.  1.
          2    1    6    6  502    0  0.36967518817E+02 -0.25982755408E+03  0.50621509462E+02  0.26728167263E+03  0.00000000000E+00 0. -1.
          1    1    5    5  503    0 -0.14248064992E+02  0.29901148494E+02  0.27540522633E+02  0.43076286100E+02  0.00000000000E+00 0. -1.
         -2    1    5    5    0  503 -0.20881004113E+03  0.11658954101E+03  0.45830991680E+03  0.51695525356E+03  0.00000000000E+00 0.  1.
         -1    1    6    6    0  502  0.10721803726E+03 -0.27761646154E+03  0.42354579029E+01  0.29763156139E+03  0.00000000000E+00 0.  1.
<mgrwt>
<rscale>  0 0.15395568E+04</rscale>
<asrwt>0</asrwt>
<pdfrwt beam="1">  1        1 0.27017675E+00 0.15395568E+04</pdfrwt>
<pdfrwt beam="2">  1       -1 0.51910687E-01 0.15395568E+04</pdfrwt>
<totfact> 0.15721664E+01</totfact>
</mgrwt>
</event>
<event>
12    1  0.1489025E-007  0.1600482E+04  0.7818608E-02  0.8820252E-01
         -1   -1    0    0    0  501 -0.00000000000E+00  0.00000000000E+00  0.28774470990E+03  0.28774470990E+03  0.00000000000E+00 0.  1.
          1   -1    0    0  501    0  0.00000000000E+00 -0.00000000000E+00 -0.22255354290E+04  0.22255354290E+04  0.00000000000E+00 0. -1.
         23    2    1    2    0    0 -0.64513638764E+02 -0.11341405612E+03 -0.14978664087E+04  0.15063958132E+04  0.92735160933E+02 0.  0.
        254    2    1    2    0    0  0.64513638764E+02  0.11341405612E+03 -0.43992431042E+03  0.10068843257E+04  0.89624655577E+03 0.  0.
        -24    2    4    4    0    0 -0.30098347028E+03  0.33255109912E+03 -0.31926237512E+03  0.55680578137E+03  0.83204153062E+02 0.  0.
         24    2    4    4    0    0  0.36549710904E+03 -0.21913704301E+03 -0.12066193529E+03  0.45007854433E+03  0.80013830677E+02 0.  0.
         11    1    3    3    0    0 -0.49710644030E+02 -0.63900359265E+02 -0.44787661036E+03  0.45513499333E+03  0.00000000000E+00 0.  1.
        -11    1    3    3    0    0 -0.14802994734E+02 -0.49513696852E+02 -0.10499897983E+04  0.10512608199E+04  0.00000000000E+00 0. -1.
          2    1    6    6  502    0  0.22068651383E+03 -0.10300366759E+03 -0.10012499550E+03  0.26331978210E+03  0.00000000000E+00 0. -1.
          3    1    5    5  503    0 -0.27491751273E+03  0.32976862128E+03 -0.30738186771E+03  0.52802518404E+03  0.00000000000E+00 0. -1.
         -4    1    5    5    0  503 -0.26065957551E+02  0.27824778398E+01 -0.11880507414E+02  0.28780597325E+02  0.00000000000E+00 0.  1.
         -1    1    6    6    0  502  0.14481059522E+03 -0.11613337542E+03 -0.20536939796E+02  0.18675876223E+03  0.00000000000E+00 0.  1.
<mgrwt>
<rscale>  0 0.16004825E+04</rscale>
<asrwt>0</asrwt>
<pdfrwt beam="1">  1        1 0.34239006E+00 0.16004825E+04</pdfrwt>
<pdfrwt beam="2">  1       -1 0.44268417E-01 0.16004825E+04</pdfrwt>
<totfact> 0.10150116E+01</totfact>
</mgrwt>
</event>
<event>
12    1  0.1489025E-007  0.1997010E+04  0.7818608E-02  0.8608020E-01
          1   -1    0    0  501    0  0.00000000000E+00  0.00000000000E+00  0.20057130722E+04  0.20057130722E+04  0.00000000000E+00 0. -1.
         -1   -1    0    0    0  501 -0.00000000000E+00 -0.00000000000E+00 -0.49708612973E+03  0.49708612973E+03  0.00000000000E+00 0.  1.
         23    2    1    2    0    0  0.21765819072E+03 -0.63976088112E+03  0.11188542101E+04  0.13109764546E+04  0.10077424341E+03 0.  0.
        254    2    1    2    0    0 -0.21765819072E+03  0.63976088112E+03  0.38977273243E+03  0.11918227473E+04  0.90102697248E+03 0.  0.
        -24    2    4    4    0    0  0.25351389682E+03 -0.45441327751E+02  0.20216689908E+03  0.33647362275E+03  0.77516666426E+02 0.  0.
         24    2    4    4    0    0 -0.47117208754E+03  0.68520220887E+03  0.18760583335E+03  0.85534912459E+03  0.70149648000E+02 0.  0.
         13    1    3    3    0    0  0.18750704553E+03 -0.59160243097E+03  0.96888145079E+03  0.11506014054E+04  0.00000000000E+00 0. -1.
        -13    1    3    3    0    0  0.30151145187E+02 -0.48158450152E+02  0.14997275927E+03  0.16037504918E+03  0.00000000000E+00 0.  1.
          4    1    6    6  502    0 -0.13007057582E+03  0.22077454127E+03  0.30268446328E+02  0.25802312224E+03  0.00000000000E+00 0. -1.
          3    1    5    5  503    0  0.93385049562E+02 -0.55295638279E+02  0.80419102040E+02  0.13507630091E+03  0.00000000000E+00 0. -1.
         -4    1    5    5    0  503  0.16012884726E+03  0.98543105287E+01  0.12174779704E+03  0.20139732184E+03  0.00000000000E+00 0.  1.
         -3    1    6    6    0  502 -0.34110151172E+03  0.46442766760E+03  0.15733738702E+03  0.59732600235E+03  0.00000000000E+00 0.  1.
<mgrwt>
<rscale>  0 0.19970099E+04</rscale>
<asrwt>0</asrwt>
<pdfrwt beam="1">  1        1 0.30857124E+00 0.19970099E+04</pdfrwt>
<pdfrwt beam="2">  1       -1 0.76474790E-01 0.19970099E+04</pdfrwt>
<totfact> 0.47030908E+00</totfact>
</mgrwt>
</event>
<event>
12    1  0.1489025E-007  0.1451692E+04  0.7818608E-02  0.8917228E-01
         -1   -1    0    0    0  501 -0.00000000000E+00  0.00000000000E+00  0.20452544747E+03  0.20452544747E+03  0.00000000000E+00 0.  1.
          1   -1    0    0  501    0  0.00000000000E+00 -0.00000000000E+00 -0.25759756912E+04  0.25759756912E+04  0.00000000000E+00 0. -1.
         23    2    1    2    0    0 -0.23401272168E+03 -0.24306185198E+02 -0.14235029870E+02  0.25291217034E+03  0.91701610037E+02 0.  0.
        254    2    1    2    0    0  0.23401272168E+03  0.24306185198E+02 -0.23572152139E+04  0.25275889684E+04  0.88141345797E+03 0.  0.
        -24    2    4    4    0    0  0.98518872023E+01 -0.10470076503E+03 -0.22196997463E+04  0.22236693134E+04  0.81110676832E+02 0.  0.
         24    2    4    4    0    0  0.22416083447E+03  0.12900695023E+03 -0.13751546760E+03  0.30391965495E+03  0.81029500281E+02 0.  0.
         11    1    3    3    0    0 -0.23123294166E+03 -0.39940196916E+01 -0.18377119391E+02  0.23199643104E+03  0.00000000000E+00 0.  1.
        -11    1    3    3    0    0 -0.27797800210E+01 -0.20312165507E+02  0.41420895212E+01  0.20915739292E+02  0.00000000000E+00 0. -1.
          4    1    6    6  502    0  0.12866433664E+03  0.11581311330E+03 -0.10349719583E+03  0.20169000541E+03  0.00000000000E+00 0. -1.
          3    1    5    5  503    0  0.14704488109E+02 -0.11088408103E+03 -0.15938072832E+04  0.15977274978E+04  0.00000000000E+00 0. -1.
         -4    1    5    5    0  503 -0.48526009067E+01  0.61833159979E+01 -0.62589246309E+03  0.62594181558E+03  0.00000000000E+00 0.  1.
         -3    1    6    6    0  502  0.95496497836E+02  0.13193836928E+02 -0.34018271763E+02  0.10222964954E+03  0.00000000000E+00 0.  1.
<mgrwt>
<rscale>  0 0.14516922E+04</rscale>
<asrwt>0</asrwt>
<pdfrwt beam="1">  1        1 0.39630397E+00 0.14516922E+04</pdfrwt>
<pdfrwt beam="2">  1       -1 0.31465452E-01 0.14516922E+04</pdfrwt>
<totfact> 0.10964347E+01</totfact>
</mgrwt>
</event>
<event>
12    1  0.1489025E-007  0.1935494E+04  0.7818608E-02  0.8637388E-01
          2   -1    0    0  501    0  0.00000000000E+00  0.00000000000E+00  0.77136511531E+03  0.77136511531E+03  0.00000000000E+00 0.  1.
         -2   -1    0    0    0  501 -0.00000000000E+00 -0.00000000000E+00 -0.12141252913E+04  0.12141252913E+04  0.00000000000E+00 0. -1.
         23    2    1    2    0    0 -0.53649016425E+03 -0.43164171987E+03  0.14784053690E+03  0.71018444296E+03  0.91481407957E+02 0.  0.
        254    2    1    2    0    0  0.53649016425E+03  0.43164171987E+03 -0.59060071289E+03  0.12753059636E+04  0.89635920711E+03 0.  0.
        -24    2    4    4    0    0 -0.14127041591E+03  0.95298319081E+02  0.12877806249E+03  0.22801259654E+03  0.79792573390E+02 0.  0.
         24    2    4    4    0    0  0.67776058016E+03  0.33634340079E+03 -0.71937877538E+03  0.10472933671E+04  0.82651600402E+02 0.  0.
         13    1    3    3    0    0 -0.30855593619E+03 -0.22130621442E+03  0.39990251012E+02  0.38181464937E+03  0.00000000000E+00 0. -1.
        -13    1    3    3    0    0 -0.22793422806E+03 -0.21033550546E+03  0.10785028589E+03  0.32836979359E+03  0.00000000000E+00 0.  1.
          4    1    6    6  502    0  0.29504011251E+02  0.32389786536E+02 -0.57162054724E+02  0.72021423564E+02  0.00000000000E+00 0. -1.
          1    1    5    5  503    0 -0.89688049887E+02  0.22701619835E+02  0.35624917611E+02  0.99138512146E+02  0.00000000000E+00 0. -1.
         -2    1    5    5    0  503 -0.51582366025E+02  0.72596699245E+02  0.93153144882E+02  0.12887408439E+03  0.00000000000E+00 0.  1.
         -3    1    6    6    0  502  0.64825656891E+03  0.30395361426E+03 -0.66221672066E+03  0.97527194355E+03  0.00000000000E+00 0.  1.
<mgrwt>
<rscale>  0 0.19354936E+04</rscale>
<asrwt>0</asrwt>
<pdfrwt beam="1">  1        2 0.11867156E+00 0.19354936E+04</pdfrwt>
<pdfrwt beam="2">  1       -2 0.18678851E+00 0.19354936E+04</pdfrwt>
<totfact> 0.54971971E+00</totfact>
</mgrwt>
</event>
<event>
12    1  0.1489025E-007  0.1417143E+04  0.7818608E-02  0.8941502E-01
          2   -1    0    0  501    0  0.00000000000E+00  0.00000000000E+00  0.21429972705E+03  0.21429972705E+03  0.00000000000E+00 0. -1.
         -2   -1    0    0    0  501 -0.00000000000E+00 -0.00000000000E+00 -0.23428575064E+04  0.23428575064E+04  0.00000000000E+00 0.  1.
         23    2    1    2    0    0  0.24658139757E+03  0.30874212750E+03 -0.41631186991E+03  0.58265070744E+03  0.10021071266E+03 0.  0.
        254    2    1    2    0    0 -0.24658139757E+03 -0.30874212750E+03 -0.17122459094E+04  0.19745065260E+04  0.90042538833E+03 0.  0.
        -24    2    4    4    0    0 -0.23376182713E+03 -0.58654194493E+03 -0.14528961125E+04  0.15862655370E+04  0.81579380641E+02 0.  0.
         24    2    4    4    0    0 -0.12819570433E+02  0.27779981742E+03 -0.25934979693E+03  0.38824098895E+03  0.78304970395E+02 0.  0.
         13    1    3    3    0    0  0.59569136946E+02  0.41777024504E+02 -0.34179745054E+02  0.80386919488E+02  0.00000000000E+00 0.  1.
        -13    1    3    3    0    0  0.18701226062E+03  0.26696510300E+03 -0.38213212485E+03  0.50226378795E+03  0.00000000000E+00 0. -1.
          2    1    6    6  502    0  0.99439704847E+01  0.25921063496E+03 -0.23624105133E+03  0.35085448573E+03  0.00000000000E+00 0. -1.
          1    1    5    5  503    0 -0.17497900325E+03 -0.35654937753E+03 -0.97046177526E+03  0.10485900855E+04  0.00000000000E+00 0. -1.
         -2    1    5    5    0  503 -0.58782823888E+02 -0.22999256740E+03 -0.48243433721E+03  0.53767545152E+03  0.00000000000E+00 0.  1.
         -1    1    6    6    0  502 -0.22763540917E+02  0.18589182461E+02 -0.23108745602E+02  0.37386503219E+02  0.00000000000E+00 0.  1.
<mgrwt>
<rscale>  0 0.14171432E+04</rscale>
<asrwt>0</asrwt>
<pdfrwt beam="1">  1        2 0.32969189E-01 0.14171432E+04</pdfrwt>
<pdfrwt beam="2">  1       -2 0.36043961E+00 0.14171432E+04</pdfrwt>
<totfact> 0.20984342E+00</totfact>
</mgrwt>
</event>
<event>
12    1  0.1489025E-007  0.3132316E+04  0.7818608E-02  0.8206925E-01
          2   -1    0    0  501    0  0.00000000000E+00  0.00000000000E+00  0.31875203684E+04  0.31875203684E+04  0.00000000000E+00 0. -1.
         -2   -1    0    0    0  501 -0.00000000000E+00 -0.00000000000E+00 -0.76951687433E+03  0.76951687433E+03  0.00000000000E+00 0.  1.
         23    2    1    2    0    0 -0.10106248648E+03 -0.17288308736E+02 -0.69760323697E+03  0.71097031830E+03  0.91192134947E+02 0.  0.
        254    2    1    2    0    0  0.10106248648E+03  0.17288308736E+02  0.31156067310E+04  0.32460669244E+04  0.90522520046E+03 0.  0.
        -24    2    4    4    0    0  0.11201362597E+03 -0.19994180153E+03  0.18474198043E+03  0.30587051483E+03  0.83086678280E+02 0.  0.
         24    2    4    4    0    0 -0.10951139492E+02  0.21723011027E+03  0.29308647506E+04  0.29401964096E+04  0.86474807592E+02 0.  0.
         11    1    3    3    0    0 -0.10866595792E+03  0.73054235231E+00 -0.65671952044E+03  0.66564957194E+03  0.00000000000E+00 0.  1.
        -11    1    3    3    0    0  0.76034714484E+01 -0.18018851088E+02 -0.40883716537E+02  0.45320746359E+02  0.00000000000E+00 0. -1.
          2    1    6    6  502    0  0.90988278769E+01  0.15327144933E+02  0.67236527756E+03  0.67260149904E+03  0.00000000000E+00 0. -1.
          1    1    5    5  503    0 -0.15116125480E+01 -0.29339693835E+01 -0.74507136949E+01  0.81490050560E+01  0.00000000000E+00 0. -1.
         -2    1    5    5    0  503  0.11352523852E+03 -0.19700783215E+03  0.19219269413E+03  0.29772150977E+03  0.00000000000E+00 0.  1.
         -1    1    6    6    0  502 -0.20049967369E+02  0.20190296533E+03  0.22584994730E+04  0.22675949106E+04  0.00000000000E+00 0.  1.
<mgrwt>
<rscale>  0 0.31323159E+04</rscale>
<asrwt>0</asrwt>
<pdfrwt beam="1">  1        2 0.49038774E+00 0.31323159E+04</pdfrwt>
<pdfrwt beam="2">  1       -2 0.11838721E+00 0.31323159E+04</pdfrwt>
<totfact> 0.61387915E-01</totfact>
</mgrwt>
</event>
<event>
12    1  0.1489025E-007  0.1869120E+04  0.7818608E-02  0.8670382E-01
          2   -1    0    0  501    0  0.00000000000E+00  0.00000000000E+00  0.28338714206E+04  0.28338714206E+04  0.00000000000E+00 0. -1.
         -2   -1    0    0    0  501 -0.00000000000E+00 -0.00000000000E+00 -0.30820118084E+03  0.30820118084E+03  0.00000000000E+00 0.  1.
         23    2    1    2    0    0  0.39653192269E+03 -0.59599984943E+03  0.99500382025E+03  0.12292095422E+04  0.92033200853E+02 0.  0.
        254    2    1    2    0    0 -0.39653192269E+03  0.59599984943E+03  0.15306664195E+04  0.19128630593E+04  0.89646640174E+03 0.  0.
        -24    2    4    4    0    0 -0.46700313407E+03  0.57162177048E+03  0.54465540079E+03  0.92083128274E+03  0.80233222198E+02 0.  0.
         24    2    4    4    0    0  0.70471211383E+02  0.24378078946E+02  0.98601101873E+03  0.99203177653E+03  0.79679572141E+02 0.  0.
         13    1    3    3    0    0 -0.45640774418E+01 -0.20070661482E+01  0.59578945936E+01  0.77688882993E+01  0.00000000000E+00 0. -1.
        -13    1    3    3    0    0  0.40109600013E+03 -0.59399278328E+03  0.98904592565E+03  0.12214406539E+04  0.00000000000E+00 0.  1.
          2    1    6    6  502    0  0.48724425764E+02 -0.13471077912E+02  0.76980856910E+03  0.77146663743E+03  0.00000000000E+00 0. -1.
          3    1    5    5  503    0 -0.45669830990E+03  0.56887426402E+03  0.54423983615E+03  0.91015837841E+03  0.00000000000E+00 0. -1.
         -4    1    5    5    0  503 -0.10304824170E+02  0.27475064613E+01  0.41556463676E+00  0.10672904332E+02  0.00000000000E+00 0.  1.
         -1    1    6    6    0  502  0.21746785619E+02  0.37849156857E+02  0.21620244963E+03  0.22056513910E+03  0.00000000000E+00 0.  1.
<mgrwt>
<rscale>  0 0.18691201E+04</rscale>
<asrwt>0</asrwt>
<pdfrwt beam="1">  1        2 0.43598020E+00 0.18691201E+04</pdfrwt>
<pdfrwt beam="2">  1       -2 0.47415568E-01 0.18691201E+04</pdfrwt>
<totfact> 0.87489032E+00</totfact>
</mgrwt>
</event>
<event>
12    1  0.1489025E-007  0.1614089E+04  0.7818608E-02  0.8811939E-01
          2   -1    0    0  501    0  0.00000000000E+00  0.00000000000E+00  0.38585334399E+03  0.38585334399E+03  0.00000000000E+00 0.  1.
         -2   -1    0    0    0  501 -0.00000000000E+00 -0.00000000000E+00 -0.16880001977E+04  0.16880001977E+04  0.00000000000E+00 0. -1.
         23    2    1    2    0    0 -0.15689424004E+03  0.22856904304E+03 -0.10557842635E+04  0.10955066880E+04  0.92708588708E+02 0.  0.
        254    2    1    2    0    0  0.15689424004E+03 -0.22856904304E+03 -0.24636259020E+03  0.97834685367E+03  0.90532227977E+03 0.  0.
        -24    2    4    4    0    0  0.48889917535E+03 -0.14895129613E+03 -0.33672185100E+03  0.61721232093E+03  0.79753068152E+02 0.  0.
         24    2    4    4    0    0 -0.33200493532E+03 -0.79617746909E+02  0.90359260802E+02  0.36113453275E+03  0.75412810797E+02 0.  0.
         11    1    3    3    0    0 -0.11646900719E+03  0.20582167362E+03 -0.96503725933E+03  0.99359171839E+03  0.00000000000E+00 0. -1.
        -11    1    3    3    0    0 -0.40425232841E+02  0.22747369415E+02 -0.90747004218E+02  0.10191496966E+03  0.00000000000E+00 0.  1.
          4    1    6    6  502    0 -0.21530675385E+03 -0.14260670083E+02  0.51265432327E+02  0.22178482706E+03  0.00000000000E+00 0. -1.
          1    1    5    5  503    0  0.84635855873E+02 -0.97048988496E+01 -0.88367906189E+02  0.12274485735E+03  0.00000000000E+00 0. -1.
         -2    1    5    5    0  503  0.40426331948E+03 -0.13924639728E+03 -0.24835394481E+03  0.49446746358E+03  0.00000000000E+00 0.  1.
         -1    1    6    6    0  502 -0.11669818147E+03 -0.65357076826E+02  0.39093828475E+02  0.13934970568E+03  0.00000000000E+00 0.  1.
<mgrwt>
<rscale>  0 0.16140886E+04</rscale>
<asrwt>0</asrwt>
<pdfrwt beam="1">  1        2 0.59362052E-01 0.16140886E+04</pdfrwt>
<pdfrwt beam="2">  1       -2 0.25969234E+00 0.16140886E+04</pdfrwt>
<totfact> 0.44482776E+00</totfact>
</mgrwt>
</event>
<event>
12    1  0.1489025E-007  0.2621505E+04  0.7818608E-02  0.8360933E-01
          2   -1    0    0  501    0  0.00000000000E+00  0.00000000000E+00  0.16286274824E+04  0.16286274824E+04  0.00000000000E+00 0. -1.
         -2   -1    0    0    0  501 -0.00000000000E+00 -0.00000000000E+00 -0.10549200404E+04  0.10549200404E+04  0.00000000000E+00 0.  1.
         23    2    1    2    0    0 -0.49448160975E+03  0.23264766628E+02  0.13187167273E+04  0.14116379415E+04  0.93029882858E+02 0.  0.
        254    2    1    2    0    0  0.49448160975E+03 -0.23264766628E+02 -0.74500928538E+03  0.12719095814E+04  0.90424655714E+03 0.  0.
        -24    2    4    4    0    0  0.59365305004E+03  0.23656464613E+03 -0.23561460087E+03  0.68577331478E+03  0.79900084422E+02 0.  0.
         24    2    4    4    0    0 -0.99171440297E+02 -0.25982941276E+03 -0.50939468451E+03  0.58613626658E+03  0.82015121064E+02 0.  0.
         11    1    3    3    0    0 -0.28566852696E+03  0.55646521412E+02  0.81438910512E+03  0.86483099920E+03  0.00000000000E+00 0. -1.
        -11    1    3    3    0    0 -0.20881308279E+03 -0.32381754785E+02  0.50432762219E+03  0.54680694225E+03  0.00000000000E+00 0.  1.
          2    1    6    6  502    0 -0.14292246350E+01  0.62890549108E+01 -0.11733575298E+02  0.13389237618E+02  0.00000000000E+00 0. -1.
          1    1    5    5  503    0  0.24473512974E+03  0.55892620963E+02 -0.86901819852E+02  0.26565239525E+03  0.00000000000E+00 0. -1.
         -2    1    5    5    0  503  0.34891792030E+03  0.18067202517E+03 -0.14871278102E+03  0.42012091953E+03  0.00000000000E+00 0.  1.
         -1    1    6    6    0  502 -0.97742215662E+02 -0.26611846767E+03 -0.49766110922E+03  0.57274702896E+03  0.00000000000E+00 0.  1.
<mgrwt>
<rscale>  0 0.26215047E+04</rscale>
<asrwt>0</asrwt>
<pdfrwt beam="1">  1        2 0.25055807E+00 0.26215047E+04</pdfrwt>
<pdfrwt beam="2">  1       -2 0.16229539E+00 0.26215047E+04</pdfrwt>
<totfact> 0.22997154E+00</totfact>
</mgrwt>
</event>
<event>
12    1  0.1489025E-007  0.2827138E+04  0.7818608E-02  0.8294892E-01
          2   -1    0    0  501    0  0.00000000000E+00  0.00000000000E+00  0.11873157635E+04  0.11873157635E+04  0.00000000000E+00 0. -1.
         -2   -1    0    0    0  501 -0.00000000000E+00 -0.00000000000E+00 -0.16829366695E+04  0.16829366695E+04  0.00000000000E+00 0.  1.
         23    2    1    2    0    0  0.95310978923E+03  0.29066955357E+03 -0.10228943905E+04  0.14301992485E+04  0.79056287628E+02 0.  0.
        254    2    1    2    0    0 -0.95310978923E+03 -0.29066955357E+03  0.52727348448E+03  0.14400531845E+04  0.89600713560E+03 0.  0.
        -24    2    4    4    0    0 -0.32040781592E+03 -0.52827373280E+03  0.86128010228E+02  0.62906858745E+03  0.81086054896E+02 0.  0.
         24    2    4    4    0    0 -0.63270197331E+03  0.23760417923E+03  0.44114547426E+03  0.81098459705E+03  0.79493107731E+02 0.  0.
         13    1    3    3    0    0  0.18606810510E+03  0.67587789907E+02 -0.24755193627E+03  0.31697225467E+03  0.00000000000E+00 0. -1.
        -13    1    3    3    0    0  0.76704168414E+03  0.22308176367E+03 -0.77534245423E+03  0.11132269938E+04  0.00000000000E+00 0.  1.
          2    1    6    6  502    0 -0.47047260936E+03  0.14133865054E+03  0.33405839036E+03  0.59406741913E+03  0.00000000000E+00 0. -1.
          1    1    5    5  503    0 -0.30885781524E+03 -0.48692408703E+03  0.62317875523E+02  0.57997563239E+03  0.00000000000E+00 0. -1.
         -2    1    5    5    0  503 -0.11550000683E+02 -0.41349645776E+02  0.23810134706E+02  0.49092955058E+02  0.00000000000E+00 0.  1.
         -1    1    6    6    0  502 -0.16222936395E+03  0.96265528691E+02  0.10708708389E+03  0.21691717792E+03  0.00000000000E+00 0.  1.
<mgrwt>
<rscale>  0 0.28271379E+04</rscale>
<asrwt>0</asrwt>
<pdfrwt beam="1">  1        2 0.18266396E+00 0.28271379E+04</pdfrwt>
<pdfrwt beam="2">  1       -2 0.25891333E+00 0.28271379E+04</pdfrwt>
<totfact> 0.94811421E-01</totfact>
</mgrwt>
</event>
<event>
12    1  0.1489025E-007  0.1466147E+04  0.7818608E-02  0.8907282E-01
         -2   -1    0    0    0  501 -0.00000000000E+00  0.00000000000E+00  0.20094873618E+03  0.20094873618E+03  0.00000000000E+00 0. -1.
          2   -1    0    0  501    0  0.00000000000E+00 -0.00000000000E+00 -0.26742986753E+04  0.26742986753E+04  0.00000000000E+00 0.  1.
         23    2    1    2    0    0 -0.81374370627E+02 -0.29452324837E+03 -0.14119953674E+04  0.14474339560E+04  0.89265935258E+02 0.  0.
        254    2    1    2    0    0  0.81374370627E+02  0.29452324837E+03 -0.10613545717E+04  0.14278134556E+04  0.90488231550E+03 0.  0.
        -24    2    4    4    0    0  0.18356026800E+03  0.58727642700E+03 -0.58160426823E+03  0.85062288223E+03  0.81901094350E+02 0.  0.
         24    2    4    4    0    0 -0.10218589737E+03 -0.29275317863E+03 -0.47975030351E+03  0.57719057333E+03  0.82717730927E+02 0.  0.
         11    1    3    3    0    0 -0.31364334729E+02 -0.24154044776E+03 -0.10156153571E+04  0.10444137413E+04  0.00000000000E+00 0. -1.
        -11    1    3    3    0    0 -0.50010035898E+02 -0.52982800604E+02 -0.39638001036E+03  0.40302021471E+03  0.00000000000E+00 0.  1.
          2    1    6    6  502    0  0.11459729171E+02 -0.29612373234E+02 -0.28875704903E+02  0.42918811434E+02  0.00000000000E+00 0. -1.
          3    1    5    5  503    0  0.84103285815E+01  0.13750234567E+02 -0.13512301112E+01  0.16174931231E+02  0.00000000000E+00 0. -1.
         -4    1    5    5    0  503  0.17514993941E+03  0.57352619243E+03 -0.58025303812E+03  0.83444795100E+03  0.00000000000E+00 0.  1.
         -1    1    6    6    0  502 -0.11364562654E+03 -0.26314080539E+03 -0.45087459861E+03  0.53427176190E+03  0.00000000000E+00 0.  1.
<mgrwt>
<rscale>  0 0.14661472E+04</rscale>
<asrwt>0</asrwt>
<pdfrwt beam="1">  1        2 0.41143054E+00 0.14661472E+04</pdfrwt>
<pdfrwt beam="2">  1       -2 0.30915192E-01 0.14661472E+04</pdfrwt>
<totfact> 0.25943479E+01</totfact>
</mgrwt>
</event>
<event>
12    1  0.1489025E-007  0.1849173E+04  0.7818608E-02  0.8680578E-01
         -2   -1    0    0    0  501 -0.00000000000E+00  0.00000000000E+00  0.17750534300E+04  0.17750534300E+04  0.00000000000E+00 0. -1.
          2   -1    0    0  501    0  0.00000000000E+00 -0.00000000000E+00 -0.48159701023E+03  0.48159701023E+03  0.00000000000E+00 0.  1.
         23    2    1    2    0    0  0.37754729008E+02 -0.37102695784E+03  0.12236210490E+04  0.12825773792E+04  0.93111970731E+02 0.  0.
        254    2    1    2    0    0 -0.37754729008E+02  0.37102695784E+03  0.69835370744E+02  0.97407306100E+03  0.89713707211E+03 0.  0.
        -24    2    4    4    0    0  0.33009860499E+03  0.44281147026E+03  0.15852204410E+03  0.58031446041E+03  0.81169866896E+02 0.  0.
         24    2    4    4    0    0 -0.36785333399E+03 -0.71784512418E+02 -0.88686673353E+02  0.39375860059E+03  0.81923244277E+02 0.  0.
         13    1    3    3    0    0  0.44039437404E+02 -0.67605728341E+02  0.27506554032E+03  0.28665494593E+03  0.00000000000E+00 0. -1.
        -13    1    3    3    0    0 -0.62847083952E+01 -0.30342122950E+03  0.94855550867E+03  0.99592243327E+03  0.00000000000E+00 0.  1.
          2    1    6    6  502    0 -0.26738816543E+03 -0.28384740632E+02 -0.32822721615E+02  0.27088642559E+03  0.00000000000E+00 0. -1.
          1    1    5    5  503    0  0.24874074035E+03  0.26937524551E+03  0.10183589290E+03  0.38053321522E+03  0.00000000000E+00 0. -1.
         -2    1    5    5    0  503  0.81357864638E+02  0.17343622474E+03  0.56686151193E+02  0.19978124519E+03  0.00000000000E+00 0.  1.
         -1    1    6    6    0  502 -0.10046516856E+03 -0.43399771785E+02 -0.55863951738E+02  0.12287217500E+03  0.00000000000E+00 0.  1.
<mgrwt>
<rscale>  0 0.18491732E+04</rscale>
<asrwt>0</asrwt>
<pdfrwt beam="1">  1        2 0.74091849E-01 0.18491732E+04</pdfrwt>
<pdfrwt beam="2">  1       -2 0.27308514E+00 0.18491732E+04</pdfrwt>
<totfact> 0.28086054E+00</totfact>
</mgrwt>
</event>
<event>
12    1  0.1489025E-007  0.1522858E+04  0.7818608E-02  0.8869393E-01
         -2   -1    0    0    0  501 -0.00000000000E+00  0.00000000000E+00  0.21045810083E+03  0.21045810083E+03  0.00000000000E+00 0.  1.
          2   -1    0    0  501    0  0.00000000000E+00 -0.00000000000E+00 -0.27548187821E+04  0.27548187821E+04  0.00000000000E+00 0. -1.
         23    2    1    2    0    0  0.82674709879E+02 -0.28382940241E+03 -0.15796937176E+04  0.16096798862E+04  0.90790182313E+02 0.  0.
        254    2    1    2    0    0 -0.82674709879E+02  0.28382940241E+03 -0.96466696371E+03  0.13555969968E+04  0.90535442206E+03 0.  0.
        -24    2    4    4    0    0 -0.17311804353E+03 -0.30003152729E+03 -0.33661892991E+03  0.48965657766E+03  0.80389587046E+02 0.  0.
         24    2    4    4    0    0  0.90443333652E+02  0.58386092970E+03 -0.62804803380E+03  0.86594041914E+03  0.79592053090E+02 0.  0.
         13    1    3    3    0    0  0.54915102182E+02 -0.65348638013E+02 -0.33838880466E+03  0.34898867611E+03  0.00000000000E+00 0.  1.
        -13    1    3    3    0    0  0.27759607698E+02 -0.21848076440E+03 -0.12413049129E+04  0.12606912101E+04  0.00000000000E+00 0. -1.
          4    1    6    6  502    0  0.67049206823E+02  0.25581133722E+03 -0.32211097210E+03  0.41676194012E+03  0.00000000000E+00 0. -1.
          1    1    5    5  503    0 -0.40164527438E+02 -0.89669143920E+02 -0.50552506880E+02  0.11049570393E+03  0.00000000000E+00 0. -1.
         -2    1    5    5    0  503 -0.13295351609E+03 -0.21036238337E+03 -0.28606642303E+03  0.37916087373E+03  0.00000000000E+00 0.  1.
         -3    1    6    6    0  502  0.23394126829E+02  0.32804959248E+03 -0.30593706170E+03  0.44917847902E+03  0.00000000000E+00 0.  1.
<mgrwt>
<rscale>  0 0.15228577E+04</rscale>
<asrwt>0</asrwt>
<pdfrwt beam="1">  1        2 0.42381826E+00 0.15228577E+04</pdfrwt>
<pdfrwt beam="2">  1       -2 0.32378171E-01 0.15228577E+04</pdfrwt>
<totfact> 0.21196931E+01</totfact>
</mgrwt>
</event>
<event>
12    1  0.1489025E-007  0.1316243E+04  0.7818608E-02  0.9016783E-01
          1   -1    0    0  501    0  0.00000000000E+00  0.00000000000E+00  0.11849564924E+04  0.11849564924E+04  0.00000000000E+00 0. -1.
         -1   -1    0    0    0  501 -0.00000000000E+00 -0.00000000000E+00 -0.36551882508E+03  0.36551882508E+03  0.00000000000E+00 0.  1.
         23    2    1    2    0    0  0.28580286779E+03  0.51011218027E+02  0.25376326392E+01  0.30199701248E+03  0.83128408893E+02 0.  0.
        254    2    1    2    0    0 -0.28580286779E+03 -0.51011218027E+02  0.81690003470E+03  0.12484783050E+04  0.89838020227E+03 0.  0.
        -24    2    4    4    0    0 -0.15627910043E+03 -0.28555308385E+03  0.89723029386E+03  0.95783377780E+03  0.80371790705E+02 0.  0.
         24    2    4    4    0    0 -0.12952376735E+03  0.23454186583E+03 -0.80330259159E+02  0.29064452723E+03  0.78962000580E+02 0.  0.
         11    1    3    3    0    0  0.32620478774E+02  0.10502250529E+02  0.28108515719E+02  0.44322472376E+02  0.00000000000E+00 0. -1.
        -11    1    3    3    0    0  0.25318238901E+03  0.40508967497E+02 -0.25570883080E+02  0.25767454010E+03  0.00000000000E+00 0.  1.
          2    1    6    6  502    0 -0.88913518621E+02  0.16465006287E+03 -0.92772922318E+02  0.20885897662E+03  0.00000000000E+00 0. -1.
          3    1    5    5  503    0 -0.13066106746E+03 -0.27919326521E+03  0.84109168654E+03  0.89579931852E+03  0.00000000000E+00 0. -1.
         -4    1    5    5    0  503 -0.25618032970E+02 -0.63598186427E+01  0.56138607312E+02  0.62034459274E+02  0.00000000000E+00 0.  1.
         -1    1    6    6    0  502 -0.40610248732E+02  0.69891802954E+02  0.12442663160E+02  0.81785550611E+02  0.00000000000E+00 0.  1.
<mgrwt>
<rscale>  0 0.13162430E+04</rscale>
<asrwt>0</asrwt>
<pdfrwt beam="1">  1        1 0.18230100E+00 0.13162430E+04</pdfrwt>
<pdfrwt beam="2">  1       -1 0.56233666E-01 0.13162430E+04</pdfrwt>
<totfact> 0.34413611E+01</totfact>
</mgrwt>
</event>
<event>
12    1  0.1489025E-007  0.2062246E+04  0.7818608E-02  0.8578059E-01
         -1   -1    0    0    0  501 -0.00000000000E+00  0.00000000000E+00  0.49832364264E+03  0.49832364264E+03  0.00000000000E+00 0.  1.
          1   -1    0    0  501    0  0.00000000000E+00 -0.00000000000E+00 -0.21335819551E+04  0.21335819551E+04  0.00000000000E+00 0. -1.
         23    2    1    2    0    0  0.30686495406E+03 -0.35372174291E+03  0.21404415957E+03  0.52278644287E+03  0.90584718125E+02 0.  0.
        254    2    1    2    0    0 -0.30686495406E+03  0.35372174291E+03 -0.18493024721E+04  0.21091191549E+04  0.89954366484E+03 0.  0.
        -24    2    4    4    0    0  0.24666926826E+03  0.53971559271E+01 -0.18289666555E+03  0.31724362161E+03  0.79482501144E+02 0.  0.
         24    2    4    4    0    0 -0.55353422232E+03  0.34832458699E+03 -0.16664058065E+04  0.17918755333E+04  0.78609551968E+02 0.  0.
         11    1    3    3    0    0  0.12966891821E+03 -0.10668602297E+03  0.40523099852E+02  0.17273696034E+03  0.00000000000E+00 0. -1.
        -11    1    3    3    0    0  0.17719603585E+03 -0.24703571994E+03  0.17352105972E+03  0.35004948252E+03  0.00000000000E+00 0.  1.
          2    1    6    6  502    0 -0.53693361519E+03  0.34998659006E+03 -0.16380485657E+04  0.17589745376E+04  0.00000000000E+00 0. -1.
          1    1    5    5  503    0  0.23987624004E+03  0.20473483884E+02 -0.17965564479E+03  0.30039295063E+03  0.00000000000E+00 0. -1.
         -2    1    5    5    0  503  0.67930282102E+01 -0.15076327957E+02 -0.32410207540E+01  0.16850670979E+02  0.00000000000E+00 0.  1.
         -1    1    6    6    0  502 -0.16600607126E+02 -0.16620030718E+01 -0.28357240865E+02  0.32900995739E+02  0.00000000000E+00 0.  1.
<mgrwt>
<rscale>  0 0.20622457E+04</rscale>
<asrwt>0</asrwt>
<pdfrwt beam="1">  1        1 0.32824337E+00 0.20622457E+04</pdfrwt>
<pdfrwt beam="2">  1       -1 0.76665177E-01 0.20622457E+04</pdfrwt>
<totfact> 0.38085757E+00</totfact>
</mgrwt>
</event>
<event>
12    1  0.1489025E-007  0.1322370E+04  0.7818608E-02  0.9012011E-01
         -2   -1    0    0    0  501 -0.00000000000E+00  0.00000000000E+00  0.22092535061E+03  0.22092535061E+03  0.00000000000E+00 0.  1.
          2   -1    0    0  501    0  0.00000000000E+00 -0.00000000000E+00 -0.19787927908E+04  0.19787927908E+04  0.00000000000E+00 0. -1.
         23    2    1    2    0    0  0.48427892614E+02  0.27975140025E+03 -0.77658416578E+03  0.83206474699E+03  0.92965961112E+02 0.  0.
        254    2    1    2    0    0 -0.48427892614E+02 -0.27975140025E+03 -0.98128327442E+03  0.13676533944E+04  0.90936947162E+03 0.  0.
        -24    2    4    4    0    0 -0.45525526550E+03 -0.19571054060E+02 -0.49708392604E+03  0.67912496756E+03  0.80485459013E+02 0.  0.
         24    2    4    4    0    0  0.40682737288E+03 -0.26018034619E+03 -0.48419934839E+03  0.68852842687E+03  0.80125287923E+02 0.  0.
         13    1    3    3    0    0  0.55083313527E+01 -0.45384216316E+01 -0.52581766598E+02  0.53063934680E+02  0.00000000000E+00 0.  1.
        -13    1    3    3    0    0  0.42919561261E+02  0.28428982188E+03 -0.72400239918E+03  0.77900081231E+03  0.00000000000E+00 0. -1.
          2    1    6    6  502    0  0.39279248226E+02 -0.41620458272E+02 -0.91649697291E+02  0.10804993707E+03  0.00000000000E+00 0. -1.
          3    1    5    5  503    0 -0.14067797183E+03 -0.37510977790E+02 -0.12821390043E+03  0.19400043679E+03  0.00000000000E+00 0. -1.
         -4    1    5    5    0  503 -0.31457729367E+03  0.17939923730E+02 -0.36887002561E+03  0.48512453076E+03  0.00000000000E+00 0.  1.
         -1    1    6    6    0  502  0.36754812466E+03 -0.21855988792E+03 -0.39254965110E+03  0.58047848980E+03  0.00000000000E+00 0.  1.
<mgrwt>
<rscale>  0 0.13223698E+04</rscale>
<asrwt>0</asrwt>
<pdfrwt beam="1">  1        2 0.30442967E+00 0.13223698E+04</pdfrwt>
<pdfrwt beam="2">  1       -2 0.33988514E-01 0.13223698E+04</pdfrwt>
<totfact> 0.54477465E+01</totfact>
</mgrwt>
</event>
<event>
12    1  0.1489025E-007  0.2076984E+04  0.7818608E-02  0.8571450E-01
         -2   -1    0    0    0  501 -0.00000000000E+00  0.00000000000E+00  0.22546561738E+04  0.22546561738E+04  0.00000000000E+00 0.  1.
          2   -1    0    0  501    0  0.00000000000E+00 -0.00000000000E+00 -0.47832816991E+03  0.47832816991E+03  0.00000000000E+00 0. -1.
         23    2    1    2    0    0  0.13655485732E+03 -0.81778789962E+03  0.55134960825E+03  0.99985308003E+03  0.91079708549E+02 0.  0.
        254    2    1    2    0    0 -0.13655485732E+03  0.81778789962E+03  0.12249783956E+04  0.17331312637E+04  0.90318748303E+03 0.  0.
        -24    2    4    4    0    0 -0.42441203776E+03  0.55840658664E+03  0.11214470619E+04  0.13249250560E+04  0.76415949933E+02 0.  0.
         24    2    4    4    0    0  0.28785718044E+03  0.25938131298E+03  0.10353133369E+03  0.40820620770E+03  0.75981241732E+02 0.  0.
         13    1    3    3    0    0  0.24584662159E+02 -0.22813450456E+03  0.10758805279E+03  0.25342641316E+03  0.00000000000E+00 0.  1.
        -13    1    3    3    0    0  0.11197019516E+03 -0.58965339505E+03  0.44376155547E+03  0.74642666687E+03  0.00000000000E+00 0. -1.
          2    1    6    6  502    0  0.25200049241E+03  0.22983250084E+03  0.11573129194E+03  0.36016795881E+03  0.00000000000E+00 0. -1.
          1    1    5    5  503    0 -0.34634395130E+03  0.41233791286E+03  0.82079889304E+03  0.98167586800E+03  0.00000000000E+00 0. -1.
         -2    1    5    5    0  503 -0.78068086452E+02  0.14606867378E+03  0.30064816890E+03  0.34324918797E+03  0.00000000000E+00 0.  1.
         -1    1    6    6    0  502  0.35856688023E+02  0.29548812140E+02 -0.12199958250E+02  0.48038248887E+02  0.00000000000E+00 0.  1.
<mgrwt>
<rscale>  0 0.20769839E+04</rscale>
<asrwt>0</asrwt>
<pdfrwt beam="1">  1        2 0.73588950E-01 0.20769839E+04</pdfrwt>
<pdfrwt beam="2">  1       -2 0.34687017E+00 0.20769839E+04</pdfrwt>
<totfact> 0.97637817E-01</totfact>
</mgrwt>
</event>
<event>
12    1  0.1489025E-007  0.1523964E+04  0.7818608E-02  0.8868672E-01
          1   -1    0    0  501    0  0.00000000000E+00  0.00000000000E+00  0.10092858732E+04  0.10092858732E+04  0.00000000000E+00 0. -1.
         -1   -1    0    0    0  501 -0.00000000000E+00 -0.00000000000E+00 -0.57527480525E+03  0.57527480525E+03  0.00000000000E+00 0.  1.
         23    2    1    2    0    0  0.11283793580E+03 -0.46915297001E+03  0.19279649087E+03  0.52882075493E+03  0.98203843783E+02 0.  0.
        254    2    1    2    0    0 -0.11283793580E+03  0.46915297001E+03  0.24121457704E+03  0.10557399235E+04  0.90750504397E+03 0.  0.
        -24    2    4    4    0    0  0.22269071345E+03  0.53714449694E+03  0.35448469328E+03  0.68647274030E+03  0.86429514421E+02 0.  0.
         24    2    4    4    0    0 -0.33552864925E+03 -0.67991526932E+02 -0.11327011624E+03  0.36926718318E+03  0.79534968020E+02 0.  0.
         13    1    3    3    0    0  0.60021688348E+02 -0.30362090312E+03  0.17130609184E+03  0.35374289107E+03  0.00000000000E+00 0. -1.
        -13    1    3    3    0    0  0.52816247450E+02 -0.16553206689E+03  0.21490399028E+02  0.17507786386E+03  0.00000000000E+00 0.  1.
          4    1    6    6  502    0 -0.99267546470E+02 -0.41843938603E+02 -0.43952222091E+01  0.10781594946E+03  0.00000000000E+00 0. -1.
          1    1    5    5  503    0  0.51162269061E+02  0.51365920179E+02  0.38017687490E+02  0.81861957547E+02  0.00000000000E+00 0. -1.
         -2    1    5    5    0  503  0.17152844439E+03  0.48577857676E+03  0.31646700579E+03  0.60461078276E+03  0.00000000000E+00 0.  1.
         -3    1    6    6    0  502 -0.23626110278E+03 -0.26147588329E+02 -0.10887489403E+03  0.26145123372E+03  0.00000000000E+00 0.  1.
<mgrwt>
<rscale>  0 0.15239642E+04</rscale>
<asrwt>0</asrwt>
<pdfrwt beam="1">  1        1 0.15527475E+00 0.15239642E+04</pdfrwt>
<pdfrwt beam="2">  1       -1 0.88503816E-01 0.15239642E+04</pdfrwt>
<totfact> 0.18011642E+01</totfact>
</mgrwt>
</event>
<event>
12    1  0.1489025E-007  0.1744108E+04  0.7818608E-02  0.8736600E-01
          2   -1    0    0  501    0  0.00000000000E+00  0.00000000000E+00  0.16643317047E+04  0.16643317047E+04  0.00000000000E+00 0. -1.
         -2   -1    0    0    0  501 -0.00000000000E+00 -0.00000000000E+00 -0.45692730200E+03  0.45692730200E+03  0.00000000000E+00 0.  1.
         23    2    1    2    0    0  0.32529747230E+03  0.32204213054E+03 -0.95650058836E+02  0.47658766692E+03  0.91963531784E+02 0.  0.
        254    2    1    2    0    0 -0.32529747230E+03 -0.32204213054E+03  0.13030544615E+04  0.16446713397E+04  0.89300801050E+03 0.  0.
        -24    2    4    4    0    0  0.11195943567E+03  0.23402895319E+03  0.22493987991E+03  0.35268031925E+03  0.80504607594E+02 0.  0.
         24    2    4    4    0    0 -0.43725690797E+03 -0.55607108373E+03  0.10781145816E+04  0.12919910205E+04  0.80629351288E+02 0.  0.
         11    1    3    3    0    0  0.77265509575E+02  0.30781628728E+02 -0.43587812809E+01  0.83285452579E+02  0.00000000000E+00 0. -1.
        -11    1    3    3    0    0  0.24803196273E+03  0.29126050181E+03 -0.91291277555E+02  0.39330221434E+03  0.00000000000E+00 0.  1.
          4    1    6    6  502    0 -0.37489600552E+03 -0.46788630939E+03  0.85694624337E+03  0.10458592054E+04  0.00000000000E+00 0. -1.
          1    1    5    5  503    0  0.23662518305E+02  0.14240319535E+03  0.12228446381E+03  0.18918793542E+03  0.00000000000E+00 0. -1.
         -2    1    5    5    0  503  0.88296917361E+02  0.91625757842E+02  0.10265541609E+03  0.16349238383E+03  0.00000000000E+00 0.  1.
         -3    1    6    6    0  502 -0.62360902450E+02 -0.88184774337E+02  0.22116833821E+03  0.24613181510E+03  0.00000000000E+00 0.  1.
<mgrwt>
<rscale>  0 0.17441085E+04</rscale>
<asrwt>0</asrwt>
<pdfrwt beam="1">  1        2 0.25605103E+00 0.17441085E+04</pdfrwt>
<pdfrwt beam="2">  1       -2 0.70296509E-01 0.17441085E+04</pdfrwt>
<totfact> 0.17928117E+01</totfact>
</mgrwt>
</event>
<event>
12    1  0.1489025E-007  0.2098000E+04  0.7818608E-02  0.8562125E-01
         -2   -1    0    0    0  501 -0.00000000000E+00  0.00000000000E+00  0.72365117253E+03  0.72365117253E+03  0.00000000000E+00 0.  1.
          2   -1    0    0  501    0  0.00000000000E+00 -0.00000000000E+00 -0.15206235162E+04  0.15206235162E+04  0.00000000000E+00 0. -1.
         23    2    1    2    0    0 -0.82478687741E+02 -0.37508925741E+02  0.58332534003E+03  0.59727138758E+03  0.90857056147E+02 0.  0.
        254    2    1    2    0    0  0.82478687741E+02  0.37508925741E+02 -0.13802976837E+04  0.16470033012E+04  0.89397344757E+03 0.  0.
        -24    2    4    4    0    0 -0.36098734520E+03  0.19634781460E+03 -0.69874555457E+03  0.81468208720E+03  0.81223306287E+02 0.  0.
         24    2    4    4    0    0  0.44346603294E+03 -0.15883888886E+03 -0.68155212914E+03  0.83232121397E+03  0.79708114393E+02 0.  0.
         13    1    3    3    0    0 -0.33646893201E+02 -0.63856395520E+02  0.29965279821E+03  0.30822321805E+03  0.00000000000E+00 0. -1.
        -13    1    3    3    0    0 -0.48831794540E+02  0.26347469779E+02  0.28367254183E+03  0.28904816953E+03  0.00000000000E+00 0.  1.
          4    1    6    6  502    0  0.27719192378E+03 -0.13553585080E+03 -0.41153936198E+03  0.51436366116E+03  0.00000000000E+00 0. -1.
          1    1    5    5  503    0 -0.36358489277E+03  0.18654378921E+03 -0.67905048583E+03  0.79252894070E+03  0.00000000000E+00 0. -1.
         -2    1    5    5    0  503  0.25975475687E+01  0.98040253925E+01 -0.19695068740E+02  0.22153146502E+02  0.00000000000E+00 0.  1.
         -3    1    6    6    0  502  0.16627410916E+03 -0.23303038062E+02 -0.27001276716E+03  0.31795755281E+03  0.00000000000E+00 0.  1.
<mgrwt>
<rscale>  0 0.20980000E+04</rscale>
<asrwt>0</asrwt>
<pdfrwt beam="1">  1        2 0.23394208E+00 0.20980000E+04</pdfrwt>
<pdfrwt beam="2">  1       -2 0.11133095E+00 0.20980000E+04</pdfrwt>
<totfact> 0.72694603E+00</totfact>
</mgrwt>
</event>
<event>
12    1  0.1489025E-007  0.1449128E+04  0.7818608E-02  0.8919005E-01
          2   -1    0    0  501    0  0.00000000000E+00  0.00000000000E+00  0.17735609972E+04  0.17735609972E+04  0.00000000000E+00 0. -1.
         -2   -1    0    0    0  501 -0.00000000000E+00 -0.00000000000E+00 -0.29601054066E+03  0.29601054066E+03  0.00000000000E+00 0.  1.
         23    2    1    2    0    0  0.20228875658E+02 -0.31011410375E+03  0.94435288665E+01  0.32380204019E+03  0.90435702230E+02 0.  0.
        254    2    1    2    0    0 -0.20228875658E+02  0.31011410375E+03  0.14681069277E+04  0.17457694977E+04  0.89207243157E+03 0.  0.
        -24    2    4    4    0    0 -0.19492888789E+03  0.56194653268E+03  0.11493920790E+04  0.12962398883E+04  0.73174585519E+02 0.  0.
         24    2    4    4    0    0  0.17470001223E+03 -0.25183242893E+03  0.31871484869E+03  0.44952960934E+03  0.80981777944E+02 0.  0.
         11    1    3    3    0    0  0.20392059830E+02 -0.22616861184E+02 -0.17368131077E+02  0.35057245913E+02  0.00000000000E+00 0. -1.
        -11    1    3    3    0    0 -0.16318417130E+00 -0.28749724257E+03  0.26811659944E+02  0.28874479428E+03  0.00000000000E+00 0.  1.
          4    1    6    6  502    0  0.16805380239E+03 -0.25482717719E+03  0.29418095329E+03  0.42393561305E+03  0.00000000000E+00 0. -1.
          3    1    5    5  503    0 -0.83106837380E+02  0.26217133626E+03  0.60919797981E+03  0.66840312281E+03  0.00000000000E+00 0. -1.
         -2    1    5    5    0  503 -0.11182205051E+03  0.29977519642E+03  0.54019409915E+03  0.62783676551E+03  0.00000000000E+00 0.  1.
         -3    1    6    6    0  502  0.66462098458E+01  0.29947482613E+01  0.24533895400E+02  0.25593996287E+02  0.00000000000E+00 0.  1.
<mgrwt>
<rscale>  0 0.14491277E+04</rscale>
<asrwt>0</asrwt>
<pdfrwt beam="1">  1        2 0.27285553E+00 0.14491277E+04</pdfrwt>
<pdfrwt beam="2">  1       -2 0.45540084E-01 0.14491277E+04</pdfrwt>
<totfact> 0.39579375E+01</totfact>
</mgrwt>
</event>
<event>
12    1  0.1489025E-007  0.1459478E+04  0.7818608E-02  0.8911856E-01
         -2   -1    0    0    0  501 -0.00000000000E+00  0.00000000000E+00  0.28322485719E+03  0.28322485719E+03  0.00000000000E+00 0. -1.
          2   -1    0    0  501    0  0.00000000000E+00 -0.00000000000E+00 -0.18801999657E+04  0.18801999657E+04  0.00000000000E+00 0.  1.
         23    2    1    2    0    0  0.31297552271E+03 -0.99974032583E+02 -0.95618994966E+03  0.10153428528E+04  0.93131111658E+02 0.  0.
        254    2    1    2    0    0 -0.31297552271E+03  0.99974032583E+02 -0.64078515881E+03  0.11480819700E+04  0.89416894663E+03 0.  0.
        -24    2    4    4    0    0 -0.41578509230E+03  0.46325080179E+02  0.63388197797E+02  0.43049484790E+03  0.79274803128E+02 0.  0.
         24    2    4    4    0    0  0.10280956960E+03  0.53648952404E+02 -0.70417335660E+03  0.71758712212E+03  0.74987625508E+02 0.  0.
         11    1    3    3    0    0  0.26333331027E+03 -0.46635793054E+02 -0.78452021438E+03  0.82884938093E+03  0.00000000000E+00 0.  1.
        -11    1    3    3    0    0  0.49642212434E+02 -0.53338239529E+02 -0.17166973528E+03  0.18649347191E+03  0.00000000000E+00 0. -1.
          2    1    6    6  502    0  0.65615342556E+02 -0.40647533111E+01 -0.42728383207E+03  0.43231165673E+03  0.00000000000E+00 0. -1.
          3    1    5    5  503    0 -0.32843088043E+03  0.62971349799E+02  0.68750519931E+02  0.34140718813E+03  0.00000000000E+00 0. -1.
         -4    1    5    5    0  503 -0.87354211872E+02 -0.16646269620E+02 -0.53623221341E+01  0.89087659767E+02  0.00000000000E+00 0.  1.
         -1    1    6    6    0  502  0.37194227043E+02  0.57713705715E+02 -0.27688952453E+03  0.28527546538E+03  0.00000000000E+00 0.  1.
<mgrwt>
<rscale>  0 0.14594785E+04</rscale>
<asrwt>0</asrwt>
<pdfrwt beam="1">  1        2 0.28926154E+00 0.14594785E+04</pdfrwt>
<pdfrwt beam="2">  1       -2 0.43573054E-01 0.14594785E+04</pdfrwt>
<totfact> 0.37701107E+01</totfact>
</mgrwt>
</event>
<event>
12    1  0.1489025E-007  0.2277677E+04  0.7818608E-02  0.8486775E-01
          2   -1    0    0  501    0  0.00000000000E+00  0.00000000000E+00  0.15845518103E+04  0.15845518103E+04  0.00000000000E+00 0.  1.
         -2   -1    0    0    0  501 -0.00000000000E+00 -0.00000000000E+00 -0.81849868583E+03  0.81849868583E+03  0.00000000000E+00 0. -1.
         23    2    1    2    0    0  0.78547523499E+03 -0.53516864601E+03  0.42671000648E+03  0.10461175024E+04  0.94358756005E+02 0.  0.
        254    2    1    2    0    0 -0.78547523499E+03  0.53516864601E+03  0.33934311800E+03  0.13569329937E+04  0.90704827500E+03 0.  0.
        -24    2    4    4    0    0 -0.42728064471E+03  0.76484375829E+03  0.20612558231E+03  0.90300509855E+03  0.73319358912E+02 0.  0.
         24    2    4    4    0    0 -0.35819459027E+03 -0.22967511228E+03  0.13321753569E+03  0.45392789513E+03  0.85144585658E+02 0.  0.
         13    1    3    3    0    0  0.48430638571E+03 -0.33642307901E+03  0.31405620042E+03  0.66810512673E+03  0.00000000000E+00 0.  1.
        -13    1    3    3    0    0  0.30116884927E+03 -0.19874556701E+03  0.11265380605E+03  0.37801237572E+03  0.00000000000E+00 0. -1.
          2    1    6    6  502    0 -0.16408627568E+03 -0.14701243792E+03  0.93080794347E+02  0.23916729928E+03  0.00000000000E+00 0. -1.
          3    1    5    5  503    0 -0.14660351662E+03  0.23917163839E+03  0.33046239932E+02  0.28246719751E+03  0.00000000000E+00 0. -1.
         -4    1    5    5    0  503 -0.28067712810E+03  0.52567211990E+03  0.17307934238E+03  0.62053790104E+03  0.00000000000E+00 0.  1.
         -1    1    6    6    0  502 -0.19410831459E+03 -0.82662674359E+02  0.40136741338E+02  0.21476059585E+03  0.00000000000E+00 0.  1.
<mgrwt>
<rscale>  0 0.22776774E+04</rscale>
<asrwt>0</asrwt>
<pdfrwt beam="1">  1        2 0.24377720E+00 0.22776774E+04</pdfrwt>
<pdfrwt beam="2">  1       -2 0.12592288E+00 0.22776774E+04</pdfrwt>
<totfact> 0.48643597E+00</totfact>
</mgrwt>
</event>
<event>
12    1  0.1489025E-007  0.2350487E+04  0.7818608E-02  0.8458276E-01
          1   -1    0    0  501    0  0.00000000000E+00  0.00000000000E+00  0.37941759773E+04  0.37941759773E+04  0.00000000000E+00 0. -1.
         -1   -1    0    0    0  501 -0.00000000000E+00 -0.00000000000E+00 -0.36403099656E+03  0.36403099656E+03  0.00000000000E+00 0.  1.
         23    2    1    2    0    0  0.82448108516E+03  0.11242000986E+03  0.48525573210E+03  0.96779939008E+03  0.93569308549E+02 0.  0.
        254    2    1    2    0    0 -0.82448108516E+03 -0.11242000986E+03  0.29448892486E+04  0.31904075838E+04  0.90217545161E+03 0.  0.
        -24    2    4    4    0    0 -0.29192016729E+03  0.37598355333E+03  0.92597979382E+03  0.10446066479E+04  0.84755257916E+02 0.  0.
         24    2    4    4    0    0 -0.53256091787E+03 -0.48840356319E+03  0.20189094548E+04  0.21458009359E+04  0.79417240289E+02 0.  0.
         11    1    3    3    0    0  0.64264176838E+03  0.79618149748E+02  0.42003240877E+03  0.77185148613E+03  0.00000000000E+00 0. -1.
        -11    1    3    3    0    0  0.18183931678E+03  0.32801860110E+02  0.65223323334E+02  0.19594790395E+03  0.00000000000E+00 0.  1.
          2    1    6    6  502    0 -0.29016252330E+03 -0.21928183199E+03  0.95355523436E+03  0.10205618045E+04  0.00000000000E+00 0. -1.
          1    1    5    5  503    0 -0.21376667984E+03  0.30004636373E+03  0.77815821093E+03  0.86096121576E+03  0.00000000000E+00 0. -1.
         -2    1    5    5    0  503 -0.78153487443E+02  0.75937189607E+02  0.14782158289E+03  0.18364543211E+03  0.00000000000E+00 0.  1.
         -1    1    6    6    0  502 -0.24239839458E+03 -0.26912173121E+03  0.10653542204E+04  0.11252391314E+04  0.00000000000E+00 0.  1.
<mgrwt>
<rscale>  0 0.23504873E+04</rscale>
<asrwt>0</asrwt>
<pdfrwt beam="1">  1        1 0.58371935E+00 0.23504873E+04</pdfrwt>
<pdfrwt beam="2">  1       -1 0.56004771E-01 0.23504873E+04</pdfrwt>
<totfact> 0.41961959E-01</totfact>
</mgrwt>
</event>
<event>
12    1  0.1489025E-007  0.2595276E+04  0.7818608E-02  0.8369808E-01
         -1   -1    0    0    0  501 -0.00000000000E+00  0.00000000000E+00  0.12372291984E+04  0.12372291984E+04  0.00000000000E+00 0.  1.
          1   -1    0    0  501    0  0.00000000000E+00 -0.00000000000E+00 -0.13609960821E+04  0.13609960821E+04  0.00000000000E+00 0. -1.
         23    2    1    2    0    0 -0.75125275750E+02 -0.23061953126E+03 -0.11674648976E+04  0.11953199263E+04  0.83583873374E+02 0.  0.
        254    2    1    2    0    0  0.75125275750E+02  0.23061953126E+03  0.10436980139E+04  0.14029053541E+04  0.90554332480E+03 0.  0.
        -24    2    4    4    0    0  0.41767178470E+03  0.11464814178E+03  0.20384188669E+03  0.48493264598E+03  0.77551532689E+02 0.  0.
         24    2    4    4    0    0 -0.34254650895E+03  0.11597138948E+03  0.83985612725E+03  0.91797270815E+03  0.80796685962E+02 0.  0.
         13    1    3    3    0    0  0.14454467587E+02 -0.19408167610E+02 -0.68111432128E+02  0.72282610562E+02  0.00000000000E+00 0.  1.
        -13    1    3    3    0    0 -0.89579743337E+02 -0.21121136365E+03 -0.10993534655E+04  0.11230373158E+04  0.00000000000E+00 0. -1.
          4    1    6    6  502    0 -0.16706379883E+03  0.37711641389E+02  0.30713362707E+03  0.35165827966E+03  0.00000000000E+00 0. -1.
          1    1    5    5  503    0  0.29267264099E+03  0.11033966206E+03  0.16686304057E+03  0.35450724974E+03  0.00000000000E+00 0. -1.
         -2    1    5    5    0  503  0.12499914370E+03  0.43084797161E+01  0.36978846123E+02  0.13042539624E+03  0.00000000000E+00 0.  1.
         -3    1    6    6    0  502 -0.17548271012E+03  0.78259748089E+02  0.53272250018E+03  0.56631442849E+03  0.00000000000E+00 0.  1.
<mgrwt>
<rscale>  0 0.25952758E+04</rscale>
<asrwt>0</asrwt>
<pdfrwt beam="1">  1        1 0.20938401E+00 0.25952758E+04</pdfrwt>
<pdfrwt beam="2">  1       -1 0.19034295E+00 0.25952758E+04</pdfrwt>
<totfact> 0.12673896E+00</totfact>
</mgrwt>
</event>
<event>
12    1  0.1489025E-007  0.1878369E+04  0.7818608E-02  0.8665699E-01
         -1   -1    0    0    0  501 -0.00000000000E+00  0.00000000000E+00  0.15771263321E+04  0.15771263321E+04  0.00000000000E+00 0.  1.
          1   -1    0    0  501    0  0.00000000000E+00 -0.00000000000E+00 -0.55928784108E+03  0.55928784108E+03  0.00000000000E+00 0. -1.
         23    2    1    2    0    0 -0.20706065420E+03 -0.17765268871E+03  0.11393809974E+04  0.11750542365E+04  0.90159908108E+02 0.  0.
        254    2    1    2    0    0  0.20706065420E+03  0.17765268871E+03 -0.12154250641E+03  0.96135993669E+03  0.91378649295E+03 0.  0.
        -24    2    4    4    0    0 -0.70672704001E+02 -0.24491705345E+03  0.21998210792E+03  0.34609263607E+03  0.80056172648E+02 0.  0.
         24    2    4    4    0    0  0.27773335820E+03  0.42256974216E+03 -0.34152461433E+03  0.61526730062E+03  0.78827557172E+02 0.  0.
         11    1    3    3    0    0 -0.13168901344E+02 -0.45364001113E+02  0.29068626118E+03  0.29449926145E+03  0.00000000000E+00 0. -1.
        -11    1    3    3    0    0 -0.19389175286E+03 -0.13228868760E+03  0.84869473626E+03  0.88055497503E+03  0.00000000000E+00 0.  1.
          4    1    6    6  502    0 -0.20977682929E+01  0.22761591343E+02 -0.81869029650E+01  0.24279951656E+02  0.00000000000E+00 0. -1.
          1    1    5    5  503    0  0.66387391297E+01 -0.82708367373E+02  0.10039683512E+03  0.13024696309E+03  0.00000000000E+00 0. -1.
         -2    1    5    5    0  503 -0.77311443130E+02 -0.16220868607E+03  0.11958527280E+03  0.21584567299E+03  0.00000000000E+00 0.  1.
         -3    1    6    6    0  502  0.27983112650E+03  0.39980815082E+03 -0.33333771137E+03  0.59098734896E+03  0.00000000000E+00 0.  1.
<mgrwt>
<rscale>  0 0.18783691E+04</rscale>
<asrwt>0</asrwt>
<pdfrwt beam="1">  1        1 0.86044284E-01 0.18783691E+04</pdfrwt>
<pdfrwt beam="2">  1       -1 0.24263482E+00 0.18783691E+04</pdfrwt>
<totfact> 0.27661643E+00</totfact>
</mgrwt>
</event>
<event>
12    1  0.1489025E-007  0.1367462E+04  0.7818608E-02  0.8977714E-01
          2   -1    0    0  501    0  0.00000000000E+00  0.00000000000E+00  0.21374492413E+04  0.21374492413E+04  0.00000000000E+00 0. -1.
         -2   -1    0    0    0  501 -0.00000000000E+00 -0.00000000000E+00 -0.21871295877E+03  0.21871295877E+03  0.00000000000E+00 0.  1.
         23    2    1    2    0    0 -0.32466210772E+03 -0.78747212699E+02  0.85002997130E+03  0.91758312559E+03  0.88324586366E+02 0.  0.
        254    2    1    2    0    0  0.32466210772E+03  0.78747212699E+02  0.10687063112E+04  0.14385790745E+04  0.90319984843E+03 0.  0.
        -24    2    4    4    0    0  0.38224358671E+02  0.10251944983E+03  0.11263335944E+04  0.11345174342E+04  0.80815243177E+02 0.  0.
         24    2    4    4    0    0  0.28643774905E+03 -0.23772237129E+02 -0.57627283114E+02  0.30406164031E+03  0.80751928817E+02 0.  0.
         11    1    3    3    0    0 -0.22825152848E+03 -0.50951169708E+02  0.47630832912E+03  0.53062642823E+03  0.00000000000E+00 0. -1.
        -11    1    3    3    0    0 -0.96410579241E+02 -0.27796042992E+02  0.37372164218E+03  0.38695669735E+03  0.00000000000E+00 0.  1.
          4    1    6    6  502    0  0.22743348540E+03  0.19399523242E+01 -0.71114968464E+02  0.23830042475E+03  0.00000000000E+00 0. -1.
          3    1    5    5  503    0  0.52641894149E+02  0.10133732093E+03  0.10789123763E+04  0.10849388634E+04  0.00000000000E+00 0. -1.
         -4    1    5    5    0  503 -0.14417535478E+02  0.11821289001E+01  0.47421218075E+02  0.49578570792E+02  0.00000000000E+00 0.  1.
         -3    1    6    6    0  502  0.59004263647E+02 -0.25712189453E+02  0.13487685350E+02  0.65761215554E+02  0.00000000000E+00 0.  1.
<mgrwt>
<rscale>  0 0.13674617E+04</rscale>
<asrwt>0</asrwt>
<pdfrwt beam="1">  1        2 0.32883833E+00 0.13674617E+04</pdfrwt>
<pdfrwt beam="2">  1       -2 0.33648149E-01 0.13674617E+04</pdfrwt>
<totfact> 0.45174311E+01</totfact>
</mgrwt>
</event>
<event>
12    1  0.1489025E-007  0.1960022E+04  0.7818608E-02  0.8625543E-01
          2   -1    0    0  501    0  0.00000000000E+00  0.00000000000E+00  0.16279128597E+04  0.16279128597E+04  0.00000000000E+00 0. -1.
         -2   -1    0    0    0  501 -0.00000000000E+00 -0.00000000000E+00 -0.58997120884E+03  0.58997120884E+03  0.00000000000E+00 0.  1.
         23    2    1    2    0    0  0.17055090526E+03 -0.13850521539E+03 -0.41844782025E+03  0.48145089979E+03  0.91788259899E+02 0.  0.
        254    2    1    2    0    0 -0.17055090526E+03  0.13850521539E+03  0.14563894711E+04  0.17364331688E+04  0.91970568772E+03 0.  0.
        -24    2    4    4    0    0 -0.26586033925E+03 -0.27104087202E+03  0.26255768513E+03  0.46828439165E+03  0.78796314349E+02 0.  0.
         24    2    4    4    0    0  0.95309433990E+02  0.40954608740E+03  0.11938317860E+04  0.12681487771E+04  0.78454456357E+02 0.  0.
         13    1    3    3    0    0  0.17428770282E+03 -0.14735966592E+03 -0.39661644543E+03  0.45759772648E+03  0.00000000000E+00 0.  1.
        -13    1    3    3    0    0 -0.37367975594E+01  0.88544505282E+01 -0.21831374819E+02  0.23853173304E+02  0.00000000000E+00 0. -1.
          4    1    6    6  502    0 -0.12068762259E+02  0.20295262554E+02  0.78460371806E+02  0.81936454942E+02  0.00000000000E+00 0. -1.
          3    1    5    5  503    0 -0.83608171950E+02 -0.78938721568E+02  0.38041096699E+02  0.12111471099E+03  0.00000000000E+00 0. -1.
         -4    1    5    5    0  503 -0.18225216730E+03 -0.19210215045E+03  0.22451658843E+03  0.34716968066E+03  0.00000000000E+00 0.  1.
         -3    1    6    6    0  502  0.10737819625E+03  0.38925082485E+03  0.11153714142E+04  0.11862123222E+04  0.00000000000E+00 0.  1.
<mgrwt>
<rscale>  0 0.19600222E+04</rscale>
<asrwt>0</asrwt>
<pdfrwt beam="1">  1        2 0.25044813E+00 0.19600222E+04</pdfrwt>
<pdfrwt beam="2">  1       -2 0.90764802E-01 0.19600222E+04</pdfrwt>
<totfact> 0.10391744E+01</totfact>
</mgrwt>
</event>
<event>
12    1  0.1489025E-007  0.1750530E+04  0.7818608E-02  0.8733059E-01
         -2   -1    0    0    0  501 -0.00000000000E+00  0.00000000000E+00  0.73571784665E+03  0.73571784665E+03  0.00000000000E+00 0.  1.
          2   -1    0    0  501    0  0.00000000000E+00 -0.00000000000E+00 -0.10412809186E+04  0.10412809186E+04  0.00000000000E+00 0. -1.
         23    2    1    2    0    0 -0.37457078168E+03  0.51057043193E+03 -0.41813055211E+02  0.64127205572E+03  0.92174190600E+02 0.  0.
        254    2    1    2    0    0  0.37457078168E+03 -0.51057043193E+03 -0.26375001671E+03  0.11357267095E+04  0.90516609024E+03 0.  0.
        -24    2    4    4    0    0  0.33273127190E+03  0.19301116216E+03 -0.13581335837E+03  0.41583059947E+03  0.80662327765E+02 0.  0.
         24    2    4    4    0    0  0.41839509775E+02 -0.70358159409E+03 -0.12793665834E+03  0.71989611004E+03  0.71449398683E+02 0.  0.
         11    1    3    3    0    0 -0.11988974193E+03  0.21533074253E+03  0.16585799193E+02  0.24701410412E+03  0.00000000000E+00 0. -1.
        -11    1    3    3    0    0 -0.25468103975E+03  0.29523968940E+03 -0.58398854404E+02  0.39425795160E+03  0.00000000000E+00 0.  1.
          4    1    6    6  502    0  0.44153967218E+02 -0.69547021354E+03 -0.11787984142E+03  0.70677015200E+03  0.00000000000E+00 0. -1.
          3    1    5    5  503    0  0.23567380874E+03  0.15635850009E+03 -0.13174145558E+03  0.31200310222E+03  0.00000000000E+00 0. -1.
         -4    1    5    5    0  503  0.97057463164E+02  0.36652662071E+02 -0.40719027944E+01  0.10382749725E+03  0.00000000000E+00 0.  1.
         -1    1    6    6    0  502 -0.23144574428E+01 -0.81113805510E+01 -0.10056816925E+02  0.13125958036E+02  0.00000000000E+00 0.  1.
<mgrwt>
<rscale>  0 0.17505302E+04</rscale>
<asrwt>0</asrwt>
<pdfrwt beam="1">  1        2 0.16019706E+00 0.17505302E+04</pdfrwt>
<pdfrwt beam="2">  1       -2 0.11318736E+00 0.17505302E+04</pdfrwt>
<totfact> 0.13774210E+01</totfact>
</mgrwt>
</event>
<event>
12    1  0.1489025E-007  0.1621715E+04  0.7818608E-02  0.8807318E-01
         -2   -1    0    0    0  501 -0.00000000000E+00  0.00000000000E+00  0.90410537043E+03  0.90410537043E+03  0.00000000000E+00 0. -1.
          2   -1    0    0  501    0  0.00000000000E+00 -0.00000000000E+00 -0.72722707693E+03  0.72722707693E+03  0.00000000000E+00 0.  1.
         23    2    1    2    0    0  0.16735902997E+03 -0.27365581569E+03  0.51659993119E+03  0.61497612834E+03  0.91780167526E+02 0.  0.
        254    2    1    2    0    0 -0.16735902997E+03  0.27365581569E+03 -0.33972163770E+03  0.10163563190E+04  0.90259228100E+03 0.  0.
        -24    2    4    4    0    0  0.26162825413E+03 -0.17042158577E+03 -0.37678975788E+02  0.32441706683E+03  0.79585600328E+02 0.  0.
         24    2    4    4    0    0 -0.42898728410E+03  0.44407740146E+03 -0.30204266191E+03  0.69193925218E+03  0.79469054919E+02 0.  0.
         11    1    3    3    0    0  0.48657687702E+02 -0.10865364299E+03  0.27220782472E+03  0.29710315472E+03  0.00000000000E+00 0.  1.
        -11    1    3    3    0    0  0.11870134227E+03 -0.16500217270E+03  0.24439210647E+03  0.31787297362E+03  0.00000000000E+00 0. -1.
          2    1    6    6  502    0 -0.17370521375E+02  0.28458646959E+01 -0.10919500782E+01  0.17635938129E+02  0.00000000000E+00 0. -1.
          1    1    5    5  503    0  0.12411052372E+03 -0.65996238845E+02  0.20829497410E+02  0.14210134975E+03  0.00000000000E+00 0. -1.
         -2    1    5    5    0  503  0.13751773042E+03 -0.10442534693E+03 -0.58508473197E+02  0.18231571708E+03  0.00000000000E+00 0.  1.
         -1    1    6    6    0  502 -0.41161676273E+03  0.44123153676E+03 -0.30095071183E+03  0.67430331405E+03  0.00000000000E+00 0.  1.
<mgrwt>
<rscale>  0 0.16217150E+04</rscale>
<asrwt>0</asrwt>
<pdfrwt beam="1">  1        2 0.11188109E+00 0.16217150E+04</pdfrwt>
<pdfrwt beam="2">  1       -2 0.13909313E+00 0.16217150E+04</pdfrwt>
<totfact> 0.13641292E+01</totfact>
</mgrwt>
</event>
<event>
12    1  0.1489025E-007  0.2783408E+04  0.7818608E-02  0.8308438E-01
         -1   -1    0    0    0  501 -0.00000000000E+00  0.00000000000E+00  0.93108909857E+03  0.93108909857E+03  0.00000000000E+00 0.  1.
          1   -1    0    0  501    0  0.00000000000E+00 -0.00000000000E+00 -0.20801871154E+04  0.20801871154E+04  0.00000000000E+00 0. -1.
         23    2    1    2    0    0 -0.11373498449E+04 -0.48701997358E+03 -0.54139680402E+03  0.13534682590E+04  0.89513709888E+02 0.  0.
        254    2    1    2    0    0  0.11373498449E+04  0.48701997358E+03 -0.60770121280E+03  0.16578079550E+04  0.92101754994E+03 0.  0.
        -24    2    4    4    0    0  0.33576173933E+03  0.50973988612E+03  0.50130090429E+02  0.61752566166E+03  0.79083624957E+02 0.  0.
         24    2    4    4    0    0  0.80158810556E+03 -0.22719912540E+02 -0.65783130323E+03  0.10402822933E+04  0.79909579838E+02 0.  0.
         13    1    3    3    0    0 -0.16302997155E+01 -0.63348803241E+01  0.16534753534E+00  0.65433879367E+01  0.00000000000E+00 0. -1.
        -13    1    3    3    0    0 -0.11357195452E+04 -0.48068509326E+03 -0.54156215155E+03  0.13469248710E+04  0.00000000000E+00 0.  1.
          2    1    6    6  502    0  0.22913924002E+03 -0.13447362542E+02 -0.14379119111E+03  0.27085333581E+03  0.00000000000E+00 0. -1.
          3    1    5    5  503    0  0.21888789061E+03  0.35107807536E+03 -0.18343837821E+01  0.41372827873E+03  0.00000000000E+00 0. -1.
         -4    1    5    5    0  503  0.11687384872E+03  0.15866181076E+03  0.51964474211E+02  0.20379738293E+03  0.00000000000E+00 0.  1.
         -1    1    6    6    0  502  0.57244886553E+03 -0.92725499981E+01 -0.51404011211E+03  0.76942895754E+03  0.00000000000E+00 0.  1.
<mgrwt>
<rscale>  0 0.27834077E+04</rscale>
<asrwt>0</asrwt>
<pdfrwt beam="1">  1        1 0.32002878E+00 0.27834077E+04</pdfrwt>
<pdfrwt beam="2">  1       -1 0.14324448E+00 0.27834077E+04</pdfrwt>
<totfact> 0.89921781E-01</totfact>
</mgrwt>
</event>
<event>
12    1  0.1489025E-007  0.1403588E+04  0.7818608E-02  0.8951225E-01
         -1   -1    0    0    0  501 -0.00000000000E+00  0.00000000000E+00  0.94224705846E+03  0.94224705846E+03  0.00000000000E+00 0.  1.
          1   -1    0    0  501    0  0.00000000000E+00 -0.00000000000E+00 -0.52270260120E+03  0.52270260120E+03  0.00000000000E+00 0. -1.
         23    2    1    2    0    0  0.29111135190E+03 -0.25988122601E+03 -0.39289317120E+02  0.40308668701E+03  0.93011590498E+02 0.  0.
        254    2    1    2    0    0 -0.29111135190E+03  0.25988122601E+03  0.45883377438E+03  0.10618629727E+04  0.87449440784E+03 0.  0.
        -24    2    4    4    0    0 -0.49466445623E+03  0.13008939546E+02  0.52477032011E+03  0.72559989875E+03  0.79051675713E+02 0.  0.
         24    2    4    4    0    0  0.20355310433E+03  0.24687228647E+03 -0.65936545721E+02  0.33626307390E+03  0.79658236872E+02 0.  0.
         11    1    3    3    0    0  0.27471725087E+03 -0.25152327954E+03 -0.57867249914E+02  0.37693785520E+03  0.00000000000E+00 0. -1.
        -11    1    3    3    0    0  0.16394101034E+02 -0.83579464760E+01  0.18577932795E+02  0.26148831808E+02  0.00000000000E+00 0.  1.
          2    1    6    6  502    0  0.13134393507E+03  0.10646737367E+03 -0.55830061572E+02  0.17805484186E+03  0.00000000000E+00 0. -1.
          3    1    5    5  503    0 -0.33713722562E+03 -0.19677462109E+02  0.38848604333E+03  0.51475248156E+03  0.00000000000E+00 0. -1.
         -4    1    5    5    0  503 -0.15752723061E+03  0.32686401655E+02  0.13628427678E+03  0.21084741719E+03  0.00000000000E+00 0.  1.
         -1    1    6    6    0  502  0.72209169258E+02  0.14040491280E+03 -0.10106484149E+02  0.15820823204E+03  0.00000000000E+00 0.  1.
<mgrwt>
<rscale>  0 0.14035882E+04</rscale>
<asrwt>0</asrwt>
<pdfrwt beam="1">  1        1 0.80415785E-01 0.14035882E+04</pdfrwt>
<pdfrwt beam="2">  1       -1 0.14496109E+00 0.14035882E+04</pdfrwt>
<totfact> 0.15532434E+01</totfact>
</mgrwt>
</event>
<event>
12    1  0.1489025E-007  0.1300983E+04  0.7818608E-02  0.9028786E-01
          1   -1    0    0  501    0  0.00000000000E+00  0.00000000000E+00  0.16786462186E+04  0.16786462186E+04  0.00000000000E+00 0. -1.
         -1   -1    0    0    0  501 -0.00000000000E+00 -0.00000000000E+00 -0.25207150147E+03  0.25207150147E+03  0.00000000000E+00 0.  1.
         23    2    1    2    0    0  0.25232984038E+03  0.51805828591E+02  0.32508469444E+02  0.27510445303E+03  0.90947607282E+02 0.  0.
        254    2    1    2    0    0 -0.25232984038E+03 -0.51805828591E+02  0.13940662477E+04  0.16556132671E+04  0.85514934067E+03 0.  0.
        -24    2    4    4    0    0 -0.45105016190E+03 -0.19201264527E+03  0.12839797877E+04  0.13767812131E+04  0.81285355228E+02 0.  0.
         24    2    4    4    0    0  0.19872032152E+03  0.14020681668E+03  0.11008646004E+03  0.27883205401E+03  0.80501975318E+02 0.  0.
         11    1    3    3    0    0  0.35681175156E+01  0.19988511910E+02  0.11748468244E+02  0.23458443620E+02  0.00000000000E+00 0. -1.
        -11    1    3    3    0    0  0.24876172286E+03  0.31817316681E+02  0.20760001200E+02  0.25164600941E+03  0.00000000000E+00 0.  1.
          4    1    6    6  502    0  0.89141532621E+02  0.10741589847E+03  0.42212278836E+02  0.14582957370E+03  0.00000000000E+00 0. -1.
          3    1    5    5  503    0 -0.41660345934E+03 -0.18302267718E+03  0.12355262477E+04  0.13166551756E+04  0.00000000000E+00 0. -1.
         -4    1    5    5    0  503 -0.34446702556E+02 -0.89899680912E+01  0.48453539979E+02  0.60126037453E+02  0.00000000000E+00 0.  1.
         -3    1    6    6    0  502  0.10957878890E+03  0.32790918214E+02  0.67874181206E+02  0.13300248031E+03  0.00000000000E+00 0.  1.
<mgrwt>
<rscale>  0 0.13009825E+04</rscale>
<asrwt>0</asrwt>
<pdfrwt beam="1">  1        1 0.25825326E+00 0.13009825E+04</pdfrwt>
<pdfrwt beam="2">  1       -1 0.38780232E-01 0.13009825E+04</pdfrwt>
<totfact> 0.31216984E+01</totfact>
</mgrwt>
</event>
<event>
12    1  0.1489025E-007  0.2669426E+04  0.7818608E-02  0.8344994E-01
         -2   -1    0    0    0  501 -0.00000000000E+00  0.00000000000E+00  0.64397839584E+03  0.64397839584E+03  0.00000000000E+00 0.  1.
          2   -1    0    0  501    0  0.00000000000E+00 -0.00000000000E+00 -0.27663327910E+04  0.27663327910E+04  0.00000000000E+00 0. -1.
         23    2    1    2    0    0 -0.35321336510E+03  0.75257388789E+03  0.12708358469E+03  0.84589831291E+03  0.90920736192E+02 0.  0.
        254    2    1    2    0    0  0.35321336510E+03 -0.75257388789E+03 -0.22494379799E+04  0.25644128740E+04  0.90835842308E+03 0.  0.
        -24    2    4    4    0    0  0.18799557180E+03  0.17847128528E+03 -0.65672938232E+03  0.71046398898E+03  0.79191308547E+02 0.  0.
         24    2    4    4    0    0  0.16521779330E+03 -0.93104517317E+03 -0.15927085976E+04  0.18539488850E+04  0.79143904823E+02 0.  0.
         11    1    3    3    0    0 -0.35640882750E+03  0.72564987947E+03  0.11654618539E+03  0.81680965545E+03  0.00000000000E+00 0.  1.
        -11    1    3    3    0    0  0.31954624015E+01  0.26924008416E+02  0.10537399297E+02  0.29088657464E+02  0.00000000000E+00 0. -1.
          2    1    6    6  502    0  0.36355798908E+02 -0.41251544387E+03 -0.66626920142E+03  0.78447777808E+03  0.00000000000E+00 0. -1.
          3    1    5    5  503    0  0.14341899919E+03  0.13562765069E+03 -0.57530128513E+03  0.60822318077E+03  0.00000000000E+00 0. -1.
         -4    1    5    5    0  503  0.44576572616E+02  0.42843634585E+02 -0.81428097195E+02  0.10224080821E+03  0.00000000000E+00 0.  1.
         -1    1    6    6    0  502  0.12886199439E+03 -0.51852972930E+03 -0.92643939616E+03  0.10694711069E+04  0.00000000000E+00 0.  1.
<mgrwt>
<rscale>  0 0.26694258E+04</rscale>
<asrwt>0</asrwt>
<pdfrwt beam="1">  1        2 0.42558966E+00 0.26694258E+04</pdfrwt>
<pdfrwt beam="2">  1       -2 0.99073600E-01 0.26694258E+04</pdfrwt>
<totfact> 0.17991340E+00</totfact>
</mgrwt>
</event>
<event>
12    1  0.1489025E-007  0.1604256E+04  0.7818608E-02  0.8817938E-01
         -1   -1    0    0    0  501 -0.00000000000E+00  0.00000000000E+00  0.31980957817E+03  0.31980957817E+03  0.00000000000E+00 0.  1.
          1   -1    0    0  501    0  0.00000000000E+00 -0.00000000000E+00 -0.20118514107E+04  0.20118514107E+04  0.00000000000E+00 0. -1.
         23    2    1    2    0    0 -0.65712156260E+02  0.51490281980E+03 -0.33888584347E+03  0.62610285362E+03  0.87853099448E+02 0.  0.
        254    2    1    2    0    0  0.65712156260E+02 -0.51490281980E+03 -0.13531559891E+04  0.17055581353E+04  0.89914093483E+03 0.  0.
        -24    2    4    4    0    0  0.23565890319E+03  0.18514416678E+03 -0.34230039991E+03  0.46172937839E+03  0.78809732551E+02 0.  0.
         24    2    4    4    0    0 -0.16994674693E+03 -0.70004698659E+03 -0.10108555892E+04  0.12438287569E+04  0.79581870175E+02 0.  0.
         13    1    3    3    0    0  0.10307000100E+02  0.73484007113E+01 -0.13095164817E+02  0.18213088307E+02  0.00000000000E+00 0. -1.
        -13    1    3    3    0    0 -0.76019156360E+02  0.50755441909E+03 -0.32579067866E+03  0.60788976532E+03  0.00000000000E+00 0.  1.
          4    1    6    6  502    0 -0.11883508220E+03 -0.50761718039E+03 -0.78953409818E+03  0.94612952114E+03  0.00000000000E+00 0. -1.
          3    1    5    5  503    0  0.16128807226E+03  0.16719407503E+03 -0.24039786927E+03  0.33430350959E+03  0.00000000000E+00 0. -1.
         -4    1    5    5    0  503  0.74370830930E+02  0.17950091750E+02 -0.10190253064E+03  0.12742586879E+03  0.00000000000E+00 0.  1.
         -3    1    6    6    0  502 -0.51111664724E+02 -0.19242980620E+03 -0.22132149100E+03  0.29769923574E+03  0.00000000000E+00 0.  1.
<mgrwt>
<rscale>  0 0.16042560E+04</rscale>
<asrwt>0</asrwt>
<pdfrwt beam="1">  1        1 0.30951561E+00 0.16042560E+04</pdfrwt>
<pdfrwt beam="2">  1       -1 0.49201473E-01 0.16042560E+04</pdfrwt>
<totfact> 0.11618447E+01</totfact>
</mgrwt>
</event>
<event>
12    1  0.1489025E-007  0.2259480E+04  0.7818608E-02  0.8494071E-01
         -2   -1    0    0    0  501 -0.00000000000E+00  0.00000000000E+00  0.89912965955E+03  0.89912965955E+03  0.00000000000E+00 0.  1.
          2   -1    0    0  501    0  0.00000000000E+00 -0.00000000000E+00 -0.14194973104E+04  0.14194973104E+04  0.00000000000E+00 0. -1.
         23    2    1    2    0    0 -0.55703779135E+03  0.75719038887E+03 -0.31081261501E+03  0.99429351903E+03  0.91579115149E+02 0.  0.
        254    2    1    2    0    0  0.55703779135E+03 -0.75719038887E+03 -0.20955503580E+03  0.13243334509E+04  0.90902001634E+03 0.  0.
        -24    2    4    4    0    0  0.26669058587E+03 -0.89322124939E+03 -0.29833604032E+03  0.98199378779E+03  0.79619955737E+02 0.  0.
         24    2    4    4    0    0  0.29034720548E+03  0.13603086052E+03  0.88781004520E+02  0.34233966309E+03  0.80675172248E+02 0.  0.
         13    1    3    3    0    0 -0.34376995396E+03  0.45221316449E+03 -0.23370289456E+03  0.61424064527E+03  0.00000000000E+00 0.  1.
        -13    1    3    3    0    0 -0.21326783739E+03  0.30497722438E+03 -0.77109720457E+02  0.38005287375E+03  0.00000000000E+00 0. -1.
          2    1    6    6  502    0  0.10797699915E+03  0.61732549834E+02 -0.44567179107E+01  0.12445803465E+03  0.00000000000E+00 0. -1.
          3    1    5    5  503    0  0.24789365692E+02 -0.73103390055E+02 -0.48611847022E+02  0.91223516485E+02  0.00000000000E+00 0. -1.
         -4    1    5    5    0  503  0.24190122017E+03 -0.82011785934E+03 -0.24972419330E+03  0.89077027131E+03  0.00000000000E+00 0.  1.
         -1    1    6    6    0  502  0.18237020634E+03  0.74298310685E+02  0.93237722431E+02  0.21788162845E+03  0.00000000000E+00 0.  1.
<mgrwt>
<rscale>  0 0.22594797E+04</rscale>
<asrwt>0</asrwt>
<pdfrwt beam="1">  1        2 0.21838420E+00 0.22594797E+04</pdfrwt>
<pdfrwt beam="2">  1       -2 0.13832764E+00 0.22594797E+04</pdfrwt>
<totfact> 0.47545050E+00</totfact>
</mgrwt>
</event>
<event>
12    1  0.1489025E-007  0.1385571E+04  0.7818608E-02  0.8964330E-01
         -1   -1    0    0    0  501 -0.00000000000E+00  0.00000000000E+00  0.38167609062E+03  0.38167609062E+03  0.00000000000E+00 0.  1.
          1   -1    0    0  501    0  0.00000000000E+00 -0.00000000000E+00 -0.12574837865E+04  0.12574837865E+04  0.00000000000E+00 0. -1.
         23    2    1    2    0    0  0.29721188932E+03 -0.22575742081E+03 -0.92856392735E+02  0.39523628116E+03  0.91038937114E+02 0.  0.
        254    2    1    2    0    0 -0.29721188932E+03  0.22575742081E+03 -0.78295130314E+03  0.12439235960E+04  0.89164558502E+03 0.  0.
        -24    2    4    4    0    0  0.28323124371E+03 -0.44973280114E+01 -0.93383877688E+02  0.31019863854E+03  0.85220205163E+02 0.  0.
         24    2    4    4    0    0 -0.58044313304E+03  0.23025474882E+03 -0.68956742545E+03  0.93372495741E+03  0.80047372252E+02 0.  0.
         13    1    3    3    0    0  0.15546311365E+03 -0.12535497404E+03 -0.31406842776E+01  0.19973110203E+03  0.00000000000E+00 0.  1.
        -13    1    3    3    0    0  0.14174877567E+03 -0.10040244676E+03 -0.89715708457E+02  0.19550517913E+03  0.00000000000E+00 0. -1.
          2    1    6    6  502    0 -0.44086359002E+03  0.20409767914E+03 -0.56152995816E+03  0.74251765067E+03  0.00000000000E+00 0. -1.
          3    1    5    5  503    0  0.34309773805E+02 -0.30010664071E+02 -0.14419600990E+02  0.47809260915E+02  0.00000000000E+00 0. -1.
         -4    1    5    5    0  503  0.24892146991E+03  0.25513336060E+02 -0.78964276698E+02  0.26238937763E+03  0.00000000000E+00 0.  1.
         -1    1    6    6    0  502 -0.13957954301E+03  0.26157069673E+02 -0.12803746729E+03  0.19120730674E+03  0.00000000000E+00 0.  1.
<mgrwt>
<rscale>  0 0.13855706E+04</rscale>
<asrwt>0</asrwt>
<pdfrwt beam="1">  1        1 0.19345904E+00 0.13855706E+04</pdfrwt>
<pdfrwt beam="2">  1       -1 0.58719399E-01 0.13855706E+04</pdfrwt>
<totfact> 0.27844441E+01</totfact>
</mgrwt>
</event>
<event>
12    1  0.1489025E-007  0.1831523E+04  0.7818608E-02  0.8689713E-01
          2   -1    0    0  501    0  0.00000000000E+00  0.00000000000E+00  0.10190539322E+04  0.10190539322E+04  0.00000000000E+00 0. -1.
         -2   -1    0    0    0  501 -0.00000000000E+00 -0.00000000000E+00 -0.82293876482E+03  0.82293876482E+03  0.00000000000E+00 0.  1.
         23    2    1    2    0    0 -0.31225748174E+03 -0.61405083589E+03  0.14962882748E+03  0.71058279278E+03  0.89308204736E+02 0.  0.
        254    2    1    2    0    0  0.31225748174E+03  0.61405083589E+03  0.46486339895E+02  0.11314099042E+04  0.89630587839E+03 0.  0.
        -24    2    4    4    0    0 -0.11849587550E+03  0.43603403686E+03  0.34262425767E+03  0.57331902818E+03  0.84477052010E+02 0.  0.
         24    2    4    4    0    0  0.43075335724E+03  0.17801679903E+03 -0.29613791778E+03  0.55809087605E+03  0.80804233028E+02 0.  0.
         13    1    3    3    0    0 -0.78583503346E+02 -0.21413850247E+03  0.16724602604E+02  0.22871462037E+03  0.00000000000E+00 0.  1.
        -13    1    3    3    0    0 -0.23367397839E+03 -0.39991233341E+03  0.13290422488E+03  0.48186817241E+03  0.00000000000E+00 0. -1.
          4    1    6    6  502    0  0.19217096585E+03  0.12079470127E+03 -0.12705812772E+03  0.26012460051E+03  0.00000000000E+00 0. -1.
          1    1    5    5  503    0 -0.10219153770E+02  0.14461815296E+03  0.75614673698E+02  0.16351275225E+03  0.00000000000E+00 0. -1.
         -2    1    5    5    0  503 -0.10827672173E+03  0.29141588389E+03  0.26700958398E+03  0.40980627593E+03  0.00000000000E+00 0.  1.
         -3    1    6    6    0  502  0.23858239139E+03  0.57222097757E+02 -0.16907979006E+03  0.29796627554E+03  0.00000000000E+00 0.  1.
<mgrwt>
<rscale>  0 0.18315228E+04</rscale>
<asrwt>0</asrwt>
<pdfrwt beam="1">  1        2 0.15677753E+00 0.18315228E+04</pdfrwt>
<pdfrwt beam="2">  1       -2 0.12660596E+00 0.18315228E+04</pdfrwt>
<totfact> 0.10708861E+01</totfact>
</mgrwt>
</event>
<event>
12    1  0.1489025E-007  0.1722783E+04  0.7818608E-02  0.8748476E-01
          2   -1    0    0  501    0  0.00000000000E+00  0.00000000000E+00  0.14100238618E+04  0.14100238618E+04  0.00000000000E+00 0.  1.
         -2   -1    0    0    0  501 -0.00000000000E+00 -0.00000000000E+00 -0.52622884976E+03  0.52622884976E+03  0.00000000000E+00 0. -1.
         23    2    1    2    0    0 -0.42428165958E+03  0.38074624289E+03  0.83476397131E+02  0.58356158921E+03  0.92699468105E+02 0.  0.
        254    2    1    2    0    0  0.42428165958E+03 -0.38074624289E+03  0.80031861496E+03  0.13526911224E+04  0.92966701514E+03 0.  0.
        -24    2    4    4    0    0 -0.27052771200E+02  0.11248097161E+03 -0.13864041703E+03  0.19716777046E+03  0.79184234980E+02 0.  0.
         24    2    4    4    0    0  0.45133443078E+03 -0.49322721450E+03  0.93895903199E+03  0.11555233519E+04  0.81328344293E+02 0.  0.
         11    1    3    3    0    0 -0.14593339580E+03  0.18420637635E+03  0.11430098510E+02  0.23528534219E+03  0.00000000000E+00 0.  1.
        -11    1    3    3    0    0 -0.27834826379E+03  0.19653986654E+03  0.72046298620E+02  0.34827624702E+03  0.00000000000E+00 0. -1.
          4    1    6    6  502    0  0.14203156376E+03 -0.10676737078E+03  0.22355593863E+03  0.28556872074E+03  0.00000000000E+00 0. -1.
          1    1    5    5  503    0  0.17685613722E+02  0.35609982022E+02 -0.83598582701E+02  0.92571997829E+02  0.00000000000E+00 0. -1.
         -2    1    5    5    0  503 -0.44738384922E+02  0.76870989591E+02 -0.55041834328E+02  0.10459577263E+03  0.00000000000E+00 0.  1.
         -3    1    6    6    0  502  0.30930286702E+03 -0.38645984372E+03  0.71540309336E+03  0.86995463120E+03  0.00000000000E+00 0.  1.
<mgrwt>
<rscale>  0 0.17227829E+04</rscale>
<asrwt>0</asrwt>
<pdfrwt beam="1">  1        2 0.21692675E+00 0.17227829E+04</pdfrwt>
<pdfrwt beam="2">  1       -2 0.80958285E-01 0.17227829E+04</pdfrwt>
<totfact> 0.18254205E+01</totfact>
</mgrwt>
</event>
<event>
12    1  0.1489025E-007  0.1594469E+04  0.7818608E-02  0.8823953E-01
         -1   -1    0    0    0  501 -0.00000000000E+00  0.00000000000E+00  0.37780107823E+03  0.37780107823E+03  0.00000000000E+00 0.  1.
          1   -1    0    0  501    0  0.00000000000E+00 -0.00000000000E+00 -0.16823212297E+04  0.16823212297E+04  0.00000000000E+00 0. -1.
         23    2    1    2    0    0 -0.27362844130E+03  0.27914062440E+03 -0.92083241834E+03  0.10043608378E+04  0.89534003855E+02 0.  0.
        254    2    1    2    0    0  0.27362844130E+03 -0.27914062440E+03 -0.38368773308E+03  0.10557614700E+04  0.90256522923E+03 0.  0.
        -24    2    4    4    0    0 -0.20923727864E+03  0.19339130748E+03 -0.57406969165E+02  0.30103918635E+03  0.78412977433E+02 0.  0.
         24    2    4    4    0    0  0.48286571994E+03 -0.47253193188E+03 -0.32628076391E+03  0.75472228369E+03  0.81858771407E+02 0.  0.
         11    1    3    3    0    0  0.46322688629E+01  0.16398901947E+02 -0.58265872155E+02  0.60706620379E+02  0.00000000000E+00 0.  1.
        -11    1    3    3    0    0 -0.27826071016E+03  0.26274172246E+03 -0.86256654619E+03  0.94365421747E+03  0.00000000000E+00 0. -1.
          2    1    6    6  502    0  0.15521055225E+03 -0.19935921553E+03 -0.14407533466E+03  0.29084723551E+03  0.00000000000E+00 0. -1.
          1    1    5    5  503    0 -0.68633792461E+02  0.22679774873E+02  0.10215140649E+01  0.72291169217E+02  0.00000000000E+00 0. -1.
         -2    1    5    5    0  503 -0.14060348618E+03  0.17071153261E+03 -0.58428483230E+02  0.22874801713E+03  0.00000000000E+00 0.  1.
         -1    1    6    6    0  502  0.32765516769E+03 -0.27317271635E+03 -0.18220542925E+03  0.46387504818E+03  0.00000000000E+00 0.  1.
<mgrwt>
<rscale>  0 0.15944689E+04</rscale>
<asrwt>0</asrwt>
<pdfrwt beam="1">  1        1 0.25881865E+00 0.15944689E+04</pdfrwt>
<pdfrwt beam="2">  1       -1 0.58123242E-01 0.15944689E+04</pdfrwt>
<totfact> 0.14108139E+01</totfact>
</mgrwt>
</event>
<event>
12    1  0.1489025E-007  0.1449973E+04  0.7818608E-02  0.8918419E-01
          1   -1    0    0  501    0  0.00000000000E+00  0.00000000000E+00  0.81141934023E+03  0.81141934023E+03  0.00000000000E+00 0. -1.
         -1   -1    0    0    0  501 -0.00000000000E+00 -0.00000000000E+00 -0.64776052267E+03  0.64776052267E+03  0.00000000000E+00 0.  1.
         23    2    1    2    0    0 -0.21196269063E+03 -0.54353383353E+02 -0.33412771650E+03  0.41024393845E+03  0.93681831737E+02 0.  0.
        254    2    1    2    0    0  0.21196269063E+03  0.54353383353E+02  0.49778653407E+03  0.10489359245E+04  0.89699089605E+03 0.  0.
        -24    2    4    4    0    0  0.17587336102E+03  0.41074409287E+03  0.50816477105E+03  0.68144952105E+03  0.80621747998E+02 0.  0.
         24    2    4    4    0    0  0.36089329613E+02 -0.35639070952E+03 -0.10378236989E+02  0.36748640340E+03  0.81374267072E+02 0.  0.
         11    1    3    3    0    0 -0.18574419073E+03 -0.38103900526E+02 -0.32789986449E+03  0.37877583444E+03  0.00000000000E+00 0.  1.
        -11    1    3    3    0    0 -0.26218499900E+02 -0.16249482827E+02 -0.62278520149E+01  0.31468104008E+02  0.00000000000E+00 0. -1.
          2    1    6    6  502    0  0.45057905223E+01  0.23596883977E+01 -0.52530334244E+01  0.73119517041E+01  0.00000000000E+00 0. -1.
          3    1    5    5  503    0  0.25472491491E+02  0.25643627085E+02  0.18529197688E+02  0.40617417444E+02  0.00000000000E+00 0. -1.
         -4    1    5    5    0  503  0.15040086953E+03  0.38510046578E+03  0.48963557337E+03  0.64083210360E+03  0.00000000000E+00 0.  1.
         -1    1    6    6    0  502  0.31583539091E+02 -0.35875039791E+03 -0.51252035648E+01  0.36017445170E+03  0.00000000000E+00 0.  1.
<mgrwt>
<rscale>  0 0.14499730E+04</rscale>
<asrwt>0</asrwt>
<pdfrwt beam="1">  1        1 0.12483374E+00 0.14499730E+04</pdfrwt>
<pdfrwt beam="2">  1       -1 0.99655465E-01 0.14499730E+04</pdfrwt>
<totfact> 0.20170409E+01</totfact>
</mgrwt>
</event>
<event>
12    1  0.1489025E-007  0.1231628E+04  0.7818608E-02  0.9085615E-01
         -3   -1    0    0    0  501 -0.00000000000E+00  0.00000000000E+00  0.11590931407E+04  0.11590931407E+04  0.00000000000E+00 0.  1.
          3   -1    0    0  501    0  0.00000000000E+00 -0.00000000000E+00 -0.32717531505E+03  0.32717531505E+03  0.00000000000E+00 0. -1.
         23    2    1    2    0    0 -0.94863977857E+02  0.14605205614E+03  0.50111344196E+03  0.53771444505E+03  0.87702709800E+02 0.  0.
        254    2    1    2    0    0  0.94863977857E+02 -0.14605205614E+03  0.33080438369E+03  0.94855401070E+03  0.87177565551E+03 0.  0.
        -24    2    4    4    0    0  0.25383703903E+03 -0.33594641961E+03  0.48456474941E+03  0.64674883971E+03  0.78662736170E+02 0.  0.
         24    2    4    4    0    0 -0.15897306117E+03  0.18989436347E+03 -0.15376036572E+03  0.30180517099E+03  0.78178051326E+02 0.  0.
         13    1    3    3    0    0 -0.74706685370E+02  0.79488952315E+02  0.19154072208E+03  0.22042556702E+03  0.00000000000E+00 0. -1.
        -13    1    3    3    0    0 -0.20157292487E+02  0.66563103822E+02  0.30957271988E+03  0.31728887803E+03  0.00000000000E+00 0.  1.
          2    1    6    6  502    0 -0.28439492891E+02  0.82356825622E+02 -0.29680939689E+02  0.92045693344E+02  0.00000000000E+00 0. -1.
          1    1    5    5  503    0  0.10399794646E+03 -0.16169005369E+03  0.16638730933E+03  0.25425181029E+03  0.00000000000E+00 0. -1.
         -4    1    5    5    0  503  0.14983909257E+03 -0.17425636592E+03  0.31817744009E+03  0.39249702942E+03  0.00000000000E+00 0.  1.
         -1    1    6    6    0  502 -0.13053356828E+03  0.10753753785E+03 -0.12407942603E+03  0.20975947764E+03  0.00000000000E+00 0.  1.
<mgrwt>
<rscale>  0 0.12316276E+04</rscale>
<asrwt>0</asrwt>
<pdfrwt beam="1">  1        3 0.50334665E-01 0.12316276E+04</pdfrwt>
<pdfrwt beam="2">  1       -3 0.17832202E+00 0.12316276E+04</pdfrwt>
<totfact> 0.20497363E+00</totfact>
</mgrwt>
</event>
<event>
12    1  0.1489025E-007  0.1476990E+04  0.7818608E-02  0.8899900E-01
         -2   -1    0    0    0  501 -0.00000000000E+00  0.00000000000E+00  0.85424137372E+03  0.85424137372E+03  0.00000000000E+00 0. -1.
          2   -1    0    0  501    0  0.00000000000E+00 -0.00000000000E+00 -0.63843183967E+03  0.63843183967E+03  0.00000000000E+00 0.  1.
         23    2    1    2    0    0  0.31736948462E+03 -0.23882683778E+03 -0.15844636367E+03  0.43749699269E+03  0.92394373401E+02 0.  0.
        254    2    1    2    0    0 -0.31736948462E+03  0.23882683778E+03  0.37425589772E+03  0.10551762207E+04  0.90308788695E+03 0.  0.
        -24    2    4    4    0    0 -0.20265290897E+03  0.42894575976E+02  0.65137748691E+03  0.68834302717E+03  0.81334780040E+02 0.  0.
         24    2    4    4    0    0 -0.11471657565E+03  0.19593226180E+03 -0.27712158919E+03  0.36683319354E+03  0.78872509415E+02 0.  0.
         13    1    3    3    0    0  0.24946373118E+03 -0.15311969618E+03 -0.14701526967E+03  0.32755348273E+03  0.00000000000E+00 0.  1.
        -13    1    3    3    0    0  0.67905753440E+02 -0.85707141596E+02 -0.11431094002E+02  0.10994350995E+03  0.00000000000E+00 0. -1.
          2    1    6    6  502    0 -0.60915054153E+02  0.16178499147E+03 -0.22928536741E+03  0.28715293312E+03  0.00000000000E+00 0. -1.
          1    1    5    5  503    0 -0.11367698237E+03 -0.31769540011E+01  0.43940875617E+03  0.45388611386E+03  0.00000000000E+00 0. -1.
         -2    1    5    5    0  503 -0.88975926595E+02  0.46071529977E+02  0.21196873074E+03  0.23445691331E+03  0.00000000000E+00 0.  1.
         -1    1    6    6    0  502 -0.53801521501E+02  0.34147270328E+02 -0.47836221777E+02  0.79680260419E+02  0.00000000000E+00 0.  1.
<mgrwt>
<rscale>  0 0.14769900E+04</rscale>
<asrwt>0</asrwt>
<pdfrwt beam="1">  1        2 0.98220283E-01 0.14769900E+04</pdfrwt>
<pdfrwt beam="2">  1       -2 0.13142175E+00 0.14769900E+04</pdfrwt>
<totfact> 0.18790247E+01</totfact>
</mgrwt>
</event>
<event>
12    1  0.1489025E-007  0.1814970E+04  0.7818608E-02  0.8698379E-01
          1   -1    0    0  501    0  0.00000000000E+00  0.00000000000E+00  0.11136847103E+04  0.11136847103E+04  0.00000000000E+00 0. -1.
         -1   -1    0    0    0  501 -0.00000000000E+00 -0.00000000000E+00 -0.73946361571E+03  0.73946361571E+03  0.00000000000E+00 0.  1.
         23    2    1    2    0    0  0.27755876295E+03  0.36120957501E+03 -0.41810681752E+03  0.62580865993E+03  0.96498414576E+02 0.  0.
        254    2    1    2    0    0 -0.27755876295E+03 -0.36120957501E+03  0.79232791211E+03  0.12273396661E+04  0.81918734833E+03 0.  0.
        -24    2    4    4    0    0  0.14914415283E+03 -0.44455607304E+03  0.53635009242E+03  0.71662591272E+03  0.77506107768E+02 0.  0.
         24    2    4    4    0    0 -0.42670291578E+03  0.83346498034E+02  0.25597781969E+03  0.51071375336E+03  0.79258290616E+02 0.  0.
         11    1    3    3    0    0  0.26666044454E+03  0.32921499278E+03 -0.41294001446E+03  0.59161622670E+03  0.00000000000E+00 0.  1.
        -11    1    3    3    0    0  0.10898318411E+02  0.31994582227E+02 -0.51668030591E+01  0.34192433226E+02  0.00000000000E+00 0. -1.
          2    1    6    6  502    0 -0.21214970512E+03  0.52263259570E+02  0.84353418411E+02  0.23421025785E+03  0.00000000000E+00 0. -1.
          1    1    5    5  503    0  0.51980112538E+02 -0.26966161256E+03  0.32754269540E+03  0.42743834023E+03  0.00000000000E+00 0. -1.
         -2    1    5    5    0  503  0.97164040290E+02 -0.17489446048E+03  0.20880739702E+03  0.28918757249E+03  0.00000000000E+00 0.  1.
         -1    1    6    6    0  502 -0.21455321066E+03  0.31083238464E+02  0.17162440128E+03  0.27650349551E+03  0.00000000000E+00 0.  1.
<mgrwt>
<rscale>  0 0.18149703E+04</rscale>
<asrwt>0</asrwt>
<pdfrwt beam="1">  1        1 0.17133611E+00 0.18149703E+04</pdfrwt>
<pdfrwt beam="2">  1       -1 0.11376363E+00 0.18149703E+04</pdfrwt>
<totfact> 0.82208649E+00</totfact>
</mgrwt>
</event>
<event>
12    1  0.1489025E-007  0.2568856E+04  0.7818608E-02  0.8378858E-01
         -2   -1    0    0    0  501 -0.00000000000E+00  0.00000000000E+00  0.39924529108E+04  0.39924529108E+04  0.00000000000E+00 0.  1.
          2   -1    0    0  501    0  0.00000000000E+00 -0.00000000000E+00 -0.41321857200E+03  0.41321857200E+03  0.00000000000E+00 0. -1.
         23    2    1    2    0    0  0.88157391659E+03  0.25180429838E+03  0.46156979545E+03  0.10307323575E+04  0.93725886105E+02 0.  0.
        254    2    1    2    0    0 -0.88157391659E+03 -0.25180429838E+03  0.31176645434E+04  0.33749391253E+04  0.91093573826E+03 0.  0.
        -24    2    4    4    0    0 -0.96151734284E+03 -0.28612340925E+03  0.30962470549E+04  0.32556772132E+04  0.79410865328E+02 0.  0.
         24    2    4    4    0    0  0.79943426251E+02  0.34319110873E+02  0.21417488447E+02  0.11926191208E+03  0.78714306760E+02 0.  0.
         13    1    3    3    0    0  0.58213744641E+03  0.12060141507E+03  0.28775290546E+03  0.66047743521E+03  0.00000000000E+00 0. -1.
        -13    1    3    3    0    0  0.29943647018E+03  0.13120288331E+03  0.17381688999E+03  0.37025492233E+03  0.00000000000E+00 0.  1.
          4    1    6    6  502    0  0.95112989928E+02  0.21681032036E+02  0.16870422581E+02  0.99000803841E+02  0.00000000000E+00 0. -1.
          1    1    5    5  503    0 -0.88585236568E+03 -0.24650083208E+03  0.27814243820E+04  0.29294741280E+04  0.00000000000E+00 0. -1.
         -4    1    5    5    0  503 -0.75664977160E+02 -0.39622577171E+02  0.31482267293E+03  0.32620308518E+03  0.00000000000E+00 0.  1.
         -1    1    6    6    0  502 -0.15169563678E+02  0.12638078837E+02  0.45470658656E+01  0.20261108234E+02  0.00000000000E+00 0.  1.
<mgrwt>
<rscale>  0 0.25688563E+04</rscale>
<asrwt>0</asrwt>
<pdfrwt beam="1">  1        2 0.63572091E-01 0.25688563E+04</pdfrwt>
<pdfrwt beam="2">  1       -2 0.61422350E+00 0.25688563E+04</pdfrwt>
<totfact> 0.29930439E-02</totfact>
</mgrwt>
</event>
<event>
12    1  0.1489025E-007  0.1961954E+04  0.7818608E-02  0.8624618E-01
         -1   -1    0    0    0  501 -0.00000000000E+00  0.00000000000E+00  0.51024150059E+03  0.51024150059E+03  0.00000000000E+00 0.  1.
          1   -1    0    0  501    0  0.00000000000E+00 -0.00000000000E+00 -0.18860008862E+04  0.18860008862E+04  0.00000000000E+00 0. -1.
         23    2    1    2    0    0 -0.44495399934E+01  0.48403415613E+03 -0.12810963773E+04  0.13727452389E+04  0.94407098605E+02 0.  0.
        254    2    1    2    0    0  0.44495399934E+01 -0.48403415613E+03 -0.94663008233E+02  0.10234971478E+04  0.89681462064E+03 0.  0.
        -24    2    4    4    0    0 -0.69927054619E+02  0.16397979321E+03  0.21867091657E+03  0.29552072744E+03  0.87956608869E+02 0.  0.
         24    2    4    4    0    0  0.74376594612E+02 -0.64801394933E+03 -0.31333392481E+03  0.72797642039E+03  0.79483104194E+02 0.  0.
         11    1    3    3    0    0  0.17460237412E+02  0.41497359947E+03 -0.11537205092E+04  0.12262051058E+04  0.00000000000E+00 0. -1.
        -11    1    3    3    0    0 -0.21909777405E+02  0.69060556660E+02 -0.12737586811E+03  0.14654013310E+03  0.00000000000E+00 0.  1.
          2    1    6    6  502    0  0.44609801101E+02 -0.12502965967E+03 -0.75051648399E+02  0.15249655760E+03  0.00000000000E+00 0. -1.
          1    1    5    5  503    0  0.18107688235E+02  0.56382650794E+02  0.55560668432E+02  0.81202706607E+02  0.00000000000E+00 0. -1.
         -2    1    5    5    0  503 -0.88034742854E+02  0.10759714241E+03  0.16311024814E+03  0.21431802083E+03  0.00000000000E+00 0.  1.
         -1    1    6    6    0  502  0.29766793511E+02 -0.52298428966E+03 -0.23828227641E+03  0.57547986279E+03  0.00000000000E+00 0.  1.
<mgrwt>
<rscale>  0 0.19619540E+04</rscale>
<asrwt>0</asrwt>
<pdfrwt beam="1">  1        1 0.29015399E+00 0.19619540E+04</pdfrwt>
<pdfrwt beam="2">  1       -1 0.78498690E-01 0.19619540E+04</pdfrwt>
<totfact> 0.53821544E+00</totfact>
</mgrwt>
</event>
<event>
12    1  0.1489025E-007  0.1866826E+04  0.7818608E-02  0.8671548E-01
         -2   -1    0    0    0  501 -0.00000000000E+00  0.00000000000E+00  0.33068730922E+03  0.33068730922E+03  0.00000000000E+00 0.  1.
          2   -1    0    0  501    0  0.00000000000E+00 -0.00000000000E+00 -0.26346924780E+04  0.26346924780E+04  0.00000000000E+00 0. -1.
         23    2    1    2    0    0  0.46603810166E+03  0.28172601930E+03 -0.15529289723E+04  0.16481919704E+04  0.91582291767E+02 0.  0.
        254    2    1    2    0    0 -0.46603810166E+03 -0.28172601930E+03 -0.75107619650E+03  0.13171878168E+04  0.93504397206E+03 0.  0.
        -24    2    4    4    0    0  0.22894227931E+03 -0.76230175501E+02  0.20750842451E+02  0.25534583391E+03  0.80902969789E+02 0.  0.
         24    2    4    4    0    0 -0.69498038098E+03 -0.20549584380E+03 -0.77182703895E+03  0.10618419829E+04  0.81025593823E+02 0.  0.
         11    1    3    3    0    0  0.15122631173E+03  0.10526772016E+03 -0.40673205042E+03  0.44652172523E+03  0.00000000000E+00 0. -1.
        -11    1    3    3    0    0  0.31481178993E+03  0.17645829914E+03 -0.11461969219E+04  0.12016702451E+04  0.00000000000E+00 0.  1.
          2    1    6    6  502    0 -0.26384245905E+03 -0.53318365712E+02 -0.24142912866E+03  0.36158500451E+03  0.00000000000E+00 0. -1.
          3    1    5    5  503    0  0.52691021212E+02  0.27433891617E+00  0.34067755148E+02  0.62745764152E+02  0.00000000000E+00 0. -1.
         -2    1    5    5    0  503  0.17625125810E+03 -0.76504514417E+02 -0.13316912697E+02  0.19260006976E+03  0.00000000000E+00 0.  1.
         -3    1    6    6    0  502 -0.43113792193E+03 -0.15217747808E+03 -0.53039791029E+03  0.70025697841E+03  0.00000000000E+00 0.  1.
<mgrwt>
<rscale>  0 0.18668255E+04</rscale>
<asrwt>0</asrwt>
<pdfrwt beam="1">  1        2 0.40533731E+00 0.18668255E+04</pdfrwt>
<pdfrwt beam="2">  1       -2 0.50874969E-01 0.18668255E+04</pdfrwt>
<totfact> 0.99716107E+00</totfact>
</mgrwt>
</event>
<event>
12    1  0.1489025E-007  0.1363466E+04  0.7818608E-02  0.8980697E-01
         -3   -1    0    0    0  501 -0.00000000000E+00  0.00000000000E+00  0.51497781216E+03  0.51497781216E+03  0.00000000000E+00 0.  1.
          3   -1    0    0  501    0  0.00000000000E+00 -0.00000000000E+00 -0.90248536527E+03  0.90248536527E+03  0.00000000000E+00 0. -1.
         23    2    1    2    0    0  0.23587593475E+03 -0.28955501391E+02 -0.47986651949E+03  0.54353097586E+03  0.93156682727E+02 0.  0.
        254    2    1    2    0    0 -0.23587593475E+03  0.28955501391E+02  0.92358966384E+02  0.87393220156E+03  0.83591353416E+03 0.  0.
        -24    2    4    4    0    0 -0.34464262011E+03  0.24439530259E+03  0.31759599572E+03  0.53449036504E+03  0.79404875860E+02 0.  0.
         24    2    4    4    0    0  0.10876668535E+03 -0.21543980120E+03 -0.22523702933E+03  0.33944183651E+03  0.79022409552E+02 0.  0.
         11    1    3    3    0    0  0.12891027050E+03 -0.11810364245E+02 -0.35690389123E+03  0.37965475121E+03  0.00000000000E+00 0. -1.
        -11    1    3    3    0    0  0.10696566425E+03 -0.17145137146E+02 -0.12296262826E+03  0.16387622465E+03  0.00000000000E+00 0.  1.
          2    1    6    6  502    0  0.67262514124E+02 -0.96387364247E+02 -0.61094179821E+02  0.13246610359E+03  0.00000000000E+00 0. -1.
          3    1    5    5  503    0 -0.30644008341E+03  0.19989024467E+03  0.24139302376E+03  0.43832890226E+03  0.00000000000E+00 0. -1.
         -4    1    5    5    0  503 -0.38202536696E+02  0.44505057913E+02  0.76202971959E+02  0.96161462787E+02  0.00000000000E+00 0.  1.
         -1    1    6    6    0  502  0.41504171229E+02 -0.11905243695E+03 -0.16414284951E+03  0.20697573292E+03  0.00000000000E+00 0.  1.
<mgrwt>
<rscale>  0 0.13634661E+04</rscale>
<asrwt>0</asrwt>
<pdfrwt beam="1">  1        3 0.13884390E+00 0.13634661E+04</pdfrwt>
<pdfrwt beam="2">  1       -3 0.79227356E-01 0.13634661E+04</pdfrwt>
<totfact> 0.14987983E+00</totfact>
</mgrwt>
</event>
<event>
12    1  0.1489025E-007  0.2053418E+04  0.7818608E-02  0.8582045E-01
         -1   -1    0    0    0  501 -0.00000000000E+00  0.00000000000E+00  0.46289636019E+03  0.46289636019E+03  0.00000000000E+00 0.  1.
          1   -1    0    0  501    0  0.00000000000E+00 -0.00000000000E+00 -0.22772522431E+04  0.22772522431E+04  0.00000000000E+00 0. -1.
         23    2    1    2    0    0 -0.76430967000E+03  0.12361044016E+03 -0.11695588179E+04  0.14055893513E+04  0.91459189082E+02 0.  0.
        254    2    1    2    0    0  0.76430967000E+03 -0.12361044016E+03 -0.64479706502E+03  0.13345592521E+04  0.87512075145E+03 0.  0.
        -24    2    4    4    0    0 -0.22965949953E+01 -0.31810400843E+03 -0.31609758364E+02  0.33059268292E+03  0.84243163790E+02 0.  0.
         24    2    4    4    0    0  0.76660626499E+03  0.19449356827E+03 -0.61318730666E+03  0.10039665691E+04  0.80232694603E+02 0.  0.
         11    1    3    3    0    0 -0.72414718943E+02  0.11536538073E+02 -0.68377371843E+02  0.10026189810E+03  0.00000000000E+00 0. -1.
        -11    1    3    3    0    0 -0.69189495105E+03  0.11207390209E+03 -0.11011814461E+04  0.13053274532E+04  0.00000000000E+00 0.  1.
          4    1    6    6  502    0  0.59506701923E+03  0.18483924244E+03 -0.48416440535E+03  0.78910422273E+03  0.00000000000E+00 0. -1.
          3    1    5    5  503    0 -0.40690418296E+01 -0.27801419325E+03  0.23023451363E+01  0.27805350123E+03  0.00000000000E+00 0. -1.
         -4    1    5    5    0  503  0.17724468343E+01 -0.40089815180E+02 -0.33912103500E+02  0.52539181691E+02  0.00000000000E+00 0.  1.
         -3    1    6    6    0  502  0.17153924576E+03  0.96543258298E+01 -0.12902290131E+03  0.21486234642E+03  0.00000000000E+00 0.  1.
<mgrwt>
<rscale>  0 0.20534184E+04</rscale>
<asrwt>0</asrwt>
<pdfrwt beam="1">  1        1 0.35034650E+00 0.20534184E+04</pdfrwt>
<pdfrwt beam="2">  1       -1 0.71214824E-01 0.20534184E+04</pdfrwt>
<totfact> 0.35474834E+00</totfact>
</mgrwt>
</event>
<event>
12    1  0.1489025E-007  0.1103480E+04  0.7818608E-02  0.9201806E-01
          1   -1    0    0  501    0  0.00000000000E+00  0.00000000000E+00  0.13722036535E+04  0.13722036535E+04  0.00000000000E+00 0. -1.
         -1   -1    0    0    0  501 -0.00000000000E+00 -0.00000000000E+00 -0.22184546757E+03  0.22184546757E+03  0.00000000000E+00 0.  1.
         23    2    1    2    0    0 -0.87506440268E+02  0.68519082507E+02  0.39109788318E+03  0.41676387476E+03  0.91555072605E+02 0.  0.
        254    2    1    2    0    0  0.87506440268E+02 -0.68519082507E+02  0.75926030274E+03  0.11772852463E+04  0.89284494852E+03 0.  0.
        -24    2    4    4    0    0  0.18659226878E+03  0.33219362223E+03  0.11127219945E+03  0.40474242511E+03  0.79155864566E+02 0.  0.
         24    2    4    4    0    0 -0.99085828514E+02 -0.40071270473E+03  0.64798810329E+03  0.77254282119E+03  0.80902134892E+02 0.  0.
         11    1    3    3    0    0 -0.54153543746E+02  0.29152034651E+02  0.77441472016E+02  0.98892006819E+02  0.00000000000E+00 0.  1.
        -11    1    3    3    0    0 -0.33352896522E+02  0.39367047856E+02  0.31365641117E+03  0.31787186794E+03  0.00000000000E+00 0. -1.
          2    1    6    6  502    0 -0.45847029400E+02 -0.30825811620E+03  0.51621873759E+03  0.60299817691E+03  0.00000000000E+00 0. -1.
          3    1    5    5  503    0  0.13919738309E+03  0.16809008448E+03  0.66793764521E+02  0.22823583185E+03  0.00000000000E+00 0. -1.
         -4    1    5    5    0  503  0.47394885688E+02  0.16410353775E+03  0.44478434928E+02  0.17650659326E+03  0.00000000000E+00 0.  1.
         -1    1    6    6    0  502 -0.53238799114E+02 -0.92454588532E+02  0.13176936569E+03  0.16954464429E+03  0.00000000000E+00 0.  1.
<mgrwt>
<rscale>  0 0.11034802E+04</rscale>
<asrwt>0</asrwt>
<pdfrwt beam="1">  1        1 0.21110825E+00 0.11034802E+04</pdfrwt>
<pdfrwt beam="2">  1       -1 0.34130073E-01 0.11034802E+04</pdfrwt>
<totfact> 0.64964198E+01</totfact>
</mgrwt>
</event>
<event>
12    1  0.1489025E-007  0.2049443E+04  0.7818608E-02  0.8583847E-01
          1   -1    0    0  501    0  0.00000000000E+00  0.00000000000E+00  0.17369844378E+04  0.17369844378E+04  0.00000000000E+00 0. -1.
         -1   -1    0    0    0  501 -0.00000000000E+00 -0.00000000000E+00 -0.60452706250E+03  0.60452706250E+03  0.00000000000E+00 0.  1.
         23    2    1    2    0    0  0.23848909646E+03  0.16905783646E+03  0.13416792969E+04  0.13765354319E+04  0.96378723940E+02 0.  0.
        254    2    1    2    0    0 -0.23848909646E+03 -0.16905783646E+03 -0.20922192163E+03  0.96497606834E+03  0.89551515832E+03 0.  0.
        -24    2    4    4    0    0  0.30290022735E+03  0.10265447585E+03 -0.52280383360E+02  0.33413522297E+03  0.81404051495E+02 0.  0.
         24    2    4    4    0    0 -0.54138932381E+03 -0.27171231231E+03 -0.15694153827E+03  0.63084084538E+03  0.79997157222E+02 0.  0.
         11    1    3    3    0    0  0.13381076251E+03  0.11653807845E+03  0.99255108275E+03  0.10082877049E+04  0.00000000000E+00 0. -1.
        -11    1    3    3    0    0  0.10467833395E+03  0.52519758014E+02  0.34912821415E+03  0.36824772707E+03  0.00000000000E+00 0.  1.
          4    1    6    6  502    0 -0.53176434630E+03 -0.26840318454E+03 -0.14132100957E+03  0.61219704117E+03  0.00000000000E+00 0. -1.
          1    1    5    5  503    0  0.19171403927E+03  0.82726883010E+02 -0.69086514306E+02  0.21993398210E+03  0.00000000000E+00 0. -1.
         -2    1    5    5    0  503  0.11118618808E+03  0.19927592842E+02  0.16806130946E+02  0.11420124086E+03  0.00000000000E+00 0.  1.
         -3    1    6    6    0  502 -0.96249775137E+01 -0.33091277730E+01 -0.15620528697E+02  0.18643804213E+02  0.00000000000E+00 0.  1.
<mgrwt>
<rscale>  0 0.20494429E+04</rscale>
<asrwt>0</asrwt>
<pdfrwt beam="1">  1        1 0.26722837E+00 0.20494429E+04</pdfrwt>
<pdfrwt beam="2">  1       -1 0.93004164E-01 0.20494429E+04</pdfrwt>
<totfact> 0.46641328E+00</totfact>
</mgrwt>
</event>
<event>
12    1  0.1489025E-007  0.1078291E+04  0.7818608E-02  0.9226613E-01
          2   -1    0    0  501    0  0.00000000000E+00  0.00000000000E+00  0.24832409026E+04  0.24832409026E+04  0.00000000000E+00 0. -1.
         -2   -1    0    0    0  501 -0.00000000000E+00 -0.00000000000E+00 -0.11705594150E+03  0.11705594150E+03  0.00000000000E+00 0.  1.
         23    2    1    2    0    0  0.44238160333E+02 -0.89606342685E+02  0.60847967059E+03  0.62321877619E+03  0.90376003400E+02 0.  0.
        254    2    1    2    0    0 -0.44238160333E+02  0.89606342685E+02  0.17577052905E+04  0.19770780680E+04  0.89962408088E+03 0.  0.
        -24    2    4    4    0    0 -0.17522883223E+03 -0.36616744950E+03  0.96547900105E+03  0.10503706332E+04  0.79655639050E+02 0.  0.
         24    2    4    4    0    0  0.13099067190E+03  0.45577379219E+03  0.79222628949E+03  0.92670743479E+03  0.79220389801E+02 0.  0.
         11    1    3    3    0    0  0.12064653315E+02 -0.22414653339E+02  0.41671726583E+03  0.41749401455E+03  0.00000000000E+00 0. -1.
        -11    1    3    3    0    0  0.32173507018E+02 -0.67191689346E+02  0.19176240476E+03  0.20572476164E+03  0.00000000000E+00 0.  1.
          4    1    6    6  502    0  0.14138736029E+03  0.43595779001E+03  0.75928913878E+03  0.88688757833E+03  0.00000000000E+00 0. -1.
          1    1    5    5  503    0 -0.88479585886E+02 -0.20183605324E+03  0.62138148203E+03  0.65930370522E+03  0.00000000000E+00 0. -1.
         -4    1    5    5    0  503 -0.86749246346E+02 -0.16433139626E+03  0.34409751902E+03  0.39106692795E+03  0.00000000000E+00 0.  1.
         -3    1    6    6    0  502 -0.10396688386E+02  0.19816002176E+02  0.32937150710E+02  0.39819856460E+02  0.00000000000E+00 0.  1.
<mgrwt>
<rscale>  0 0.10782914E+04</rscale>
<asrwt>0</asrwt>
<pdfrwt beam="1">  1        2 0.38203702E+00 0.10782914E+04</pdfrwt>
<pdfrwt beam="2">  1       -2 0.18008608E-01 0.10782914E+04</pdfrwt>
<totfact> 0.91684168E+01</totfact>
</mgrwt>
</event>
<event>
12    1  0.1489025E-007  0.1005676E+04  0.7818608E-02  0.9302341E-01
         -2   -1    0    0    0  501 -0.00000000000E+00  0.00000000000E+00  0.90889682525E+02  0.90889682525E+02  0.00000000000E+00 0.  1.
          2   -1    0    0  501    0  0.00000000000E+00 -0.00000000000E+00 -0.27819006230E+04  0.27819006230E+04  0.00000000000E+00 0. -1.
         23    2    1    2    0    0  0.29479476047E+02 -0.33341248465E+01 -0.44297691529E+03  0.45322824491E+03  0.91143505556E+02 0.  0.
        254    2    1    2    0    0 -0.29479476047E+02  0.33341248465E+01 -0.22480340252E+04  0.24195620606E+04  0.89428375301E+03 0.  0.
        -24    2    4    4    0    0 -0.42593700261E+02  0.16966271010E+03 -0.28395509566E+02  0.19226415704E+03  0.74562340472E+02 0.  0.
         24    2    4    4    0    0  0.13114224215E+02 -0.16632858526E+03 -0.22196385156E+04  0.22272979036E+04  0.78889987509E+02 0.  0.
         11    1    3    3    0    0 -0.10776810318E+02  0.25924538514E+02 -0.51984007157E+02  0.59080947334E+02  0.00000000000E+00 0.  1.
        -11    1    3    3    0    0  0.40256286365E+02 -0.29258663360E+02 -0.39099290814E+03  0.39414729758E+03  0.00000000000E+00 0. -1.
          4    1    6    6  502    0  0.18912191197E+02 -0.33466366260E+02 -0.93594408598E+03  0.93673315343E+03  0.00000000000E+00 0. -1.
          3    1    5    5  503    0 -0.29140732339E+02  0.10054222266E+03  0.20325290333E+02  0.10663507043E+03  0.00000000000E+00 0. -1.
         -4    1    5    5    0  503 -0.13452967922E+02  0.69120487439E+02 -0.48720799899E+02  0.85629086603E+02  0.00000000000E+00 0.  1.
         -3    1    6    6    0  502 -0.57979669824E+01 -0.13286221899E+03 -0.12836944296E+04  0.12905647501E+04  0.00000000000E+00 0.  1.
<mgrwt>
<rscale>  0 0.10056760E+04</rscale>
<asrwt>0</asrwt>
<pdfrwt beam="1">  1        2 0.42798476E+00 0.10056760E+04</pdfrwt>
<pdfrwt beam="2">  1       -2 0.13983026E-01 0.10056760E+04</pdfrwt>
<totfact> 0.95311241E+01</totfact>
</mgrwt>
</event>
<event>
12    1  0.1489025E-007  0.2236266E+04  0.7818608E-02  0.8503483E-01
          2   -1    0    0  501    0  0.00000000000E+00  0.00000000000E+00  0.12446371113E+04  0.12446371113E+04  0.00000000000E+00 0. -1.
         -2   -1    0    0    0  501 -0.00000000000E+00 -0.00000000000E+00 -0.10044864003E+04  0.10044864003E+04  0.00000000000E+00 0.  1.
         23    2    1    2    0    0  0.24560507429E+03 -0.26988661285E+03 -0.76475238723E+03  0.85189697674E+03  0.87872685766E+02 0.  0.
        254    2    1    2    0    0 -0.24560507429E+03  0.26988661285E+03  0.10049030982E+04  0.13972265348E+04  0.89958385731E+03 0.  0.
        -24    2    4    4    0    0 -0.33371776526E+03 -0.19963570596E+03  0.75287045173E+03  0.85119168543E+03  0.80569264036E+02 0.  0.
         24    2    4    4    0    0  0.88112690970E+02  0.46952231881E+03  0.25203264650E+03  0.54603484935E+03  0.80115838836E+02 0.  0.
         11    1    3    3    0    0  0.40616545843E+02 -0.82314448777E+02 -0.13149015207E+03  0.16035907323E+03  0.00000000000E+00 0. -1.
        -11    1    3    3    0    0  0.20498852844E+03 -0.18757216407E+03 -0.63326223515E+03  0.69153790352E+03  0.00000000000E+00 0.  1.
          4    1    6    6  502    0  0.38126082997E+02  0.17143749842E+03  0.13660114906E+03  0.22249559095E+03  0.00000000000E+00 0. -1.
          1    1    5    5  503    0 -0.57863740531E+02 -0.31097172606E+02  0.71919288231E+02  0.97404469261E+02  0.00000000000E+00 0. -1.
         -2    1    5    5    0  503 -0.27585402473E+03 -0.16853853335E+03  0.68095116350E+03  0.75378721617E+03  0.00000000000E+00 0.  1.
         -3    1    6    6    0  502  0.49986607973E+02  0.29808482038E+03  0.11543149744E+03  0.32353925839E+03  0.00000000000E+00 0.  1.
<mgrwt>
<rscale>  0 0.22362657E+04</rscale>
<asrwt>0</asrwt>
<pdfrwt beam="1">  1        2 0.19148263E+00 0.22362657E+04</pdfrwt>
<pdfrwt beam="2">  1       -2 0.15453637E+00 0.22362657E+04</pdfrwt>
<totfact> 0.44939555E+00</totfact>
</mgrwt>
</event>
<event>
12    1  0.1489025E-007  0.1476267E+04  0.7818608E-02  0.8900390E-01
          2   -1    0    0  501    0  0.00000000000E+00  0.00000000000E+00  0.15268563845E+04  0.15268563845E+04  0.00000000000E+00 0. -1.
         -2   -1    0    0    0  501 -0.00000000000E+00 -0.00000000000E+00 -0.35683854671E+03  0.35683854671E+03  0.00000000000E+00 0.  1.
         23    2    1    2    0    0  0.58941301217E+02  0.26624201995E+03 -0.87093614830E+02  0.29912443649E+03  0.86782720547E+02 0.  0.
        254    2    1    2    0    0 -0.58941301217E+02 -0.26624201995E+03  0.12571114526E+04  0.15845704947E+04  0.92529755118E+03 0.  0.
        -24    2    4    4    0    0 -0.15147085064E+03 -0.24125004606E+03 -0.24761364856E+02  0.29699172139E+03  0.80286699191E+02 0.  0.
         24    2    4    4    0    0  0.92529549424E+02 -0.24991973888E+02  0.12818728175E+04  0.12875787733E+04  0.73992304030E+02 0.  0.
         11    1    3    3    0    0  0.93988476579E+01  0.39791720090E+02  0.17919068644E+02  0.44640926806E+02  0.00000000000E+00 0. -1.
        -11    1    3    3    0    0  0.49542453559E+02  0.22645029986E+03 -0.10501268347E+03  0.25448350968E+03  0.00000000000E+00 0.  1.
          2    1    6    6  502    0  0.10369799480E+03 -0.31188171954E+02  0.11384356542E+04  0.11435740968E+04  0.00000000000E+00 0. -1.
          3    1    5    5  503    0 -0.85387861914E+02 -0.65762975427E+02  0.51924896924E+00  0.10777813099E+03  0.00000000000E+00 0. -1.
         -4    1    5    5    0  503 -0.66082988726E+02 -0.17548707063E+03 -0.25280613825E+02  0.18921359040E+03  0.00000000000E+00 0.  1.
         -1    1    6    6    0  502 -0.11168445373E+02  0.61961980663E+01  0.14343716329E+03  0.14400467651E+03  0.00000000000E+00 0.  1.
<mgrwt>
<rscale>  0 0.14762672E+04</rscale>
<asrwt>0</asrwt>
<pdfrwt beam="1">  1        2 0.23490098E+00 0.14762672E+04</pdfrwt>
<pdfrwt beam="2">  1       -2 0.54898239E-01 0.14762672E+04</pdfrwt>
<totfact> 0.37023917E+01</totfact>
</mgrwt>
</event>
<event>
12    1  0.1489025E-007  0.1852124E+04  0.7818608E-02  0.8679061E-01
          1   -1    0    0  501    0  0.00000000000E+00  0.00000000000E+00  0.11012517063E+04  0.11012517063E+04  0.00000000000E+00 0.  1.
         -1   -1    0    0    0  501 -0.00000000000E+00 -0.00000000000E+00 -0.77874228877E+03  0.77874228877E+03  0.00000000000E+00 0. -1.
         23    2    1    2    0    0 -0.55381511696E+02 -0.57308422049E+03 -0.28808475481E+03  0.65014713380E+03  0.90586058640E+02 0.  0.
        254    2    1    2    0    0  0.55381511696E+02  0.57308422049E+03  0.61059417233E+03  0.12298468613E+04  0.89900246008E+03 0.  0.
        -24    2    4    4    0    0 -0.73323216595E+02  0.37259118130E+03  0.81696043451E+03  0.90460880480E+03  0.81806208211E+02 0.  0.
         24    2    4    4    0    0  0.12870472829E+03  0.20049303920E+03 -0.20636626218E+03  0.32523805645E+03  0.80189733422E+02 0.  0.
         11    1    3    3    0    0 -0.63365436645E+02 -0.53191068396E+03 -0.24189176876E+03  0.58775486562E+03  0.00000000000E+00 0. -1.
        -11    1    3    3    0    0  0.79839249494E+01 -0.41173536538E+02 -0.46192986047E+02  0.62392268179E+02  0.00000000000E+00 0.  1.
          2    1    6    6  502    0  0.12483949205E+03  0.13220003203E+03 -0.16339620884E+03  0.24445872516E+03  0.00000000000E+00 0. -1.
          1    1    5    5  503    0 -0.72219652383E+02  0.37591162661E+03  0.81539764306E+03  0.90077663464E+03  0.00000000000E+00 0. -1.
         -2    1    5    5    0  503 -0.11035642122E+01 -0.33204453106E+01  0.15627914493E+01  0.38321701613E+01  0.00000000000E+00 0.  1.
         -1    1    6    6    0  502  0.38652362398E+01  0.68293007171E+02 -0.42970053338E+02  0.80779331290E+02  0.00000000000E+00 0.  1.
<mgrwt>
<rscale>  0 0.18521245E+04</rscale>
<asrwt>0</asrwt>
<pdfrwt beam="1">  1        1 0.16942334E+00 0.18521245E+04</pdfrwt>
<pdfrwt beam="2">  1       -1 0.11980651E+00 0.18521245E+04</pdfrwt>
<totfact> 0.73879199E+00</totfact>
</mgrwt>
</event>
<event>
12    1  0.1489025E-007  0.1259375E+04  0.7818608E-02  0.9062416E-01
          2   -1    0    0  501    0  0.00000000000E+00  0.00000000000E+00  0.19304203210E+04  0.19304203210E+04  0.00000000000E+00 0. -1.
         -2   -1    0    0    0  501 -0.00000000000E+00 -0.00000000000E+00 -0.20539909234E+03  0.20539909234E+03  0.00000000000E+00 0.  1.
         23    2    1    2    0    0  0.12629582789E+03 -0.15129922539E+03  0.82045295582E+03  0.84902113679E+03  0.94083719384E+02 0.  0.
        254    2    1    2    0    0 -0.12629582789E+03  0.15129922539E+03  0.90456827287E+03  0.12867982766E+04  0.89373595240E+03 0.  0.
        -24    2    4    4    0    0 -0.17264531216E+03 -0.15935553239E+03  0.92836547401E+03  0.96103088523E+03  0.80729917093E+02 0.  0.
         24    2    4    4    0    0  0.46349484273E+02  0.31065475778E+03 -0.23797201139E+02  0.32576739136E+03  0.83086901909E+02 0.  0.
         13    1    3    3    0    0  0.12385272932E+03 -0.14025693377E+03  0.60506622437E+03  0.63333769974E+03  0.00000000000E+00 0. -1.
        -13    1    3    3    0    0  0.24430985696E+01 -0.11042291619E+02  0.21538673145E+03  0.21568343705E+03  0.00000000000E+00 0.  1.
          4    1    6    6  502    0 -0.15431724636E+02  0.81985939658E+02 -0.30442506447E+02  0.88806410949E+02  0.00000000000E+00 0. -1.
          1    1    5    5  503    0  0.16615442391E+01  0.27910709640E+01  0.75300843564E+02  0.75370868695E+02  0.00000000000E+00 0. -1.
         -2    1    5    5    0  503 -0.17430685640E+03 -0.16214660335E+03  0.85306463045E+03  0.88566001653E+03  0.00000000000E+00 0.  1.
         -3    1    6    6    0  502  0.61781208909E+02  0.22866881812E+03  0.66453053086E+01  0.23696098041E+03  0.00000000000E+00 0.  1.
<mgrwt>
<rscale>  0 0.12593754E+04</rscale>
<asrwt>0</asrwt>
<pdfrwt beam="1">  1        2 0.29698773E+00 0.12593754E+04</pdfrwt>
<pdfrwt beam="2">  1       -2 0.31599862E-01 0.12593754E+04</pdfrwt>
<totfact> 0.66822188E+01</totfact>
</mgrwt>
</event>
<event>
12    1  0.1489025E-007  0.2818489E+04  0.7818608E-02  0.8297551E-01
          2   -1    0    0  501    0  0.00000000000E+00  0.00000000000E+00  0.26200398783E+04  0.26200398783E+04  0.00000000000E+00 0. -1.
         -2   -1    0    0    0  501 -0.00000000000E+00 -0.00000000000E+00 -0.75799227014E+03  0.75799227014E+03  0.00000000000E+00 0.  1.
         23    2    1    2    0    0  0.80820391190E+03 -0.23226696142E+03 -0.29689167547E+03  0.89631484751E+03  0.89967407070E+02 0.  0.
        254    2    1    2    0    0 -0.80820391190E+03  0.23226696142E+03  0.21589392836E+04  0.24817173009E+04  0.88924711229E+03 0.  0.
        -24    2    4    4    0    0 -0.13592320821E+03  0.41192624838E+03  0.13029966525E+04  0.13756498547E+04  0.80336129451E+02 0.  0.
         24    2    4    4    0    0 -0.67228070369E+03 -0.17965928695E+03  0.85594263112E+03  0.11060674462E+04  0.80675918644E+02 0.  0.
         11    1    3    3    0    0  0.23492199538E+03 -0.41580455976E+02 -0.11839147561E+03  0.26633403787E+03  0.00000000000E+00 0. -1.
        -11    1    3    3    0    0  0.57328191652E+03 -0.19068650545E+03 -0.17850019986E+03  0.62998080964E+03  0.00000000000E+00 0.  1.
          2    1    6    6  502    0 -0.14165434243E+03 -0.16130672090E+02  0.13755392893E+03  0.19810914839E+03  0.00000000000E+00 0. -1.
          1    1    5    5  503    0 -0.10152551622E+03  0.30092777240E+03  0.10552016858E+04  0.11019598688E+04  0.00000000000E+00 0. -1.
         -2    1    5    5    0  503 -0.34397691982E+02  0.11099847598E+03  0.24779496666E+03  0.27368998591E+03  0.00000000000E+00 0.  1.
         -1    1    6    6    0  502 -0.53062636126E+03 -0.16352861486E+03  0.71838870219E+03  0.90795829781E+03  0.00000000000E+00 0.  1.
<mgrwt>
<rscale>  0 0.28184889E+04</rscale>
<asrwt>0</asrwt>
<pdfrwt beam="1">  1        2 0.40308305E+00 0.28184889E+04</pdfrwt>
<pdfrwt beam="2">  1       -2 0.11661420E+00 0.28184889E+04</pdfrwt>
<totfact> 0.14659957E+00</totfact>
</mgrwt>
</event>
<event>
12    1  0.1489025E-007  0.1102860E+04  0.7818608E-02  0.9202409E-01
         -2   -1    0    0    0  501 -0.00000000000E+00  0.00000000000E+00  0.73660269209E+02  0.73660269209E+02  0.00000000000E+00 0.  1.
          2   -1    0    0  501    0  0.00000000000E+00 -0.00000000000E+00 -0.41280721433E+04  0.41280721433E+04  0.00000000000E+00 0. -1.
         23    2    1    2    0    0  0.34067163542E+02  0.19325983947E+02 -0.82094597346E+02  0.12880350336E+03  0.91196240473E+02 0.  0.
        254    2    1    2    0    0 -0.34067163542E+02 -0.19325983947E+02 -0.39723172767E+04  0.40729289091E+04  0.89883885463E+03 0.  0.
        -24    2    4    4    0    0  0.35726774591E+03  0.94156553806E+02 -0.95705697620E+03  0.10289854252E+04  0.79669635270E+02 0.  0.
         24    2    4    4    0    0 -0.39133490945E+03 -0.11348253775E+03 -0.30152603005E+04  0.30439434839E+04  0.88181378133E+02 0.  0.
         13    1    3    3    0    0 -0.16974692656E+02 -0.19714562090E+02 -0.19652379217E+01  0.26089582389E+02  0.00000000000E+00 0. -1.
        -13    1    3    3    0    0  0.51041856198E+02  0.39040546037E+02 -0.80129359424E+02  0.10271392097E+03  0.00000000000E+00 0.  1.
          2    1    6    6  502    0 -0.57590289806E+02 -0.18570838853E+02 -0.72852162265E+03  0.73103028132E+03  0.00000000000E+00 0. -1.
          1    1    5    5  503    0  0.14724195634E+02 -0.33761306261E+01 -0.95925518555E+02  0.97107699515E+02  0.00000000000E+00 0. -1.
         -2    1    5    5    0  503  0.34254355027E+03  0.97532684432E+02 -0.86113145764E+03  0.93187772573E+03  0.00000000000E+00 0.  1.
         -1    1    6    6    0  502 -0.33374461964E+03 -0.94911698900E+02 -0.22867386779E+04  0.23129132026E+04  0.00000000000E+00 0.  1.
<mgrwt>
<rscale>  0 0.11028597E+04</rscale>
<asrwt>0</asrwt>
<pdfrwt beam="1">  1        2 0.63508802E+00 0.11028597E+04</pdfrwt>
<pdfrwt beam="2">  1       -2 0.11332349E-01 0.11028597E+04</pdfrwt>
<totfact> 0.15720757E+01</totfact>
</mgrwt>
</event>
<event>
12    1  0.1489025E-007  0.1213738E+04  0.7818608E-02  0.9100916E-01
          1   -1    0    0  501    0  0.00000000000E+00  0.00000000000E+00  0.57135879558E+03  0.57135879558E+03  0.00000000000E+00 0. -1.
         -1   -1    0    0    0  501 -0.00000000000E+00 -0.00000000000E+00 -0.64458617072E+03  0.64458617072E+03  0.00000000000E+00 0.  1.
         23    2    1    2    0    0  0.16021450612E+03 -0.16829998600E+03 -0.13462042834E+03  0.28407743534E+03  0.92648563315E+02 0.  0.
        254    2    1    2    0    0 -0.16021450612E+03  0.16829998600E+03  0.61393053199E+02  0.93186753096E+03  0.90034127698E+03 0.  0.
        -24    2    4    4    0    0 -0.45195132767E+03  0.35058963345E+03  0.43720541806E+02  0.57841754871E+03  0.74042428493E+02 0.  0.
         24    2    4    4    0    0  0.29173682155E+03 -0.18228964745E+03  0.17672511393E+02  0.35344998225E+03  0.79212900972E+02 0.  0.
         13    1    3    3    0    0  0.12843453706E+03 -0.17429565585E+03 -0.10678375197E+03  0.24140666032E+03  0.00000000000E+00 0.  1.
        -13    1    3    3    0    0  0.31779969052E+02  0.59956698497E+01 -0.27836676367E+02  0.42670775023E+02  0.00000000000E+00 0. -1.
          2    1    6    6  502    0  0.24912341388E+03 -0.14041548812E+03  0.41817211458E+02  0.28901152887E+03  0.00000000000E+00 0. -1.
          3    1    5    5  503    0 -0.43056212827E+03  0.34615839312E+03  0.31423309482E+02  0.55335052527E+03  0.00000000000E+00 0. -1.
         -4    1    5    5    0  503 -0.21389199392E+02  0.44312403281E+01  0.12297232325E+02  0.25067023444E+02  0.00000000000E+00 0.  1.
         -1    1    6    6    0  502  0.42613407673E+02 -0.41874159333E+02 -0.24144700066E+02  0.64438453385E+02  0.00000000000E+00 0.  1.
<mgrwt>
<rscale>  0 0.12137380E+04</rscale>
<asrwt>0</asrwt>
<pdfrwt beam="1">  1        1 0.87901353E-01 0.12137380E+04</pdfrwt>
<pdfrwt beam="2">  1       -1 0.99167104E-01 0.12137380E+04</pdfrwt>
<totfact> 0.35316725E+01</totfact>
</mgrwt>
</event>
<event>
12    1  0.1489025E-007  0.3481017E+04  0.7818608E-02  0.8118303E-01
         -1   -1    0    0    0  501 -0.00000000000E+00  0.00000000000E+00  0.18827435612E+04  0.18827435612E+04  0.00000000000E+00 0.  1.
          1   -1    0    0  501    0  0.00000000000E+00 -0.00000000000E+00 -0.16090188912E+04  0.16090188912E+04  0.00000000000E+00 0. -1.
         23    2    1    2    0    0  0.64824127009E+02  0.81037605291E+02  0.17550562500E+04  0.17605624078E+04  0.92673028754E+02 0.  0.
        254    2    1    2    0    0 -0.64824127009E+02 -0.81037605291E+02 -0.14813315799E+04  0.17312000446E+04  0.88991071672E+03 0.  0.
        -24    2    4    4    0    0  0.18888381449E+03  0.33478951424E+03 -0.77092692723E+03  0.86603812145E+03  0.89065068661E+02 0.  0.
         24    2    4    4    0    0 -0.25370794149E+03 -0.41582711953E+03 -0.71040465272E+03  0.86516192314E+03  0.80934972281E+02 0.  0.
         11    1    3    3    0    0  0.32728311782E+01  0.34954985160E+02  0.16722834852E+03  0.17087388027E+03  0.00000000000E+00 0. -1.
        -11    1    3    3    0    0  0.61551295831E+02  0.46082620131E+02  0.15878279015E+04  0.15896885276E+04  0.00000000000E+00 0.  1.
          2    1    6    6  502    0 -0.23391646301E+03 -0.40890458999E+03 -0.66292295791E+03  0.81325686194E+03  0.00000000000E+00 0. -1.
          1    1    5    5  503    0  0.65365991596E+02  0.13071959449E+03 -0.39113093442E+03  0.41754488753E+03  0.00000000000E+00 0. -1.
         -2    1    5    5    0  503  0.12351782289E+03  0.20406991975E+03 -0.37979599281E+03  0.44849323393E+03  0.00000000000E+00 0.  1.
         -3    1    6    6    0  502 -0.19791478489E+02 -0.69225295439E+01 -0.47481694807E+02  0.51905061196E+02  0.00000000000E+00 0.  1.
<mgrwt>
<rscale>  0 0.34810171E+04</rscale>
<asrwt>0</asrwt>
<pdfrwt beam="1">  1        1 0.24754137E+00 0.34810171E+04</pdfrwt>
<pdfrwt beam="2">  1       -1 0.28965285E+00 0.34810171E+04</pdfrwt>
<totfact> 0.17322574E-01</totfact>
</mgrwt>
</event>
<event>
12    1  0.1731950E-007  0.1600640E+04  0.7818608E-02  0.8820155E-01
          2   -1    0    0  501    0  0.00000000000E+00  0.00000000000E+00  0.92454286591E+03  0.92454286591E+03  0.00000000000E+00 0. -1.
         -2   -1    0    0    0  501 -0.00000000000E+00 -0.00000000000E+00 -0.69278795365E+03  0.69278795365E+03  0.00000000000E+00 0.  1.
         23    2    1    2    0    0  0.77644687533E+02  0.32340911286E+03  0.53260311261E+03  0.63446492552E+03  0.90870866507E+02 0.  0.
        254    2    1    2    0    0 -0.77644687533E+02 -0.32340911286E+03 -0.30084820035E+03  0.98286589404E+03  0.87458194255E+03 0.  0.
        -24    2    4    4    0    0 -0.12064794881E+03 -0.47527359290E+03  0.13318904830E+03  0.51443075611E+03  0.80366439358E+02 0.  0.
         24    2    4    4    0    0  0.43003261281E+02  0.15186448005E+03 -0.43403724866E+03  0.46843513793E+03  0.78300986256E+02 0.  0.
         11    1    3    3    0    0  0.81926277493E+02  0.31868663125E+03  0.48287446754E+03  0.58432938937E+03  0.00000000000E+00 0. -1.
        -11    1    3    3    0    0 -0.42815899595E+01  0.47224816106E+01  0.49728645072E+02  0.50135536158E+02  0.00000000000E+00 0.  1.
          2    1    6    6  502    0  0.50025481177E+02  0.12531478119E+03 -0.26702498933E+03  0.29918002621E+03  0.00000000000E+00 0. -1.
          3    1    5    5  503    0 -0.92601423517E+02 -0.31790265404E+03  0.52099761459E+02  0.33518876208E+03  0.00000000000E+00 0. -1.
         -2    1    5    5    0  503 -0.28046525297E+02 -0.15737093886E+03  0.81089286846E+02  0.17924199402E+03  0.00000000000E+00 0.  1.
         -1    1    6    6    0  502 -0.70222198964E+01  0.26549698854E+02 -0.16701225932E+03  0.16925511173E+03  0.00000000000E+00 0.  1.
<mgrwt>
<rscale>  0 0.16006401E+04</rscale>
<asrwt>0</asrwt>
<pdfrwt beam="1">  1        2 0.14223736E+00 0.16006401E+04</pdfrwt>
<pdfrwt beam="2">  1       -2 0.10658276E+00 0.16006401E+04</pdfrwt>
<totfact> 0.19195618E+01</totfact>
</mgrwt>
</event>
<event>
12    1  0.1489025E-007  0.1407729E+04  0.7818608E-02  0.8948243E-01
         -2   -1    0    0    0  501 -0.00000000000E+00  0.00000000000E+00  0.89294183331E+03  0.89294183331E+03  0.00000000000E+00 0. -1.
          2   -1    0    0  501    0  0.00000000000E+00 -0.00000000000E+00 -0.55482330626E+03  0.55482330626E+03  0.00000000000E+00 0.  1.
         23    2    1    2    0    0 -0.23239390166E+03  0.24077449969E+03  0.33939228608E+03  0.48479069223E+03  0.88631857694E+02 0.  0.
        254    2    1    2    0    0  0.23239390166E+03 -0.24077449969E+03 -0.12737590324E+01  0.96297444734E+03  0.90296117222E+03 0.  0.
        -24    2    4    4    0    0  0.97222361122E+02 -0.34058898482E+03 -0.38966256862E+03  0.53264845013E+03  0.80152417059E+02 0.  0.
         24    2    4    4    0    0  0.13517154053E+03  0.99814485124E+02  0.38838880958E+03  0.43032599721E+03  0.78104543119E+02 0.  0.
         11    1    3    3    0    0  0.12641571893E+01  0.30864820419E+02  0.19829724092E+02  0.36707672092E+02  0.00000000000E+00 0.  1.
        -11    1    3    3    0    0 -0.23365805885E+03  0.20990967928E+03  0.31956256198E+03  0.44808302014E+03  0.00000000000E+00 0. -1.
          2    1    6    6  502    0  0.33954859822E+02  0.27098017633E+01  0.29719032312E+02  0.45205048531E+02  0.00000000000E+00 0. -1.
          3    1    5    5  503    0  0.71066472668E+02 -0.13685585372E+03 -0.13092358998E+03  0.20228928456E+03  0.00000000000E+00 0. -1.
         -4    1    5    5    0  503  0.26155888454E+02 -0.20373313110E+03 -0.25873897864E+03  0.33035916557E+03  0.00000000000E+00 0.  1.
         -1    1    6    6    0  502  0.10121668071E+03  0.97104683361E+02  0.35866977727E+03  0.38512094868E+03  0.00000000000E+00 0.  1.
<mgrwt>
<rscale>  0 0.14077286E+04</rscale>
<asrwt>0</asrwt>
<pdfrwt beam="1">  1        2 0.85357432E-01 0.14077286E+04</pdfrwt>
<pdfrwt beam="2">  1       -2 0.13737567E+00 0.14077286E+04</pdfrwt>
<totfact> 0.19980741E+01</totfact>
</mgrwt>
</event>
<event>
12    1  0.1489025E-007  0.1904281E+04  0.7818608E-02  0.8652728E-01
         -1   -1    0    0    0  501 -0.00000000000E+00  0.00000000000E+00  0.24371826830E+03  0.24371826830E+03  0.00000000000E+00 0.  1.
          1   -1    0    0  501    0  0.00000000000E+00 -0.00000000000E+00 -0.37197532628E+04  0.37197532628E+04  0.00000000000E+00 0. -1.
         23    2    1    2    0    0  0.27583165849E+03  0.51679692025E+03 -0.23396476164E+04  0.24136506159E+04  0.92715512676E+02 0.  0.
        254    2    1    2    0    0 -0.27583165849E+03 -0.51679692025E+03 -0.11363873781E+04  0.15498209152E+04  0.87601737162E+03 0.  0.
        -24    2    4    4    0    0 -0.98430826702E+02 -0.69837557380E+03 -0.52440816408E+03  0.88248499250E+03  0.79741894280E+02 0.  0.
         24    2    4    4    0    0 -0.17740083178E+03  0.18157865355E+03 -0.61197921405E+03  0.66733592269E+03  0.79854948144E+02 0.  0.
         11    1    3    3    0    0  0.17273562124E+03  0.28418475347E+03 -0.11512973893E+04  0.11983673258E+04  0.00000000000E+00 0. -1.
        -11    1    3    3    0    0  0.10309603725E+03  0.23261216678E+03 -0.11883502270E+04  0.12152832901E+04  0.00000000000E+00 0.  1.
          4    1    6    6  502    0 -0.52421254705E+02  0.76886291357E+02 -0.14102381907E+03  0.16895918823E+03  0.00000000000E+00 0. -1.
          3    1    5    5  503    0 -0.53694715135E+02 -0.48772499494E+03 -0.40513488171E+03  0.63631208184E+03  0.00000000000E+00 0. -1.
         -4    1    5    5    0  503 -0.44736111568E+02 -0.21065057887E+03 -0.11927328238E+03  0.24617291066E+03  0.00000000000E+00 0.  1.
         -3    1    6    6    0  502 -0.12497957708E+03  0.10469236220E+03 -0.47095539498E+03  0.49837673446E+03  0.00000000000E+00 0.  1.
<mgrwt>
<rscale>  0 0.19042813E+04</rscale>
<asrwt>0</asrwt>
<pdfrwt beam="1">  1        1 0.57226970E+00 0.19042813E+04</pdfrwt>
<pdfrwt beam="2">  1       -1 0.37495120E-01 0.19042813E+04</pdfrwt>
<totfact> 0.10728127E+00</totfact>
</mgrwt>
</event>
<event>
12    1  0.1489025E-007  0.2741075E+04  0.7818608E-02  0.8321799E-01
          1   -1    0    0  501    0  0.00000000000E+00  0.00000000000E+00  0.16347867604E+04  0.16347867604E+04  0.00000000000E+00 0. -1.
         -1   -1    0    0    0  501 -0.00000000000E+00 -0.00000000000E+00 -0.11490018513E+04  0.11490018513E+04  0.00000000000E+00 0.  1.
         23    2    1    2    0    0  0.10092217957E+04 -0.55306242721E+03 -0.19618916867E+03  0.11709589437E+04  0.90818371445E+02 0.  0.
        254    2    1    2    0    0 -0.10092217957E+04  0.55306242721E+03  0.68197407778E+03  0.16128296680E+04  0.90095738746E+03 0.  0.
        -24    2    4    4    0    0 -0.50072511051E+03  0.49489265294E+03  0.81371638439E+03  0.10784338689E+04  0.72393930294E+02 0.  0.
         24    2    4    4    0    0 -0.50849668521E+03  0.58169774266E+02 -0.13174230660E+03  0.53439579915E+03  0.79184804669E+02 0.  0.
         13    1    3    3    0    0  0.71347430109E+02 -0.14329879616E+02 -0.14815053304E+02  0.74264978539E+02  0.00000000000E+00 0. -1.
        -13    1    3    3    0    0  0.93787436561E+03 -0.53873254759E+03 -0.18137411537E+03  0.10966939652E+04  0.00000000000E+00 0.  1.
          2    1    6    6  502    0 -0.11801339708E+03  0.81949297178E+01  0.29169580745E+01  0.11833354304E+03  0.00000000000E+00 0. -1.
          1    1    5    5  503    0 -0.14041046124E+03  0.18201396112E+03  0.28652475438E+03  0.36734263916E+03  0.00000000000E+00 0. -1.
         -2    1    5    5    0  503 -0.36031464927E+03  0.31287869182E+03  0.52719163000E+03  0.71109122975E+03  0.00000000000E+00 0.  1.
         -1    1    6    6    0  502 -0.39048328813E+03  0.49974844548E+02 -0.13465926468E+03  0.41606225611E+03  0.00000000000E+00 0.  1.
<mgrwt>
<rscale>  0 0.27410750E+04</rscale>
<asrwt>0</asrwt>
<pdfrwt beam="1">  1        1 0.25150566E+00 0.27410750E+04</pdfrwt>
<pdfrwt beam="2">  1       -1 0.17676952E+00 0.27410750E+04</pdfrwt>
<totfact> 0.10091764E+00</totfact>
</mgrwt>
</event>
<event>
12    1  0.1489025E-007  0.1495493E+04  0.7818608E-02  0.8887456E-01
         -1   -1    0    0    0  501 -0.00000000000E+00  0.00000000000E+00  0.48648349026E+03  0.48648349026E+03  0.00000000000E+00 0.  1.
          1   -1    0    0  501    0  0.00000000000E+00 -0.00000000000E+00 -0.11493193638E+04  0.11493193638E+04  0.00000000000E+00 0. -1.
         23    2    1    2    0    0 -0.27325429633E+02  0.66683488712E+02 -0.72369076761E+03  0.73311850377E+03  0.92417783339E+02 0.  0.
        254    2    1    2    0    0  0.27325429633E+02 -0.66683488712E+02  0.60854894080E+02  0.90268435028E+03  0.89774292052E+03 0.  0.
        -24    2    4    4    0    0 -0.27385889100E+03  0.11455733176E+03  0.33156050943E+03  0.45193375355E+03  0.78674466920E+02 0.  0.
         24    2    4    4    0    0  0.30118432063E+03 -0.18124082047E+03 -0.27070561535E+03  0.45075059673E+03  0.79588568723E+02 0.  0.
         13    1    3    3    0    0 -0.52950373173E+02  0.57747099122E+02 -0.64781151165E+03  0.65253216327E+03  0.00000000000E+00 0. -1.
        -13    1    3    3    0    0  0.25624943540E+02  0.89363895903E+01 -0.75879255954E+02  0.80586340495E+02  0.00000000000E+00 0.  1.
          4    1    6    6  502    0  0.26233231248E+03 -0.12143070018E+03 -0.21869854710E+03  0.36248132589E+03  0.00000000000E+00 0. -1.
          3    1    5    5  503    0 -0.46909941230E+02 -0.10240294891E+02  0.55870909780E+02  0.73667935938E+02  0.00000000000E+00 0. -1.
         -4    1    5    5    0  503 -0.22694894977E+03  0.12479762665E+03  0.27568959965E+03  0.37826581761E+03  0.00000000000E+00 0.  1.
         -3    1    6    6    0  502  0.38852008155E+02 -0.59810120286E+02 -0.52007068253E+02  0.88269270840E+02  0.00000000000E+00 0.  1.
<mgrwt>
<rscale>  0 0.14954931E+04</rscale>
<asrwt>0</asrwt>
<pdfrwt beam="1">  1        1 0.17681836E+00 0.14954931E+04</pdfrwt>
<pdfrwt beam="2">  1       -1 0.74843614E-01 0.14954931E+04</pdfrwt>
<totfact> 0.20239611E+01</totfact>
</mgrwt>
</event>
<event>
12    1  0.1489025E-007  0.3615107E+04  0.7818608E-02  0.8087040E-01
         -2   -1    0    0    0  501 -0.00000000000E+00  0.00000000000E+00  0.13969576854E+04  0.13969576854E+04  0.00000000000E+00 0.  1.
          2   -1    0    0  501    0  0.00000000000E+00 -0.00000000000E+00 -0.23388321234E+04  0.23388321234E+04  0.00000000000E+00 0. -1.
         23    2    1    2    0    0 -0.24218511718E+03  0.16203281950E+04  0.87472827124E+01  0.16409231566E+04  0.91843346710E+02 0.  0.
        254    2    1    2    0    0  0.24218511718E+03 -0.16203281950E+04 -0.95062172079E+03  0.20948666522E+04  0.89480028159E+03 0.  0.
        -24    2    4    4    0    0 -0.24103218238E+03 -0.10608403715E+04 -0.37030655742E+03  0.11519137054E+04  0.79368957227E+02 0.  0.
         24    2    4    4    0    0  0.48321729956E+03 -0.55948782347E+03 -0.58031516337E+03  0.94295294681E+03  0.76609319551E+02 0.  0.
         13    1    3    3    0    0 -0.20117369124E+03  0.12275978053E+04  0.41815806765E+02  0.12446749726E+04  0.00000000000E+00 0.  1.
        -13    1    3    3    0    0 -0.41011425938E+02  0.39273038970E+03 -0.33068524053E+02  0.39624818402E+03  0.00000000000E+00 0. -1.
          4    1    6    6  502    0  0.37420835643E+03 -0.41850073777E+03 -0.39923660090E+03  0.68888651100E+03  0.00000000000E+00 0. -1.
          3    1    5    5  503    0 -0.11977758081E+03 -0.51112613203E+03 -0.22044252658E+03  0.56937816891E+03  0.00000000000E+00 0. -1.
         -4    1    5    5    0  503 -0.12125460157E+03 -0.54971423952E+03 -0.14986403083E+03  0.58253553649E+03  0.00000000000E+00 0.  1.
         -3    1    6    6    0  502  0.10900894313E+03 -0.14098708570E+03 -0.18107856248E+03  0.25406643581E+03  0.00000000000E+00 0.  1.
<mgrwt>
<rscale>  0 0.36151069E+04</rscale>
<asrwt>0</asrwt>
<pdfrwt beam="1">  1        2 0.35982032E+00 0.36151069E+04</pdfrwt>
<pdfrwt beam="2">  1       -2 0.21491657E+00 0.36151069E+04</pdfrwt>
<totfact> 0.37348338E-01</totfact>
</mgrwt>
</event>
<event>
12    1  0.1489025E-007  0.1568736E+04  0.7818608E-02  0.8839989E-01
          2   -1    0    0  501    0  0.00000000000E+00  0.00000000000E+00  0.12670693212E+04  0.12670693212E+04  0.00000000000E+00 0. -1.
         -2   -1    0    0    0  501 -0.00000000000E+00 -0.00000000000E+00 -0.48555577556E+03  0.48555577556E+03  0.00000000000E+00 0.  1.
         23    2    1    2    0    0 -0.50818377914E+03  0.10986770064E+03  0.33857226071E+03  0.62669339601E+03  0.88271013714E+02 0.  0.
        254    2    1    2    0    0  0.50818377914E+03 -0.10986770064E+03  0.44294128489E+03  0.11259317007E+04  0.89509974180E+03 0.  0.
        -24    2    4    4    0    0  0.12022794307E+03 -0.32716323192E+03 -0.14365298824E+03  0.38541233211E+03  0.80099601114E+02 0.  0.
         24    2    4    4    0    0  0.38795583607E+03  0.21729553128E+03  0.58659427313E+03  0.74051936859E+03  0.80925986785E+02 0.  0.
         13    1    3    3    0    0 -0.14061196630E+03  0.27016871193E+02  0.14220312241E+03  0.20180030827E+03  0.00000000000E+00 0.  1.
        -13    1    3    3    0    0 -0.36757181284E+03  0.82850829448E+02  0.19636913830E+03  0.42489308775E+03  0.00000000000E+00 0. -1.
          4    1    6    6  502    0  0.23956823380E+03  0.17417185091E+03  0.35882112913E+03  0.46527559038E+03  0.00000000000E+00 0. -1.
          1    1    5    5  503    0  0.93854545047E+02 -0.31218276997E+03 -0.14030352550E+03  0.35489693823E+03  0.00000000000E+00 0. -1.
         -2    1    5    5    0  503  0.26373398024E+02 -0.14980461944E+02 -0.33494627469E+01  0.30515393887E+02  0.00000000000E+00 0.  1.
         -3    1    6    6    0  502  0.14838760227E+03  0.43123680372E+02  0.22777314400E+03  0.27524377822E+03  0.00000000000E+00 0.  1.
<mgrwt>
<rscale>  0 0.15687356E+04</rscale>
<asrwt>0</asrwt>
<pdfrwt beam="1">  1        2 0.19493374E+00 0.15687356E+04</pdfrwt>
<pdfrwt beam="2">  1       -2 0.74700889E-01 0.15687356E+04</pdfrwt>
<totfact> 0.26764738E+01</totfact>
</mgrwt>
</event>
<event>
12    1  0.1489025E-007  0.1394711E+04  0.7818608E-02  0.8957656E-01
          1   -1    0    0  501    0  0.00000000000E+00  0.00000000000E+00  0.42992793977E+03  0.42992793977E+03  0.00000000000E+00 0. -1.
         -1   -1    0    0    0  501 -0.00000000000E+00 -0.00000000000E+00 -0.11311302430E+04  0.11311302430E+04  0.00000000000E+00 0.  1.
         23    2    1    2    0    0  0.33947248506E+02  0.29137274834E+03 -0.50247528472E+03  0.58961276417E+03  0.95453160093E+02 0.  0.
        254    2    1    2    0    0 -0.33947248506E+02 -0.29137274834E+03 -0.19872701850E+03  0.97144541857E+03  0.90452378588E+03 0.  0.
        -24    2    4    4    0    0  0.47247482000E+02 -0.60341951858E+03 -0.19286216573E+03  0.63955203817E+03  0.74051027017E+02 0.  0.
         24    2    4    4    0    0 -0.81194730506E+02  0.31204677024E+03 -0.58648527725E+01  0.33189338040E+03  0.78441369026E+02 0.  0.
         11    1    3    3    0    0  0.54765756718E+01  0.24392112618E+03 -0.34388274958E+03  0.42164304114E+03  0.00000000000E+00 0. -1.
        -11    1    3    3    0    0  0.28470672834E+02  0.47451622154E+02 -0.15859253513E+03  0.16796972304E+03  0.00000000000E+00 0.  1.
          4    1    6    6  502    0 -0.85938969973E+02  0.18252860607E+03 -0.12356270943E+02  0.20212589153E+03  0.00000000000E+00 0. -1.
          1    1    5    5  503    0  0.19963464629E+02 -0.53185237793E+02 -0.33950248110E+02  0.66180274900E+02  0.00000000000E+00 0. -1.
         -2    1    5    5    0  503  0.27284017372E+02 -0.55023428079E+03 -0.15891191762E+03  0.57337176327E+03  0.00000000000E+00 0.  1.
         -3    1    6    6    0  502  0.47442394667E+01  0.12951816417E+03  0.64914181702E+01  0.12976748887E+03  0.00000000000E+00 0.  1.
<mgrwt>
<rscale>  0 0.13947107E+04</rscale>
<asrwt>0</asrwt>
<pdfrwt beam="1">  1        1 0.66142760E-01 0.13947107E+04</pdfrwt>
<pdfrwt beam="2">  1       -1 0.17402004E+00 0.13947107E+04</pdfrwt>
<totfact> 0.12214607E+01</totfact>
</mgrwt>
</event>
<event>
12    1  0.1489025E-007  0.1864101E+04  0.7818608E-02  0.8672935E-01
         -1   -1    0    0    0  501 -0.00000000000E+00  0.00000000000E+00  0.84113421755E+03  0.84113421755E+03  0.00000000000E+00 0.  1.
          1   -1    0    0  501    0  0.00000000000E+00 -0.00000000000E+00 -0.10327936587E+04  0.10327936587E+04  0.00000000000E+00 0. -1.
         23    2    1    2    0    0 -0.93545208926E+02  0.29564103133E+03  0.56529432477E+03  0.65023641467E+03  0.84234172548E+02 0.  0.
        254    2    1    2    0    0  0.93545208926E+02 -0.29564103133E+03 -0.75695376596E+03  0.12236914616E+04  0.91010299633E+03 0.  0.
        -24    2    4    4    0    0  0.17033719566E+03  0.29921146966E+03 -0.23440066835E+03  0.42409849407E+03  0.79834801661E+02 0.  0.
         24    2    4    4    0    0 -0.76791986735E+02 -0.59485250099E+03 -0.52255309761E+03  0.79959296754E+03  0.80874388813E+02 0.  0.
         13    1    3    3    0    0 -0.35365225172E+02  0.11204208000E+03  0.30175984369E+03  0.32382577122E+03  0.00000000000E+00 0.  1.
        -13    1    3    3    0    0 -0.58179983754E+02  0.18359895133E+03  0.26353448108E+03  0.32641064345E+03  0.00000000000E+00 0. -1.
          4    1    6    6  502    0 -0.20592825726E+02 -0.30073256984E+03 -0.30991855657E+03  0.43233511856E+03  0.00000000000E+00 0. -1.
          1    1    5    5  503    0  0.52761145108E+02  0.43133346677E+02 -0.23328319524E+02  0.72030788698E+02  0.00000000000E+00 0. -1.
         -2    1    5    5    0  503  0.11757605055E+03  0.25607812298E+03 -0.21107234882E+03  0.35206770538E+03  0.00000000000E+00 0.  1.
         -3    1    6    6    0  502 -0.56199161009E+02 -0.29411993115E+03 -0.21263454104E+03  0.36725784898E+03  0.00000000000E+00 0.  1.
<mgrwt>
<rscale>  0 0.18641009E+04</rscale>
<asrwt>0</asrwt>
<pdfrwt beam="1">  1        1 0.15889133E+00 0.18641009E+04</pdfrwt>
<pdfrwt beam="2">  1       -1 0.12940526E+00 0.18641009E+04</pdfrwt>
<totfact> 0.68708361E+00</totfact>
</mgrwt>
</event>
<event>
12    1  0.1489025E-007  0.2193832E+04  0.7818608E-02  0.8521000E-01
         -1   -1    0    0    0  501 -0.00000000000E+00  0.00000000000E+00  0.12161572591E+04  0.12161572591E+04  0.00000000000E+00 0.  1.
          1   -1    0    0  501    0  0.00000000000E+00 -0.00000000000E+00 -0.98936645402E+03  0.98936645402E+03  0.00000000000E+00 0. -1.
         23    2    1    2    0    0  0.54838836052E+03 -0.47703136142E+03 -0.45813475444E+03  0.86388647768E+03  0.90131456007E+02 0.  0.
        254    2    1    2    0    0 -0.54838836052E+03  0.47703136142E+03  0.68492555955E+03  0.13416372355E+04  0.89586758831E+03 0.  0.
        -24    2    4    4    0    0 -0.58380568362E+03  0.69587135954E+03  0.59825354482E+03  0.10905746619E+04  0.79873424941E+02 0.  0.
         24    2    4    4    0    0  0.35417323095E+02 -0.21883999812E+03  0.86672014726E+02  0.25106257359E+03  0.79843886231E+02 0.  0.
         13    1    3    3    0    0  0.28601259029E+03 -0.22399371676E+03 -0.27704279958E+03  0.45686879928E+03  0.00000000000E+00 0. -1.
        -13    1    3    3    0    0  0.26237577023E+03 -0.25303764466E+03 -0.18109195485E+03  0.40701767840E+03  0.00000000000E+00 0.  1.
          4    1    6    6  502    0 -0.10748733901E+02 -0.35263023060E+02  0.43294288672E+02  0.56863094423E+02  0.00000000000E+00 0. -1.
          3    1    5    5  503    0 -0.23744863026E+03  0.24914178772E+03  0.26510662885E+03  0.43443642465E+03  0.00000000000E+00 0. -1.
         -4    1    5    5    0  503 -0.34635705336E+03  0.44672957182E+03  0.33314691597E+03  0.65613823724E+03  0.00000000000E+00 0.  1.
         -3    1    6    6    0  502  0.46166056996E+02 -0.18357697506E+03  0.43377726054E+02  0.19419947917E+03  0.00000000000E+00 0.  1.
<mgrwt>
<rscale>  0 0.21938324E+04</rscale>
<asrwt>0</asrwt>
<pdfrwt beam="1">  1        1 0.15221022E+00 0.21938324E+04</pdfrwt>
<pdfrwt beam="2">  1       -1 0.18710112E+00 0.21938324E+04</pdfrwt>
<totfact> 0.26059790E+00</totfact>
</mgrwt>
</event>
<event>
12    1  0.1489025E-007  0.1644174E+04  0.7818608E-02  0.8793860E-01
          1   -1    0    0  501    0  0.00000000000E+00  0.00000000000E+00  0.14010806145E+04  0.14010806145E+04  0.00000000000E+00 0. -1.
         -1   -1    0    0    0  501 -0.00000000000E+00 -0.00000000000E+00 -0.48236153964E+03  0.48236153964E+03  0.00000000000E+00 0.  1.
         23    2    1    2    0    0  0.45994369744E+03 -0.31082124576E+03  0.48533331391E+03  0.74351234939E+03  0.95415598682E+02 0.  0.
        254    2    1    2    0    0 -0.45994369744E+03  0.31082124576E+03  0.43338576096E+03  0.11399298048E+04  0.89635857242E+03 0.  0.
        -24    2    4    4    0    0  0.33258217252E+02  0.49792332333E+03  0.11272355753E+03  0.51764185684E+03  0.78820978156E+02 0.  0.
         24    2    4    4    0    0 -0.49320191470E+03 -0.18710207757E+03  0.32066220343E+03  0.62228794793E+03  0.78503027608E+02 0.  0.
         11    1    3    3    0    0  0.16417116282E+02  0.35885588528E+01  0.37321824625E+01  0.17214199011E+02  0.00000000000E+00 0.  1.
        -11    1    3    3    0    0  0.44352658116E+03 -0.31440980461E+03  0.48160113144E+03  0.72629815038E+03  0.00000000000E+00 0. -1.
          4    1    6    6  502    0 -0.24180201280E+02  0.35061323524E+01  0.29337166904E+02  0.38179110256E+02  0.00000000000E+00 0. -1.
          1    1    5    5  503    0  0.32329312641E+02  0.30806671956E+03  0.32251571976E+02  0.31143290136E+03  0.00000000000E+00 0. -1.
         -2    1    5    5    0  503  0.92890461127E+00  0.18985660377E+03  0.80471985558E+02  0.20620895547E+03  0.00000000000E+00 0.  1.
         -3    1    6    6    0  502 -0.46902171342E+03 -0.19060820992E+03  0.29132503653E+03  0.58410883768E+03  0.00000000000E+00 0.  1.
<mgrwt>
<rscale>  0 0.16441744E+04</rscale>
<asrwt>0</asrwt>
<pdfrwt beam="1">  1        1 0.21555086E+00 0.16441744E+04</pdfrwt>
<pdfrwt beam="2">  1       -1 0.74209468E-01 0.16441744E+04</pdfrwt>
<totfact> 0.13403155E+01</totfact>
</mgrwt>
</event>
<event>
12    1  0.1489025E-007  0.1324662E+04  0.7818608E-02  0.9010234E-01
          2   -1    0    0  501    0  0.00000000000E+00  0.00000000000E+00  0.14741072618E+04  0.14741072618E+04  0.00000000000E+00 0. -1.
         -2   -1    0    0    0  501 -0.00000000000E+00 -0.00000000000E+00 -0.29759165747E+03  0.29759165747E+03  0.00000000000E+00 0.  1.
         23    2    1    2    0    0  0.75035273020E+02 -0.93035349818E+02 -0.11999173807E+03  0.19234494883E+03  0.91173974483E+02 0.  0.
        254    2    1    2    0    0 -0.75035273020E+02  0.93035349818E+02  0.12965073424E+04  0.15793539704E+04  0.89394731752E+03 0.  0.
        -24    2    4    4    0    0  0.60641433824E+02 -0.33291623591E+03  0.93906603619E+03  0.10015572224E+04  0.82226794235E+02 0.  0.
         24    2    4    4    0    0 -0.13567670684E+03  0.42595158573E+03  0.35744130620E+03  0.57779674807E+03  0.79005522209E+02 0.  0.
         13    1    3    3    0    0  0.68312605001E+01  0.76635221262E+01  0.99977156699E+01  0.14330038730E+02  0.00000000000E+00 0. -1.
        -13    1    3    3    0    0  0.68204012520E+02 -0.10069887194E+03 -0.12998945374E+03  0.17801491010E+03  0.00000000000E+00 0.  1.
          4    1    6    6  502    0 -0.96385605452E+02  0.17638262164E+03  0.14758439216E+03  0.24936352372E+03  0.00000000000E+00 0. -1.
          1    1    5    5  503    0  0.67960124101E+02 -0.19076683055E+03  0.61855748795E+03  0.65086398579E+03  0.00000000000E+00 0. -1.
         -2    1    5    5    0  503 -0.73186902769E+01 -0.14214940536E+03  0.32050854824E+03  0.35069323656E+03  0.00000000000E+00 0.  1.
         -3    1    6    6    0  502 -0.39291101392E+02  0.24956896409E+03  0.20985691403E+03  0.32843322434E+03  0.00000000000E+00 0.  1.
<mgrwt>
<rscale>  0 0.13246615E+04</rscale>
<asrwt>0</asrwt>
<pdfrwt beam="1">  1        2 0.22678573E+00 0.13246615E+04</pdfrwt>
<pdfrwt beam="2">  1       -2 0.45783333E-01 0.13246615E+04</pdfrwt>
<totfact> 0.58100159E+01</totfact>
</mgrwt>
</event>
<event>
12    1  0.1489025E-007  0.1917824E+04  0.7818608E-02  0.8646035E-01
          2   -1    0    0  501    0  0.00000000000E+00  0.00000000000E+00  0.11787787669E+04  0.11787787669E+04  0.00000000000E+00 0. -1.
         -2   -1    0    0    0  501 -0.00000000000E+00 -0.00000000000E+00 -0.78005474452E+03  0.78005474452E+03  0.00000000000E+00 0.  1.
         23    2    1    2    0    0 -0.63168869665E+03  0.30097918708E+02  0.56236536438E+03  0.85125679931E+03  0.91906697894E+02 0.  0.
        254    2    1    2    0    0  0.63168869665E+03 -0.30097918708E+02 -0.16364134197E+03  0.11075767122E+04  0.89443344656E+03 0.  0.
        -24    2    4    4    0    0  0.29668303350E+03 -0.44775815638E+03 -0.16050278998E+03  0.56619417224E+03  0.79413513437E+02 0.  0.
         24    2    4    4    0    0  0.33500566315E+03  0.41766023768E+03 -0.31385519861E+01  0.54138253991E+03  0.80102032019E+02 0.  0.
         11    1    3    3    0    0 -0.84328646346E+02  0.13451456968E+02  0.39410897358E+02  0.94050417966E+02  0.00000000000E+00 0.  1.
        -11    1    3    3    0    0 -0.54736005031E+03  0.16646461740E+02  0.52295446702E+03  0.75720638134E+03  0.00000000000E+00 0. -1.
          4    1    6    6  502    0  0.15642523385E+03  0.20248490960E+03  0.38238336706E+02  0.25871057728E+03  0.00000000000E+00 0. -1.
          1    1    5    5  503    0  0.28320415854E+03 -0.39034577172E+03 -0.15677782758E+03  0.50710324800E+03  0.00000000000E+00 0. -1.
         -2    1    5    5    0  503  0.13478874963E+02 -0.57412384665E+02 -0.37249624041E+01  0.59090924245E+02  0.00000000000E+00 0.  1.
         -3    1    6    6    0  502  0.17858042930E+03  0.21517532807E+03 -0.41376888692E+02  0.28267196264E+03  0.00000000000E+00 0.  1.
<mgrwt>
<rscale>  0 0.19178237E+04</rscale>
<asrwt>0</asrwt>
<pdfrwt beam="1">  1        2 0.18135058E+00 0.19178237E+04</pdfrwt>
<pdfrwt beam="2">  1       -2 0.12000842E+00 0.19178237E+04</pdfrwt>
<totfact> 0.96859957E+00</totfact>
</mgrwt>
</event>
<event>
12    1  0.1489025E-007  0.3900044E+04  0.7818608E-02  0.8025020E-01
          2   -1    0    0  501    0  0.00000000000E+00  0.00000000000E+00  0.12432685501E+04  0.12432685501E+04  0.00000000000E+00 0. -1.
         -2   -1    0    0    0  501 -0.00000000000E+00 -0.00000000000E+00 -0.30585400952E+04  0.30585400952E+04  0.00000000000E+00 0.  1.
         23    2    1    2    0    0  0.15476803428E+04 -0.36919054603E+02  0.24712724290E+03  0.15704088071E+04  0.91839464703E+02 0.  0.
        254    2    1    2    0    0 -0.15476803428E+04  0.36919054603E+02 -0.20623987880E+04  0.27313998382E+04  0.90021045057E+03 0.  0.
        -24    2    4    4    0    0 -0.11722737167E+04 -0.22128356503E+03 -0.18923591862E+04  0.22383543075E+04  0.77554068044E+02 0.  0.
         24    2    4    4    0    0 -0.37540662605E+03  0.25820261963E+03 -0.17003960181E+03  0.49304553064E+03  0.81127686017E+02 0.  0.
         11    1    3    3    0    0  0.59613387709E+03  0.64119387772E+01  0.55064018511E+02  0.59870590318E+03  0.00000000000E+00 0.  1.
        -11    1    3    3    0    0  0.95154646568E+03 -0.43330993381E+02  0.19206322439E+03  0.97170290392E+03  0.00000000000E+00 0. -1.
          2    1    6    6  502    0 -0.35284649712E+03  0.25533742041E+03 -0.17564024632E+03  0.46962468517E+03  0.00000000000E+00 0. -1.
          1    1    5    5  503    0 -0.60333376416E+03 -0.13998255361E+03 -0.10358647003E+04  0.12069061371E+04  0.00000000000E+00 0. -1.
         -2    1    5    5    0  503 -0.56893995256E+03 -0.81301011417E+02 -0.85649448587E+03  0.10314481705E+04  0.00000000000E+00 0.  1.
         -1    1    6    6    0  502 -0.22560128922E+02  0.28651992251E+01  0.56006445160E+01  0.23420845471E+02  0.00000000000E+00 0.  1.
<mgrwt>
<rscale>  0 0.39000445E+04</rscale>
<asrwt>0</asrwt>
<pdfrwt beam="1">  1        2 0.19127209E+00 0.39000445E+04</pdfrwt>
<pdfrwt beam="2">  1       -2 0.47054462E+00 0.39000445E+04</pdfrwt>
<totfact> 0.36105789E-02</totfact>
</mgrwt>
</event>
<event>
12    1  0.1489025E-007  0.2065065E+04  0.7818608E-02  0.8576791E-01
         -1   -1    0    0    0  501 -0.00000000000E+00  0.00000000000E+00  0.23561464020E+04  0.23561464020E+04  0.00000000000E+00 0.  1.
          1   -1    0    0  501    0  0.00000000000E+00 -0.00000000000E+00 -0.45248602791E+03  0.45248602791E+03  0.00000000000E+00 0. -1.
         23    2    1    2    0    0 -0.17447014045E+03 -0.75156608020E+03  0.34226128896E+03  0.84896300252E+03  0.91126214134E+02 0.  0.
        254    2    1    2    0    0  0.17447014045E+03  0.75156608020E+03  0.15613990852E+04  0.19596694274E+04  0.89835725566E+03 0.  0.
        -24    2    4    4    0    0  0.86430936473E+01  0.26252279990E+03 -0.38646880255E+02  0.27654230355E+03  0.77389539108E+02 0.  0.
         24    2    4    4    0    0  0.16582704681E+03  0.48904328030E+03  0.16000459654E+04  0.16831271239E+04  0.78152953944E+02 0.  0.
         13    1    3    3    0    0 -0.10797151222E+03 -0.47589501283E+03  0.26380669612E+03  0.55473226300E+03  0.00000000000E+00 0. -1.
        -13    1    3    3    0    0 -0.66498628233E+02 -0.27567106737E+03  0.78454592835E+02  0.29423073952E+03  0.00000000000E+00 0.  1.
          4    1    6    6  502    0  0.10846029514E+02  0.12068220863E+03  0.42802600454E+03  0.44484614464E+03  0.00000000000E+00 0. -1.
          1    1    5    5  503    0  0.39754864010E+02  0.16134108052E+03 -0.80910902918E+01  0.16636363551E+03  0.00000000000E+00 0. -1.
         -2    1    5    5    0  503 -0.31111770363E+02  0.10118171937E+03 -0.30555789963E+02  0.11017866804E+03  0.00000000000E+00 0.  1.
         -3    1    6    6    0  502  0.15498101729E+03  0.36836107167E+03  0.11720199609E+04  0.12382809792E+04  0.00000000000E+00 0.  1.
<mgrwt>
<rscale>  0 0.20650650E+04</rscale>
<asrwt>0</asrwt>
<pdfrwt beam="1">  1        1 0.69613236E-01 0.20650650E+04</pdfrwt>
<pdfrwt beam="2">  1       -1 0.36248406E+00 0.20650650E+04</pdfrwt>
<totfact> 0.60242011E-01</totfact>
</mgrwt>
</event>
<event>
12    1  0.1489025E-007  0.1840033E+04  0.7818608E-02  0.8685295E-01
         -1   -1    0    0    0  501 -0.00000000000E+00  0.00000000000E+00  0.58993631247E+03  0.58993631247E+03  0.00000000000E+00 0.  1.
          1   -1    0    0  501    0  0.00000000000E+00 -0.00000000000E+00 -0.14347825270E+04  0.14347825270E+04  0.00000000000E+00 0. -1.
         23    2    1    2    0    0  0.64425241374E+03  0.16493019408E+03 -0.97266505415E+02  0.67783510828E+03  0.87957486427E+02 0.  0.
        254    2    1    2    0    0 -0.64425241374E+03 -0.16493019408E+03 -0.74757970910E+03  0.13468837312E+04  0.90164140449E+03 0.  0.
        -24    2    4    4    0    0 -0.17437546126E+03 -0.83811783996E+02  0.19616918565E+03  0.28668094789E+03  0.79198483949E+02 0.  0.
         24    2    4    4    0    0 -0.46987695248E+03 -0.81118410080E+02 -0.94374889475E+03  0.10602027833E+04  0.77481729500E+02 0.  0.
         11    1    3    3    0    0  0.32100090191E+02 -0.86710189820E+01 -0.14153830913E+02  0.36137699013E+02  0.00000000000E+00 0.  1.
        -11    1    3    3    0    0  0.61215232355E+03  0.17360121306E+03 -0.83112674503E+02  0.64169740927E+03  0.00000000000E+00 0. -1.
          4    1    6    6  502    0 -0.29900006780E+03 -0.45021186233E+02 -0.51432372714E+03  0.59662118974E+03  0.00000000000E+00 0. -1.
          1    1    5    5  503    0 -0.33571827003E+02 -0.74655450768E+01  0.85049460292E+02  0.91739918397E+02  0.00000000000E+00 0. -1.
         -2    1    5    5    0  503 -0.14080363425E+03 -0.76346238919E+02  0.11111972535E+03  0.19494102949E+03  0.00000000000E+00 0.  1.
         -3    1    6    6    0  502 -0.17087688469E+03 -0.36097223847E+02 -0.42942516761E+03  0.46358159353E+03  0.00000000000E+00 0.  1.
<mgrwt>
<rscale>  0 0.18400329E+04</rscale>
<asrwt>0</asrwt>
<pdfrwt beam="1">  1        1 0.22073577E+00 0.18400329E+04</pdfrwt>
<pdfrwt beam="2">  1       -1 0.90759434E-01 0.18400329E+04</pdfrwt>
<totfact> 0.80983186E+00</totfact>
</mgrwt>
</event>
<event>
12    1  0.1489025E-007  0.1673229E+04  0.7818608E-02  0.8776782E-01
          2   -1    0    0  501    0  0.00000000000E+00  0.00000000000E+00  0.44161860626E+03  0.44161860626E+03  0.00000000000E+00 0. -1.
         -2   -1    0    0    0  501 -0.00000000000E+00 -0.00000000000E+00 -0.15849048815E+04  0.15849048815E+04  0.00000000000E+00 0.  1.
         23    2    1    2    0    0  0.86797005587E+02  0.49797901314E+03 -0.77888049788E+03  0.93301115778E+03  0.91313596226E+02 0.  0.
        254    2    1    2    0    0 -0.86797005587E+02 -0.49797901314E+03 -0.36440577739E+03  0.10935123300E+04  0.89858824141E+03 0.  0.
        -24    2    4    4    0    0 -0.43071747217E+03 -0.21987135611E+02 -0.17696046842E+03  0.47274675183E+03  0.78571680726E+02 0.  0.
         24    2    4    4    0    0  0.34392046658E+03 -0.47599187753E+03 -0.18744530897E+03  0.62076557819E+03  0.73243459845E+02 0.  0.
         11    1    3    3    0    0  0.83491255800E+02  0.40760232593E+03 -0.57281982177E+03  0.70797810285E+03  0.00000000000E+00 0. -1.
        -11    1    3    3    0    0  0.33057497868E+01  0.90376687206E+02 -0.20606067611E+03  0.22503305493E+03  0.00000000000E+00 0.  1.
          2    1    6    6  502    0  0.13817656327E+03 -0.13907594833E+03 -0.79046594564E+02  0.21138411992E+03  0.00000000000E+00 0. -1.
          1    1    5    5  503    0 -0.13570046197E+01  0.34408581608E+01 -0.11205574578E+02  0.11800248643E+02  0.00000000000E+00 0. -1.
         -2    1    5    5    0  503 -0.42936046755E+03 -0.25427993772E+02 -0.16575489384E+03  0.46094650318E+03  0.00000000000E+00 0.  1.
         -1    1    6    6    0  502  0.20574390331E+03 -0.33691592919E+03 -0.10839871441E+03  0.40938145827E+03  0.00000000000E+00 0.  1.
<mgrwt>
<rscale>  0 0.16732286E+04</rscale>
<asrwt>0</asrwt>
<pdfrwt beam="1">  1        2 0.67941323E-01 0.16732286E+04</pdfrwt>
<pdfrwt beam="2">  1       -2 0.24383152E+00 0.16732286E+04</pdfrwt>
<totfact> 0.47523169E+00</totfact>
</mgrwt>
</event>
<event>
12    1  0.1489025E-007  0.9996055E+03  0.7818608E-02  0.9308978E-01
          1   -1    0    0  501    0  0.00000000000E+00  0.00000000000E+00  0.98994414831E+03  0.98994414831E+03  0.00000000000E+00 0. -1.
         -1   -1    0    0    0  501 -0.00000000000E+00 -0.00000000000E+00 -0.25234030721E+03  0.25234030721E+03  0.00000000000E+00 0.  1.
         23    2    1    2    0    0  0.14738970162E+02 -0.83786011934E+02  0.93250325964E+02  0.15475503344E+03  0.89533033264E+02 0.  0.
        254    2    1    2    0    0 -0.14738970162E+02  0.83786011934E+02  0.64435351513E+03  0.10875294221E+04  0.87194693553E+03 0.  0.
        -24    2    4    4    0    0  0.38930763937E+03  0.11084925509E+02  0.51282903214E+03  0.64892174693E+03  0.80140525225E+02 0.  0.
         24    2    4    4    0    0 -0.40404660953E+03  0.72701086425E+02  0.13152448299E+03  0.43860767515E+03  0.80863418386E+02 0.  0.
         11    1    3    3    0    0  0.45396494317E+02 -0.79306879249E+02  0.78370356808E+02  0.12038411697E+03  0.00000000000E+00 0. -1.
        -11    1    3    3    0    0 -0.30657524155E+02 -0.44791326851E+01  0.14879969157E+02  0.34370916471E+02  0.00000000000E+00 0.  1.
          2    1    6    6  502    0 -0.26610334277E+03  0.68227177937E+02  0.12103974646E+03  0.30019419892E+03  0.00000000000E+00 0. -1.
          1    1    5    5  503    0  0.17095794991E+03  0.26139497149E+02  0.28213772264E+03  0.33092535183E+03  0.00000000000E+00 0. -1.
         -2    1    5    5    0  503  0.21834968946E+03 -0.15054571640E+02  0.23069130950E+03  0.31799639509E+03  0.00000000000E+00 0.  1.
         -1    1    6    6    0  502 -0.13794326675E+03  0.44739084883E+01  0.10484736531E+02  0.13841347622E+03  0.00000000000E+00 0.  1.
<mgrwt>
<rscale>  0 0.99960554E+03</rscale>
<asrwt>0</asrwt>
<pdfrwt beam="1">  1        1 0.15229910E+00 0.99960554E+03</pdfrwt>
<pdfrwt beam="2">  1       -1 0.38821586E-01 0.99960554E+03</pdfrwt>
<totfact> 0.99286907E+01</totfact>
</mgrwt>
</event>
<event>
12    1  0.1489025E-007  0.1537949E+04  0.7818608E-02  0.8859602E-01
          1   -1    0    0  501    0  0.00000000000E+00  0.00000000000E+00  0.17203107346E+04  0.17203107346E+04  0.00000000000E+00 0.  1.
         -1   -1    0    0    0  501 -0.00000000000E+00 -0.00000000000E+00 -0.34372957207E+03  0.34372957207E+03  0.00000000000E+00 0. -1.
         23    2    1    2    0    0  0.28812316039E+03 -0.41912989483E+03  0.50104803681E+03  0.71938409932E+03  0.88201603600E+02 0.  0.
        254    2    1    2    0    0 -0.28812316039E+03  0.41912989483E+03  0.87553312576E+03  0.13446562074E+04  0.88479220017E+03 0.  0.
        -24    2    4    4    0    0 -0.48935260545E+03 -0.47196700056E+02  0.34435542447E+03  0.60542957733E+03  0.79188470050E+02 0.  0.
         24    2    4    4    0    0  0.20122944506E+03  0.46632659489E+03  0.53117770129E+03  0.73922663006E+03  0.79702431508E+02 0.  0.
         13    1    3    3    0    0  0.16344954781E+03 -0.28410466764E+03  0.36605321640E+03  0.49135137538E+03  0.00000000000E+00 0.  1.
        -13    1    3    3    0    0  0.12467361257E+03 -0.13502522719E+03  0.13499482041E+03  0.22803272394E+03  0.00000000000E+00 0. -1.
          4    1    6    6  502    0  0.68447199692E+02  0.11478167467E+03  0.97738180772E+02  0.16556752087E+03  0.00000000000E+00 0. -1.
          3    1    5    5  503    0 -0.37467900864E+03 -0.43524305324E+02  0.30174136910E+03  0.48303889956E+03  0.00000000000E+00 0. -1.
         -4    1    5    5    0  503 -0.11467359681E+03 -0.36723947320E+01  0.42614055371E+02  0.12239067776E+03  0.00000000000E+00 0.  1.
         -3    1    6    6    0  502  0.13278224537E+03  0.35154492022E+03  0.43343952051E+03  0.57365910919E+03  0.00000000000E+00 0.  1.
<mgrwt>
<rscale>  0 0.15379489E+04</rscale>
<asrwt>0</asrwt>
<pdfrwt beam="1">  1        1 0.26466318E+00 0.15379489E+04</pdfrwt>
<pdfrwt beam="2">  1       -1 0.52881474E-01 0.15379489E+04</pdfrwt>
<totfact> 0.16050123E+01</totfact>
</mgrwt>
</event>
<event>
12    1  0.1489025E-007  0.1463495E+04  0.7818608E-02  0.8909098E-01
          2   -1    0    0  501    0  0.00000000000E+00  0.00000000000E+00  0.16571065570E+04  0.16571065570E+04  0.00000000000E+00 0. -1.
         -2   -1    0    0    0  501 -0.00000000000E+00 -0.00000000000E+00 -0.32312626544E+03  0.32312626544E+03  0.00000000000E+00 0.  1.
         23    2    1    2    0    0  0.20497871020E+02 -0.34997594223E+03  0.48957799269E+02  0.36598137411E+03  0.92963311215E+02 0.  0.
        254    2    1    2    0    0 -0.20497871020E+02  0.34997594223E+03  0.12850224923E+04  0.16142514483E+04  0.91193289768E+03 0.  0.
        -24    2    4    4    0    0  0.40876254932E+03  0.33548980246E+03  0.62703671084E+03  0.82440579745E+03  0.82641713695E+02 0.  0.
         24    2    4    4    0    0 -0.42926042034E+03  0.14486139770E+02  0.65798578146E+03  0.78984565089E+03  0.80227843689E+02 0.  0.
         13    1    3    3    0    0  0.20785138447E+02 -0.18792768388E+02  0.18110990576E+02  0.33364623534E+02  0.00000000000E+00 0. -1.
        -13    1    3    3    0    0 -0.28726742768E+00 -0.33118317384E+03  0.30846808694E+02  0.33261675058E+03  0.00000000000E+00 0.  1.
          4    1    6    6  502    0 -0.20913205218E+03 -0.20430952902E+02  0.37227215560E+03  0.42748122406E+03  0.00000000000E+00 0. -1.
          3    1    5    5  503    0  0.11436905763E+03  0.59873645705E+02  0.11722817791E+03  0.17437769493E+03  0.00000000000E+00 0. -1.
         -4    1    5    5    0  503  0.29439349170E+03  0.27561615676E+03  0.50980853294E+03  0.65002810253E+03  0.00000000000E+00 0.  1.
         -3    1    6    6    0  502 -0.22012836816E+03  0.34917092673E+02  0.28571362586E+03  0.36236442683E+03  0.00000000000E+00 0.  1.
<mgrwt>
<rscale>  0 0.14634953E+04</rscale>
<asrwt>0</asrwt>
<pdfrwt beam="1">  1        2 0.25493947E+00 0.14634953E+04</pdfrwt>
<pdfrwt beam="2">  1       -2 0.49711734E-01 0.14634953E+04</pdfrwt>
<totfact> 0.38434164E+01</totfact>
</mgrwt>
</event>
<event>
12    1  0.1489025E-007  0.1398127E+04  0.7818608E-02  0.8955176E-01
         -2   -1    0    0    0  501 -0.00000000000E+00  0.00000000000E+00  0.35215860024E+03  0.35215860024E+03  0.00000000000E+00 0.  1.
          2   -1    0    0  501    0  0.00000000000E+00 -0.00000000000E+00 -0.13876969909E+04  0.13876969909E+04  0.00000000000E+00 0. -1.
         23    2    1    2    0    0  0.22793653421E+03 -0.31036221786E+03 -0.42840946456E+03  0.58310533333E+03  0.90539441878E+02 0.  0.
        254    2    1    2    0    0 -0.22793653421E+03  0.31036221786E+03 -0.60712892609E+03  0.11567502578E+04  0.90619305677E+03 0.  0.
        -24    2    4    4    0    0 -0.86167579472E+02  0.52350860770E+03 -0.69172628020E+03  0.87529629884E+03  0.78563668110E+02 0.  0.
         24    2    4    4    0    0 -0.14176895474E+03 -0.21314638984E+03  0.84597354114E+02  0.28145395897E+03  0.80807169622E+02 0.  0.
         11    1    3    3    0    0  0.18174552612E+03 -0.23690619903E+03 -0.38152715080E+03  0.48447801828E+03  0.00000000000E+00 0. -1.
        -11    1    3    3    0    0  0.46191008090E+02 -0.73456018829E+02 -0.46882313765E+02  0.98627315053E+02  0.00000000000E+00 0.  1.
          2    1    6    6  502    0 -0.19834819562E+02 -0.37804192659E+02  0.48910075404E+02  0.64921279452E+02  0.00000000000E+00 0. -1.
          3    1    5    5  503    0 -0.90002604417E+02  0.32862276221E+03 -0.41841402261E+03  0.53959585150E+03  0.00000000000E+00 0. -1.
         -4    1    5    5    0  503  0.38350249457E+01  0.19488584549E+03 -0.27331225760E+03  0.33570044734E+03  0.00000000000E+00 0.  1.
         -1    1    6    6    0  502 -0.12193413518E+03 -0.17534219719E+03  0.35687278710E+02  0.21653267951E+03  0.00000000000E+00 0.  1.
<mgrwt>
<rscale>  0 0.13981265E+04</rscale>
<asrwt>0</asrwt>
<pdfrwt beam="1">  1        2 0.21349184E+00 0.13981265E+04</pdfrwt>
<pdfrwt beam="2">  1       -2 0.54178247E-01 0.13981265E+04</pdfrwt>
<totfact> 0.45918063E+01</totfact>
</mgrwt>
</event>
<event>
12    1  0.1489025E-007  0.1482886E+04  0.7818608E-02  0.8895914E-01
          2   -1    0    0  501    0  0.00000000000E+00  0.00000000000E+00  0.70016060786E+03  0.70016060786E+03  0.00000000000E+00 0. -1.
         -2   -1    0    0    0  501 -0.00000000000E+00 -0.00000000000E+00 -0.78515988528E+03  0.78515988528E+03  0.00000000000E+00 0.  1.
         23    2    1    2    0    0 -0.12606042246E+03 -0.55287659745E+02  0.40375978769E+03  0.43627296347E+03  0.91455874951E+02 0.  0.
        254    2    1    2    0    0  0.12606042246E+03  0.55287659745E+02 -0.48875906511E+03  0.10490475297E+04  0.91796913911E+03 0.  0.
        -24    2    4    4    0    0  0.16700859738E+03 -0.36596917202E+03 -0.17403074399E+02  0.41070591815E+03  0.80939345989E+02 0.  0.
         24    2    4    4    0    0 -0.40948174928E+02  0.42125683177E+03 -0.47135599072E+03  0.63834161153E+03  0.78545984499E+02 0.  0.
         11    1    3    3    0    0 -0.45604921271E+02 -0.18989232930E+02  0.27963660513E+03  0.28396660145E+03  0.00000000000E+00 0. -1.
        -11    1    3    3    0    0 -0.80455501185E+02 -0.36298426816E+02  0.12412318256E+03  0.15230636201E+03  0.00000000000E+00 0.  1.
          4    1    6    6  502    0 -0.36228894401E+02  0.41712585427E+03 -0.47316296481E+03  0.63181461075E+03  0.00000000000E+00 0. -1.
          3    1    5    5  503    0  0.14719104847E+03 -0.23109171711E+03 -0.94856549089E+01  0.27415062304E+03  0.00000000000E+00 0. -1.
         -4    1    5    5    0  503  0.19817548918E+02 -0.13487745492E+03 -0.79174194896E+01  0.13655529511E+03  0.00000000000E+00 0.  1.
         -3    1    6    6    0  502 -0.47192805272E+01  0.41309774973E+01  0.18069740916E+01  0.65270007771E+01  0.00000000000E+00 0.  1.
<mgrwt>
<rscale>  0 0.14828864E+04</rscale>
<asrwt>0</asrwt>
<pdfrwt beam="1">  1        2 0.10771702E+00 0.14828864E+04</pdfrwt>
<pdfrwt beam="2">  1       -2 0.12079383E+00 0.14828864E+04</pdfrwt>
<totfact> 0.20696317E+01</totfact>
</mgrwt>
</event>
<event>
12    1  0.1489025E-007  0.1376213E+04  0.7818608E-02  0.8971219E-01
          1   -1    0    0  501    0  0.00000000000E+00  0.00000000000E+00  0.25200534153E+03  0.25200534153E+03  0.00000000000E+00 0. -1.
         -1   -1    0    0    0  501 -0.00000000000E+00 -0.00000000000E+00 -0.18788922362E+04  0.18788922362E+04  0.00000000000E+00 0.  1.
         23    2    1    2    0    0  0.95135819732E+02  0.37158885960E+03 -0.40012480421E+03  0.56173254164E+03  0.91183795812E+02 0.  0.
        254    2    1    2    0    0 -0.95135819732E+02 -0.37158885960E+03 -0.12267620905E+04  0.15691650361E+04  0.90011364790E+03 0.  0.
        -24    2    4    4    0    0 -0.11515654883E+03 -0.12743222378E+03 -0.12903235712E+04  0.13041603507E+04  0.79995622024E+02 0.  0.
         24    2    4    4    0    0  0.20020729098E+02 -0.24415663582E+03  0.63561480785E+02  0.26500468535E+03  0.78575626063E+02 0.  0.
         11    1    3    3    0    0 -0.11278356357E+02  0.31106741551E+02 -0.13657083872E+02  0.35795902446E+02  0.00000000000E+00 0.  1.
        -11    1    3    3    0    0  0.10641417609E+03  0.34048211805E+03 -0.38646772034E+03  0.52593663919E+03  0.00000000000E+00 0. -1.
          2    1    6    6  502    0  0.15536595423E+02 -0.23737503621E+03  0.76363487161E+02  0.24983929992E+03  0.00000000000E+00 0. -1.
          1    1    5    5  503    0 -0.12549295738E+03 -0.10427197323E+03 -0.11567629047E+04  0.11682129705E+04  0.00000000000E+00 0. -1.
         -2    1    5    5    0  503  0.10336408549E+02 -0.23160250547E+02 -0.13356066659E+03  0.13594738029E+03  0.00000000000E+00 0.  1.
         -1    1    6    6    0  502  0.44841336750E+01 -0.67815996098E+01 -0.12802006377E+02  0.15165385434E+02  0.00000000000E+00 0.  1.
<mgrwt>
<rscale>  0 0.13762135E+04</rscale>
<asrwt>0</asrwt>
<pdfrwt beam="1">  1        1 0.38770051E-01 0.13762135E+04</pdfrwt>
<pdfrwt beam="2">  1       -1 0.28906036E+00 0.13762135E+04</pdfrwt>
<totfact> 0.41931104E+00</totfact>
</mgrwt>
</event>
<event>
12    1  0.1489025E-007  0.1603969E+04  0.7818608E-02  0.8818113E-01
          2   -1    0    0  501    0  0.00000000000E+00  0.00000000000E+00  0.19014749153E+04  0.19014749153E+04  0.00000000000E+00 0. -1.
         -2   -1    0    0    0  501 -0.00000000000E+00 -0.00000000000E+00 -0.33825292657E+03  0.33825292657E+03  0.00000000000E+00 0.  1.
         23    2    1    2    0    0  0.10590455581E+03 -0.53114027556E+03  0.41703055997E+03  0.69004638882E+03  0.94465673728E+02 0.  0.
        254    2    1    2    0    0 -0.10590455581E+03  0.53114027556E+03  0.11461914288E+04  0.15496814531E+04  0.89130917605E+03 0.  0.
        -24    2    4    4    0    0  0.27991590140E+03  0.52816078998E+03  0.90643103079E+03  0.10884024831E+04  0.75471980073E+02 0.  0.
         24    2    4    4    0    0 -0.38582045721E+03  0.29794855815E+01  0.23976039801E+03  0.46127896995E+03  0.80168180294E+02 0.  0.
         13    1    3    3    0    0  0.63699812895E+02 -0.19774100719E+03  0.20966224966E+03  0.29515662117E+03  0.00000000000E+00 0. -1.
        -13    1    3    3    0    0  0.42204742913E+02 -0.33339926838E+03  0.20736831030E+03  0.39488976765E+03  0.00000000000E+00 0.  1.
          4    1    6    6  502    0 -0.20451548486E+03  0.40069934281E+02  0.11417820042E+03  0.23763174163E+03  0.00000000000E+00 0. -1.
          3    1    5    5  503    0  0.25374793440E+02  0.53173913575E+02  0.13592944888E+03  0.14814911508E+03  0.00000000000E+00 0. -1.
         -4    1    5    5    0  503  0.25454110796E+03  0.47498687641E+03  0.77050158191E+03  0.94025336805E+03  0.00000000000E+00 0.  1.
         -3    1    6    6    0  502 -0.18130497234E+03 -0.37090448699E+02  0.12558219759E+03  0.22364722832E+03  0.00000000000E+00 0.  1.
<mgrwt>
<rscale>  0 0.16039694E+04</rscale>
<asrwt>0</asrwt>
<pdfrwt beam="1">  1        2 0.29253460E+00 0.16039694E+04</pdfrwt>
<pdfrwt beam="2">  1       -2 0.52038913E-01 0.16039694E+04</pdfrwt>
<totfact> 0.25332352E+01</totfact>
</mgrwt>
</event>
<event>
12    1  0.1489025E-007  0.1324700E+04  0.7818608E-02  0.9010204E-01
          1   -1    0    0  501    0  0.00000000000E+00  0.00000000000E+00  0.17063662671E+04  0.17063662671E+04  0.00000000000E+00 0. -1.
         -1   -1    0    0    0  501 -0.00000000000E+00 -0.00000000000E+00 -0.25710049090E+03  0.25710049090E+03  0.00000000000E+00 0.  1.
         23    2    1    2    0    0  0.11306667827E+03 -0.14180386128E+03 -0.52500949730E+02  0.21076238977E+03  0.93659096770E+02 0.  0.
        254    2    1    2    0    0 -0.11306667827E+03  0.14180386128E+03  0.15017667260E+04  0.17527043683E+04  0.88531174991E+03 0.  0.
        -24    2    4    4    0    0 -0.16702167199E+02  0.47892205580E+03  0.54146970718E+03  0.72726478440E+03  0.77970025691E+02 0.  0.
         24    2    4    4    0    0 -0.96364511069E+02 -0.33711819452E+03  0.96029701879E+03  0.10254395839E+04  0.80132264521E+02 0.  0.
         13    1    3    3    0    0  0.20805035930E+02 -0.57501545563E+01  0.21519637335E+02  0.30479642198E+02  0.00000000000E+00 0. -1.
        -13    1    3    3    0    0  0.92261642338E+02 -0.13605370673E+03 -0.74020587065E+02  0.18028274757E+03  0.00000000000E+00 0.  1.
          4    1    6    6  502    0 -0.13335220111E+02 -0.76639855266E+02  0.13230555709E+03  0.15348047416E+03  0.00000000000E+00 0. -1.
          3    1    5    5  503    0  0.17469448562E+02  0.56374011572E+02  0.43689139309E+02  0.73429910168E+02  0.00000000000E+00 0. -1.
         -4    1    5    5    0  503 -0.34171615761E+02  0.42254804423E+03  0.49778056788E+03  0.65383487423E+03  0.00000000000E+00 0.  1.
         -3    1    6    6    0  502 -0.83029290958E+02 -0.26047833925E+03  0.82799146170E+03  0.87195910972E+03  0.00000000000E+00 0.  1.
<mgrwt>
<rscale>  0 0.13247001E+04</rscale>
<asrwt>0</asrwt>
<pdfrwt beam="1">  1        1 0.26251788E+00 0.13247001E+04</pdfrwt>
<pdfrwt beam="2">  1       -1 0.39553923E-01 0.13247001E+04</pdfrwt>
<totfact> 0.28776483E+01</totfact>
</mgrwt>
</event>
<event>
12    1  0.1489025E-007  0.1130826E+04  0.7818608E-02  0.9175657E-01
          2   -1    0    0  501    0  0.00000000000E+00  0.00000000000E+00  0.23908197931E+04  0.23908197931E+04  0.00000000000E+00 0. -1.
         -2   -1    0    0    0  501 -0.00000000000E+00 -0.00000000000E+00 -0.13371650751E+03  0.13371650751E+03  0.00000000000E+00 0.  1.
         23    2    1    2    0    0  0.15553247084E+03  0.75242704832E+02  0.28240751208E+03  0.34350552679E+03  0.91598198347E+02 0.  0.
        254    2    1    2    0    0 -0.15553247084E+03 -0.75242704832E+02  0.19746957735E+04  0.21810307738E+04  0.90973623885E+03 0.  0.
        -24    2    4    4    0    0 -0.35274210383E+03  0.20186292603E+03  0.42917926054E+03  0.59658469320E+03  0.80887735524E+02 0.  0.
         24    2    4    4    0    0  0.19720963299E+03 -0.27710563086E+03  0.15455165129E+04  0.15844460806E+04  0.78542475944E+02 0.  0.
         13    1    3    3    0    0  0.15013738838E+03  0.68078686488E+02  0.28876849364E+03  0.33251042970E+03  0.00000000000E+00 0.  1.
        -13    1    3    3    0    0  0.53950824634E+01  0.71640183440E+01 -0.63609815578E+01  0.10995097089E+02  0.00000000000E+00 0. -1.
          4    1    6    6  502    0  0.86965695776E+02 -0.10017776582E+03  0.77280249378E+03  0.78410605877E+03  0.00000000000E+00 0. -1.
          3    1    5    5  503    0 -0.17097584837E+03  0.14365272716E+03  0.24099367311E+03  0.32855257909E+03  0.00000000000E+00 0. -1.
         -4    1    5    5    0  503 -0.18176625547E+03  0.58210198870E+02  0.18818558742E+03  0.26803211411E+03  0.00000000000E+00 0.  1.
         -3    1    6    6    0  502  0.11024393722E+03 -0.17692786504E+03  0.77271401914E+03  0.80034002180E+03  0.00000000000E+00 0.  1.
<mgrwt>
<rscale>  0 0.11308264E+04</rscale>
<asrwt>0</asrwt>
<pdfrwt beam="1">  1        2 0.36781840E+00 0.11308264E+04</pdfrwt>
<pdfrwt beam="2">  1       -2 0.20571772E-01 0.11308264E+04</pdfrwt>
<totfact> 0.81625610E+01</totfact>
</mgrwt>
</event>
<event>
12    1  0.1489025E-007  0.1372891E+04  0.7818608E-02  0.8973679E-01
         -2   -1    0    0    0  501 -0.00000000000E+00  0.00000000000E+00  0.19141304561E+03  0.19141304561E+03  0.00000000000E+00 0.  1.
          2   -1    0    0  501    0  0.00000000000E+00 -0.00000000000E+00 -0.24617297338E+04  0.24617297338E+04  0.00000000000E+00 0. -1.
         23    2    1    2    0    0 -0.27792311428E+03  0.15150926051E+03 -0.12474299343E+04  0.12902213237E+04  0.91615008297E+02 0.  0.
        254    2    1    2    0    0  0.27792311428E+03 -0.15150926051E+03 -0.10228867539E+04  0.13629214556E+04  0.84324448979E+03 0.  0.
        -24    2    4    4    0    0  0.52603693061E+03  0.24139745179E+02 -0.85186656103E+03  0.10047324805E+04  0.80704026904E+02 0.  0.
         24    2    4    4    0    0 -0.24811381633E+03 -0.17564900569E+03 -0.17102019283E+03  0.35818897512E+03  0.81476355396E+02 0.  0.
         13    1    3    3    0    0 -0.15158049539E+03  0.12401201599E+03 -0.85070257774E+03  0.87295504035E+03  0.00000000000E+00 0. -1.
        -13    1    3    3    0    0 -0.12634261890E+03  0.27497244523E+02 -0.39672735655E+03  0.41726628338E+03  0.00000000000E+00 0.  1.
          2    1    6    6  502    0 -0.19795403059E+03 -0.14374081633E+03 -0.17145736424E+03  0.29873876256E+03  0.00000000000E+00 0. -1.
          1    1    5    5  503    0  0.46828265259E+03  0.14495996915E+02 -0.70348844277E+03  0.84521876798E+03  0.00000000000E+00 0. -1.
         -2    1    5    5    0  503  0.57754278023E+02  0.96437482634E+01 -0.14837811826E+03  0.15951371254E+03  0.00000000000E+00 0.  1.
         -1    1    6    6    0  502 -0.50159785743E+02 -0.31908189360E+02  0.43717141656E+00  0.59450212555E+02  0.00000000000E+00 0.  1.
<mgrwt>
<rscale>  0 0.13728907E+04</rscale>
<asrwt>0</asrwt>
<pdfrwt beam="1">  1        2 0.37872763E+00 0.13728907E+04</pdfrwt>
<pdfrwt beam="2">  1       -2 0.29448162E-01 0.13728907E+04</pdfrwt>
<totfact> 0.38061276E+01</totfact>
</mgrwt>
</event>
<event>
12    1  0.1489025E-007  0.1892160E+04  0.7818608E-02  0.8658769E-01
         -3   -1    0    0    0  501 -0.00000000000E+00  0.00000000000E+00  0.90464699188E+03  0.90464699188E+03  0.00000000000E+00 0.  1.
          3   -1    0    0  501    0  0.00000000000E+00 -0.00000000000E+00 -0.98941021796E+03  0.98941021796E+03  0.00000000000E+00 0. -1.
         23    2    1    2    0    0 -0.46971258529E+03 -0.43500186817E+03 -0.37778093990E+03  0.74892369507E+03  0.91168659051E+02 0.  0.
        254    2    1    2    0    0  0.46971258529E+03  0.43500186817E+03  0.29301771381E+03  0.11451335148E+04  0.90311397284E+03 0.  0.
        -24    2    4    4    0    0  0.37341318783E+03  0.61567048775E+03 -0.62725128030E+02  0.72686294064E+03  0.76861787978E+02 0.  0.
         24    2    4    4    0    0  0.96299397457E+02 -0.18066861958E+03  0.35574284184E+03  0.41827057413E+03  0.80514468314E+02 0.  0.
         13    1    3    3    0    0 -0.39103402121E+03 -0.40335283092E+03 -0.33191970137E+03  0.65251191568E+03  0.00000000000E+00 0. -1.
        -13    1    3    3    0    0 -0.78678564080E+02 -0.31649037254E+02 -0.45861238531E+02  0.96411779386E+02  0.00000000000E+00 0.  1.
          2    1    6    6  502    0  0.15100485499E+02 -0.47209469943E+02  0.32537964631E+02  0.59291465296E+02  0.00000000000E+00 0. -1.
          1    1    5    5  503    0 -0.37138006765E+01  0.90995879185E+01  0.34034620559E+00  0.98341573757E+01  0.00000000000E+00 0. -1.
         -2    1    5    5    0  503  0.37712698851E+03  0.60657089983E+03 -0.63065474236E+02  0.71702878326E+03  0.00000000000E+00 0.  1.
         -1    1    6    6    0  502  0.81198911958E+02 -0.13345914964E+03  0.32320487721E+03  0.35897910883E+03  0.00000000000E+00 0.  1.
<mgrwt>
<rscale>  0 0.18921596E+04</rscale>
<asrwt>0</asrwt>
<pdfrwt beam="1">  1        3 0.15221696E+00 0.18921596E+04</pdfrwt>
<pdfrwt beam="2">  1       -3 0.13917646E+00 0.18921596E+04</pdfrwt>
<totfact> 0.29838284E-01</totfact>
</mgrwt>
</event>
<event>
12    1  0.1489025E-007  0.2511262E+04  0.7818608E-02  0.8398984E-01
          1   -1    0    0  501    0  0.00000000000E+00  0.00000000000E+00  0.17069768255E+04  0.17069768255E+04  0.00000000000E+00 0. -1.
         -1   -1    0    0    0  501 -0.00000000000E+00 -0.00000000000E+00 -0.92362671895E+03  0.92362671895E+03  0.00000000000E+00 0.  1.
         23    2    1    2    0    0 -0.68407017077E+03  0.26880253861E+03  0.11905225341E+04  0.14020643112E+04  0.90739326310E+02 0.  0.
        254    2    1    2    0    0  0.68407017077E+03 -0.26880253861E+03 -0.40717242754E+03  0.12285392332E+04  0.89627699877E+03 0.  0.
        -24    2    4    4    0    0  0.81509804123E+03 -0.50767232867E+02 -0.48175801989E+03  0.95182369987E+03  0.83159107483E+02 0.  0.
         24    2    4    4    0    0 -0.13102787046E+03 -0.21803530574E+03  0.74585592346E+02  0.27671553336E+03  0.79377442820E+02 0.  0.
         13    1    3    3    0    0 -0.84299088718E+02  0.27390477325E+02  0.20565590484E+03  0.22394402382E+03  0.00000000000E+00 0.  1.
        -13    1    3    3    0    0 -0.59977108206E+03  0.24141206128E+03  0.98486662921E+03  0.11781202874E+04  0.00000000000E+00 0. -1.
          4    1    6    6  502    0 -0.70704614155E+02 -0.10648343675E+03  0.78205073414E+02  0.14984624878E+03  0.00000000000E+00 0. -1.
          1    1    5    5  503    0  0.41915556241E+03 -0.59833360715E+02 -0.27714755965E+03  0.50604563665E+03  0.00000000000E+00 0. -1.
         -2    1    5    5    0  503  0.39594247882E+03  0.90661278486E+01 -0.20461046024E+03  0.44577806322E+03  0.00000000000E+00 0.  1.
         -3    1    6    6    0  502 -0.60323256300E+02 -0.11155186899E+03 -0.36194810674E+01  0.12686928458E+03  0.00000000000E+00 0.  1.
<mgrwt>
<rscale>  0 0.25112622E+04</rscale>
<asrwt>0</asrwt>
<pdfrwt beam="1">  1        1 0.26261182E+00 0.25112622E+04</pdfrwt>
<pdfrwt beam="2">  1       -1 0.14209642E+00 0.25112622E+04</pdfrwt>
<totfact> 0.16864914E+00</totfact>
</mgrwt>
</event>
<event>
12    1  0.1489025E-007  0.1925383E+04  0.7818608E-02  0.8642324E-01
          1   -1    0    0  501    0  0.00000000000E+00  0.00000000000E+00  0.20289860614E+04  0.20289860614E+04  0.00000000000E+00 0. -1.
         -1   -1    0    0    0  501 -0.00000000000E+00 -0.00000000000E+00 -0.45676729103E+03  0.45676729103E+03  0.00000000000E+00 0.  1.
         23    2    1    2    0    0  0.31814473692E+03 -0.43117351789E+03  0.12867467577E+04  0.13967409965E+04  0.89674502986E+02 0.  0.
        254    2    1    2    0    0 -0.31814473692E+03  0.43117351789E+03  0.28547201262E+03  0.10890123559E+04  0.90406137251E+03 0.  0.
        -24    2    4    4    0    0 -0.27071248255E+03 -0.10876610827E+03  0.42675245465E+03  0.52300242437E+03  0.79363491816E+02 0.  0.
         24    2    4    4    0    0 -0.47432254365E+02  0.53993962616E+03 -0.14128044203E+03  0.56600993157E+03  0.81378502598E+02 0.  0.
         11    1    3    3    0    0  0.17571323939E+03 -0.30403205071E+03  0.87729196613E+03  0.94496128185E+03  0.00000000000E+00 0. -1.
        -11    1    3    3    0    0  0.14243149752E+03 -0.12714146718E+03  0.40945479161E+03  0.45177971461E+03  0.00000000000E+00 0.  1.
          2    1    6    6  502    0 -0.15808267838E+02  0.22023507916E+02  0.34353306848E+01  0.27326502336E+02  0.00000000000E+00 0. -1.
          1    1    5    5  503    0 -0.41568074824E+02  0.11545206086E+02  0.70760892707E+02  0.82875210798E+02  0.00000000000E+00 0. -1.
         -2    1    5    5    0  503 -0.22914440773E+03 -0.12031131436E+03  0.35599156194E+03  0.44012721358E+03  0.00000000000E+00 0.  1.
         -1    1    6    6    0  502 -0.31623986527E+02  0.51791611825E+03 -0.14471577272E+03  0.53868342924E+03  0.00000000000E+00 0.  1.
<mgrwt>
<rscale>  0 0.19253825E+04</rscale>
<asrwt>0</asrwt>
<pdfrwt beam="1">  1        1 0.31215170E+00 0.19253825E+04</pdfrwt>
<pdfrwt beam="2">  1       -1 0.70271892E-01 0.19253825E+04</pdfrwt>
<totfact> 0.54422415E+00</totfact>
</mgrwt>
</event>
<event>
12    1  0.1489025E-007  0.1641596E+04  0.7818608E-02  0.8795394E-01
          1   -1    0    0  501    0  0.00000000000E+00  0.00000000000E+00  0.10153423711E+04  0.10153423711E+04  0.00000000000E+00 0. -1.
         -1   -1    0    0    0  501 -0.00000000000E+00 -0.00000000000E+00 -0.66352919303E+03  0.66352919303E+03  0.00000000000E+00 0.  1.
         23    2    1    2    0    0 -0.35436172271E+03  0.12150558117E+03  0.56740371286E+03  0.68705940467E+03  0.98832258942E+02 0.  0.
        254    2    1    2    0    0  0.35436172271E+03 -0.12150558117E+03 -0.21559053476E+03  0.99181215948E+03  0.89267925048E+03 0.  0.
        -24    2    4    4    0    0 -0.21484572520E+03 -0.23051760121E+03  0.81961397409E+02  0.33552781570E+03  0.81019715757E+02 0.  0.
         24    2    4    4    0    0  0.56920744791E+03  0.10901202005E+03 -0.29755193217E+03  0.65628434378E+03  0.79317389531E+02 0.  0.
         11    1    3    3    0    0 -0.11583515506E+03  0.29299171212E+02  0.26721485093E+03  0.29271146397E+03  0.00000000000E+00 0.  1.
        -11    1    3    3    0    0 -0.23852656765E+03  0.92206409954E+02  0.30018886192E+03  0.39434794070E+03  0.00000000000E+00 0. -1.
          2    1    6    6  502    0  0.74189339879E+02  0.15075022003E+01 -0.13184084221E+02  0.75366775115E+02  0.00000000000E+00 0. -1.
          1    1    5    5  503    0 -0.14205268072E+03 -0.10909815061E+03  0.17471455404E+02  0.17996283594E+03  0.00000000000E+00 0. -1.
         -2    1    5    5    0  503 -0.72793044481E+02 -0.12141945060E+03  0.64489942004E+02  0.15556497977E+03  0.00000000000E+00 0.  1.
         -1    1    6    6    0  502  0.49501810803E+03  0.10750451785E+03 -0.28436784795E+03  0.58091756866E+03  0.00000000000E+00 0.  1.
<mgrwt>
<rscale>  0 0.16415959E+04</rscale>
<asrwt>0</asrwt>
<pdfrwt beam="1">  1        1 0.15620652E+00 0.16415959E+04</pdfrwt>
<pdfrwt beam="2">  1       -1 0.10208141E+00 0.16415959E+04</pdfrwt>
<totfact> 0.12796857E+01</totfact>
</mgrwt>
</event>
<event>
12    1  0.1489025E-007  0.1432707E+04  0.7818608E-02  0.8930478E-01
          2   -1    0    0  501    0  0.00000000000E+00  0.00000000000E+00  0.23300678978E+04  0.23300678978E+04  0.00000000000E+00 0. -1.
         -2   -1    0    0    0  501 -0.00000000000E+00 -0.00000000000E+00 -0.22023504498E+03  0.22023504498E+03  0.00000000000E+00 0.  1.
         23    2    1    2    0    0 -0.20777268452E+03  0.36206294624E+03  0.84968330955E+03  0.95104899109E+03  0.90958185150E+02 0.  0.
        254    2    1    2    0    0  0.20777268452E+03 -0.36206294624E+03  0.12601495433E+04  0.15992539517E+04  0.89183925970E+03 0.  0.
        -24    2    4    4    0    0 -0.20368009199E+03 -0.31570259168E+03  0.10693049489E+04  0.11361579240E+04  0.79297215149E+02 0.  0.
         24    2    4    4    0    0  0.41145277651E+03 -0.46360354554E+02  0.19084459435E+03  0.46309602764E+03  0.81200996669E+02 0.  0.
         11    1    3    3    0    0 -0.20350638574E+03  0.29076542241E+03  0.68298541604E+03  0.76969374327E+03  0.00000000000E+00 0. -1.
        -11    1    3    3    0    0 -0.42662987784E+01  0.71297523823E+02  0.16669789351E+03  0.18135524782E+03  0.00000000000E+00 0.  1.
          4    1    6    6  502    0  0.13426218059E+03 -0.50496057930E+02  0.48181391763E+02  0.15131963361E+03  0.00000000000E+00 0. -1.
          3    1    5    5  503    0 -0.73231177861E+02 -0.75847554005E+02  0.39096602778E+03  0.40493220635E+03  0.00000000000E+00 0. -1.
         -4    1    5    5    0  503 -0.13044891412E+03 -0.23985503768E+03  0.67833892112E+03  0.73122571769E+03  0.00000000000E+00 0.  1.
         -3    1    6    6    0  502  0.27719059592E+03  0.41357033758E+01  0.14266320258E+03  0.31177639404E+03  0.00000000000E+00 0.  1.
<mgrwt>
<rscale>  0 0.14327074E+04</rscale>
<asrwt>0</asrwt>
<pdfrwt beam="1">  1        2 0.35847197E+00 0.14327074E+04</pdfrwt>
<pdfrwt beam="2">  1       -2 0.33882316E-01 0.14327074E+04</pdfrwt>
<totfact> 0.34570313E+01</totfact>
</mgrwt>
</event>
<event>
12    1  0.1489025E-007  0.1380756E+04  0.7818608E-02  0.8967868E-01
         -2   -1    0    0    0  501 -0.00000000000E+00  0.00000000000E+00  0.11745450228E+04  0.11745450228E+04  0.00000000000E+00 0.  1.
          2   -1    0    0  501    0  0.00000000000E+00 -0.00000000000E+00 -0.40579248936E+03  0.40579248936E+03  0.00000000000E+00 0. -1.
         23    2    1    2    0    0  0.17592551297E+03  0.34529570709E+03  0.34900284674E+03  0.52950145122E+03  0.91596333762E+02 0.  0.
        254    2    1    2    0    0 -0.17592551297E+03 -0.34529570709E+03  0.41974968667E+03  0.10508360609E+04  0.88197943062E+03 0.  0.
        -24    2    4    4    0    0  0.32074367028E+03 -0.12085116312E+03 -0.11465835845E+02  0.35127935321E+03  0.76054013378E+02 0.  0.
         24    2    4    4    0    0 -0.49666918325E+03 -0.22444454397E+03  0.43121552251E+03  0.69955670771E+03  0.79856931668E+02 0.  0.
         11    1    3    3    0    0  0.11312119278E+03  0.19974831674E+03  0.14644857713E+03  0.27229208589E+03  0.00000000000E+00 0.  1.
        -11    1    3    3    0    0  0.62804320188E+02  0.14554739035E+03  0.20255426962E+03  0.25720936533E+03  0.00000000000E+00 0. -1.
          2    1    6    6  502    0 -0.17826270342E+03 -0.11978285026E+03  0.18819349939E+03  0.28555615185E+03  0.00000000000E+00 0. -1.
          3    1    5    5  503    0  0.13535784381E+03 -0.16139395073E+02 -0.22115588557E+02  0.13809896890E+03  0.00000000000E+00 0. -1.
         -4    1    5    5    0  503  0.18538582647E+03 -0.10471176804E+03  0.10649752711E+02  0.21318038431E+03  0.00000000000E+00 0.  1.
         -1    1    6    6    0  502 -0.31840647983E+03 -0.10466169371E+03  0.24302202313E+03  0.41400055586E+03  0.00000000000E+00 0.  1.
<mgrwt>
<rscale>  0 0.13807557E+04</rscale>
<asrwt>0</asrwt>
<pdfrwt beam="1">  1        2 0.62429614E-01 0.13807557E+04</pdfrwt>
<pdfrwt beam="2">  1       -2 0.18069923E+00 0.13807557E+04</pdfrwt>
<totfact> 0.13657824E+01</totfact>
</mgrwt>
</event>
<event>
12    1  0.1489025E-007  0.1922839E+04  0.7818608E-02  0.8643571E-01
         -2   -1    0    0    0  501 -0.00000000000E+00  0.00000000000E+00  0.54052368032E+03  0.54052368032E+03  0.00000000000E+00 0. -1.
          2   -1    0    0  501    0  0.00000000000E+00 -0.00000000000E+00 -0.17100588084E+04  0.17100588084E+04  0.00000000000E+00 0.  1.
         23    2    1    2    0    0  0.45401069084E+03  0.59450170294E+03 -0.42410938576E+03  0.86553198886E+03  0.98584331652E+02 0.  0.
        254    2    1    2    0    0 -0.45401069084E+03 -0.59450170294E+03 -0.74542574230E+03  0.13850504998E+04  0.89618489589E+03 0.  0.
        -24    2    4    4    0    0 -0.31089227895E+02  0.13183125325E+03 -0.47224236095E+03  0.49761876022E+03  0.79155313266E+02 0.  0.
         24    2    4    4    0    0 -0.42292146295E+03 -0.72633295619E+03 -0.27318338135E+03  0.88743173962E+03  0.80522081273E+02 0.  0.
         13    1    3    3    0    0  0.90740652794E+02  0.11075869123E+03 -0.12772853563E+03  0.19187478356E+03  0.00000000000E+00 0. -1.
        -13    1    3    3    0    0  0.36327003805E+03  0.48374301171E+03 -0.29638085012E+03  0.67365720529E+03  0.00000000000E+00 0.  1.
          4    1    6    6  502    0 -0.23413403736E+03 -0.41532842085E+03 -0.19613261681E+03  0.51554286727E+03  0.00000000000E+00 0. -1.
          1    1    5    5  503    0 -0.14838268055E+02 -0.71017529361E+01 -0.38145628443E+02  0.41541522155E+02  0.00000000000E+00 0. -1.
         -2    1    5    5    0  503 -0.16250959840E+02  0.13893300619E+03 -0.43409673251E+03  0.45607723806E+03  0.00000000000E+00 0.  1.
         -3    1    6    6    0  502 -0.18878742558E+03 -0.31100453535E+03 -0.77050764533E+02  0.37188887235E+03  0.00000000000E+00 0.  1.
<mgrwt>
<rscale>  0 0.19228388E+04</rscale>
<asrwt>0</asrwt>
<pdfrwt beam="1">  1        2 0.26308597E+00 0.19228388E+04</pdfrwt>
<pdfrwt beam="2">  1       -2 0.83157490E-01 0.19228388E+04</pdfrwt>
<totfact> 0.11461754E+01</totfact>
</mgrwt>
</event>
<event>
12    1  0.1489025E-007  0.1495397E+04  0.7818608E-02  0.8887520E-01
         -2   -1    0    0    0  501 -0.00000000000E+00  0.00000000000E+00  0.15350971768E+03  0.15350971768E+03  0.00000000000E+00 0.  1.
          2   -1    0    0  501    0  0.00000000000E+00 -0.00000000000E+00 -0.36418075775E+04  0.36418075775E+04  0.00000000000E+00 0. -1.
         23    2    1    2    0    0 -0.26237247325E+03 -0.96819613161E+01 -0.21967888159E+04  0.22143425072E+04  0.92187756254E+02 0.  0.
        254    2    1    2    0    0  0.26237247325E+03  0.96819613161E+01 -0.12915090440E+04  0.15809747880E+04  0.87324258638E+03 0.  0.
        -24    2    4    4    0    0  0.18038815104E+03  0.39177483978E+03 -0.35519076509E+03  0.56347666271E+03  0.72925027859E+02 0.  0.
         24    2    4    4    0    0  0.81984322208E+02 -0.38209287847E+03 -0.93631827887E+03  0.10174981253E+04  0.76773164750E+02 0.  0.
         11    1    3    3    0    0 -0.32149526321E+02  0.14429672435E+02 -0.13215642574E+03  0.13677400467E+03  0.00000000000E+00 0.  1.
        -11    1    3    3    0    0 -0.23022294693E+03 -0.24111633752E+02 -0.20646323902E+04  0.20775685025E+04  0.00000000000E+00 0. -1.
          2    1    6    6  502    0  0.24166394297E+01 -0.15780437482E+03 -0.31928926710E+03  0.35616526633E+03  0.00000000000E+00 0. -1.
          3    1    5    5  503    0  0.12912108868E+03  0.30087859111E+03 -0.30584145553E+03  0.44803925950E+03  0.00000000000E+00 0. -1.
         -4    1    5    5    0  503  0.51267062361E+02  0.90896248675E+02 -0.49349309562E+02  0.11543740321E+03  0.00000000000E+00 0.  1.
         -1    1    6    6    0  502  0.79567682779E+02 -0.22428850365E+03 -0.61702901177E+03  0.66133285899E+03  0.00000000000E+00 0.  1.
<mgrwt>
<rscale>  0 0.14953967E+04</rscale>
<asrwt>0</asrwt>
<pdfrwt beam="1">  1        2 0.56027806E+00 0.14953967E+04</pdfrwt>
<pdfrwt beam="2">  1       -2 0.23616881E-01 0.14953967E+04</pdfrwt>
<totfact> 0.10064427E+01</totfact>
</mgrwt>
</event>
<event>
12    1  0.1489025E-007  0.3299141E+04  0.7818608E-02  0.8163114E-01
          1   -1    0    0  501    0  0.00000000000E+00  0.00000000000E+00  0.27494101004E+04  0.27494101004E+04  0.00000000000E+00 0. -1.
         -1   -1    0    0    0  501 -0.00000000000E+00 -0.00000000000E+00 -0.98969723642E+03  0.98969723642E+03  0.00000000000E+00 0.  1.
         23    2    1    2    0    0  0.93508159460E+03 -0.78447566789E+03 -0.21198223777E+03  0.12421637407E+04  0.90854980915E+02 0.  0.
        254    2    1    2    0    0 -0.93508159460E+03  0.78447566789E+03  0.19716951017E+04  0.24969435961E+04  0.92594064914E+03 0.  0.
        -24    2    4    4    0    0 -0.22252613259E+03  0.82720764862E+02  0.12134580645E+04  0.12387088584E+04  0.74555731789E+02 0.  0.
         24    2    4    4    0    0 -0.71255546201E+03  0.70175490303E+03  0.75823703727E+03  0.12582347376E+04  0.89643850595E+02 0.  0.
         13    1    3    3    0    0 -0.11982881398E+01 -0.54971305850E+00  0.20308224021E+01  0.24212225304E+01  0.00000000000E+00 0. -1.
        -13    1    3    3    0    0  0.93627988274E+03 -0.78392595483E+03 -0.21401306017E+03  0.12397425182E+04  0.00000000000E+00 0.  1.
          2    1    6    6  502    0 -0.33041997161E+03  0.33515321101E+03  0.41235387745E+03  0.62573217333E+03  0.00000000000E+00 0. -1.
          1    1    5    5  503    0 -0.36931701529E+02 -0.10497575978E+02  0.26582071832E+03  0.26857923220E+03  0.00000000000E+00 0. -1.
         -2    1    5    5    0  503 -0.18559443106E+03  0.93218340840E+02  0.94763734614E+03  0.97012962624E+03  0.00000000000E+00 0.  1.
         -1    1    6    6    0  502 -0.38213549040E+03  0.36660169201E+03  0.34588315982E+03  0.63250256431E+03  0.00000000000E+00 0.  1.
<mgrwt>
<rscale>  0 0.32991415E+04</rscale>
<asrwt>0</asrwt>
<pdfrwt beam="1">  1        1 0.42298617E+00 0.32991415E+04</pdfrwt>
<pdfrwt beam="2">  1       -1 0.15226111E+00 0.32991415E+04</pdfrwt>
<totfact> 0.25155191E-01</totfact>
</mgrwt>
</event>
<event>
12    1  0.1489025E-007  0.2075961E+04  0.7818608E-02  0.8571907E-01
          1   -1    0    0  501    0  0.00000000000E+00  0.00000000000E+00  0.10757801079E+04  0.10757801079E+04  0.00000000000E+00 0. -1.
         -1   -1    0    0    0  501 -0.00000000000E+00 -0.00000000000E+00 -0.10015090436E+04  0.10015090436E+04  0.00000000000E+00 0.  1.
         23    2    1    2    0    0  0.72183051806E+03 -0.11687004604E+03 -0.38409402053E+03  0.83122707269E+03  0.93339837751E+02 0.  0.
        254    2    1    2    0    0 -0.72183051806E+03  0.11687004604E+03  0.45836508484E+03  0.12460620789E+04  0.89881825134E+03 0.  0.
        -24    2    4    4    0    0  0.52554318925E+02 -0.27086405307E+03  0.14130652722E+03  0.31994447402E+03  0.79168428900E+02 0.  0.
         24    2    4    4    0    0 -0.77438483698E+03  0.38773409911E+03  0.31705855761E+03  0.92611760485E+03  0.84605447229E+02 0.  0.
         11    1    3    3    0    0  0.41599459355E+03 -0.99739021361E+02 -0.26089786548E+03  0.50106593424E+03  0.00000000000E+00 0.  1.
        -11    1    3    3    0    0  0.30583592451E+03 -0.17131024683E+02 -0.12319615506E+03  0.33016113845E+03  0.00000000000E+00 0. -1.
          2    1    6    6  502    0 -0.49045189427E+03  0.26424066476E+03  0.16410554353E+03  0.58077260517E+03  0.00000000000E+00 0. -1.
          1    1    5    5  503    0  0.28595540399E+02 -0.25340401399E+03  0.13842236702E+03  0.29015866510E+03  0.00000000000E+00 0. -1.
         -2    1    5    5    0  503  0.23958778526E+02 -0.17460039075E+02  0.28841602066E+01  0.29785808921E+02  0.00000000000E+00 0.  1.
         -1    1    6    6    0  502 -0.28393294271E+03  0.12349343436E+03  0.15295301408E+03  0.34534499968E+03  0.00000000000E+00 0.  1.
<mgrwt>
<rscale>  0 0.20759610E+04</rscale>
<asrwt>0</asrwt>
<pdfrwt beam="1">  1        1 0.16550463E+00 0.20759610E+04</pdfrwt>
<pdfrwt beam="2">  1       -1 0.15407831E+00 0.20759610E+04</pdfrwt>
<totfact> 0.39540452E+00</totfact>
</mgrwt>
</event>
<event>
12    1  0.1489025E-007  0.2478001E+04  0.7818608E-02  0.8410865E-01
         -2   -1    0    0    0  501 -0.00000000000E+00  0.00000000000E+00  0.60197322923E+03  0.60197322923E+03  0.00000000000E+00 0.  1.
          2   -1    0    0  501    0  0.00000000000E+00 -0.00000000000E+00 -0.25501502277E+04  0.25501502277E+04  0.00000000000E+00 0. -1.
         23    2    1    2    0    0 -0.65723098033E+03  0.13328809639E+03  0.20827486877E+03  0.70770199408E+03  0.88008029857E+02 0.  0.
        254    2    1    2    0    0  0.65723098033E+03 -0.13328809639E+03 -0.21564518673E+04  0.24444214629E+04  0.93551769316E+03 0.  0.
        -24    2    4    4    0    0 -0.17762533782E+02  0.19999662343E+02  0.70695604306E+02  0.11083319702E+03  0.81059453449E+02 0.  0.
         24    2    4    4    0    0  0.67499351412E+03 -0.15328775874E+03 -0.22271474716E+04  0.23335882659E+04  0.79592420224E+02 0.  0.
         13    1    3    3    0    0 -0.21043250287E+03  0.35791962534E+01  0.50554804325E+02  0.21644961804E+03  0.00000000000E+00 0. -1.
        -13    1    3    3    0    0 -0.44679847747E+03  0.12970890014E+03  0.15772006444E+03  0.49125237605E+03  0.00000000000E+00 0.  1.
          4    1    6    6  502    0  0.62390858667E+03 -0.13973300866E+03 -0.19732296799E+04  0.20742281957E+04  0.00000000000E+00 0. -1.
          3    1    5    5  503    0 -0.49327525707E+02  0.70140974441E+01  0.51576181139E+02  0.71711260038E+02  0.00000000000E+00 0. -1.
         -4    1    5    5    0  503  0.31564991926E+02  0.12985564899E+02  0.19119423167E+02  0.39121936982E+02  0.00000000000E+00 0.  1.
         -3    1    6    6    0  502  0.51084927446E+02 -0.13554750080E+02 -0.25391779172E+03  0.25936007020E+03  0.00000000000E+00 0.  1.
<mgrwt>
<rscale>  0 0.24780009E+04</rscale>
<asrwt>0</asrwt>
<pdfrwt beam="1">  1        2 0.39233081E+00 0.24780009E+04</pdfrwt>
<pdfrwt beam="2">  1       -2 0.92611265E-01 0.24780009E+04</pdfrwt>
<totfact> 0.28758871E+00</totfact>
</mgrwt>
</event>
<event>
12    1  0.1489025E-007  0.1491044E+04  0.7818608E-02  0.8890430E-01
          1   -1    0    0  501    0  0.00000000000E+00  0.00000000000E+00  0.14217147778E+04  0.14217147778E+04  0.00000000000E+00 0. -1.
         -1   -1    0    0    0  501 -0.00000000000E+00 -0.00000000000E+00 -0.39093866882E+03  0.39093866882E+03  0.00000000000E+00 0.  1.
         23    2    1    2    0    0  0.28198143377E+03 -0.37007039058E+03  0.37085048242E+03  0.60171709941E+03  0.89820734932E+02 0.  0.
        254    2    1    2    0    0 -0.28198143377E+03  0.37007039058E+03  0.65992562650E+03  0.12109363472E+04  0.90244079108E+03 0.  0.
        -24    2    4    4    0    0 -0.10061695399E+03  0.64162975692E+03  0.55795997277E+03  0.86022439364E+03  0.82789853284E+02 0.  0.
         24    2    4    4    0    0 -0.18136447978E+03 -0.27155936633E+03  0.10196565374E+03  0.35071195353E+03  0.77228983181E+02 0.  0.
         11    1    3    3    0    0  0.15270623645E+03 -0.14619977815E+03  0.12868857649E+03  0.24749609997E+03  0.00000000000E+00 0.  1.
        -11    1    3    3    0    0  0.12927519732E+03 -0.22387061243E+03  0.24216190594E+03  0.35422099944E+03  0.00000000000E+00 0. -1.
          4    1    6    6  502    0 -0.20939624478E+02 -0.73344305538E+02  0.52915333743E+00  0.76276700449E+02  0.00000000000E+00 0. -1.
          3    1    5    5  503    0  0.13889097073E+02  0.73050335135E+02  0.54435299936E+02  0.92154546062E+02  0.00000000000E+00 0. -1.
         -4    1    5    5    0  503 -0.11450605107E+03  0.56857942178E+03  0.50352467283E+03  0.76806984757E+03  0.00000000000E+00 0.  1.
         -3    1    6    6    0  502 -0.16042485530E+03 -0.19821506079E+03  0.10143650040E+03  0.27443525309E+03  0.00000000000E+00 0.  1.
<mgrwt>
<rscale>  0 0.14910443E+04</rscale>
<asrwt>0</asrwt>
<pdfrwt beam="1">  1        1 0.21872535E+00 0.14910443E+04</pdfrwt>
<pdfrwt beam="2">  1       -1 0.60144411E-01 0.14910443E+04</pdfrwt>
<totfact> 0.20127607E+01</totfact>
</mgrwt>
</event>
<event>
12    1  0.1489025E-007  0.1240869E+04  0.7818608E-02  0.9077817E-01
         -2   -1    0    0    0  501 -0.00000000000E+00  0.00000000000E+00  0.22131139427E+03  0.22131139427E+03  0.00000000000E+00 0.  1.
          2   -1    0    0  501    0  0.00000000000E+00 -0.00000000000E+00 -0.17393558871E+04  0.17393558871E+04  0.00000000000E+00 0. -1.
         23    2    1    2    0    0 -0.24799623883E+03  0.53048454943E+02 -0.64277467390E+03  0.69672141927E+03  0.89135748250E+02 0.  0.
        254    2    1    2    0    0  0.24799623883E+03 -0.53048454943E+02 -0.87526981888E+03  0.12639458620E+04  0.87586849087E+03 0.  0.
        -24    2    4    4    0    0  0.16454516980E+03  0.40015948869E+03 -0.48310312267E+03  0.65344101795E+03  0.79961287568E+02 0.  0.
         24    2    4    4    0    0  0.83451069024E+02 -0.45320794363E+03 -0.39216669621E+03  0.61050484410E+03  0.80993369858E+02 0.  0.
         11    1    3    3    0    0 -0.23385394677E+03  0.67789675069E+02 -0.54622287956E+03  0.59803222541E+03  0.00000000000E+00 0.  1.
        -11    1    3    3    0    0 -0.14142292055E+02 -0.14741220125E+02 -0.96551794340E+02  0.98689193865E+02  0.00000000000E+00 0. -1.
          4    1    6    6  502    0  0.24560976564E+02 -0.23524377508E+02 -0.33055369614E+02  0.47426736839E+02  0.00000000000E+00 0. -1.
          1    1    5    5  503    0  0.60526338917E+02  0.22371034358E+03 -0.21566712567E+03  0.31657868630E+03  0.00000000000E+00 0. -1.
         -2    1    5    5    0  503  0.10401883089E+03  0.17644914511E+03 -0.26743599700E+03  0.33686233164E+03  0.00000000000E+00 0.  1.
         -3    1    6    6    0  502  0.58890092461E+02 -0.42968356612E+03 -0.35911132660E+03  0.56307810726E+03  0.00000000000E+00 0.  1.
<mgrwt>
<rscale>  0 0.12408695E+04</rscale>
<asrwt>0</asrwt>
<pdfrwt beam="1">  1        2 0.26759322E+00 0.12408695E+04</pdfrwt>
<pdfrwt beam="2">  1       -2 0.34047906E-01 0.12408695E+04</pdfrwt>
<totfact> 0.74100635E+01</totfact>
</mgrwt>
</event>
<event>
12    1  0.1489025E-007  0.1539500E+04  0.7818608E-02  0.8858603E-01
          2   -1    0    0  501    0  0.00000000000E+00  0.00000000000E+00  0.14371326235E+04  0.14371326235E+04  0.00000000000E+00 0. -1.
         -2   -1    0    0    0  501 -0.00000000000E+00 -0.00000000000E+00 -0.41228963340E+03  0.41228963340E+03  0.00000000000E+00 0.  1.
         23    2    1    2    0    0  0.37996586562E+03  0.30622803561E+03  0.23257111817E+03  0.54838962536E+03  0.92153064870E+02 0.  0.
        254    2    1    2    0    0 -0.37996586562E+03 -0.30622803561E+03  0.79227187196E+03  0.13010326316E+04  0.90930826481E+03 0.  0.
        -24    2    4    4    0    0 -0.87097418528E+02  0.23708569583E+03 -0.34072152202E+02  0.26684541059E+03  0.79056777799E+02 0.  0.
         24    2    4    4    0    0 -0.29286844709E+03 -0.54331373144E+03  0.82634402416E+03  0.10341872210E+04  0.75743142776E+02 0.  0.
         11    1    3    3    0    0  0.10437331343E+03  0.64272820948E+02  0.19111671051E+02  0.12405660014E+03  0.00000000000E+00 0.  1.
        -11    1    3    3    0    0  0.27559255220E+03  0.24195521466E+03  0.21345944712E+03  0.42433302522E+03  0.00000000000E+00 0. -1.
          2    1    6    6  502    0 -0.11969623461E+03 -0.20140254982E+03  0.37380754168E+03  0.44116012272E+03  0.00000000000E+00 0. -1.
          3    1    5    5  503    0 -0.15752258058E+02  0.31350743617E+02 -0.34335165773E+02  0.49090797182E+02  0.00000000000E+00 0. -1.
         -4    1    5    5    0  503 -0.71345160470E+02  0.20573495221E+03  0.26301357106E+00  0.21775461341E+03  0.00000000000E+00 0.  1.
         -1    1    6    6    0  502 -0.17317221248E+03 -0.34191118162E+03  0.45253648248E+03  0.59302709825E+03  0.00000000000E+00 0.  1.
<mgrwt>
<rscale>  0 0.15394998E+04</rscale>
<asrwt>0</asrwt>
<pdfrwt beam="1">  1        2 0.22109732E+00 0.15394998E+04</pdfrwt>
<pdfrwt beam="2">  1       -2 0.63429175E-01 0.15394998E+04</pdfrwt>
<totfact> 0.30542188E+01</totfact>
</mgrwt>
</event>
<event>
12    1  0.1489025E-007  0.1936156E+04  0.7818608E-02  0.8637066E-01
         -1   -1    0    0    0  501 -0.00000000000E+00  0.00000000000E+00  0.80105700488E+03  0.80105700488E+03  0.00000000000E+00 0.  1.
          1   -1    0    0  501    0  0.00000000000E+00 -0.00000000000E+00 -0.11699224549E+04  0.11699224549E+04  0.00000000000E+00 0. -1.
         23    2    1    2    0    0  0.39938635900E+03  0.63201676532E+03 -0.24299584461E+03  0.79172533271E+03  0.93954066180E+02 0.  0.
        254    2    1    2    0    0 -0.39938635900E+03 -0.63201676532E+03 -0.12586960541E+03  0.11792541271E+04  0.90323999204E+03 0.  0.
        -24    2    4    4    0    0 -0.36730159768E+03 -0.91656624471E+02 -0.40802745458E+03  0.56349880705E+03  0.87938054286E+02 0.  0.
         24    2    4    4    0    0 -0.32084761326E+02 -0.54036014085E+03  0.28215784918E+03  0.61575532001E+03  0.80765391957E+02 0.  0.
         13    1    3    3    0    0  0.74330364489E+02  0.19488057657E+03 -0.75287014977E+02  0.22174665011E+03  0.00000000000E+00 0. -1.
        -13    1    3    3    0    0  0.32505599451E+03  0.43713618875E+03 -0.16770882963E+03  0.56997868260E+03  0.00000000000E+00 0.  1.
          4    1    6    6  502    0  0.20499668781E+02 -0.29487602598E+03  0.13744255500E+03  0.32597939052E+03  0.00000000000E+00 0. -1.
          3    1    5    5  503    0 -0.11674754742E+03 -0.49553466378E+02 -0.85657448806E+02  0.15304487706E+03  0.00000000000E+00 0. -1.
         -4    1    5    5    0  503 -0.25055405026E+03 -0.42103158094E+02 -0.32237000578E+03  0.41045392999E+03  0.00000000000E+00 0.  1.
         -3    1    6    6    0  502 -0.52584430107E+02 -0.24548411487E+03  0.14471529418E+03  0.28977592949E+03  0.00000000000E+00 0.  1.
<mgrwt>
<rscale>  0 0.19361555E+04</rscale>
<asrwt>0</asrwt>
<pdfrwt beam="1">  1        1 0.17998807E+00 0.19361555E+04</pdfrwt>
<pdfrwt beam="2">  1       -1 0.12323954E+00 0.19361555E+04</pdfrwt>
<totfact> 0.60804268E+00</totfact>
</mgrwt>
</event>
<event>
12    1  0.1489025E-007  0.1471454E+04  0.7818608E-02  0.8903661E-01
         -2   -1    0    0    0  501 -0.00000000000E+00  0.00000000000E+00  0.15625633227E+03  0.15625633227E+03  0.00000000000E+00 0.  1.
          2   -1    0    0  501    0  0.00000000000E+00 -0.00000000000E+00 -0.34641425757E+04  0.34641425757E+04  0.00000000000E+00 0. -1.
         23    2    1    2    0    0  0.96481305533E+00  0.70082166880E+02  0.67450552161E+02  0.12795177140E+03  0.83124231356E+02 0.  0.
        254    2    1    2    0    0 -0.96481305533E+00 -0.70082166880E+02 -0.33753367956E+04  0.34924471366E+04  0.89407833945E+03 0.  0.
        -24    2    4    4    0    0 -0.33949021763E+03 -0.28087785590E+03 -0.22987411594E+04  0.23419368983E+04  0.79445200820E+02 0.  0.
         24    2    4    4    0    0  0.33852540457E+03  0.21079568902E+03 -0.10765956362E+04  0.11505102383E+04  0.74708583340E+02 0.  0.
         13    1    3    3    0    0  0.26730005654E+02  0.56678565960E+02  0.75204789368E+02  0.97891334577E+02  0.00000000000E+00 0.  1.
        -13    1    3    3    0    0 -0.25765192598E+02  0.13403600921E+02 -0.77542372063E+01  0.30060436822E+02  0.00000000000E+00 0. -1.
          2    1    6    6  502    0  0.20031902907E+03  0.87632037144E+02 -0.52631178283E+03  0.56992208248E+03  0.00000000000E+00 0. -1.
          3    1    5    5  503    0 -0.31979541193E+02 -0.60722296299E+02 -0.40992708730E+03  0.41563217540E+03  0.00000000000E+00 0. -1.
         -4    1    5    5    0  503 -0.30751067643E+03 -0.22015555960E+03 -0.18888140721E+04  0.19263047229E+04  0.00000000000E+00 0.  1.
         -1    1    6    6    0  502  0.13820637550E+03  0.12316365188E+03 -0.55028385335E+03  0.58058815578E+03  0.00000000000E+00 0.  1.
<mgrwt>
<rscale>  0 0.14714540E+04</rscale>
<asrwt>0</asrwt>
<pdfrwt beam="1">  1        2 0.53294506E+00 0.14714540E+04</pdfrwt>
<pdfrwt beam="2">  1       -2 0.24039434E-01 0.14714540E+04</pdfrwt>
<totfact> 0.13027988E+01</totfact>
</mgrwt>
</event>
<event>
12    1  0.1489025E-007  0.2165163E+04  0.7818608E-02  0.8533070E-01
          1   -1    0    0  501    0  0.00000000000E+00  0.00000000000E+00  0.13804503406E+04  0.13804503406E+04  0.00000000000E+00 0. -1.
         -1   -1    0    0    0  501 -0.00000000000E+00 -0.00000000000E+00 -0.84898541872E+03  0.84898541872E+03  0.00000000000E+00 0.  1.
         23    2    1    2    0    0  0.28386004452E+03  0.43722111081E+02  0.10935338980E+04  0.11347543802E+04  0.96762439010E+02 0.  0.
        254    2    1    2    0    0 -0.28386004452E+03 -0.43722111081E+02 -0.56206897606E+03  0.10946813791E+04  0.89438114920E+03 0.  0.
        -24    2    4    4    0    0  0.13177839297E+03 -0.19495564626E+03  0.12263553855E+03  0.27536432228E+03  0.73571637224E+02 0.  0.
         24    2    4    4    0    0 -0.41563843749E+03  0.15123353518E+03 -0.68470451461E+03  0.81931705683E+03  0.82663622048E+02 0.  0.
         11    1    3    3    0    0  0.92862188919E+02  0.60251095053E+02  0.43703878145E+03  0.45083974656E+03  0.00000000000E+00 0. -1.
        -11    1    3    3    0    0  0.19099785560E+03 -0.16528983971E+02  0.65649511651E+03  0.68391463368E+03  0.00000000000E+00 0.  1.
          2    1    6    6  502    0 -0.18617909888E+03  0.77780114681E+02 -0.38602077620E+03  0.43557369383E+03  0.00000000000E+00 0. -1.
          3    1    5    5  503    0  0.59027665196E+02 -0.10536904985E+03  0.10209223979E+03  0.15814464060E+03  0.00000000000E+00 0. -1.
         -4    1    5    5    0  503  0.72750727775E+02 -0.89586596418E+02  0.20543298758E+02  0.11721968168E+03  0.00000000000E+00 0.  1.
         -1    1    6    6    0  502 -0.22945933861E+03  0.73453420503E+02 -0.29868373840E+03  0.38374336300E+03  0.00000000000E+00 0.  1.
<mgrwt>
<rscale>  0 0.21651625E+04</rscale>
<asrwt>0</asrwt>
<pdfrwt beam="1">  1        1 0.21237698E+00 0.21651625E+04</pdfrwt>
<pdfrwt beam="2">  1       -1 0.13061314E+00 0.21651625E+04</pdfrwt>
<totfact> 0.36345327E+00</totfact>
</mgrwt>
</event>
<event>
12    1  0.1489025E-007  0.1999230E+04  0.7818608E-02  0.8606981E-01
         -1   -1    0    0    0  501 -0.00000000000E+00  0.00000000000E+00  0.43568573256E+03  0.43568573256E+03  0.00000000000E+00 0.  1.
          1   -1    0    0  501    0  0.00000000000E+00 -0.00000000000E+00 -0.22934652903E+04  0.22934652903E+04  0.00000000000E+00 0. -1.
         23    2    1    2    0    0 -0.55999119992E+03  0.16765947966E+03 -0.14861406456E+04  0.15995693433E+04  0.91149439171E+02 0.  0.
        254    2    1    2    0    0  0.55999119992E+03 -0.16765947966E+03 -0.37163891209E+03  0.11295816796E+04  0.89226646508E+03 0.  0.
        -24    2    4    4    0    0  0.65995277533E+03  0.16346372615E+03 -0.36264436775E+03  0.77470350010E+03  0.79978248197E+02 0.  0.
         24    2    4    4    0    0 -0.99961575406E+02 -0.33112320581E+03 -0.89945443431E+01  0.35487817945E+03  0.78884259784E+02 0.  0.
         13    1    3    3    0    0 -0.55257177719E+03  0.15428710909E+03 -0.14165334385E+04  0.15283020197E+04  0.00000000000E+00 0. -1.
        -13    1    3    3    0    0 -0.74194227287E+01  0.13372370570E+02 -0.69607207121E+02  0.71267323589E+02  0.00000000000E+00 0.  1.
          4    1    6    6  502    0 -0.48396692189E+01 -0.10076240121E+02  0.15534964353E+02  0.19138655401E+02  0.00000000000E+00 0. -1.
          3    1    5    5  503    0  0.31316512060E+03  0.11853570136E+03 -0.17272347406E+03  0.37677115568E+03  0.00000000000E+00 0. -1.
         -4    1    5    5    0  503  0.34678765472E+03  0.44928024786E+02 -0.18992089370E+03  0.39793234443E+03  0.00000000000E+00 0.  1.
         -3    1    6    6    0  502 -0.95121906187E+02 -0.32104696569E+03 -0.24529508696E+02  0.33573952405E+03  0.00000000000E+00 0.  1.
<mgrwt>
<rscale>  0 0.19992300E+04</rscale>
<asrwt>0</asrwt>
<pdfrwt beam="1">  1        1 0.35284081E+00 0.19992300E+04</pdfrwt>
<pdfrwt beam="2">  1       -1 0.67028575E-01 0.19992300E+04</pdfrwt>
<totfact> 0.39340550E+00</totfact>
</mgrwt>
</event>
<event>
12    1  0.1754714E-007  0.1879178E+04  0.7818608E-02  0.8665291E-01
         -1   -1    0    0    0  501 -0.00000000000E+00  0.00000000000E+00  0.13519199517E+04  0.13519199517E+04  0.00000000000E+00 0.  1.
          1   -1    0    0  501    0  0.00000000000E+00 -0.00000000000E+00 -0.65301759892E+03  0.65301759892E+03  0.00000000000E+00 0. -1.
         23    2    1    2    0    0  0.51464847353E+03 -0.45332351338E+02  0.79639078648E+03  0.95345722821E+03  0.89018693855E+02 0.  0.
        254    2    1    2    0    0 -0.51464847353E+03  0.45332351338E+02 -0.97488433712E+02  0.10514803224E+04  0.91059804541E+03 0.  0.
        -24    2    4    4    0    0 -0.34048371405E+03 -0.27819105558E+03  0.27262897704E+03  0.52388941827E+03  0.82547807446E+02 0.  0.
         24    2    4    4    0    0 -0.17416475948E+03  0.32352340692E+03 -0.37011741076E+03  0.52759090413E+03  0.79777854770E+02 0.  0.
         13    1    3    3    0    0  0.10228095268E+03  0.18246582677E+02  0.20323644868E+03  0.22825289731E+03  0.00000000000E+00 0. -1.
        -13    1    3    3    0    0  0.41236752085E+03 -0.63578934015E+02  0.59315433780E+03  0.72520433090E+03  0.00000000000E+00 0.  1.
          2    1    6    6  502    0 -0.29922718272E+02  0.33703205647E+02 -0.16066688676E+02  0.47847817345E+02  0.00000000000E+00 0. -1.
          3    1    5    5  503    0 -0.25859087406E+02 -0.56178985834E+02  0.46039489622E+02  0.77099970529E+02  0.00000000000E+00 0. -1.
         -4    1    5    5    0  503 -0.31462462664E+03 -0.22201206974E+03  0.22658948742E+03  0.44678944774E+03  0.00000000000E+00 0.  1.
         -1    1    6    6    0  502 -0.14424204121E+03  0.28982020127E+03 -0.35405072208E+03  0.47974308679E+03  0.00000000000E+00 0.  1.
<mgrwt>
<rscale>  0 0.18791780E+04</rscale>
<asrwt>0</asrwt>
<pdfrwt beam="1">  1        1 0.10046425E+00 0.18791780E+04</pdfrwt>
<pdfrwt beam="2">  1       -1 0.20798768E+00 0.18791780E+04</pdfrwt>
<totfact> 0.37607106E+00</totfact>
</mgrwt>
</event>
<event>
12    1  0.1489025E-007  0.1514691E+04  0.7818608E-02  0.8874742E-01
         -1   -1    0    0    0  501 -0.00000000000E+00  0.00000000000E+00  0.33858818192E+03  0.33858818192E+03  0.00000000000E+00 0.  1.
          1   -1    0    0  501    0  0.00000000000E+00 -0.00000000000E+00 -0.16940113588E+04  0.16940113588E+04  0.00000000000E+00 0. -1.
         23    2    1    2    0    0 -0.33721692810E+03  0.57213449182E+02  0.19110163834E+02  0.35504747740E+03  0.93299932904E+02 0.  0.
        254    2    1    2    0    0  0.33721692810E+03 -0.57213449182E+02 -0.13745333407E+04  0.16775520633E+04  0.89880497611E+03 0.  0.
        -24    2    4    4    0    0  0.47815509010E+03 -0.17921997277E+03 -0.32935533711E+03  0.61274745707E+03  0.78945672666E+02 0.  0.
         24    2    4    4    0    0 -0.14093816200E+03  0.12200652359E+03 -0.10451780036E+04  0.10648046063E+04  0.81624953229E+02 0.  0.
         13    1    3    3    0    0 -0.85165116864E+01  0.21123001444E+02  0.81517618535E+01  0.24190150529E+02  0.00000000000E+00 0. -1.
        -13    1    3    3    0    0 -0.32870041641E+03  0.36090447738E+02  0.10958401980E+02  0.33085732687E+03  0.00000000000E+00 0.  1.
          2    1    6    6  502    0 -0.12189510769E+03  0.13163979670E+03 -0.97795697274E+03  0.99427727214E+03  0.00000000000E+00 0. -1.
          1    1    5    5  503    0  0.37201052651E+03 -0.10712605320E+03 -0.26550457909E+03  0.46942571790E+03  0.00000000000E+00 0. -1.
         -2    1    5    5    0  503  0.10614456359E+03 -0.72093919566E+02 -0.63850758014E+02  0.14332173917E+03  0.00000000000E+00 0.  1.
         -1    1    6    6    0  502 -0.19043054316E+02 -0.96332731099E+01 -0.67221030856E+02  0.70527334119E+02  0.00000000000E+00 0.  1.
<mgrwt>
<rscale>  0 0.15146910E+04</rscale>
<asrwt>0</asrwt>
<pdfrwt beam="1">  1        1 0.26061713E+00 0.15146910E+04</pdfrwt>
<pdfrwt beam="2">  1       -1 0.52090489E-01 0.15146910E+04</pdfrwt>
<totfact> 0.17252055E+01</totfact>
</mgrwt>
</event>
<event>
12    1  0.1489025E-007  0.1644208E+04  0.7818608E-02  0.8793840E-01
          1   -1    0    0  501    0  0.00000000000E+00  0.00000000000E+00  0.66682887896E+03  0.66682887896E+03  0.00000000000E+00 0. -1.
         -1   -1    0    0    0  501 -0.00000000000E+00 -0.00000000000E+00 -0.10135357927E+04  0.10135357927E+04  0.00000000000E+00 0.  1.
         23    2    1    2    0    0  0.14083012002E+03  0.45378444839E+03  0.19505848186E+03  0.52148264464E+03  0.90237957675E+02 0.  0.
        254    2    1    2    0    0 -0.14083012002E+03 -0.45378444839E+03 -0.54176539557E+03  0.11588820270E+04  0.90760363615E+03 0.  0.
        -24    2    4    4    0    0 -0.16515813854E+03  0.45343953401E+02 -0.61903662489E+03  0.64729268238E+03  0.80300615627E+02 0.  0.
         24    2    4    4    0    0  0.24328018513E+02 -0.49912840179E+03  0.77271229319E+02  0.51158934462E+03  0.77664668185E+02 0.  0.
         13    1    3    3    0    0  0.35995615131E+02  0.36496167992E+02  0.63129206084E+01  0.51647919159E+02  0.00000000000E+00 0.  1.
        -13    1    3    3    0    0  0.10483450489E+03  0.41728828040E+03  0.18874556125E+03  0.46983472548E+03  0.00000000000E+00 0. -1.
          2    1    6    6  502    0  0.38423747985E+02 -0.14663117871E+03  0.61116723502E+01  0.15170510709E+03  0.00000000000E+00 0. -1.
          1    1    5    5  503    0 -0.10154346427E+03  0.25775145318E+02 -0.23176085250E+03  0.25433939138E+03  0.00000000000E+00 0. -1.
         -2    1    5    5    0  503 -0.63614674266E+02  0.19568808083E+02 -0.38727577239E+03  0.39295329101E+03  0.00000000000E+00 0.  1.
         -1    1    6    6    0  502 -0.14095729472E+02 -0.35249722309E+03  0.71159556969E+02  0.35988423753E+03  0.00000000000E+00 0.  1.
<mgrwt>
<rscale>  0 0.16442079E+04</rscale>
<asrwt>0</asrwt>
<pdfrwt beam="1">  1        1 0.10258906E+00 0.16442079E+04</pdfrwt>
<pdfrwt beam="2">  1       -1 0.15592858E+00 0.16442079E+04</pdfrwt>
<totfact> 0.87989419E+00</totfact>
</mgrwt>
</event>
<event>
12    1  0.1489025E-007  0.1918574E+04  0.7818608E-02  0.8645666E-01
         -2   -1    0    0    0  501 -0.00000000000E+00  0.00000000000E+00  0.51418562027E+03  0.51418562027E+03  0.00000000000E+00 0.  1.
          2   -1    0    0  501    0  0.00000000000E+00 -0.00000000000E+00 -0.17896879900E+04  0.17896879900E+04  0.00000000000E+00 0. -1.
         23    2    1    2    0    0  0.29103957599E+03 -0.56150996236E+03 -0.35427062353E+02  0.63981618834E+03  0.90067782754E+02 0.  0.
        254    2    1    2    0    0 -0.29103957599E+03  0.56150996236E+03 -0.12400753074E+04  0.16640574219E+04  0.91175811644E+03 0.  0.
        -24    2    4    4    0    0 -0.42102608166E+03  0.13703064754E+03 -0.11046092921E+04  0.11925827640E+04  0.77792035844E+02 0.  0.
         24    2    4    4    0    0  0.12998650567E+03  0.42447931482E+03 -0.13546601523E+03  0.47147465796E+03  0.82813836072E+02 0.  0.
         13    1    3    3    0    0  0.33238496632E+02 -0.44710466498E+02 -0.27733116440E+02  0.62233023551E+02  0.00000000000E+00 0. -1.
        -13    1    3    3    0    0  0.25780107936E+03 -0.51679949586E+03 -0.76939459125E+01  0.57758316478E+03  0.00000000000E+00 0.  1.
          4    1    6    6  502    0  0.19524835379E+02  0.20159006028E+03 -0.69365833728E+02  0.21408267209E+03  0.00000000000E+00 0. -1.
          1    1    5    5  503    0 -0.41891999894E+03  0.12563086722E+03 -0.10647892417E+04  0.11511095558E+04  0.00000000000E+00 0. -1.
         -2    1    5    5    0  503 -0.21060827242E+01  0.11399780318E+02 -0.39820050446E+02  0.41473208138E+02  0.00000000000E+00 0.  1.
         -3    1    6    6    0  502  0.11046167029E+03  0.22288925454E+03 -0.66100181504E+02  0.25739198586E+03  0.00000000000E+00 0.  1.
<mgrwt>
<rscale>  0 0.19185743E+04</rscale>
<asrwt>0</asrwt>
<pdfrwt beam="1">  1        2 0.27533661E+00 0.19185743E+04</pdfrwt>
<pdfrwt beam="2">  1       -2 0.79105481E-01 0.19185743E+04</pdfrwt>
<totfact> 0.11590791E+01</totfact>
</mgrwt>
</event>
<event>
12    1  0.1489025E-007  0.1272120E+04  0.7818608E-02  0.9051971E-01
          2   -1    0    0  501    0  0.00000000000E+00  0.00000000000E+00  0.20082407015E+04  0.20082407015E+04  0.00000000000E+00 0. -1.
         -2   -1    0    0    0  501 -0.00000000000E+00 -0.00000000000E+00 -0.20145623379E+03  0.20145623379E+03  0.00000000000E+00 0.  1.
         23    2    1    2    0    0 -0.22915776088E+03  0.15474022096E+03  0.65001736007E+03  0.71222736916E+03  0.91035386724E+02 0.  0.
        254    2    1    2    0    0  0.22915776088E+03 -0.15474022096E+03  0.11567671076E+04  0.14974695661E+04  0.90986105794E+03 0.  0.
        -24    2    4    4    0    0  0.47537841278E+03 -0.35384368892E+03  0.90624823309E+03  0.10858088268E+04  0.80653312367E+02 0.  0.
         24    2    4    4    0    0 -0.24622065190E+03  0.19910346796E+03  0.25051887452E+03  0.41166073931E+03  0.80237506376E+02 0.  0.
         11    1    3    3    0    0 -0.22540717401E+02 -0.41632174993E+01  0.20006563621E+02  0.30424971797E+02  0.00000000000E+00 0.  1.
        -11    1    3    3    0    0 -0.20661704348E+03  0.15890343846E+03  0.63001079644E+03  0.68180239736E+03  0.00000000000E+00 0. -1.
          4    1    6    6  502    0 -0.23618513856E+03  0.15800241894E+03  0.21327458608E+03  0.35529457234E+03  0.00000000000E+00 0. -1.
          1    1    5    5  503    0  0.26503573978E+03 -0.15075444878E+03  0.43490143345E+03  0.53114038069E+03  0.00000000000E+00 0. -1.
         -2    1    5    5    0  503  0.21034267300E+03 -0.20308924014E+03  0.47134679964E+03  0.55466844608E+03  0.00000000000E+00 0.  1.
         -3    1    6    6    0  502 -0.10035513341E+02  0.41101049013E+02  0.37244288435E+02  0.56366166971E+02  0.00000000000E+00 0.  1.
<mgrwt>
<rscale>  0 0.12721204E+04</rscale>
<asrwt>0</asrwt>
<pdfrwt beam="1">  1        2 0.30896009E+00 0.12721204E+04</pdfrwt>
<pdfrwt beam="2">  1       -2 0.30993268E-01 0.12721204E+04</pdfrwt>
<totfact> 0.62699050E+01</totfact>
</mgrwt>
</event>
<event>
12    1  0.1489025E-007  0.1104932E+04  0.7818608E-02  0.9200398E-01
         -1   -1    0    0    0  501 -0.00000000000E+00  0.00000000000E+00  0.46693450706E+03  0.46693450706E+03  0.00000000000E+00 0.  1.
          1   -1    0    0  501    0  0.00000000000E+00 -0.00000000000E+00 -0.65366530675E+03  0.65366530675E+03  0.00000000000E+00 0. -1.
         23    2    1    2    0    0  0.78536475711E+02 -0.92619664143E+02  0.87127608401E+02  0.17523463683E+03  0.91485395536E+02 0.  0.
        254    2    1    2    0    0 -0.78536475711E+02  0.92619664143E+02 -0.27385840809E+03  0.94536517698E+03  0.89664402634E+03 0.  0.
        -24    2    4    4    0    0 -0.42433517248E+02  0.39429955798E+03  0.13817244666E+03  0.42736619290E+03  0.79230631776E+02 0.  0.
         24    2    4    4    0    0 -0.36102958463E+02 -0.30167989384E+03 -0.41203085475E+03  0.51799898408E+03  0.78989494779E+02 0.  0.
         11    1    3    3    0    0 -0.15465932851E+01  0.15069391971E+02  0.20257558967E+02  0.25295201531E+02  0.00000000000E+00 0. -1.
        -11    1    3    3    0    0  0.80083068996E+02 -0.10768905611E+03  0.66870049434E+02  0.14993943530E+03  0.00000000000E+00 0.  1.
          2    1    6    6  502    0 -0.16260777851E+02 -0.18481361339E+02 -0.11781388094E+02  0.27290560981E+02  0.00000000000E+00 0. -1.
          1    1    5    5  503    0 -0.15211543950E+02  0.60256697144E+02 -0.61741749465E+01  0.62453030802E+02  0.00000000000E+00 0. -1.
         -2    1    5    5    0  503 -0.27221973298E+02  0.33404286084E+03  0.14434662161E+03  0.36491316210E+03  0.00000000000E+00 0.  1.
         -3    1    6    6    0  502 -0.19842180613E+02 -0.28319853250E+03 -0.40024946666E+03  0.49070842310E+03  0.00000000000E+00 0.  1.
<mgrwt>
<rscale>  0 0.11049324E+04</rscale>
<asrwt>0</asrwt>
<pdfrwt beam="1">  1        1 0.10056389E+00 0.11049324E+04</pdfrwt>
<pdfrwt beam="2">  1       -1 0.71836078E-01 0.11049324E+04</pdfrwt>
<totfact> 0.58871090E+01</totfact>
</mgrwt>
</event>
<event>
12    1  0.1489025E-007  0.2214368E+04  0.7818608E-02  0.8512471E-01
          1   -1    0    0  501    0  0.00000000000E+00  0.00000000000E+00  0.13904639877E+04  0.13904639877E+04  0.00000000000E+00 0. -1.
         -1   -1    0    0    0  501 -0.00000000000E+00 -0.00000000000E+00 -0.88161693021E+03  0.88161693021E+03  0.00000000000E+00 0.  1.
         23    2    1    2    0    0  0.46457603417E+03  0.73646633638E+03 -0.91536734814E+02  0.88026722033E+03  0.90982686321E+02 0.  0.
        254    2    1    2    0    0 -0.46457603417E+03 -0.73646633638E+03  0.60038379230E+03  0.13918136976E+04  0.90469393417E+03 0.  0.
        -24    2    4    4    0    0  0.16133697725E+02 -0.21395639904E+03  0.63707422682E+03  0.67622495811E+03  0.73341574869E+02 0.  0.
         24    2    4    4    0    0 -0.48070973190E+03 -0.52250993734E+03 -0.36690434522E+02  0.71558873945E+03  0.81379205493E+02 0.  0.
         11    1    3    3    0    0  0.44794597589E+03  0.68789089931E+03 -0.10396608642E+03  0.82744089444E+03  0.00000000000E+00 0.  1.
        -11    1    3    3    0    0  0.16630058288E+02  0.48575437077E+02  0.12429351606E+02  0.52826325892E+02  0.00000000000E+00 0. -1.
          4    1    6    6  502    0 -0.25489778026E+03 -0.30376127969E+03 -0.56642337994E+02  0.40056478611E+03  0.00000000000E+00 0. -1.
          1    1    5    5  503    0 -0.22993984527E+02 -0.12629999290E+03  0.41194363770E+03  0.43148345527E+03  0.00000000000E+00 0. -1.
         -4    1    5    5    0  503  0.39127682252E+02 -0.87656406145E+02  0.22513058912E+03  0.24474150284E+03  0.00000000000E+00 0.  1.
         -3    1    6    6    0  502 -0.22581195164E+03 -0.21874865765E+03  0.19951903472E+02  0.31502395334E+03  0.00000000000E+00 0.  1.
<mgrwt>
<rscale>  0 0.22143682E+04</rscale>
<asrwt>0</asrwt>
<pdfrwt beam="1">  1        1 0.21391754E+00 0.22143682E+04</pdfrwt>
<pdfrwt beam="2">  1       -1 0.13563337E+00 0.22143682E+04</pdfrwt>
<totfact> 0.32338021E+00</totfact>
</mgrwt>
</event>
<event>
12    1  0.2616901E-007  0.2184703E+04  0.7818608E-02  0.8524822E-01
          2   -1    0    0  501    0  0.00000000000E+00  0.00000000000E+00  0.65479078455E+03  0.65479078455E+03  0.00000000000E+00 0.  1.
         -2   -1    0    0    0  501 -0.00000000000E+00 -0.00000000000E+00 -0.18223104200E+04  0.18223104200E+04  0.00000000000E+00 0. -1.
         23    2    1    2    0    0 -0.36756657845E+01 -0.13924064310E+03  0.51656631674E+03  0.54318685881E+03  0.93860198068E+02 0.  0.
        254    2    1    2    0    0  0.36756657845E+01  0.13924064310E+03 -0.16840859522E+04  0.19339143458E+04  0.94046676449E+03 0.  0.
        -24    2    4    4    0    0  0.17730528334E+03 -0.19497817325E+03 -0.14651817848E+04  0.14908932406E+04  0.80940354497E+02 0.  0.
         24    2    4    4    0    0 -0.17362961756E+03  0.33421881636E+03 -0.21890416746E+03  0.44302110515E+03  0.80617639380E+02 0.  0.
         11    1    3    3    0    0  0.13361536738E+02 -0.12041219754E+03  0.49579053167E+03  0.51037817281E+03  0.00000000000E+00 0.  1.
        -11    1    3    3    0    0 -0.17037202523E+02 -0.18828445566E+02  0.20775785073E+02  0.32808686009E+02  0.00000000000E+00 0. -1.
          2    1    6    6  502    0 -0.18040052466E+03  0.33054150471E+03 -0.21836062172E+03  0.43529690643E+03  0.00000000000E+00 0. -1.
          3    1    5    5  503    0  0.18376545458E+03 -0.18229646692E+03 -0.13292445290E+04  0.13542129678E+04  0.00000000000E+00 0. -1.
         -4    1    5    5    0  503 -0.64601712363E+01 -0.12681706328E+02 -0.13593725574E+03  0.13668027285E+03  0.00000000000E+00 0.  1.
         -1    1    6    6    0  502  0.67709070989E+01  0.36773116512E+01 -0.54354573764E+00  0.77241987216E+01  0.00000000000E+00 0.  1.
<mgrwt>
<rscale>  0 0.21847032E+04</rscale>
<asrwt>0</asrwt>
<pdfrwt beam="1">  1        2 0.10073705E+00 0.21847032E+04</pdfrwt>
<pdfrwt beam="2">  1       -2 0.28035544E+00 0.21847032E+04</pdfrwt>
<totfact> 0.17090057E+00</totfact>
</mgrwt>
</event>
<event>
12    1  0.1489025E-007  0.2111653E+04  0.7818608E-02  0.8556127E-01
         -2   -1    0    0    0  501 -0.00000000000E+00  0.00000000000E+00  0.49393772965E+03  0.49393772965E+03  0.00000000000E+00 0.  1.
          2   -1    0    0  501    0  0.00000000000E+00 -0.00000000000E+00 -0.22569039225E+04  0.22569039225E+04  0.00000000000E+00 0. -1.
         23    2    1    2    0    0  0.30736472368E+03  0.70873693181E+03 -0.12174634336E+04  0.14446853362E+04  0.90096596219E+02 0.  0.
        254    2    1    2    0    0 -0.30736472368E+03 -0.70873693181E+03 -0.54550275928E+03  0.13061563160E+04  0.90093837163E+03 0.  0.
        -24    2    4    4    0    0 -0.23592635403E+02  0.20795162389E+03 -0.80590364508E+02  0.23735882572E+03  0.77742620027E+02 0.  0.
         24    2    4    4    0    0 -0.28377208828E+03 -0.91668855571E+03 -0.46491239477E+03  0.10687974903E+04  0.73075536962E+02 0.  0.
         13    1    3    3    0    0  0.63372473542E+02  0.84190972820E+02 -0.13315549274E+03  0.16980746613E+03  0.00000000000E+00 0.  1.
        -13    1    3    3    0    0  0.24399225014E+03  0.62454595900E+03 -0.10843079409E+04  0.12748778701E+04  0.00000000000E+00 0. -1.
          4    1    6    6  502    0 -0.22539311136E+03 -0.61352199379E+03 -0.31152812305E+03  0.72405874276E+03  0.00000000000E+00 0. -1.
          3    1    5    5  503    0  0.13932506623E+02  0.11353544611E+03 -0.12534885240E+02  0.11507187151E+03  0.00000000000E+00 0. -1.
         -4    1    5    5    0  503 -0.37525142026E+02  0.94416177783E+02 -0.68055479268E+02  0.12228695421E+03  0.00000000000E+00 0.  1.
         -3    1    6    6    0  502 -0.58378976913E+02 -0.30316656192E+03 -0.15338427172E+03  0.34473874749E+03  0.00000000000E+00 0.  1.
<mgrwt>
<rscale>  0 0.21116534E+04</rscale>
<asrwt>0</asrwt>
<pdfrwt beam="1">  1        2 0.34721599E+00 0.21116534E+04</pdfrwt>
<pdfrwt beam="2">  1       -2 0.75990419E-01 0.21116534E+04</pdfrwt>
<totfact> 0.68477191E+00</totfact>
</mgrwt>
</event>
<event>
12    1  0.1489025E-007  0.3426880E+04  0.7818608E-02  0.8131341E-01
         -2   -1    0    0    0  501 -0.00000000000E+00  0.00000000000E+00  0.15217058803E+04  0.15217058803E+04  0.00000000000E+00 0.  1.
          2   -1    0    0  501    0  0.00000000000E+00 -0.00000000000E+00 -0.19293321299E+04  0.19293321299E+04  0.00000000000E+00 0. -1.
         23    2    1    2    0    0  0.43594549545E+03  0.13689593693E+04  0.50323128429E+03  0.15249981222E+04  0.90990754208E+02 0.  0.
        254    2    1    2    0    0 -0.43594549545E+03 -0.13689593693E+04 -0.91085753386E+03  0.19260398881E+04  0.90325520960E+03 0.  0.
        -24    2    4    4    0    0 -0.22696107722E+03 -0.20429245628E+03  0.13639042379E+03  0.34391334608E+03  0.80170466149E+02 0.  0.
         24    2    4    4    0    0 -0.20898441823E+03 -0.11646669130E+04 -0.10472479577E+04  0.15821265420E+04  0.79199777485E+02 0.  0.
         13    1    3    3    0    0  0.33089309099E+03  0.10246576453E+04  0.33511396585E+03  0.11277033731E+04  0.00000000000E+00 0.  1.
        -13    1    3    3    0    0  0.10505240446E+03  0.34430172400E+03  0.16811731844E+03  0.39729474901E+03  0.00000000000E+00 0. -1.
          2    1    6    6  502    0 -0.58734856492E+02 -0.24674284048E+03 -0.18645681134E+03  0.31479827698E+03  0.00000000000E+00 0. -1.
          1    1    5    5  503    0 -0.12878014883E+02 -0.48187973586E+02  0.31258626608E+02  0.58864469785E+02  0.00000000000E+00 0. -1.
         -2    1    5    5    0  503 -0.21408306234E+03 -0.15610448270E+03  0.10513179718E+03  0.28504887629E+03  0.00000000000E+00 0.  1.
         -1    1    6    6    0  502 -0.15024956173E+03 -0.91792407252E+03 -0.86079114631E+03  0.12673282650E+04  0.00000000000E+00 0.  1.
<mgrwt>
<rscale>  0 0.34268797E+04</rscale>
<asrwt>0</asrwt>
<pdfrwt beam="1">  1        2 0.29682033E+00 0.34268797E+04</pdfrwt>
<pdfrwt beam="2">  1       -2 0.23410860E+00 0.34268797E+04</pdfrwt>
<totfact> 0.48727444E-01</totfact>
</mgrwt>
</event>
<event>
12    1  0.1489025E-007  0.1520109E+04  0.7818608E-02  0.8871190E-01
          1   -1    0    0  501    0  0.00000000000E+00  0.00000000000E+00  0.46751758792E+03  0.46751758792E+03  0.00000000000E+00 0. -1.
         -1   -1    0    0    0  501 -0.00000000000E+00 -0.00000000000E+00 -0.12356379571E+04  0.12356379571E+04  0.00000000000E+00 0.  1.
         23    2    1    2    0    0 -0.45256590534E+02 -0.46798048692E+03 -0.36653610153E+03  0.60311047964E+03  0.91321639282E+02 0.  0.
        254    2    1    2    0    0  0.45256590534E+02  0.46798048692E+03 -0.40158426762E+03  0.11000450654E+04  0.90982159058E+03 0.  0.
        -24    2    4    4    0    0  0.33855008984E+03 -0.73005705738E+02 -0.31290726976E+03  0.47307002252E+03  0.77060303294E+02 0.  0.
         24    2    4    4    0    0 -0.29329349930E+03  0.54098619266E+03 -0.88676997859E+02  0.62697504283E+03  0.80913268368E+02 0.  0.
         13    1    3    3    0    0 -0.55723793374E+02 -0.39656583848E+03 -0.34275703096E+03  0.52711667368E+03  0.00000000000E+00 0.  1.
        -13    1    3    3    0    0  0.10467202840E+02 -0.71414648441E+02 -0.23779070568E+02  0.75993805961E+02  0.00000000000E+00 0. -1.
          2    1    6    6  502    0 -0.24328640124E+03  0.47621091625E+03 -0.10102542655E+03  0.54421617634E+03  0.00000000000E+00 0. -1.
          3    1    5    5  503    0  0.27831832638E+03 -0.89105190118E+02 -0.26412408294E+03  0.39390653319E+03  0.00000000000E+00 0. -1.
         -4    1    5    5    0  503  0.60231763459E+02  0.16099484380E+02 -0.48783186819E+02  0.79163489330E+02  0.00000000000E+00 0.  1.
         -1    1    6    6    0  502 -0.50007098059E+02  0.64775276411E+02  0.12348428694E+02  0.82758866484E+02  0.00000000000E+00 0.  1.
<mgrwt>
<rscale>  0 0.15201085E+04</rscale>
<asrwt>0</asrwt>
<pdfrwt beam="1">  1        1 0.71925784E-01 0.15201085E+04</pdfrwt>
<pdfrwt beam="2">  1       -1 0.19009815E+00 0.15201085E+04</pdfrwt>
<totfact> 0.82807032E+00</totfact>
</mgrwt>
</event>
<event>
12    1  0.1489025E-007  0.1339457E+04  0.7818608E-02  0.8998847E-01
         -2   -1    0    0    0  501 -0.00000000000E+00  0.00000000000E+00  0.57439370308E+03  0.57439370308E+03  0.00000000000E+00 0. -1.
          2   -1    0    0  501    0  0.00000000000E+00 -0.00000000000E+00 -0.78088675159E+03  0.78088675159E+03  0.00000000000E+00 0.  1.
         23    2    1    2    0    0  0.19608134145E+03  0.27669975462E+02  0.23843524783E+03  0.32315346207E+03  0.91450930196E+02 0.  0.
        254    2    1    2    0    0 -0.19608134145E+03 -0.27669975462E+02 -0.44492829634E+03  0.10321269926E+04  0.91000627467E+03 0.  0.
        -24    2    4    4    0    0 -0.21502888613E+03  0.30439187397E+03 -0.55440522997E+03  0.67293852788E+03  0.81174309240E+02 0.  0.
         24    2    4    4    0    0  0.18947544676E+02 -0.33206184944E+03  0.10947693362E+03  0.35918846471E+03  0.80044193327E+02 0.  0.
         11    1    3    3    0    0  0.17845813126E+03 -0.15862759997E+01  0.16906336518E+03  0.24582970189E+03  0.00000000000E+00 0. -1.
        -11    1    3    3    0    0  0.17623210198E+02  0.29256251462E+02  0.69371882649E+02  0.77323760187E+02  0.00000000000E+00 0.  1.
          4    1    6    6  502    0  0.35286994000E+02 -0.67589026055E+02  0.35324493801E+02  0.84031352786E+02  0.00000000000E+00 0. -1.
          3    1    5    5  503    0 -0.11843186452E+03  0.10102206546E+03 -0.20808485260E+03  0.25986702393E+03  0.00000000000E+00 0. -1.
         -2    1    5    5    0  503 -0.96597021609E+02  0.20336980851E+03 -0.34632037737E+03  0.41307150395E+03  0.00000000000E+00 0.  1.
         -3    1    6    6    0  502 -0.16339449324E+02 -0.26447282338E+03  0.74152439823E+02  0.27515711192E+03  0.00000000000E+00 0.  1.
<mgrwt>
<rscale>  0 0.13394573E+04</rscale>
<asrwt>0</asrwt>
<pdfrwt beam="1">  1        2 0.12013642E+00 0.13394573E+04</pdfrwt>
<pdfrwt beam="2">  1       -2 0.88368263E-01 0.13394573E+04</pdfrwt>
<totfact> 0.38340702E+01</totfact>
</mgrwt>
</event>
<event>
12    1  0.1489025E-007  0.2650875E+04  0.7818608E-02  0.8351123E-01
         -2   -1    0    0    0  501 -0.00000000000E+00  0.00000000000E+00  0.11317716256E+04  0.11317716256E+04  0.00000000000E+00 0.  1.
          2   -1    0    0  501    0  0.00000000000E+00 -0.00000000000E+00 -0.15522425129E+04  0.15522425129E+04  0.00000000000E+00 0. -1.
         23    2    1    2    0    0 -0.18210619191E+03  0.47264383924E+02 -0.13664809651E+04  0.13823387689E+04  0.90518820211E+02 0.  0.
        254    2    1    2    0    0  0.18210619191E+03 -0.47264383924E+02  0.94601007780E+03  0.13016753696E+04  0.87408644501E+03 0.  0.
        -24    2    4    4    0    0  0.18673321631E+03  0.36930770067E+03  0.25805046688E+03  0.49387404446E+03  0.77872051985E+02 0.  0.
         24    2    4    4    0    0 -0.46270243989E+01 -0.41657208460E+03  0.68795961092E+03  0.80780132512E+03  0.75503930989E+02 0.  0.
         11    1    3    3    0    0 -0.12696407615E+03  0.57711255851E+02 -0.71702703929E+03  0.73046440075E+03  0.00000000000E+00 0.  1.
        -11    1    3    3    0    0 -0.55142115765E+02 -0.10446871928E+02 -0.64945392580E+03  0.65187436811E+03  0.00000000000E+00 0. -1.
          2    1    6    6  502    0 -0.19642159832E+02 -0.39505101309E+03  0.66005887697E+03  0.76949908281E+03  0.00000000000E+00 0. -1.
          3    1    5    5  503    0  0.15745327176E+03  0.23272332763E+03  0.18271983843E+03  0.33516894153E+03  0.00000000000E+00 0. -1.
         -4    1    5    5    0  503  0.29279944553E+02  0.13658437304E+03  0.75330628458E+02  0.15870510293E+03  0.00000000000E+00 0.  1.
         -1    1    6    6    0  502  0.15015135434E+02 -0.21521071512E+02  0.27900733946E+02  0.38302242308E+02  0.00000000000E+00 0.  1.
<mgrwt>
<rscale>  0 0.26508746E+04</rscale>
<asrwt>0</asrwt>
<pdfrwt beam="1">  1        2 0.23880654E+00 0.26508746E+04</pdfrwt>
<pdfrwt beam="2">  1       -2 0.17411871E+00 0.26508746E+04</pdfrwt>
<totfact> 0.20827244E+00</totfact>
</mgrwt>
</event>
<event>
12    1  0.1489025E-007  0.1566871E+04  0.7818608E-02  0.8841163E-01
         -1   -1    0    0    0  501 -0.00000000000E+00  0.00000000000E+00  0.39040169349E+03  0.39040169349E+03  0.00000000000E+00 0.  1.
          1   -1    0    0  501    0  0.00000000000E+00 -0.00000000000E+00 -0.15721524750E+04  0.15721524750E+04  0.00000000000E+00 0. -1.
         23    2    1    2    0    0  0.63943750964E+01 -0.28423609576E+03 -0.94375380117E+03  0.98998770975E+03  0.92592559474E+02 0.  0.
        254    2    1    2    0    0 -0.63943750964E+01  0.28423609576E+03 -0.23799698035E+03  0.97256645874E+03  0.89911729371E+03 0.  0.
        -24    2    4    4    0    0  0.27436872549E+03 -0.21175809111E+03 -0.17934326278E+02  0.35623108371E+03  0.80369510799E+02 0.  0.
         24    2    4    4    0    0 -0.28076310059E+03  0.49599418687E+03 -0.22006265407E+03  0.61633537503E+03  0.81262357450E+02 0.  0.
         13    1    3    3    0    0 -0.18362286908E+02 -0.12056622450E+03 -0.27114936213E+03  0.29731357967E+03  0.00000000000E+00 0.  1.
        -13    1    3    3    0    0  0.24756662004E+02 -0.16366987126E+03 -0.67260443903E+03  0.69267413008E+03  0.00000000000E+00 0. -1.
          4    1    6    6  502    0 -0.22688488308E+03  0.42046966062E+03 -0.15235031991E+03  0.50147991550E+03  0.00000000000E+00 0. -1.
          3    1    5    5  503    0  0.23551211649E+03 -0.20171504308E+03 -0.36090478847E+02  0.31218173919E+03  0.00000000000E+00 0. -1.
         -4    1    5    5    0  503  0.38856609007E+02 -0.10043048025E+02  0.18156152569E+02  0.44049344527E+02  0.00000000000E+00 0.  1.
         -3    1    6    6    0  502 -0.53878217507E+02  0.75524526245E+02 -0.67712334156E+02  0.11485545953E+03  0.00000000000E+00 0.  1.
<mgrwt>
<rscale>  0 0.15668708E+04</rscale>
<asrwt>0</asrwt>
<pdfrwt beam="1">  1        1 0.24186962E+00 0.15668708E+04</pdfrwt>
<pdfrwt beam="2">  1       -1 0.60061797E-01 0.15668708E+04</pdfrwt>
<totfact> 0.15770654E+01</totfact>
</mgrwt>
</event>
<event>
12    1  0.1489025E-007  0.2568818E+04  0.7818608E-02  0.8378871E-01
          2   -1    0    0  501    0  0.00000000000E+00  0.00000000000E+00  0.12638651572E+04  0.12638651572E+04  0.00000000000E+00 0. -1.
         -2   -1    0    0    0  501 -0.00000000000E+00 -0.00000000000E+00 -0.13052862749E+04  0.13052862749E+04  0.00000000000E+00 0.  1.
         23    2    1    2    0    0  0.15543526557E+03  0.67383919735E+03 -0.90667310829E+03  0.11439699303E+04  0.91606169970E+02 0.  0.
        254    2    1    2    0    0 -0.15543526557E+03 -0.67383919735E+03  0.86525199066E+03  0.14251815019E+04  0.89680651215E+03 0.  0.
        -24    2    4    4    0    0  0.16889755914E+03 -0.18168334870E+03 -0.11025740239E+03  0.28263444618E+03  0.78678527627E+02 0.  0.
         24    2    4    4    0    0 -0.32433282471E+03 -0.49215584864E+03  0.97550939305E+03  0.11425470557E+04  0.79912689681E+02 0.  0.
         11    1    3    3    0    0  0.33740595090E+02  0.81079280365E+02 -0.16353642653E+03  0.18562446030E+03  0.00000000000E+00 0. -1.
        -11    1    3    3    0    0  0.12169467048E+03  0.59275991698E+03 -0.74313668176E+03  0.95834546996E+03  0.00000000000E+00 0.  1.
          2    1    6    6  502    0 -0.41751975300E+01 -0.67317726788E+01  0.13549886855E+01  0.80364813290E+01  0.00000000000E+00 0. -1.
          3    1    5    5  503    0  0.59096561088E+02 -0.97304277033E+02 -0.15627866374E+02  0.11491194920E+03  0.00000000000E+00 0. -1.
         -4    1    5    5    0  503  0.10980099805E+03 -0.84379071672E+02 -0.94629536013E+02  0.16772249698E+03  0.00000000000E+00 0.  1.
         -1    1    6    6    0  502 -0.32015762718E+03 -0.48542407596E+03  0.97415440436E+03  0.11345105743E+04  0.00000000000E+00 0.  1.
<mgrwt>
<rscale>  0 0.25688175E+04</rscale>
<asrwt>0</asrwt>
<pdfrwt beam="1">  1        2 0.19444079E+00 0.25688175E+04</pdfrwt>
<pdfrwt beam="2">  1       -2 0.20081327E+00 0.25688175E+04</pdfrwt>
<totfact> 0.20223574E+00</totfact>
</mgrwt>
</event>
<event>
12    1  0.1489025E-007  0.2080416E+04  0.7818608E-02  0.8569920E-01
          1   -1    0    0  501    0  0.00000000000E+00  0.00000000000E+00  0.96133414547E+03  0.96133414547E+03  0.00000000000E+00 0.  1.
         -1   -1    0    0    0  501 -0.00000000000E+00 -0.00000000000E+00 -0.11255532805E+04  0.11255532805E+04  0.00000000000E+00 0. -1.
         23    2    1    2    0    0 -0.51951282106E+03 -0.60847571324E+03  0.19835858124E+03  0.82935815044E+03  0.91392286961E+02 0.  0.
        254    2    1    2    0    0  0.51951282106E+03  0.60847571324E+03 -0.36257771625E+03  0.12575292755E+04  0.89987833266E+03 0.  0.
        -24    2    4    4    0    0  0.63482329989E+03  0.27294774738E+03 -0.51213334147E+03  0.86428004483E+03  0.84843040789E+02 0.  0.
         24    2    4    4    0    0 -0.11531047883E+03  0.33552796586E+03  0.14955562522E+03  0.39324923067E+03  0.80015935820E+02 0.  0.
         13    1    3    3    0    0 -0.20130935333E+03 -0.30152858568E+03  0.10550869533E+03  0.37759373473E+03  0.00000000000E+00 0. -1.
        -13    1    3    3    0    0 -0.31820346773E+03 -0.30694712756E+03  0.92849885911E+02  0.45176441572E+03  0.00000000000E+00 0.  1.
          4    1    6    6  502    0 -0.33784366034E+02  0.16460929096E+03  0.10682624822E+03  0.19912169487E+03  0.00000000000E+00 0. -1.
          3    1    5    5  503    0  0.58366786449E+02  0.40986480928E+02 -0.81329964244E+02  0.10817179144E+03  0.00000000000E+00 0. -1.
         -4    1    5    5    0  503  0.57645651344E+03  0.23196126645E+03 -0.43080337723E+03  0.75610825339E+03  0.00000000000E+00 0.  1.
         -3    1    6    6    0  502 -0.81526112798E+02  0.17091867490E+03  0.42729377000E+02  0.19412753580E+03  0.00000000000E+00 0.  1.
<mgrwt>
<rscale>  0 0.20804161E+04</rscale>
<asrwt>0</asrwt>
<pdfrwt beam="1">  1        1 0.14789756E+00 0.20804161E+04</pdfrwt>
<pdfrwt beam="2">  1       -1 0.17316204E+00 0.20804161E+04</pdfrwt>
<totfact> 0.34885952E+00</totfact>
</mgrwt>
</event>
<event>
12    1  0.1489025E-007  0.1229681E+04  0.7818608E-02  0.9087266E-01
          1   -1    0    0  501    0  0.00000000000E+00  0.00000000000E+00  0.56857162411E+03  0.56857162411E+03  0.00000000000E+00 0. -1.
         -1   -1    0    0    0  501 -0.00000000000E+00 -0.00000000000E+00 -0.66487436168E+03  0.66487436168E+03  0.00000000000E+00 0.  1.
         23    2    1    2    0    0 -0.21160150594E+03  0.19678562978E+02  0.12404121929E+03  0.26465484135E+03  0.97434684838E+02 0.  0.
        254    2    1    2    0    0  0.21160150594E+03 -0.19678562978E+02 -0.22034395687E+03  0.96879114444E+03  0.91915307705E+03 0.  0.
        -24    2    4    4    0    0  0.50046395552E+03  0.22682755273E+03 -0.12553559811E+03  0.56940243929E+03  0.80901433982E+02 0.  0.
         24    2    4    4    0    0 -0.28886244958E+03 -0.24650611571E+03 -0.94808358754E+02  0.39938870515E+03  0.79472844742E+02 0.  0.
         13    1    3    3    0    0 -0.12665971913E+03  0.52786711542E+02  0.46230952557E+02  0.14479786718E+03  0.00000000000E+00 0. -1.
        -13    1    3    3    0    0 -0.84941786809E+02 -0.33108148563E+02  0.77810266734E+02  0.11985697417E+03  0.00000000000E+00 0.  1.
          2    1    6    6  502    0 -0.22088219594E+03 -0.18695896116E+03 -0.10629844687E+03  0.30828875660E+03  0.00000000000E+00 0. -1.
          3    1    5    5  503    0  0.23722600318E+03  0.15041934598E+03 -0.74248902921E+02  0.29054269190E+03  0.00000000000E+00 0. -1.
         -4    1    5    5    0  503  0.26323795234E+03  0.76408206751E+02 -0.51286695193E+02  0.27885974739E+03  0.00000000000E+00 0.  1.
         -1    1    6    6    0  502 -0.67980253647E+02 -0.59547154541E+02  0.11490088118E+02  0.91099948545E+02  0.00000000000E+00 0.  1.
<mgrwt>
<rscale>  0 0.12296808E+04</rscale>
<asrwt>0</asrwt>
<pdfrwt beam="1">  1        1 0.87472558E-01 0.12296808E+04</pdfrwt>
<pdfrwt beam="2">  1       -1 0.10228836E+00 0.12296808E+04</pdfrwt>
<totfact> 0.33079997E+01</totfact>
</mgrwt>
</event>
<event>
12    1  0.1489025E-007  0.1550404E+04  0.7818608E-02  0.8851610E-01
          1   -1    0    0  501    0  0.00000000000E+00  0.00000000000E+00  0.20275579915E+04  0.20275579915E+04  0.00000000000E+00 0. -1.
         -1   -1    0    0    0  501 -0.00000000000E+00 -0.00000000000E+00 -0.29638524181E+03  0.29638524181E+03  0.00000000000E+00 0.  1.
         23    2    1    2    0    0 -0.52272996741E+03  0.83913233818E+01  0.81616051475E+03  0.97348558345E+03  0.90769830992E+02 0.  0.
        254    2    1    2    0    0  0.52272996741E+03 -0.83913233818E+01  0.91501223492E+03  0.13504576498E+04  0.84449478435E+03 0.  0.
        -24    2    4    4    0    0 -0.55875328943E+02  0.28316348223E+03  0.48205150523E+03  0.56762017867E+03  0.80718049298E+02 0.  0.
         24    2    4    4    0    0  0.57860529635E+03 -0.29155480561E+03  0.43296072969E+03  0.78283747116E+03  0.74774455202E+02 0.  0.
         11    1    3    3    0    0 -0.47542067625E+03 -0.15428297939E+02  0.70655731328E+03  0.85175471160E+03  0.00000000000E+00 0. -1.
        -11    1    3    3    0    0 -0.47309291163E+02  0.23819621321E+02  0.10960320147E+03  0.12173087185E+03  0.00000000000E+00 0.  1.
          2    1    6    6  502    0  0.39657442470E+02 -0.10418922747E+02  0.97230488217E+01  0.42140293934E+02  0.00000000000E+00 0. -1.
          1    1    5    5  503    0 -0.24477200435E+02  0.54940773885E+02  0.50950521954E+02  0.78826249838E+02  0.00000000000E+00 0. -1.
         -2    1    5    5    0  503 -0.31398128508E+02  0.22822270835E+03  0.43110098328E+03  0.48879392883E+03  0.00000000000E+00 0.  1.
         -1    1    6    6    0  502  0.53894785388E+03 -0.28113588287E+03  0.42323768087E+03  0.74069717722E+03  0.00000000000E+00 0.  1.
<mgrwt>
<rscale>  0 0.15504042E+04</rscale>
<asrwt>0</asrwt>
<pdfrwt beam="1">  1        1 0.31193199E+00 0.15504042E+04</pdfrwt>
<pdfrwt beam="2">  1       -1 0.45597731E-01 0.15504042E+04</pdfrwt>
<totfact> 0.13146423E+01</totfact>
</mgrwt>
</event>
<event>
12    1  0.1489025E-007  0.1239506E+04  0.7818608E-02  0.9078963E-01
         -1   -1    0    0    0  501 -0.00000000000E+00  0.00000000000E+00  0.39395657802E+03  0.39395657802E+03  0.00000000000E+00 0.  1.
          1   -1    0    0  501    0  0.00000000000E+00 -0.00000000000E+00 -0.97496515399E+03  0.97496515399E+03  0.00000000000E+00 0. -1.
         23    2    1    2    0    0 -0.16192334106E+03  0.14928180843E+03 -0.33311041534E+03  0.40612643812E+03  0.73972347700E+02 0.  0.
        254    2    1    2    0    0  0.16192334106E+03 -0.14928180843E+03 -0.24789816063E+03  0.96279529388E+03  0.90388995634E+03 0.  0.
        -24    2    4    4    0    0  0.28773567744E+03 -0.43232263631E+03  0.47456018846E+02  0.52749613768E+03  0.79406672291E+02 0.  0.
         24    2    4    4    0    0 -0.12581233638E+03  0.28304082788E+03 -0.29535417948E+03  0.43529915620E+03  0.79438087979E+02 0.  0.
         11    1    3    3    0    0 -0.12701707797E+03  0.10318682074E+03 -0.18425726207E+03  0.24643781507E+03  0.00000000000E+00 0. -1.
        -11    1    3    3    0    0 -0.34906263089E+02  0.46094987685E+02 -0.14885315328E+03  0.15968862305E+03  0.00000000000E+00 0.  1.
          4    1    6    6  502    0 -0.10122415956E+03  0.18428487680E+03 -0.15178661669E+03  0.25931915336E+03  0.00000000000E+00 0. -1.
          1    1    5    5  503    0  0.28800058358E+03 -0.43198741561E+03  0.53043973790E+02  0.52189187246E+03  0.00000000000E+00 0. -1.
         -2    1    5    5    0  503 -0.26490613496E+00 -0.33522069875E+00 -0.55879549441E+01  0.56042652180E+01  0.00000000000E+00 0.  1.
         -3    1    6    6    0  502 -0.24588176820E+02  0.98755951082E+02 -0.14356756279E+03  0.17598000284E+03  0.00000000000E+00 0.  1.
<mgrwt>
<rscale>  0 0.12395062E+04</rscale>
<asrwt>0</asrwt>
<pdfrwt beam="1">  1        1 0.14999464E+00 0.12395062E+04</pdfrwt>
<pdfrwt beam="2">  1       -1 0.60608704E-01 0.12395062E+04</pdfrwt>
<totfact> 0.43139753E+01</totfact>
</mgrwt>
</event>
<event>
12    1  0.1489025E-007  0.1422626E+04  0.7818608E-02  0.8937601E-01
         -2   -1    0    0    0  501 -0.00000000000E+00  0.00000000000E+00  0.71223313180E+03  0.71223313180E+03  0.00000000000E+00 0.  1.
          2   -1    0    0  501    0  0.00000000000E+00 -0.00000000000E+00 -0.71039432929E+03  0.71039432929E+03  0.00000000000E+00 0. -1.
         23    2    1    2    0    0 -0.34626407098E+03 -0.80652053793E+02 -0.23794718219E+03  0.43754904684E+03  0.91797310691E+02 0.  0.
        254    2    1    2    0    0  0.34626407098E+03  0.80652053793E+02  0.23978598470E+03  0.98507841425E+03  0.88683628880E+03 0.  0.
        -24    2    4    4    0    0  0.39766537925E+03  0.41846427039E+03  0.48102477520E+02  0.58541784444E+03  0.84558292304E+02 0.  0.
         24    2    4    4    0    0 -0.51401308276E+02 -0.33781221660E+03  0.19168350718E+03  0.39966056981E+03  0.78910176532E+02 0.  0.
         11    1    3    3    0    0 -0.30931762787E+03 -0.52106051220E+02 -0.23269931535E+03  0.39056549623E+03  0.00000000000E+00 0. -1.
        -11    1    3    3    0    0 -0.36946443112E+02 -0.28546002573E+02 -0.52478668364E+01  0.46983550609E+02  0.00000000000E+00 0.  1.
          4    1    6    6  502    0  0.21274614933E+02 -0.80446510827E+02  0.42593968509E+02  0.93479925643E+02  0.00000000000E+00 0. -1.
          3    1    5    5  503    0  0.34018725397E+03  0.38264393440E+03  0.20879753087E+02  0.51242532372E+03  0.00000000000E+00 0. -1.
         -4    1    5    5    0  503  0.57478125279E+02  0.35820335994E+02  0.27222724433E+02  0.72992520726E+02  0.00000000000E+00 0.  1.
         -3    1    6    6    0  502 -0.72675923209E+02 -0.25736570577E+03  0.14908953867E+03  0.30618064417E+03  0.00000000000E+00 0.  1.
<mgrwt>
<rscale>  0 0.14226263E+04</rscale>
<asrwt>0</asrwt>
<pdfrwt beam="1">  1        2 0.10929143E+00 0.14226263E+04</pdfrwt>
<pdfrwt beam="2">  1       -2 0.10957433E+00 0.14226263E+04</pdfrwt>
<totfact> 0.25917090E+01</totfact>
</mgrwt>
</event>
<event>
12    1  0.1489025E-007  0.2313163E+04  0.7818608E-02  0.8472749E-01
          2   -1    0    0  501    0  0.00000000000E+00  0.00000000000E+00  0.17335446447E+04  0.17335446447E+04  0.00000000000E+00 0. -1.
         -2   -1    0    0    0  501 -0.00000000000E+00 -0.00000000000E+00 -0.77164493478E+03  0.77164493478E+03  0.00000000000E+00 0.  1.
         23    2    1    2    0    0  0.19238538728E+02 -0.39048228652E+02  0.14635604943E+04  0.14671234810E+04  0.92450541020E+02 0.  0.
        254    2    1    2    0    0 -0.19238538728E+02  0.39048228652E+02 -0.50166078434E+03  0.10380660985E+04  0.90775701418E+03 0.  0.
        -24    2    4    4    0    0  0.33876859102E+03  0.27161464263E+03 -0.39123750296E+03  0.58990342108E+03  0.79878596159E+02 0.  0.
         24    2    4    4    0    0 -0.35800712975E+03 -0.23256641398E+03 -0.11042328138E+03  0.44816267743E+03  0.80001515656E+02 0.  0.
         11    1    3    3    0    0 -0.10102063003E+02  0.15404262440E+01  0.11086079872E+04  0.11086550833E+04  0.00000000000E+00 0. -1.
        -11    1    3    3    0    0  0.29340601731E+02 -0.40588654896E+02  0.35495250714E+03  0.35846839769E+03  0.00000000000E+00 0.  1.
          2    1    6    6  502    0 -0.30541102394E+03 -0.18546923836E+03 -0.62263996906E+02  0.36270034082E+03  0.00000000000E+00 0. -1.
          3    1    5    5  503    0  0.33525856484E+03  0.25224385388E+03 -0.38451231134E+03  0.56910015348E+03  0.00000000000E+00 0. -1.
         -4    1    5    5    0  503  0.35100261809E+01  0.19370788745E+02 -0.67251916229E+01  0.20803267598E+02  0.00000000000E+00 0.  1.
         -1    1    6    6    0  502 -0.52596105813E+02 -0.47097175613E+02 -0.48159284471E+02  0.85462336606E+02  0.00000000000E+00 0.  1.
<mgrwt>
<rscale>  0 0.23131632E+04</rscale>
<asrwt>0</asrwt>
<pdfrwt beam="1">  1        2 0.26669918E+00 0.23131632E+04</pdfrwt>
<pdfrwt beam="2">  1       -2 0.11871461E+00 0.23131632E+04</pdfrwt>
<totfact> 0.46407246E+00</totfact>
</mgrwt>
</event>
<event>
12    1  0.1489025E-007  0.2301546E+04  0.7818608E-02  0.8477312E-01
          3   -1    0    0  501    0  0.00000000000E+00  0.00000000000E+00  0.44081196391E+04  0.44081196391E+04  0.00000000000E+00 0. -1.
         -3   -1    0    0    0  501 -0.00000000000E+00 -0.00000000000E+00 -0.30041812852E+03  0.30041812852E+03  0.00000000000E+00 0.  1.
         23    2    1    2    0    0  0.68006118918E+03  0.13882473401E+03  0.33716555175E+03  0.77701208738E+03  0.91168233751E+02 0.  0.
        254    2    1    2    0    0 -0.68006118918E+03 -0.13882473401E+03  0.37705359588E+04  0.39315256803E+04  0.87074521519E+03 0.  0.
        -24    2    4    4    0    0 -0.32962109763E+01  0.16316026954E+03  0.15213684682E+03  0.23715917021E+03  0.80415877106E+02 0.  0.
         24    2    4    4    0    0 -0.67676497821E+03 -0.30198500355E+03  0.36183991120E+04  0.36943665100E+04  0.79536146377E+02 0.  0.
         11    1    3    3    0    0  0.63996204457E+03  0.14918907468E+03  0.30440044574E+03  0.72420192616E+03  0.00000000000E+00 0.  1.
        -11    1    3    3    0    0  0.40099144616E+02 -0.10364340667E+02  0.32765106006E+02  0.52810161220E+02  0.00000000000E+00 0. -1.
          4    1    6    6  502    0 -0.61532073248E+03 -0.29264929173E+03  0.32367418456E+04  0.33076821170E+04  0.00000000000E+00 0. -1.
          1    1    5    5  503    0 -0.78978587423E+00  0.35962996255E+02 -0.34995184500E+01  0.36141492647E+02  0.00000000000E+00 0. -1.
         -2    1    5    5    0  503 -0.25064251021E+01  0.12719727329E+03  0.15563636527E+03  0.20101767756E+03  0.00000000000E+00 0.  1.
         -3    1    6    6    0  502 -0.61444245724E+02 -0.93357118197E+01  0.38165726638E+03  0.38668439305E+03  0.00000000000E+00 0.  1.
<mgrwt>
<rscale>  0 0.23015465E+04</rscale>
<asrwt>0</asrwt>
<pdfrwt beam="1">  1        3 0.67817221E+00 0.23015465E+04</pdfrwt>
<pdfrwt beam="2">  1       -3 0.46218177E-01 0.23015465E+04</pdfrwt>
<totfact> 0.49104629E-03</totfact>
</mgrwt>
</event>
<event>
12    1  0.1489025E-007  0.2177647E+04  0.7818608E-02  0.8527790E-01
          2   -1    0    0  501    0  0.00000000000E+00  0.00000000000E+00  0.17711081249E+04  0.17711081249E+04  0.00000000000E+00 0. -1.
         -2   -1    0    0    0  501 -0.00000000000E+00 -0.00000000000E+00 -0.66937567860E+03  0.66937567860E+03  0.00000000000E+00 0.  1.
         23    2    1    2    0    0 -0.40999353492E+03  0.11673543366E+03  0.13416377550E+04  0.14106902457E+04  0.91286601205E+02 0.  0.
        254    2    1    2    0    0  0.40999353492E+03 -0.11673543366E+03 -0.23990530868E+03  0.10297935578E+04  0.90619995278E+03 0.  0.
        -24    2    4    4    0    0  0.44538081344E+03 -0.30920394777E+03  0.16553932264E+03  0.57241559778E+03  0.79279246658E+02 0.  0.
         24    2    4    4    0    0 -0.35387278518E+02  0.19246851411E+03 -0.40544463132E+03  0.45737796003E+03  0.80702297675E+02 0.  0.
         13    1    3    3    0    0 -0.30867032075E+03  0.93173905634E+02  0.87281087245E+03  0.93046094097E+03  0.00000000000E+00 0.  1.
        -13    1    3    3    0    0 -0.10132321417E+03  0.23561528028E+02  0.46882688254E+03  0.48022930474E+03  0.00000000000E+00 0. -1.
          4    1    6    6  502    0 -0.24845015725E+02  0.62124834917E+02 -0.22359692787E+03  0.23339313630E+03  0.00000000000E+00 0. -1.
          1    1    5    5  503    0  0.40573062305E+03 -0.30588081432E+03  0.15556584384E+03  0.53139546745E+03  0.00000000000E+00 0. -1.
         -2    1    5    5    0  503  0.39650190383E+02 -0.33231334474E+01  0.99734787975E+01  0.41020130335E+02  0.00000000000E+00 0.  1.
         -3    1    6    6    0  502 -0.10542262793E+02  0.13034367919E+03 -0.18184770344E+03  0.22398482372E+03  0.00000000000E+00 0.  1.
<mgrwt>
<rscale>  0 0.21776471E+04</rscale>
<asrwt>0</asrwt>
<pdfrwt beam="1">  1        2 0.27247817E+00 0.21776471E+04</pdfrwt>
<pdfrwt beam="2">  1       -2 0.10298087E+00 0.21776471E+04</pdfrwt>
<totfact> 0.63143263E+00</totfact>
</mgrwt>
</event>
<event>
12    1  0.1489025E-007  0.1947535E+04  0.7818608E-02  0.8631550E-01
         -1   -1    0    0    0  501 -0.00000000000E+00  0.00000000000E+00  0.44596674838E+03  0.44596674838E+03  0.00000000000E+00 0.  1.
          1   -1    0    0  501    0  0.00000000000E+00 -0.00000000000E+00 -0.21262192319E+04  0.21262192319E+04  0.00000000000E+00 0. -1.
         23    2    1    2    0    0  0.61615937246E+03  0.20467104383E+03 -0.13109981731E+04  0.14665894405E+04  0.10308136886E+03 0.  0.
        254    2    1    2    0    0 -0.61615937246E+03 -0.20467104383E+03 -0.36925431046E+03  0.11055965398E+04  0.81513946945E+03 0.  0.
        -24    2    4    4    0    0 -0.44449560637E+03  0.17408171040E+03  0.76456291212E+02  0.49074377413E+03  0.84279899156E+02 0.  0.
         24    2    4    4    0    0 -0.17166376610E+03 -0.37875275424E+03 -0.44571060167E+03  0.61485276571E+03  0.80398293686E+02 0.  0.
         13    1    3    3    0    0  0.55378335844E+03  0.20014516027E+03 -0.12347804811E+04  0.13679974158E+04  0.00000000000E+00 0. -1.
        -13    1    3    3    0    0  0.62376014021E+02  0.45258835637E+01 -0.76217691990E+02  0.98592024624E+02  0.00000000000E+00 0.  1.
          2    1    6    6  502    0 -0.11290531280E+03 -0.21114071951E+03 -0.30793927809E+03  0.39007000921E+03  0.00000000000E+00 0. -1.
          3    1    5    5  503    0 -0.44474293478E+03  0.16303572674E+03  0.74075979735E+02  0.47944152616E+03  0.00000000000E+00 0. -1.
         -4    1    5    5    0  503  0.24732841465E+00  0.11045983661E+02  0.23803114771E+01  0.11302247967E+02  0.00000000000E+00 0.  1.
         -1    1    6    6    0  502 -0.58758453302E+02 -0.16761203473E+03 -0.13777132358E+03  0.22478275650E+03  0.00000000000E+00 0.  1.
<mgrwt>
<rscale>  0 0.19475349E+04</rscale>
<asrwt>0</asrwt>
<pdfrwt beam="1">  1        1 0.32711065E+00 0.19475349E+04</pdfrwt>
<pdfrwt beam="2">  1       -1 0.68610269E-01 0.19475349E+04</pdfrwt>
<totfact> 0.49003063E+00</totfact>
</mgrwt>
</event>
<event>
12    1  0.1489025E-007  0.2188224E+04  0.7818608E-02  0.8523346E-01
         -2   -1    0    0    0  501 -0.00000000000E+00  0.00000000000E+00  0.34710923165E+03  0.34710923165E+03  0.00000000000E+00 0.  1.
          2   -1    0    0  501    0  0.00000000000E+00 -0.00000000000E+00 -0.34487143402E+04  0.34487143402E+04  0.00000000000E+00 0. -1.
         23    2    1    2    0    0 -0.20268741233E+03 -0.72258873191E+03 -0.41370190301E+03  0.86215439302E+03  0.94574152062E+02 0.  0.
        254    2    1    2    0    0  0.20268741233E+03  0.72258873191E+03 -0.26879032056E+04  0.29336691789E+04  0.90464056170E+03 0.  0.
        -24    2    4    4    0    0 -0.30859122349E+03  0.11014828846E+03 -0.49765864436E+03  0.60121577404E+03  0.80219025014E+02 0.  0.
         24    2    4    4    0    0  0.51127863582E+03  0.61244044345E+03 -0.21902445612E+04  0.23324534048E+04  0.81722136281E+02 0.  0.
         11    1    3    3    0    0  0.76634017052E+01 -0.26923513494E+02 -0.27066717882E+02  0.38938548014E+02  0.00000000000E+00 0. -1.
        -11    1    3    3    0    0 -0.21035081403E+03 -0.69566521842E+03 -0.38663518513E+03  0.82321584500E+03  0.00000000000E+00 0.  1.
          4    1    6    6  502    0  0.49082118311E+02  0.97534337227E+02 -0.33753611599E+03  0.35475714351E+03  0.00000000000E+00 0. -1.
          1    1    5    5  503    0 -0.15282002087E+02 -0.98222756253E+01 -0.46151931240E+02  0.49598562917E+02  0.00000000000E+00 0. -1.
         -2    1    5    5    0  503 -0.29330922140E+03  0.11997056409E+03 -0.45150671312E+03  0.55161721112E+03  0.00000000000E+00 0.  1.
         -3    1    6    6    0  502  0.46219651751E+03  0.51490610622E+03 -0.18527084452E+04  0.19776962613E+04  0.00000000000E+00 0.  1.
<mgrwt>
<rscale>  0 0.21882236E+04</rscale>
<asrwt>0</asrwt>
<pdfrwt beam="1">  1        2 0.53057144E+00 0.21882236E+04</pdfrwt>
<pdfrwt beam="2">  1       -2 0.53401420E-01 0.21882236E+04</pdfrwt>
<totfact> 0.26780597E+00</totfact>
</mgrwt>
</event>
<event>
12    1  0.1489025E-007  0.1676687E+04  0.7818608E-02  0.8774773E-01
          1   -1    0    0  501    0  0.00000000000E+00  0.00000000000E+00  0.15422632494E+04  0.15422632494E+04  0.00000000000E+00 0. -1.
         -1   -1    0    0    0  501 -0.00000000000E+00 -0.00000000000E+00 -0.45570678668E+03  0.45570678668E+03  0.00000000000E+00 0.  1.
         23    2    1    2    0    0  0.85402704506E+02 -0.10426725948E+03  0.10772063539E+04  0.10893114593E+04  0.89781084380E+02 0.  0.
        254    2    1    2    0    0 -0.85402704506E+02  0.10426725948E+03  0.93501087439E+01  0.90865857672E+03  0.89855867988E+03 0.  0.
        -24    2    4    4    0    0  0.13459650695E+03  0.37627626537E+03 -0.23976746462E+03  0.47174903995E+03  0.73202951048E+02 0.  0.
         24    2    4    4    0    0 -0.21999921145E+03 -0.27200900589E+03  0.24911757336E+03  0.43690953677E+03  0.80260984513E+02 0.  0.
         13    1    3    3    0    0  0.93963135877E+02 -0.10115565556E+03  0.79088941716E+03  0.80284967941E+03  0.00000000000E+00 0. -1.
        -13    1    3    3    0    0 -0.85604313716E+01 -0.31116039205E+01  0.28631693678E+03  0.28646177991E+03  0.00000000000E+00 0.  1.
          2    1    6    6  502    0 -0.19072293777E+03 -0.17956874579E+03  0.18040197902E+03  0.31806453354E+03  0.00000000000E+00 0. -1.
          3    1    5    5  503    0  0.36077935865E+02  0.55643596100E+02 -0.67677904049E+02  0.94752973250E+02  0.00000000000E+00 0. -1.
         -4    1    5    5    0  503  0.98518571084E+02  0.32063266927E+03 -0.17208956057E+03  0.37699606670E+03  0.00000000000E+00 0.  1.
         -1    1    6    6    0  502 -0.29276273681E+02 -0.92440260100E+02  0.68715594339E+02  0.11884500323E+03  0.00000000000E+00 0.  1.
<mgrwt>
<rscale>  0 0.16766870E+04</rscale>
<asrwt>0</asrwt>
<pdfrwt beam="1">  1        1 0.23727127E+00 0.16766870E+04</pdfrwt>
<pdfrwt beam="2">  1       -1 0.70108737E-01 0.16766870E+04</pdfrwt>
<totfact> 0.11991484E+01</totfact>
</mgrwt>
</event>
<event>
12    1  0.1489025E-007  0.2531382E+04  0.7818608E-02  0.8391890E-01
          2   -1    0    0  501    0  0.00000000000E+00  0.00000000000E+00  0.21431320001E+04  0.21431320001E+04  0.00000000000E+00 0. -1.
         -2   -1    0    0    0  501 -0.00000000000E+00 -0.00000000000E+00 -0.74749169264E+03  0.74749169264E+03  0.00000000000E+00 0.  1.
         23    2    1    2    0    0 -0.75724853959E+03  0.71321454261E+03  0.99234730287E+03  0.14404202300E+04  0.89201653773E+02 0.  0.
        254    2    1    2    0    0  0.75724853959E+03 -0.71321454261E+03  0.40329300461E+03  0.14502034627E+04  0.92646883448E+03 0.  0.
        -24    2    4    4    0    0  0.41386632732E+03 -0.55149808210E+03 -0.20938715680E+03  0.72509260167E+03  0.80503590712E+02 0.  0.
         24    2    4    4    0    0  0.34338221227E+03 -0.16171646052E+03  0.61268016142E+03  0.72511086107E+03  0.79656910175E+02 0.  0.
         13    1    3    3    0    0 -0.21910825234E+03  0.23056502927E+03  0.35561281195E+03  0.47710494756E+03  0.00000000000E+00 0. -1.
        -13    1    3    3    0    0 -0.53814028725E+03  0.48264951334E+03  0.63673449093E+03  0.96331528246E+03  0.00000000000E+00 0.  1.
          2    1    6    6  502    0  0.34079283828E+03 -0.15342395533E+03  0.61103390940E+03  0.71626887907E+03  0.00000000000E+00 0. -1.
          1    1    5    5  503    0  0.14907750742E+03 -0.26235074324E+03 -0.79138648394E+02  0.31195342820E+03  0.00000000000E+00 0. -1.
         -4    1    5    5    0  503  0.26478881990E+03 -0.28914733886E+03 -0.13024850841E+03  0.41313917347E+03  0.00000000000E+00 0.  1.
         -1    1    6    6    0  502  0.25893739939E+01 -0.82925051893E+01  0.16462520228E+01  0.88419820016E+01  0.00000000000E+00 0.  1.
<mgrwt>
<rscale>  0 0.25313817E+04</rscale>
<asrwt>0</asrwt>
<pdfrwt beam="1">  1        2 0.32971261E+00 0.25313817E+04</pdfrwt>
<pdfrwt beam="2">  1       -2 0.11499872E+00 0.25313817E+04</pdfrwt>
<totfact> 0.29152485E+00</totfact>
</mgrwt>
</event>
<event>
12    1  0.1489025E-007  0.1907532E+04  0.7818608E-02  0.8651116E-01
         -2   -1    0    0    0  501 -0.00000000000E+00  0.00000000000E+00  0.13695172060E+04  0.13695172060E+04  0.00000000000E+00 0.  1.
          2   -1    0    0  501    0  0.00000000000E+00 -0.00000000000E+00 -0.66422638854E+03  0.66422638854E+03  0.00000000000E+00 0. -1.
         23    2    1    2    0    0  0.57398882911E+03 -0.12848183747E+03  0.74933421589E+03  0.95702256114E+03  0.91758688560E+02 0.  0.
        254    2    1    2    0    0 -0.57398882911E+03  0.12848183747E+03 -0.44043398416E+02  0.10767210334E+04  0.90078721369E+03 0.  0.
        -24    2    4    4    0    0 -0.28311823670E+03  0.13930063401E+03  0.41483886264E+03  0.52717650825E+03  0.79140295063E+02 0.  0.
         24    2    4    4    0    0 -0.29087059241E+03 -0.10818796536E+02 -0.45888226106E+03  0.54954452516E+03  0.81874951840E+02 0.  0.
         11    1    3    3    0    0  0.23989580177E+02 -0.24736945353E+02  0.58728435737E+02  0.68091450173E+02  0.00000000000E+00 0. -1.
        -11    1    3    3    0    0  0.54999924893E+03 -0.10374489212E+03  0.69060578015E+03  0.88893111097E+03  0.00000000000E+00 0.  1.
          4    1    6    6  502    0 -0.22810978068E+03  0.15848970673E+02 -0.39326747626E+03  0.45491160657E+03  0.00000000000E+00 0. -1.
          1    1    5    5  503    0 -0.74695975659E+02  0.13070763396E+01  0.82032046969E+02  0.11095248514E+03  0.00000000000E+00 0. -1.
         -4    1    5    5    0  503 -0.20842226104E+03  0.13799355767E+03  0.33280681567E+03  0.41622402311E+03  0.00000000000E+00 0.  1.
         -3    1    6    6    0  502 -0.62760811728E+02 -0.26667767209E+02 -0.65614784799E+02  0.94632918590E+02  0.00000000000E+00 0.  1.
<mgrwt>
<rscale>  0 0.19075319E+04</rscale>
<asrwt>0</asrwt>
<pdfrwt beam="1">  1        2 0.10218868E+00 0.19075319E+04</pdfrwt>
<pdfrwt beam="2">  1       -2 0.21069495E+00 0.19075319E+04</pdfrwt>
<totfact> 0.46398866E+00</totfact>
</mgrwt>
</event>
<event>
12    1  0.1489025E-007  0.2369230E+04  0.7818608E-02  0.8451114E-01
         -2   -1    0    0    0  501 -0.00000000000E+00  0.00000000000E+00  0.53247210119E+03  0.53247210119E+03  0.00000000000E+00 0.  1.
          2   -1    0    0  501    0  0.00000000000E+00 -0.00000000000E+00 -0.26354673571E+04  0.26354673571E+04  0.00000000000E+00 0. -1.
         23    2    1    2    0    0 -0.26492038956E+03 -0.40202640009E+03  0.28697968785E+03  0.56781885204E+03  0.90845298823E+02 0.  0.
        254    2    1    2    0    0  0.26492038956E+03  0.40202640009E+03 -0.23899749438E+04  0.26001206062E+04  0.90379140074E+03 0.  0.
        -24    2    4    4    0    0 -0.23311348414E+03  0.12683076897E+03 -0.21558048439E+03  0.35127474881E+03  0.80567136342E+02 0.  0.
         24    2    4    4    0    0  0.49803387370E+03  0.27519563112E+03 -0.21743944594E+04  0.22488458574E+04  0.74471812296E+02 0.  0.
         11    1    3    3    0    0 -0.21082789262E+03 -0.34460734020E+03  0.20131324973E+03  0.45136420299E+03  0.00000000000E+00 0.  1.
        -11    1    3    3    0    0 -0.54092496945E+02 -0.57419059891E+02  0.85666438128E+02  0.11645464905E+03  0.00000000000E+00 0. -1.
          4    1    6    6  502    0  0.24872897530E+03  0.11199520699E+03 -0.92295951581E+03  0.96242573602E+03  0.00000000000E+00 0. -1.
          1    1    5    5  503    0 -0.33096636790E+02  0.53737436365E+02 -0.63988483721E+02  0.89875611168E+02  0.00000000000E+00 0. -1.
         -2    1    5    5    0  503 -0.20001684735E+03  0.73093332609E+02 -0.15159200067E+03  0.26139913764E+03  0.00000000000E+00 0.  1.
         -1    1    6    6    0  502  0.24930489840E+03  0.16320042413E+03 -0.12514349436E+04  0.12864201214E+04  0.00000000000E+00 0.  1.
<mgrwt>
<rscale>  0 0.23692301E+04</rscale>
<asrwt>0</asrwt>
<pdfrwt beam="1">  1        2 0.40545651E+00 0.23692301E+04</pdfrwt>
<pdfrwt beam="2">  1       -2 0.81918785E-01 0.23692301E+04</pdfrwt>
<totfact> 0.34259332E+00</totfact>
</mgrwt>
</event>
<event>
12    1  0.1489025E-007  0.2499134E+04  0.7818608E-02  0.8403294E-01
          1   -1    0    0  501    0  0.00000000000E+00  0.00000000000E+00  0.83766733956E+03  0.83766733956E+03  0.00000000000E+00 0. -1.
         -1   -1    0    0    0  501 -0.00000000000E+00 -0.00000000000E+00 -0.18640071738E+04  0.18640071738E+04  0.00000000000E+00 0.  1.
         23    2    1    2    0    0  0.55470840836E+03 -0.88258763318E+03 -0.77591199185E+03  0.13024312318E+04  0.87323227151E+02 0.  0.
        254    2    1    2    0    0 -0.55470840836E+03  0.88258763318E+03 -0.25042784236E+03  0.13992432815E+04  0.89916923214E+03 0.  0.
        -24    2    4    4    0    0  0.77315224003E+02  0.70198606646E+03 -0.17479870194E+03  0.73261001109E+03  0.86027674535E+02 0.  0.
         24    2    4    4    0    0 -0.63202363237E+03  0.18060156672E+03 -0.75629140418E+02  0.66663327040E+03  0.81297924673E+02 0.  0.
         13    1    3    3    0    0  0.80589977015E+02 -0.81452923050E+02 -0.98962692696E+02  0.15140322855E+03  0.00000000000E+00 0. -1.
        -13    1    3    3    0    0  0.47411843135E+03 -0.80113471013E+03 -0.67694929915E+03  0.11510280033E+04  0.00000000000E+00 0.  1.
          4    1    6    6  502    0 -0.23891987104E+03  0.32132402866E+02 -0.45679926434E+02  0.24536065652E+03  0.00000000000E+00 0. -1.
          3    1    5    5  503    0  0.38551375952E+02  0.10694626448E+03 -0.45511720229E+02  0.12245419042E+03  0.00000000000E+00 0. -1.
         -4    1    5    5    0  503  0.38763848050E+02  0.59503980197E+03 -0.12928698171E+03  0.61015582066E+03  0.00000000000E+00 0.  1.
         -3    1    6    6    0  502 -0.39310376133E+03  0.14846916386E+03 -0.29949213984E+02  0.42127261388E+03  0.00000000000E+00 0.  1.
<mgrwt>
<rscale>  0 0.24991342E+04</rscale>
<asrwt>0</asrwt>
<pdfrwt beam="1">  1        1 0.12887190E+00 0.24991342E+04</pdfrwt>
<pdfrwt beam="2">  1       -1 0.28677033E+00 0.24991342E+04</pdfrwt>
<totfact> 0.73339759E-01</totfact>
</mgrwt>
</event>
<event>
12    1  0.1489025E-007  0.1346541E+04  0.7818608E-02  0.8993450E-01
          2   -1    0    0  501    0  0.00000000000E+00  0.00000000000E+00  0.99237330730E+03  0.99237330730E+03  0.00000000000E+00 0. -1.
         -2   -1    0    0    0  501 -0.00000000000E+00 -0.00000000000E+00 -0.45677708287E+03  0.45677708287E+03  0.00000000000E+00 0.  1.
         23    2    1    2    0    0  0.54223622623E+02 -0.36184589573E+03  0.12244088986E+03  0.39642762454E+03  0.91051834021E+02 0.  0.
        254    2    1    2    0    0 -0.54223622623E+02  0.36184589573E+03  0.41315533457E+03  0.10527227656E+04  0.89646820204E+03 0.  0.
        -24    2    4    4    0    0 -0.42054180127E+03  0.65969718768E+02  0.19115912155E+02  0.43353058704E+03  0.79849492125E+02 0.  0.
         24    2    4    4    0    0  0.36631817865E+03  0.29587617697E+03  0.39403942241E+03  0.61919217858E+03  0.80001046847E+02 0.  0.
         11    1    3    3    0    0  0.44138633675E+02 -0.32258097878E+03  0.75164950423E+02  0.33415038026E+03  0.00000000000E+00 0.  1.
        -11    1    3    3    0    0  0.10084988949E+02 -0.39264916949E+02  0.47275939441E+02  0.62277244280E+02  0.00000000000E+00 0. -1.
          2    1    6    6  502    0  0.74727315211E+01  0.22708449594E+02  0.70433695819E+01  0.24922368555E+02  0.00000000000E+00 0. -1.
          3    1    5    5  503    0 -0.24626585009E+03  0.46394536773E+02 -0.27408663696E+02  0.25209235770E+03  0.00000000000E+00 0. -1.
         -4    1    5    5    0  503 -0.17427595118E+03  0.19575181994E+02  0.46524575850E+02  0.18143822935E+03  0.00000000000E+00 0.  1.
         -1    1    6    6    0  502  0.35884544713E+03  0.27316772737E+03  0.38699605283E+03  0.59426981002E+03  0.00000000000E+00 0.  1.
<mgrwt>
<rscale>  0 0.13465413E+04</rscale>
<asrwt>0</asrwt>
<pdfrwt beam="1">  1        2 0.15267282E+00 0.13465413E+04</pdfrwt>
<pdfrwt beam="2">  1       -2 0.70273397E-01 0.13465413E+04</pdfrwt>
<totfact> 0.45886342E+01</totfact>
</mgrwt>
</event>
<event>
12    1  0.1489025E-007  0.1355220E+04  0.7818608E-02  0.8986886E-01
         -1   -1    0    0    0  501 -0.00000000000E+00  0.00000000000E+00  0.21168691352E+04  0.21168691352E+04  0.00000000000E+00 0.  1.
          1   -1    0    0  501    0  0.00000000000E+00 -0.00000000000E+00 -0.21690316666E+03  0.21690316666E+03  0.00000000000E+00 0. -1.
         23    2    1    2    0    0  0.21808819039E+03  0.27159504696E+03  0.33056349365E+03  0.48924985669E+03  0.93631568508E+02 0.  0.
        254    2    1    2    0    0 -0.21808819039E+03 -0.27159504696E+03  0.15694024749E+04  0.18445224452E+04  0.90438520235E+03 0.  0.
        -24    2    4    4    0    0 -0.43627301259E+03 -0.17047186937E+03  0.32770698086E+03  0.57720221151E+03  0.79848155270E+02 0.  0.
         24    2    4    4    0    0  0.21818482221E+03 -0.10112317759E+03  0.12416954941E+04  0.12673202337E+04  0.80388811736E+02 0.  0.
         11    1    3    3    0    0  0.45154038705E+02  0.66526132261E+02  0.13555279130E+03  0.15760448189E+03  0.00000000000E+00 0.  1.
        -11    1    3    3    0    0  0.17293415168E+03  0.20506891470E+03  0.19501070236E+03  0.33164537480E+03  0.00000000000E+00 0. -1.
          2    1    6    6  502    0  0.18039854808E+03 -0.10836275293E+03  0.11229193672E+04  0.11424683924E+04  0.00000000000E+00 0. -1.
          3    1    5    5  503    0 -0.43791011777E+03 -0.16330464948E+03  0.31926062549E+03  0.56600444060E+03  0.00000000000E+00 0. -1.
         -4    1    5    5    0  503  0.16371051785E+01 -0.71672198858E+01  0.84463553686E+01  0.11197770906E+02  0.00000000000E+00 0.  1.
         -1    1    6    6    0  502  0.37786274127E+02  0.72395753413E+01  0.11877612685E+03  0.12485184129E+03  0.00000000000E+00 0.  1.
<mgrwt>
<rscale>  0 0.13552205E+04</rscale>
<asrwt>0</asrwt>
<pdfrwt beam="1">  1        1 0.33369719E-01 0.13552205E+04</pdfrwt>
<pdfrwt beam="2">  1       -1 0.32567216E+00 0.13552205E+04</pdfrwt>
<totfact> 0.29595299E+00</totfact>
</mgrwt>
</event>
<event>
12    1  0.1489025E-007  0.2324541E+04  0.7818608E-02  0.8468307E-01
          2   -1    0    0  501    0  0.00000000000E+00  0.00000000000E+00  0.18436722129E+04  0.18436722129E+04  0.00000000000E+00 0. -1.
         -2   -1    0    0    0  501 -0.00000000000E+00 -0.00000000000E+00 -0.73270790502E+03  0.73270790502E+03  0.00000000000E+00 0.  1.
         23    2    1    2    0    0  0.13400048670E+03  0.86410069528E+03  0.44732124862E+02  0.88005357408E+03  0.88697171594E+02 0.  0.
        254    2    1    2    0    0 -0.13400048670E+03 -0.86410069528E+03  0.10662321830E+04  0.16963265438E+04  0.98795067346E+03 0.  0.
        -24    2    4    4    0    0 -0.26857968866E+03  0.10990945177E+03  0.10569438327E+03  0.31946282909E+03  0.81670433845E+02 0.  0.
         24    2    4    4    0    0  0.13457920196E+03 -0.97401014705E+03  0.96053779975E+03  0.13768637147E+04  0.79457511129E+02 0.  0.
         11    1    3    3    0    0  0.82731798752E+01  0.12616960908E+03  0.35892801966E+02  0.13143633057E+03  0.00000000000E+00 0.  1.
        -11    1    3    3    0    0  0.12572730683E+03  0.73793108620E+03  0.88393228960E+01  0.74861724351E+03  0.00000000000E+00 0. -1.
          4    1    6    6  502    0  0.57139044546E+02 -0.22002693810E+03  0.19369726020E+03  0.29865590989E+03  0.00000000000E+00 0. -1.
          3    1    5    5  503    0 -0.25741210063E+03  0.90497357089E+02  0.11381236655E+03  0.29564170201E+03  0.00000000000E+00 0. -1.
         -4    1    5    5    0  503 -0.11167588031E+02  0.19412094683E+02 -0.81179832831E+01  0.23821127073E+02  0.00000000000E+00 0.  1.
         -3    1    6    6    0  502  0.77440157411E+02 -0.75398320895E+03  0.76684053955E+03  0.10782078049E+04  0.00000000000E+00 0.  1.
<mgrwt>
<rscale>  0 0.23245414E+04</rscale>
<asrwt>0</asrwt>
<pdfrwt beam="1">  1        2 0.28364188E+00 0.23245414E+04</pdfrwt>
<pdfrwt beam="2">  1       -2 0.11272429E+00 0.23245414E+04</pdfrwt>
<totfact> 0.45713213E+00</totfact>
</mgrwt>
</event>
<event>
12    1  0.1489025E-007  0.1674427E+04  0.7818608E-02  0.8776085E-01
         -2   -1    0    0    0  501 -0.00000000000E+00  0.00000000000E+00  0.44396207428E+03  0.44396207428E+03  0.00000000000E+00 0.  1.
          2   -1    0    0  501    0  0.00000000000E+00 -0.00000000000E+00 -0.15787986748E+04  0.15787986748E+04  0.00000000000E+00 0. -1.
         23    2    1    2    0    0  0.52935515400E+03  0.16773506044E+03 -0.64357661325E+03  0.85481663822E+03  0.90380851319E+02 0.  0.
        254    2    1    2    0    0 -0.52935515400E+03 -0.16773506044E+03 -0.49125998722E+03  0.11679441108E+04  0.90244398240E+03 0.  0.
        -24    2    4    4    0    0 -0.53370665416E+03  0.24997230372E+03 -0.12790465220E+03  0.60872917256E+03  0.82841174201E+02 0.  0.
         24    2    4    4    0    0  0.43515001585E+01 -0.41770736416E+03 -0.36335533502E+03  0.55921493825E+03  0.78713849213E+02 0.  0.
         13    1    3    3    0    0  0.58542279259E+01  0.89672242142E+01 -0.34566815772E+02  0.36187675351E+02  0.00000000000E+00 0. -1.
        -13    1    3    3    0    0  0.52350092608E+03  0.15876783622E+03 -0.60900979748E+03  0.81862896287E+03  0.00000000000E+00 0.  1.
          4    1    6    6  502    0 -0.27980555912E+02 -0.65026064118E+02 -0.55436181637E+02  0.89913685044E+02  0.00000000000E+00 0. -1.
          3    1    5    5  503    0 -0.41558963299E+02  0.31045847530E+02 -0.33829879298E+02  0.61931032712E+02  0.00000000000E+00 0. -1.
         -4    1    5    5    0  503 -0.49214769086E+03  0.21892645619E+03 -0.94074772903E+02  0.54679813985E+03  0.00000000000E+00 0.  1.
         -3    1    6    6    0  502  0.32332056070E+02 -0.35268130004E+03 -0.30791915338E+03  0.46930125321E+03  0.00000000000E+00 0.  1.
<mgrwt>
<rscale>  0 0.16744273E+04</rscale>
<asrwt>0</asrwt>
<pdfrwt beam="1">  1        2 0.24289211E+00 0.16744273E+04</pdfrwt>
<pdfrwt beam="2">  1       -2 0.68301857E-01 0.16744273E+04</pdfrwt>
<totfact> 0.21429322E+01</totfact>
</mgrwt>
</event>
<event>
12    1  0.1489025E-007  0.3800232E+04  0.7818608E-02  0.8046105E-01
         -2   -1    0    0    0  501 -0.00000000000E+00  0.00000000000E+00  0.17407656752E+04  0.17407656752E+04  0.00000000000E+00 0.  1.
          2   -1    0    0  501    0  0.00000000000E+00 -0.00000000000E+00 -0.20740534277E+04  0.20740534277E+04  0.00000000000E+00 0. -1.
         23    2    1    2    0    0  0.52674008571E+03 -0.16116784622E+04  0.42323633045E+03  0.17498978496E+04  0.89726859095E+02 0.  0.
        254    2    1    2    0    0 -0.52674008571E+03  0.16116784622E+04 -0.75652408297E+03  0.20649212533E+04  0.90366393693E+03 0.  0.
        -24    2    4    4    0    0  0.59748441204E+02  0.54281194221E+03  0.11474102524E+03  0.56432771211E+03  0.84175904813E+02 0.  0.
         24    2    4    4    0    0 -0.58648852691E+03  0.10688665200E+04 -0.87126510821E+03  0.15005935412E+04  0.78953514193E+02 0.  0.
         13    1    3    3    0    0  0.51784755705E+03 -0.15713627591E+04  0.39863614931E+03  0.17018395320E+04  0.00000000000E+00 0. -1.
        -13    1    3    3    0    0  0.88925286580E+01 -0.40315703071E+02  0.24600181135E+02  0.48058317614E+02  0.00000000000E+00 0.  1.
          4    1    6    6  502    0 -0.18060719989E+03  0.30902962986E+03 -0.21390075509E+03  0.41697938295E+03  0.00000000000E+00 0. -1.
          1    1    5    5  503    0  0.21803290212E+02  0.24345765019E+02  0.62123850906E+01  0.33267002674E+02  0.00000000000E+00 0. -1.
         -2    1    5    5    0  503  0.37945150993E+02  0.51846617719E+03  0.10852864015E+03  0.53106070944E+03  0.00000000000E+00 0.  1.
         -3    1    6    6    0  502 -0.40588132702E+03  0.75983689015E+03 -0.65736435312E+03  0.10836141583E+04  0.00000000000E+00 0.  1.
<mgrwt>
<rscale>  0 0.38002321E+04</rscale>
<asrwt>0</asrwt>
<pdfrwt beam="1">  1        2 0.31908514E+00 0.38002321E+04</pdfrwt>
<pdfrwt beam="2">  1       -2 0.26781010E+00 0.38002321E+04</pdfrwt>
<totfact> 0.24349668E-01</totfact>
</mgrwt>
</event>
<event>
12    1  0.1489025E-007  0.2713777E+04  0.7818608E-02  0.8330549E-01
         -2   -1    0    0    0  501 -0.00000000000E+00  0.00000000000E+00  0.15041538752E+04  0.15041538752E+04  0.00000000000E+00 0.  1.
          2   -1    0    0  501    0  0.00000000000E+00 -0.00000000000E+00 -0.12240413472E+04  0.12240413472E+04  0.00000000000E+00 0. -1.
         23    2    1    2    0    0  0.74862624044E+03 -0.94417773647E+03  0.16570107586E+03  0.12197530831E+04  0.91803547510E+02 0.  0.
        254    2    1    2    0    0 -0.74862624044E+03  0.94417773647E+03  0.11441145217E+03  0.15084421393E+04  0.90021934070E+03 0.  0.
        -24    2    4    4    0    0 -0.16764203365E+03 -0.11891856314E+03 -0.14815710650E+03  0.26629784249E+03  0.81966679821E+02 0.  0.
         24    2    4    4    0    0 -0.58098420678E+03  0.10630962996E+04  0.26256855867E+03  0.12421442968E+04  0.79144269256E+02 0.  0.
         11    1    3    3    0    0  0.49202191586E+03 -0.68724814631E+03  0.12319977254E+03  0.85415090250E+03  0.00000000000E+00 0. -1.
        -11    1    3    3    0    0  0.25660432458E+03 -0.25692959016E+03  0.42501303319E+02  0.36560218063E+03  0.00000000000E+00 0.  1.
          2    1    6    6  502    0 -0.26956403378E+03  0.44751088493E+03  0.79973300049E+02  0.52851347112E+03  0.00000000000E+00 0. -1.
          1    1    5    5  503    0 -0.95160876892E+02 -0.10983730708E+03 -0.77638032134E+02  0.16476495547E+03  0.00000000000E+00 0. -1.
         -2    1    5    5    0  503 -0.72481156760E+02 -0.90812560629E+01 -0.70519074365E+02  0.10153288702E+03  0.00000000000E+00 0.  1.
         -1    1    6    6    0  502 -0.31142017301E+03  0.61558541468E+03  0.18259525862E+03  0.71363082571E+03  0.00000000000E+00 0.  1.
<mgrwt>
<rscale>  0 0.27137771E+04</rscale>
<asrwt>0</asrwt>
<pdfrwt beam="1">  1        2 0.18831405E+00 0.27137771E+04</pdfrwt>
<pdfrwt beam="2">  1       -2 0.23140829E+00 0.27137771E+04</pdfrwt>
<totfact> 0.13454102E+00</totfact>
</mgrwt>
</event>
<event>
12    1  0.1489025E-007  0.2257487E+04  0.7818608E-02  0.8494875E-01
          1   -1    0    0  501    0  0.00000000000E+00  0.00000000000E+00  0.20457058595E+04  0.20457058595E+04  0.00000000000E+00 0. -1.
         -1   -1    0    0    0  501 -0.00000000000E+00 -0.00000000000E+00 -0.62279794791E+03  0.62279794791E+03  0.00000000000E+00 0.  1.
         23    2    1    2    0    0 -0.69737237676E+03  0.30514657854E+03  0.12475523099E+04  0.14647241991E+04  0.97916022140E+02 0.  0.
        254    2    1    2    0    0  0.69737237676E+03 -0.30514657854E+03  0.17535560175E+03  0.12037796083E+04  0.91591107213E+03 0.  0.
        -24    2    4    4    0    0  0.27179267862E+03  0.17327669338E+03 -0.26324677020E+03  0.42379338105E+03  0.80036836370E+02 0.  0.
         24    2    4    4    0    0  0.42557969814E+03 -0.47842327192E+03  0.43860237194E+03  0.77998622726E+03  0.77456874893E+02 0.  0.
         11    1    3    3    0    0 -0.15165256947E+03  0.42691932988E+02  0.32520853234E+03  0.36136088952E+03  0.00000000000E+00 0.  1.
        -11    1    3    3    0    0 -0.54571980729E+03  0.26245464555E+03  0.92234377752E+03  0.11033633096E+04  0.00000000000E+00 0. -1.
          2    1    6    6  502    0  0.40739071812E+03 -0.45326276451E+03  0.43494153016E+03  0.74872455921E+03  0.00000000000E+00 0. -1.
          3    1    5    5  503    0  0.12224600231E+03  0.70667975443E+02 -0.16624729930E+03  0.21811972024E+03  0.00000000000E+00 0. -1.
         -4    1    5    5    0  503  0.14954667632E+03  0.10260871794E+03 -0.96999470894E+02  0.20567366080E+03  0.00000000000E+00 0.  1.
         -1    1    6    6    0  502  0.18188980020E+02 -0.25160507403E+02  0.36608417793E+01  0.31261668054E+02  0.00000000000E+00 0.  1.
<mgrwt>
<rscale>  0 0.22574866E+04</rscale>
<asrwt>0</asrwt>
<pdfrwt beam="1">  1        1 0.31472397E+00 0.22574866E+04</pdfrwt>
<pdfrwt beam="2">  1       -1 0.95815070E-01 0.22574866E+04</pdfrwt>
<totfact> 0.26432258E+00</totfact>
</mgrwt>
</event>
<event>
12    1  0.1517372E-007  0.2266514E+04  0.7818608E-02  0.8491242E-01
         -2   -1    0    0    0  501 -0.00000000000E+00  0.00000000000E+00  0.55725524263E+03  0.55725524263E+03  0.00000000000E+00 0.  1.
          2   -1    0    0  501    0  0.00000000000E+00 -0.00000000000E+00 -0.23046372727E+04  0.23046372727E+04  0.00000000000E+00 0. -1.
         23    2    1    2    0    0 -0.26969390559E+03  0.23979963224E+03  0.37274146795E+03  0.52703172907E+03  0.92669170615E+02 0.  0.
        254    2    1    2    0    0  0.26969390559E+03 -0.23979963224E+03 -0.21201234981E+04  0.23348607863E+04  0.90907237229E+03 0.  0.
        -24    2    4    4    0    0  0.30817677052E+03  0.66749881955E+01 -0.20338199841E+04  0.20587049964E+04  0.82613903434E+02 0.  0.
         24    2    4    4    0    0 -0.38482864924E+02 -0.24647462043E+03 -0.86303513987E+02  0.27615578995E+03  0.81136023979E+02 0.  0.
         13    1    3    3    0    0 -0.26229539661E+03  0.23351662935E+03  0.37802826477E+03  0.51597893390E+03  0.00000000000E+00 0.  1.
        -13    1    3    3    0    0 -0.73985089877E+01  0.62830028834E+01 -0.52867968185E+01  0.11052795170E+02  0.00000000000E+00 0. -1.
          4    1    6    6  502    0  0.98159917922E+00  0.58713515161E+01  0.13800546130E+01  0.61107165135E+01  0.00000000000E+00 0. -1.
          3    1    5    5  503    0  0.12387283016E+03 -0.37477446270E+02 -0.86047253370E+03  0.87015057219E+03  0.00000000000E+00 0. -1.
         -4    1    5    5    0  503  0.18430394036E+03  0.44152434466E+02 -0.11733474504E+04  0.11885544242E+04  0.00000000000E+00 0.  1.
         -3    1    6    6    0  502 -0.39464464103E+02 -0.25234597195E+03 -0.87683568600E+02  0.27004507344E+03  0.00000000000E+00 0.  1.
<mgrwt>
<rscale>  0 0.22665138E+04</rscale>
<asrwt>0</asrwt>
<pdfrwt beam="1">  1        2 0.35455958E+00 0.22665138E+04</pdfrwt>
<pdfrwt beam="2">  1       -2 0.85731576E-01 0.22665138E+04</pdfrwt>
<totfact> 0.48398269E+00</totfact>
</mgrwt>
</event>
<event>
12    1  0.1489025E-007  0.1383218E+04  0.7818608E-02  0.8966057E-01
         -2   -1    0    0    0  501 -0.00000000000E+00  0.00000000000E+00  0.29163464571E+03  0.29163464571E+03  0.00000000000E+00 0.  1.
          2   -1    0    0  501    0  0.00000000000E+00 -0.00000000000E+00 -0.16401446380E+04  0.16401446380E+04  0.00000000000E+00 0. -1.
         23    2    1    2    0    0 -0.61048504980E+02 -0.27863890356E+03 -0.10879958006E+02  0.29979977905E+03  0.91624098882E+02 0.  0.
        254    2    1    2    0    0  0.61048504980E+02  0.27863890356E+03 -0.13376300343E+04  0.16319795047E+04  0.89035747679E+03 0.  0.
        -24    2    4    4    0    0 -0.23656842612E+03 -0.25575696343E+02 -0.11197171060E+04  0.11476034887E+04  0.81293500463E+02 0.  0.
         24    2    4    4    0    0  0.29761693110E+03  0.30421459991E+03 -0.21791292826E+03  0.48437601599E+03  0.77535282830E+02 0.  0.
         13    1    3    3    0    0 -0.29504021635E+02 -0.51673602419E+02  0.30628876941E+02  0.66923662350E+02  0.00000000000E+00 0. -1.
        -13    1    3    3    0    0 -0.31544483344E+02 -0.22696530114E+03 -0.41508834947E+02  0.23287611670E+03  0.00000000000E+00 0.  1.
          2    1    6    6  502    0  0.18896514679E+03  0.19997574109E+03 -0.98606479613E+02  0.29226933049E+03  0.00000000000E+00 0. -1.
          3    1    5    5  503    0 -0.10461658287E+03  0.23277215950E+02 -0.58175832881E+03  0.59154814794E+03  0.00000000000E+00 0. -1.
         -4    1    5    5    0  503 -0.13195184326E+03 -0.48852912292E+02 -0.53795877722E+03  0.55605534074E+03  0.00000000000E+00 0.  1.
         -1    1    6    6    0  502  0.10865178431E+03  0.10423885882E+03 -0.11930644865E+03  0.19210668549E+03  0.00000000000E+00 0.  1.
<mgrwt>
<rscale>  0 0.13832180E+04</rscale>
<asrwt>0</asrwt>
<pdfrwt beam="1">  1        2 0.25232994E+00 0.13832180E+04</pdfrwt>
<pdfrwt beam="2">  1       -2 0.44866869E-01 0.13832180E+04</pdfrwt>
<totfact> 0.48607939E+01</totfact>
</mgrwt>
</event>
<event>
12    1  0.1489025E-007  0.1110979E+04  0.7818608E-02  0.9194557E-01
          2   -1    0    0  501    0  0.00000000000E+00  0.00000000000E+00  0.15832372402E+04  0.15832372402E+04  0.00000000000E+00 0. -1.
         -2   -1    0    0    0  501 -0.00000000000E+00 -0.00000000000E+00 -0.19489710622E+03  0.19489710622E+03  0.00000000000E+00 0.  1.
         23    2    1    2    0    0  0.24293769966E+02  0.38774456896E+02  0.50838459301E+03  0.51627218440E+03  0.77384935286E+02 0.  0.
        254    2    1    2    0    0 -0.24293769966E+02 -0.38774456896E+02  0.87995554099E+03  0.12618621620E+04  0.90326115608E+03 0.  0.
        -24    2    4    4    0    0  0.32311551043E+03 -0.28613333023E+03  0.27678927040E+03  0.51881159525E+03  0.79229132349E+02 0.  0.
         24    2    4    4    0    0 -0.34740928039E+03  0.24735887333E+03  0.60316627059E+03  0.74305056678E+03  0.80218292750E+02 0.  0.
         11    1    3    3    0    0  0.34152595492E+01  0.41688441583E-01  0.38935409620E+03  0.38936907680E+03  0.00000000000E+00 0. -1.
        -11    1    3    3    0    0  0.20878510417E+02  0.38732768454E+02  0.11903049681E+03  0.12690310760E+03  0.00000000000E+00 0.  1.
          4    1    6    6  502    0 -0.20723956345E+03  0.19055752475E+03  0.36578310188E+03  0.46158172030E+03  0.00000000000E+00 0. -1.
          1    1    5    5  503    0  0.11563693900E+03 -0.11782127510E+03  0.15013745629E+03  0.22314795609E+03  0.00000000000E+00 0. -1.
         -2    1    5    5    0  503  0.20747857143E+03 -0.16831205512E+03  0.12665181411E+03  0.29566363916E+03  0.00000000000E+00 0.  1.
         -3    1    6    6    0  502 -0.14016971695E+03  0.56801348584E+02  0.23738316871E+03  0.28146884648E+03  0.00000000000E+00 0.  1.
<mgrwt>
<rscale>  0 0.11109786E+04</rscale>
<asrwt>0</asrwt>
<pdfrwt beam="1">  1        2 0.24357495E+00 0.11109786E+04</pdfrwt>
<pdfrwt beam="2">  1       -2 0.29984171E-01 0.11109786E+04</pdfrwt>
<totfact> 0.11600137E+02</totfact>
</mgrwt>
</event>
<event>
12    1  0.1489025E-007  0.1164118E+04  0.7818608E-02  0.9144857E-01
         -1   -1    0    0    0  501 -0.00000000000E+00  0.00000000000E+00  0.35111696858E+03  0.35111696858E+03  0.00000000000E+00 0.  1.
          1   -1    0    0  501    0  0.00000000000E+00 -0.00000000000E+00 -0.96489999268E+03  0.96489999268E+03  0.00000000000E+00 0. -1.
         23    2    1    2    0    0  0.12293088766E+03  0.15936955567E+03 -0.28215117904E+02  0.22143496966E+03  0.87901618286E+02 0.  0.
        254    2    1    2    0    0 -0.12293088766E+03 -0.15936955567E+03 -0.58556790620E+03  0.10945819916E+04  0.90261248891E+03 0.  0.
        -24    2    4    4    0    0 -0.24327095084E+03 -0.31981766439E+03  0.59829778841E+02  0.41413666831E+03  0.80408231037E+02 0.  0.
         24    2    4    4    0    0  0.12034006318E+03  0.16044810873E+03 -0.64539768504E+03  0.68044532329E+03  0.79008478832E+02 0.  0.
         11    1    3    3    0    0  0.12086993614E+03  0.94727488907E+02 -0.31145972622E+02  0.15669368279E+03  0.00000000000E+00 0.  1.
        -11    1    3    3    0    0  0.20609515192E+01  0.64642066758E+02  0.29308547178E+01  0.64741286868E+02  0.00000000000E+00 0. -1.
          4    1    6    6  502    0  0.11673210413E+03  0.14252569065E+03 -0.63049426281E+03  0.65685841097E+03  0.00000000000E+00 0. -1.
          1    1    5    5  503    0 -0.11149557540E+03 -0.20551380513E+03  0.51976118533E+02  0.23951764930E+03  0.00000000000E+00 0. -1.
         -2    1    5    5    0  503 -0.13177537545E+03 -0.11430385927E+03  0.78536603077E+01  0.17461901900E+03  0.00000000000E+00 0.  1.
         -3    1    6    6    0  502  0.36079590550E+01  0.17922418082E+02 -0.14903422233E+02  0.23586912318E+02  0.00000000000E+00 0.  1.
<mgrwt>
<rscale>  0 0.11641181E+04</rscale>
<asrwt>0</asrwt>
<pdfrwt beam="1">  1        1 0.14844615E+00 0.11641181E+04</pdfrwt>
<pdfrwt beam="2">  1       -1 0.54017995E-01 0.11641181E+04</pdfrwt>
<totfact> 0.55354619E+01</totfact>
</mgrwt>
</event>
<event>
12    1  0.1489025E-007  0.1635015E+04  0.7818608E-02  0.8799321E-01
          2   -1    0    0  501    0  0.00000000000E+00  0.00000000000E+00  0.10225793594E+04  0.10225793594E+04  0.00000000000E+00 0. -1.
         -2   -1    0    0    0  501 -0.00000000000E+00 -0.00000000000E+00 -0.65356189788E+03  0.65356189788E+03  0.00000000000E+00 0.  1.
         23    2    1    2    0    0 -0.32201252689E+03 -0.51190701908E+03  0.55482247548E-01  0.61326030982E+03  0.10172187997E+03 0.  0.
        254    2    1    2    0    0  0.32201252689E+03  0.51190701908E+03  0.36896197922E+03  0.10628809474E+04  0.79236487971E+03 0.  0.
        -24    2    4    4    0    0 -0.10352962421E+03  0.62510339144E+02  0.41267830283E+03  0.43736708875E+03  0.79753765479E+02 0.  0.
         24    2    4    4    0    0  0.42554215110E+03  0.44939667994E+03 -0.43716323608E+02  0.62551385866E+03  0.79454213985E+02 0.  0.
         13    1    3    3    0    0 -0.26325533552E+03 -0.45127600026E+03 -0.30829088124E+02  0.52335822604E+03  0.00000000000E+00 0. -1.
        -13    1    3    3    0    0 -0.58757191370E+02 -0.60631018827E+02  0.30884570372E+02  0.89902083784E+02  0.00000000000E+00 0.  1.
          4    1    6    6  502    0  0.40686699556E+03  0.42100305609E+03 -0.58619376363E+02  0.58840509566E+03  0.00000000000E+00 0. -1.
          3    1    5    5  503    0 -0.66288305780E+02  0.48081642466E+02  0.36984570338E+03  0.37880315222E+03  0.00000000000E+00 0. -1.
         -4    1    5    5    0  503 -0.37241318430E+02  0.14428696678E+02  0.42832599452E+02  0.58563936531E+02  0.00000000000E+00 0.  1.
         -3    1    6    6    0  502  0.18675155534E+02  0.28393623854E+02  0.14903052755E+02  0.37108762998E+02  0.00000000000E+00 0.  1.
<mgrwt>
<rscale>  0 0.16350155E+04</rscale>
<asrwt>0</asrwt>
<pdfrwt beam="1">  1        2 0.15731990E+00 0.16350155E+04</pdfrwt>
<pdfrwt beam="2">  1       -2 0.10054798E+00 0.16350155E+04</pdfrwt>
<totfact> 0.19001489E+01</totfact>
</mgrwt>
</event>
<event>
12    1  0.1489025E-007  0.2232373E+04  0.7818608E-02  0.8505073E-01
          2   -1    0    0  501    0  0.00000000000E+00  0.00000000000E+00  0.48525439215E+03  0.48525439215E+03  0.00000000000E+00 0.  1.
         -2   -1    0    0    0  501 -0.00000000000E+00 -0.00000000000E+00 -0.25674613138E+04  0.25674613138E+04  0.00000000000E+00 0. -1.
         23    2    1    2    0    0  0.17211271857E+03  0.55670655906E+03  0.12223275623E+03  0.60227634844E+03  0.90834863362E+02 0.  0.
        254    2    1    2    0    0 -0.17211271857E+03 -0.55670655906E+03 -0.22044396779E+04  0.24504393575E+04  0.89752647352E+03 0.  0.
        -24    2    4    4    0    0 -0.37672637222E+03  0.49266199008E+02 -0.53524414530E+03  0.66111916991E+03  0.79008504925E+02 0.  0.
         24    2    4    4    0    0  0.20461365365E+03 -0.60597275807E+03 -0.16691955326E+04  0.17893201876E+04  0.79895413101E+02 0.  0.
         11    1    3    3    0    0  0.16342448128E+03  0.41688149825E+03  0.72414748462E+02  0.45358752238E+03  0.00000000000E+00 0.  1.
        -11    1    3    3    0    0  0.86882372946E+01  0.13982506081E+03  0.49818007766E+02  0.14868882606E+03  0.00000000000E+00 0. -1.
          2    1    6    6  502    0  0.17366412138E+03 -0.39974813347E+03 -0.11486732195E+04  0.12285796525E+04  0.00000000000E+00 0. -1.
          1    1    5    5  503    0 -0.37522474352E+03  0.49318954516E+02 -0.50617867508E+03  0.63201488790E+03  0.00000000000E+00 0. -1.
         -2    1    5    5    0  503 -0.15016287005E+01 -0.52755507985E-01 -0.29065470225E+02  0.29104282010E+02  0.00000000000E+00 0.  1.
         -1    1    6    6    0  502  0.30949532270E+02 -0.20622462459E+03 -0.52052231305E+03  0.56074053511E+03  0.00000000000E+00 0.  1.
<mgrwt>
<rscale>  0 0.22323726E+04</rscale>
<asrwt>0</asrwt>
<pdfrwt beam="1">  1        2 0.74654521E-01 0.22323726E+04</pdfrwt>
<pdfrwt beam="2">  1       -2 0.39499405E+00 0.22323726E+04</pdfrwt>
<totfact> 0.46583547E-01</totfact>
</mgrwt>
</event>
<event>
12    1  0.1489025E-007  0.1481602E+04  0.7818608E-02  0.8896780E-01
         -2   -1    0    0    0  501 -0.00000000000E+00  0.00000000000E+00  0.22326897453E+03  0.22326897453E+03  0.00000000000E+00 0.  1.
          2   -1    0    0  501    0  0.00000000000E+00 -0.00000000000E+00 -0.24579612118E+04  0.24579612118E+04  0.00000000000E+00 0. -1.
         23    2    1    2    0    0 -0.47475477182E+02  0.45981570198E+03 -0.60902727131E+03  0.77005274190E+03  0.91556580217E+02 0.  0.
        254    2    1    2    0    0  0.47475477182E+02 -0.45981570198E+03 -0.16256649660E+04  0.19111774444E+04  0.89226018730E+03 0.  0.
        -24    2    4    4    0    0 -0.39633029968E+02 -0.85416994980E+02 -0.14906750025E+04  0.14959945360E+04  0.83790503687E+02 0.  0.
         24    2    4    4    0    0  0.87108507150E+02 -0.37439870700E+03 -0.13498996349E+03  0.41518290848E+03  0.79951694346E+02 0.  0.
         11    1    3    3    0    0  0.59587133235E+01  0.53570528400E+02 -0.33139900237E+02  0.63273697262E+02  0.00000000000E+00 0. -1.
        -11    1    3    3    0    0 -0.53434190506E+02  0.40624517358E+03 -0.57588737108E+03  0.70677904464E+03  0.00000000000E+00 0.  1.
          4    1    6    6  502    0  0.67453892617E+02 -0.12154092141E+03 -0.48037644218E+02  0.14707086207E+03  0.00000000000E+00 0. -1.
          3    1    5    5  503    0 -0.64194014932E+01 -0.25264530203E+01 -0.77193845855E+01  0.10352805358E+02  0.00000000000E+00 0. -1.
         -4    1    5    5    0  503 -0.33213628475E+02 -0.82890541959E+02 -0.14829556179E+04  0.14856417306E+04  0.00000000000E+00 0.  1.
         -3    1    6    6    0  502  0.19654614533E+02 -0.25285778559E+03 -0.86952319272E+02  0.26811204641E+03  0.00000000000E+00 0.  1.
<mgrwt>
<rscale>  0 0.14816025E+04</rscale>
<asrwt>0</asrwt>
<pdfrwt beam="1">  1        2 0.37814788E+00 0.14816025E+04</pdfrwt>
<pdfrwt beam="2">  1       -2 0.34349073E-01 0.14816025E+04</pdfrwt>
<totfact> 0.28361079E+01</totfact>
</mgrwt>
</event>
<event>
12    1  0.1489025E-007  0.1573636E+04  0.7818608E-02  0.8836910E-01
         -2   -1    0    0    0  501 -0.00000000000E+00  0.00000000000E+00  0.16246194875E+04  0.16246194875E+04  0.00000000000E+00 0.  1.
          2   -1    0    0  501    0  0.00000000000E+00 -0.00000000000E+00 -0.38106314093E+03  0.38106314093E+03  0.00000000000E+00 0. -1.
         23    2    1    2    0    0  0.42017993425E+01  0.35919687139E+03  0.92344284800E+03  0.99540781893E+03  0.95131408741E+02 0.  0.
        254    2    1    2    0    0 -0.42017993425E+01 -0.35919687139E+03  0.32011349852E+03  0.10102748094E+04  0.88833692433E+03 0.  0.
        -24    2    4    4    0    0  0.25821596849E+03 -0.54931081811E+03  0.13013942100E+03  0.62647785771E+03  0.84382320640E+02 0.  0.
         24    2    4    4    0    0 -0.26241776783E+03  0.19011394672E+03  0.18997407753E+03  0.38379695173E+03  0.78762633382E+02 0.  0.
         13    1    3    3    0    0  0.29147320371E+02  0.33411249011E+03  0.85344418562E+03  0.91697748080E+03  0.00000000000E+00 0.  1.
        -13    1    3    3    0    0 -0.24945521029E+02  0.25084381287E+02  0.69998662386E+02  0.78430338134E+02  0.00000000000E+00 0. -1.
          2    1    6    6  502    0 -0.24171622653E+03  0.14354357018E+03  0.17294562367E+03  0.33006314465E+03  0.00000000000E+00 0. -1.
          1    1    5    5  503    0  0.21082741800E+03 -0.50515208368E+03  0.10732968316E+03  0.55780506336E+03  0.00000000000E+00 0. -1.
         -2    1    5    5    0  503  0.47388550489E+02 -0.44158734427E+02  0.22809737842E+02  0.68672794351E+02  0.00000000000E+00 0.  1.
         -1    1    6    6    0  502 -0.20701541297E+02  0.46570376535E+02  0.17028453856E+02  0.53733807081E+02  0.00000000000E+00 0.  1.
<mgrwt>
<rscale>  0 0.15736361E+04</rscale>
<asrwt>0</asrwt>
<pdfrwt beam="1">  1        2 0.58625099E-01 0.15736361E+04</pdfrwt>
<pdfrwt beam="2">  1       -2 0.24994146E+00 0.15736361E+04</pdfrwt>
<totfact> 0.51922670E+00</totfact>
</mgrwt>
</event>
<event>
12    1  0.1489025E-007  0.1887386E+04  0.7818608E-02  0.8661161E-01
         -1   -1    0    0    0  501 -0.00000000000E+00  0.00000000000E+00  0.75637314374E+03  0.75637314374E+03  0.00000000000E+00 0.  1.
          1   -1    0    0  501    0  0.00000000000E+00 -0.00000000000E+00 -0.11774035028E+04  0.11774035028E+04  0.00000000000E+00 0. -1.
         23    2    1    2    0    0 -0.37654038949E+03 -0.60449667156E+03 -0.27886649772E+03  0.77002712120E+03  0.89310430495E+02 0.  0.
        254    2    1    2    0    0  0.37654038949E+03  0.60449667156E+03 -0.14216386131E+03  0.11637495253E+04  0.90934234660E+03 0.  0.
        -24    2    4    4    0    0  0.36876440258E+03 -0.82577895696E+02  0.14814827178E+03  0.41352236747E+03  0.79035083970E+02 0.  0.
         24    2    4    4    0    0  0.77759869095E+01  0.68707456726E+03 -0.29031213309E+03  0.75022715783E+03  0.80173105087E+02 0.  0.
         11    1    3    3    0    0 -0.65571626417E+02 -0.54599908039E+02 -0.44377012755E+02  0.96177478704E+02  0.00000000000E+00 0. -1.
        -11    1    3    3    0    0 -0.31096876307E+03 -0.54989676352E+03 -0.23448948496E+03  0.67384964250E+03  0.00000000000E+00 0.  1.
          4    1    6    6  502    0  0.23245419857E+02  0.84678228215E+02 -0.53140576613E+02  0.10263855397E+03  0.00000000000E+00 0. -1.
          3    1    5    5  503    0  0.28671530603E+03 -0.74655046437E+02  0.80850236095E+02  0.30710878096E+03  0.00000000000E+00 0. -1.
         -4    1    5    5    0  503  0.82049096552E+02 -0.79228492591E+01  0.67298035689E+02  0.10641358651E+03  0.00000000000E+00 0.  1.
         -1    1    6    6    0  502 -0.15469432947E+02  0.60239633904E+03 -0.23717155648E+03  0.64758860386E+03  0.00000000000E+00 0.  1.
<mgrwt>
<rscale>  0 0.18873859E+04</rscale>
<asrwt>0</asrwt>
<pdfrwt beam="1">  1        1 0.18113900E+00 0.18873859E+04</pdfrwt>
<pdfrwt beam="2">  1       -1 0.11636510E+00 0.18873859E+04</pdfrwt>
<totfact> 0.69382658E+00</totfact>
</mgrwt>
</event>
<event>
12    1  0.1489025E-007  0.1129997E+04  0.7818608E-02  0.9176438E-01
          2   -1    0    0  501    0  0.00000000000E+00  0.00000000000E+00  0.16930295306E+04  0.16930295306E+04  0.00000000000E+00 0. -1.
         -2   -1    0    0    0  501 -0.00000000000E+00 -0.00000000000E+00 -0.18855155892E+03  0.18855155892E+03  0.00000000000E+00 0.  1.
         23    2    1    2    0    0 -0.13917280886E+02  0.36600211836E+02  0.58961629625E+03  0.59745823500E+03  0.88179927138E+02 0.  0.
        254    2    1    2    0    0  0.13917280886E+02 -0.36600211836E+02  0.91486167538E+03  0.12841228545E+04  0.90025904833E+03 0.  0.
        -24    2    4    4    0    0 -0.32328530949E+03  0.16805820797E+03  0.11800838134E+03  0.39129985042E+03  0.80203754700E+02 0.  0.
         24    2    4    4    0    0  0.33720259038E+03 -0.20465841981E+03  0.79685329404E+03  0.89282300406E+03  0.81037575265E+02 0.  0.
         11    1    3    3    0    0  0.28969069404E+02  0.41239154822E+02  0.38940369790E+03  0.39265139095E+03  0.00000000000E+00 0. -1.
        -11    1    3    3    0    0 -0.42886350290E+02 -0.46389429859E+01  0.20021259835E+03  0.20480684406E+03  0.00000000000E+00 0.  1.
          4    1    6    6  502    0  0.18519149706E+03 -0.82585405934E+02  0.33624308011E+03  0.39265207090E+03  0.00000000000E+00 0. -1.
          3    1    5    5  503    0 -0.11199984373E+03  0.19224704831E+02  0.49357485740E+02  0.12389396947E+03  0.00000000000E+00 0. -1.
         -4    1    5    5    0  503 -0.21128546576E+03  0.14883350314E+03  0.68650895599E+02  0.26740588095E+03  0.00000000000E+00 0.  1.
         -3    1    6    6    0  502  0.15201109331E+03 -0.12207301387E+03  0.46061021393E+03  0.50017093316E+03  0.00000000000E+00 0.  1.
<mgrwt>
<rscale>  0 0.11299971E+04</rscale>
<asrwt>0</asrwt>
<pdfrwt beam="1">  1        2 0.26046607E+00 0.11299971E+04</pdfrwt>
<pdfrwt beam="2">  1       -2 0.29007933E-01 0.11299971E+04</pdfrwt>
<totfact> 0.10705315E+02</totfact>
</mgrwt>
</event>
<event>
12    1  0.1489025E-007  0.1363060E+04  0.7818608E-02  0.8981001E-01
         -4   -1    0    0    0  501 -0.00000000000E+00  0.00000000000E+00  0.95527481176E+03  0.95527481176E+03  0.00000000000E+00 0.  1.
          4   -1    0    0  501    0  0.00000000000E+00 -0.00000000000E+00 -0.48622967523E+03  0.48622967523E+03  0.00000000000E+00 0. -1.
         23    2    1    2    0    0  0.13387501854E+03  0.16662612382E+03  0.45528496965E+03  0.51181333430E+03  0.94771830456E+02 0.  0.
        254    2    1    2    0    0 -0.13387501854E+03 -0.16662612382E+03  0.13760166883E+02  0.92969115269E+03  0.90468199466E+03 0.  0.
        -24    2    4    4    0    0  0.19609912727E+03  0.28534546407E+03 -0.57514282750E+02  0.35985182040E+03  0.79426307655E+02 0.  0.
         24    2    4    4    0    0 -0.32997414581E+03 -0.45197158789E+03  0.71274449632E+02  0.56983933228E+03  0.80470890903E+02 0.  0.
         11    1    3    3    0    0  0.39500469501E+02 -0.27127312203E+01  0.88315162657E+02  0.96784368349E+02  0.00000000000E+00 0. -1.
        -11    1    3    3    0    0  0.94374549040E+02  0.16933885504E+03  0.36696980699E+03  0.41502896595E+03  0.00000000000E+00 0.  1.
          2    1    6    6  502    0 -0.71966607143E+02 -0.15660639553E+03  0.36013982540E+02  0.17607317401E+03  0.00000000000E+00 0. -1.
          1    1    5    5  503    0 -0.44474651371E+01 -0.19094170501E+01 -0.15027830094E+01  0.50679558394E+01  0.00000000000E+00 0. -1.
         -2    1    5    5    0  503  0.20054659241E+03  0.28725488112E+03 -0.56011499740E+02  0.35478386456E+03  0.00000000000E+00 0.  1.
         -1    1    6    6    0  502 -0.25800753867E+03 -0.29536519235E+03  0.35260467092E+02  0.39376615828E+03  0.00000000000E+00 0.  1.
<mgrwt>
<rscale>  0 0.13630597E+04</rscale>
<asrwt>0</asrwt>
<pdfrwt beam="1">  1        4 0.74804566E-01 0.13630597E+04</pdfrwt>
<pdfrwt beam="2">  1       -4 0.14696536E+00 0.13630597E+04</pdfrwt>
<totfact> 0.98999210E-01</totfact>
</mgrwt>
</event>
<event>
12    1  0.1970201E-007  0.1652236E+04  0.7818608E-02  0.8789085E-01
          1   -1    0    0  501    0  0.00000000000E+00  0.00000000000E+00  0.15066824989E+04  0.15066824989E+04  0.00000000000E+00 0. -1.
         -1   -1    0    0    0  501 -0.00000000000E+00 -0.00000000000E+00 -0.45296270505E+03  0.45296270505E+03  0.00000000000E+00 0.  1.
         23    2    1    2    0    0 -0.29268255161E+03  0.90042108729E+02  0.95916603223E+03  0.10108725400E+04  0.89961977897E+02 0.  0.
        254    2    1    2    0    0  0.29268255161E+03 -0.90042108729E+02  0.94553761622E+02  0.94877266391E+03  0.89300531722E+03 0.  0.
        -24    2    4    4    0    0  0.23503359583E+03  0.35350380609E+03 -0.11710897858E+03  0.44759410496E+03  0.80126386661E+02 0.  0.
         24    2    4    4    0    0  0.57648955782E+02 -0.44354591482E+03  0.21166274020E+03  0.50117855895E+03  0.79513845999E+02 0.  0.
         13    1    3    3    0    0 -0.77150947286E+02  0.15902337673E+02  0.14056524575E+03  0.16113268236E+03  0.00000000000E+00 0.  1.
        -13    1    3    3    0    0 -0.21553160432E+03  0.74139771057E+02  0.81860078648E+03  0.84973985769E+03  0.00000000000E+00 0. -1.
          2    1    6    6  502    0  0.31310484443E+02 -0.39965663323E+03  0.17109534435E+03  0.43586624987E+03  0.00000000000E+00 0. -1.
          1    1    5    5  503    0  0.19292727347E+03  0.30889556907E+03 -0.12649856521E+03  0.38553766669E+03  0.00000000000E+00 0. -1.
         -2    1    5    5    0  503  0.42106322356E+02  0.44608237027E+02  0.93895866347E+01  0.62056438265E+02  0.00000000000E+00 0.  1.
         -1    1    6    6    0  502  0.26338471340E+02 -0.43889281594E+02  0.40567395846E+02  0.65312309077E+02  0.00000000000E+00 0.  1.
<mgrwt>
<rscale>  0 0.16522360E+04</rscale>
<asrwt>0</asrwt>
<pdfrwt beam="1">  1        1 0.23179731E+00 0.16522360E+04</pdfrwt>
<pdfrwt beam="2">  1       -1 0.69686571E-01 0.16522360E+04</pdfrwt>
<totfact> 0.12875919E+01</totfact>
</mgrwt>
</event>
<event>
12    1  0.1489025E-007  0.1335573E+04  0.7818608E-02  0.9001821E-01
          2   -1    0    0  501    0  0.00000000000E+00  0.00000000000E+00  0.98728284890E+03  0.98728284890E+03  0.00000000000E+00 0. -1.
         -2   -1    0    0    0  501 -0.00000000000E+00 -0.00000000000E+00 -0.45168319767E+03  0.45168319767E+03  0.00000000000E+00 0.  1.
         23    2    1    2    0    0  0.30653132392E+03  0.91344698562E+02 -0.20817117125E+02  0.33723305944E+03  0.10482116919E+03 0.  0.
        254    2    1    2    0    0 -0.30653132392E+03 -0.91344698562E+02  0.55641676836E+03  0.11017329871E+04  0.89549463893E+03 0.  0.
        -24    2    4    4    0    0  0.23988737476E+03 -0.12089533132E+03  0.46281800691E+03  0.54102334695E+03  0.79649988790E+02 0.  0.
         24    2    4    4    0    0 -0.54641869869E+03  0.29550632760E+02  0.93598761442E+02  0.56070964019E+03  0.78663449526E+02 0.  0.
         11    1    3    3    0    0  0.16101083166E+03  0.40496263021E+02  0.41225690965E+02  0.17106721728E+03  0.00000000000E+00 0. -1.
        -11    1    3    3    0    0  0.14552049226E+03  0.50848435542E+02 -0.62042808090E+02  0.16616584216E+03  0.00000000000E+00 0.  1.
          4    1    6    6  502    0 -0.24162071342E+03 -0.24475752451E+02  0.30108404321E+02  0.24471646374E+03  0.00000000000E+00 0. -1.
          1    1    5    5  503    0  0.35523005375E+02 -0.24022889617E+02  0.14319063549E+03  0.14947421593E+03  0.00000000000E+00 0. -1.
         -2    1    5    5    0  503  0.20436436939E+03 -0.96872441705E+02  0.31962737143E+03  0.39154913102E+03  0.00000000000E+00 0.  1.
         -3    1    6    6    0  502 -0.30479798526E+03  0.54026385211E+02  0.63490357121E+02  0.31599317646E+03  0.00000000000E+00 0.  1.
<mgrwt>
<rscale>  0 0.13355734E+04</rscale>
<asrwt>0</asrwt>
<pdfrwt beam="1">  1        2 0.15188967E+00 0.13355734E+04</pdfrwt>
<pdfrwt beam="2">  1       -2 0.69489723E-01 0.13355734E+04</pdfrwt>
<totfact> 0.47419250E+01</totfact>
</mgrwt>
</event>
<event>
12    1  0.1489025E-007  0.1992931E+04  0.7818608E-02  0.8609933E-01
          2   -1    0    0  501    0  0.00000000000E+00  0.00000000000E+00  0.30211261353E+04  0.30211261353E+04  0.00000000000E+00 0. -1.
         -2   -1    0    0    0  501 -0.00000000000E+00 -0.00000000000E+00 -0.32866673261E+03  0.32866673261E+03  0.00000000000E+00 0.  1.
         23    2    1    2    0    0 -0.58901204473E+03  0.13048978124E+02  0.17658243711E+03  0.62174025623E+03  0.90962214460E+02 0.  0.
        254    2    1    2    0    0  0.58901204473E+03 -0.13048978124E+02  0.25158769656E+04  0.27280526117E+04  0.87494495909E+03 0.  0.
        -24    2    4    4    0    0  0.36910964546E+03 -0.90820779093E+02  0.24388474822E+04  0.24695939178E+04  0.80166909131E+02 0.  0.
         24    2    4    4    0    0  0.21990239927E+03  0.77771800969E+02  0.77029483369E+02  0.25845869382E+03  0.80385551394E+02 0.  0.
         11    1    3    3    0    0 -0.17541638703E+03  0.65535773309E+01  0.10040379818E+02  0.17582567344E+03  0.00000000000E+00 0.  1.
        -11    1    3    3    0    0 -0.41359565770E+03  0.64954007928E+01  0.16654205729E+03  0.44591458279E+03  0.00000000000E+00 0. -1.
          2    1    6    6  502    0 -0.61307776655E+01  0.68332657065E+01  0.66037638922E+01  0.11308830733E+02  0.00000000000E+00 0. -1.
          1    1    5    5  503    0  0.25019476203E+03 -0.95332880329E+02  0.15764468707E+04  0.15990217363E+04  0.00000000000E+00 0. -1.
         -2    1    5    5    0  503  0.11891488343E+03  0.45121012360E+01  0.86240061153E+03  0.87057218157E+03  0.00000000000E+00 0.  1.
         -1    1    6    6    0  502  0.22603317693E+03  0.70938535263E+02  0.70425719477E+02  0.24714986309E+03  0.00000000000E+00 0.  1.
<mgrwt>
<rscale>  0 0.19929312E+04</rscale>
<asrwt>0</asrwt>
<pdfrwt beam="1">  1        2 0.46478862E+00 0.19929312E+04</pdfrwt>
<pdfrwt beam="2">  1       -2 0.50564115E-01 0.19929312E+04</pdfrwt>
<totfact> 0.58206407E+00</totfact>
</mgrwt>
</event>
<event>
12    1  0.1489025E-007  0.1757826E+04  0.7818608E-02  0.8729054E-01
          1   -1    0    0  501    0  0.00000000000E+00  0.00000000000E+00  0.53350945784E+03  0.53350945784E+03  0.00000000000E+00 0. -1.
         -1   -1    0    0    0  501 -0.00000000000E+00 -0.00000000000E+00 -0.14479373796E+04  0.14479373796E+04  0.00000000000E+00 0.  1.
         23    2    1    2    0    0  0.56347898137E+03 -0.25238162226E+03 -0.10930477402E+03  0.63362930974E+03  0.91288130813E+02 0.  0.
        254    2    1    2    0    0 -0.56347898137E+03  0.25238162226E+03 -0.80512314770E+03  0.13478175277E+04  0.88723376809E+03 0.  0.
        -24    2    4    4    0    0 -0.13099947600E+03  0.40966537540E+03 -0.76293794836E+03  0.87946100041E+03  0.79942202055E+02 0.  0.
         24    2    4    4    0    0 -0.43247950537E+03 -0.15728375313E+03 -0.42185199342E+02  0.46835652727E+03  0.76167867409E+02 0.  0.
         13    1    3    3    0    0  0.50411181662E+03 -0.22964742990E+03 -0.68705606423E+02  0.55819989795E+03  0.00000000000E+00 0. -1.
        -13    1    3    3    0    0  0.59367164754E+02 -0.22734192368E+02 -0.40599167595E+02  0.75429411790E+02  0.00000000000E+00 0.  1.
          4    1    6    6  502    0 -0.23517125512E+02 -0.29086635139E+01  0.14169679773E+02  0.27609696497E+02  0.00000000000E+00 0. -1.
          1    1    5    5  503    0 -0.86303041959E+02  0.14400469463E+03 -0.30549432644E+03  0.34858621690E+03  0.00000000000E+00 0. -1.
         -2    1    5    5    0  503 -0.44696434042E+02  0.26566068077E+03 -0.45744362193E+03  0.53087478351E+03  0.00000000000E+00 0.  1.
         -3    1    6    6    0  502 -0.40896237986E+03 -0.15437508962E+03 -0.56354879115E+02  0.44074683077E+03  0.00000000000E+00 0.  1.
<mgrwt>
<rscale>  0 0.17578263E+04</rscale>
<asrwt>0</asrwt>
<pdfrwt beam="1">  1        1 0.82078378E-01 0.17578263E+04</pdfrwt>
<pdfrwt beam="2">  1       -1 0.22275960E+00 0.17578263E+04</pdfrwt>
<totfact> 0.40436970E+00</totfact>
</mgrwt>
</event>
<event>
12    1  0.1489025E-007  0.2705749E+04  0.7818608E-02  0.8333142E-01
         -2   -1    0    0    0  501 -0.00000000000E+00  0.00000000000E+00  0.15818463718E+04  0.15818463718E+04  0.00000000000E+00 0.  1.
          2   -1    0    0  501    0  0.00000000000E+00 -0.00000000000E+00 -0.11570458279E+04  0.11570458279E+04  0.00000000000E+00 0. -1.
         23    2    1    2    0    0  0.10505497930E+04 -0.58204462745E+03  0.15714765179E+03  0.12145639872E+04  0.89663138954E+02 0.  0.
        254    2    1    2    0    0 -0.10505497930E+04  0.58204462745E+03  0.26765289221E+03  0.15243282125E+04  0.89972640997E+03 0.  0.
        -24    2    4    4    0    0  0.58657222219E+02  0.29573165682E+03  0.20665533430E+03  0.37438039642E+03  0.80971423757E+02 0.  0.
         24    2    4    4    0    0 -0.11092070153E+04  0.28631297063E+03  0.60997557918E+02  0.11499478161E+04  0.79648966495E+02 0.  0.
         11    1    3    3    0    0  0.11555760625E+03 -0.79082715703E+02  0.44442222361E+02  0.14691067835E+03  0.00000000000E+00 0. -1.
        -11    1    3    3    0    0  0.93499218678E+03 -0.50296191175E+03  0.11270542942E+03  0.10676533088E+04  0.00000000000E+00 0.  1.
          2    1    6    6  502    0 -0.23071522196E+03  0.43060403599E+02  0.40510299034E+02  0.23816967970E+03  0.00000000000E+00 0. -1.
          3    1    5    5  503    0  0.64198801779E+02  0.23916376301E+03  0.13219887470E+03  0.28070862858E+03  0.00000000000E+00 0. -1.
         -2    1    5    5    0  503 -0.55415795603E+01  0.56567893809E+02  0.74456459600E+02  0.93671767839E+02  0.00000000000E+00 0.  1.
         -1    1    6    6    0  502 -0.87849179330E+03  0.24325256703E+03  0.20487258884E+02  0.91177813641E+03  0.00000000000E+00 0.  1.
<mgrwt>
<rscale>  0 0.27057485E+04</rscale>
<asrwt>0</asrwt>
<pdfrwt beam="1">  1        2 0.17800705E+00 0.27057485E+04</pdfrwt>
<pdfrwt beam="2">  1       -2 0.24336098E+00 0.27057485E+04</pdfrwt>
<totfact> 0.12447435E+00</totfact>
</mgrwt>
</event>
<event>
12    1  0.1919521E-007  0.2079858E+04  0.7818608E-02  0.8570168E-01
         -2   -1    0    0    0  501 -0.00000000000E+00  0.00000000000E+00  0.47426781267E+03  0.47426781267E+03  0.00000000000E+00 0.  1.
          2   -1    0    0  501    0  0.00000000000E+00 -0.00000000000E+00 -0.22802576585E+04  0.22802576585E+04  0.00000000000E+00 0. -1.
         23    2    1    2    0    0 -0.48739299675E+03  0.22458912035E+03  0.12317853052E+03  0.55814080521E+03  0.91411168858E+02 0.  0.
        254    2    1    2    0    0  0.48739299675E+03 -0.22458912035E+03 -0.19291683764E+04  0.21963846660E+04  0.90245374969E+03 0.  0.
        -24    2    4    4    0    0  0.65894785342E+03 -0.34627081973E+03 -0.17651724703E+04  0.19175088443E+04  0.83009420083E+02 0.  0.
         24    2    4    4    0    0 -0.17155485666E+03  0.12168169938E+03 -0.16399590610E+03  0.27887582175E+03  0.81483507094E+02 0.  0.
         13    1    3    3    0    0 -0.12265406804E+02 -0.81485687821E+01 -0.77678390588E+00  0.14745940815E+02  0.00000000000E+00 0. -1.
        -13    1    3    3    0    0 -0.47512758995E+03  0.23273768913E+03  0.12395531442E+03  0.54339486439E+03  0.00000000000E+00 0.  1.
          4    1    6    6  502    0 -0.13960819184E+03  0.13061307995E+03 -0.12885308088E+03  0.23055008205E+03  0.00000000000E+00 0. -1.
          1    1    5    5  503    0  0.63299386943E+03 -0.31806020432E+03 -0.17030458747E+04  0.18445077348E+04  0.00000000000E+00 0. -1.
         -4    1    5    5    0  503  0.25953983984E+02 -0.28210615404E+02 -0.62126595586E+02  0.73001109479E+02  0.00000000000E+00 0.  1.
         -3    1    6    6    0  502 -0.31946664826E+02 -0.89313805720E+01 -0.35142825223E+02  0.48325739695E+02  0.00000000000E+00 0.  1.
<mgrwt>
<rscale>  0 0.20798585E+04</rscale>
<asrwt>0</asrwt>
<pdfrwt beam="1">  1        2 0.35080886E+00 0.20798585E+04</pdfrwt>
<pdfrwt beam="2">  1       -2 0.72964281E-01 0.20798585E+04</pdfrwt>
<totfact> 0.72875648E+00</totfact>
</mgrwt>
</event>
<event>
12    1  0.1489025E-007  0.3745460E+04  0.7818608E-02  0.8057961E-01
          2   -1    0    0  501    0  0.00000000000E+00  0.00000000000E+00  0.28815774944E+04  0.28815774944E+04  0.00000000000E+00 0. -1.
         -2   -1    0    0    0  501 -0.00000000000E+00 -0.00000000000E+00 -0.12170824453E+04  0.12170824453E+04  0.00000000000E+00 0.  1.
         23    2    1    2    0    0 -0.94826358462E+03  0.84480651971E+03 -0.55543008928E+03  0.13890301689E+04  0.89444644307E+02 0.  0.
        254    2    1    2    0    0  0.94826358462E+03 -0.84480651971E+03  0.22199251384E+04  0.27096297708E+04  0.89505530162E+03 0.  0.
        -24    2    4    4    0    0 -0.13403017969E+03 -0.30164215664E+03  0.51673522989E+03  0.61829658963E+03  0.79519149945E+02 0.  0.
         24    2    4    4    0    0  0.10822937643E+04 -0.54316436307E+03  0.17031899085E+04  0.20913331811E+04  0.80195340097E+02 0.  0.
         11    1    3    3    0    0 -0.12736947347E+03  0.15572743785E+03 -0.79035300987E+02  0.21614947715E+03  0.00000000000E+00 0. -1.
        -11    1    3    3    0    0 -0.82089411115E+03  0.68907908186E+03 -0.47639478829E+03  0.11728806918E+04  0.00000000000E+00 0.  1.
          4    1    6    6  502    0  0.85605129710E+03 -0.43520190465E+03  0.14038862097E+04  0.17009176967E+04  0.00000000000E+00 0. -1.
          3    1    5    5  503    0 -0.88872704721E+02 -0.25954207148E+03  0.45276928735E+03  0.52939632798E+03  0.00000000000E+00 0. -1.
         -4    1    5    5    0  503 -0.45157474971E+02 -0.42100085158E+02  0.63965942541E+02  0.88900261649E+02  0.00000000000E+00 0.  1.
         -3    1    6    6    0  502  0.22624246721E+03 -0.10796245842E+03  0.29930369876E+03  0.39041548444E+03  0.00000000000E+00 0.  1.
<mgrwt>
<rscale>  0 0.37454599E+04</rscale>
<asrwt>0</asrwt>
<pdfrwt beam="1">  1        2 0.44331961E+00 0.37454599E+04</pdfrwt>
<pdfrwt beam="2">  1       -2 0.18724345E+00 0.37454599E+04</pdfrwt>
<totfact> 0.26856540E-01</totfact>
</mgrwt>
</event>
<event>
12    1  0.1489025E-007  0.1653501E+04  0.7818608E-02  0.8788338E-01
         -1   -1    0    0    0  501 -0.00000000000E+00  0.00000000000E+00  0.45678018700E+03  0.45678018700E+03  0.00000000000E+00 0.  1.
          1   -1    0    0  501    0  0.00000000000E+00 -0.00000000000E+00 -0.14963786402E+04  0.14963786402E+04  0.00000000000E+00 0. -1.
         23    2    1    2    0    0  0.33459340702E+03 -0.38353679497E+03 -0.49935433605E+02  0.51976046779E+03  0.92758693533E+02 0.  0.
        254    2    1    2    0    0 -0.33459340702E+03  0.38353679497E+03 -0.98966301960E+03  0.14333983594E+04  0.90340729647E+03 0.  0.
        -24    2    4    4    0    0 -0.12840479354E+03  0.42378880652E+03 -0.34506263740E+02  0.45191652996E+03  0.83385396080E+02 0.  0.
         24    2    4    4    0    0 -0.20618861348E+03 -0.40252011546E+02 -0.95515675586E+03  0.98148182946E+03  0.82753758452E+02 0.  0.
         13    1    3    3    0    0  0.30129231265E+03 -0.35845977503E+03 -0.20468670852E+02  0.46871039509E+03  0.00000000000E+00 0.  1.
        -13    1    3    3    0    0  0.33301094372E+02 -0.25077019940E+02 -0.29466762753E+02  0.51050072699E+02  0.00000000000E+00 0. -1.
          2    1    6    6  502    0 -0.17639538156E+02 -0.23087754045E+02 -0.23752199443E+03  0.23929248950E+03  0.00000000000E+00 0. -1.
          3    1    5    5  503    0 -0.46383598247E+02  0.11390919731E+03 -0.45604525955E+02  0.13117361093E+03  0.00000000000E+00 0. -1.
         -4    1    5    5    0  503 -0.82021195294E+02  0.30987960921E+03  0.11098262214E+02  0.32074291903E+03  0.00000000000E+00 0.  1.
         -1    1    6    6    0  502 -0.18854907532E+03 -0.17164257501E+02 -0.71763476143E+03  0.74218933996E+03  0.00000000000E+00 0.  1.
<mgrwt>
<rscale>  0 0.16535007E+04</rscale>
<asrwt>0</asrwt>
<pdfrwt beam="1">  1        1 0.23021209E+00 0.16535007E+04</pdfrwt>
<pdfrwt beam="2">  1       -1 0.70273876E-01 0.16535007E+04</pdfrwt>
<totfact> 0.12864241E+01</totfact>
</mgrwt>
</event>
<event>
12    1  0.1489025E-007  0.1310235E+04  0.7818608E-02  0.9021488E-01
         -2   -1    0    0    0  501 -0.00000000000E+00  0.00000000000E+00  0.26702907913E+03  0.26702907913E+03  0.00000000000E+00 0. -1.
          2   -1    0    0  501    0  0.00000000000E+00 -0.00000000000E+00 -0.16072368312E+04  0.16072368312E+04  0.00000000000E+00 0.  1.
         23    2    1    2    0    0 -0.28177115803E+03 -0.96079925528E+01 -0.90230783207E+02  0.30992974474E+03  0.91801707057E+02 0.  0.
        254    2    1    2    0    0  0.28177115803E+03  0.96079925528E+01 -0.12499769688E+04  0.15643361656E+04  0.89733935455E+03 0.  0.
        -24    2    4    4    0    0  0.12267310550E+02 -0.40532809376E+03 -0.75805006839E+03  0.86316617383E+03  0.77295452386E+02 0.  0.
         24    2    4    4    0    0  0.26950384748E+03  0.41493608632E+03 -0.49192690045E+03  0.70116999172E+03  0.69591683228E+02 0.  0.
         13    1    3    3    0    0 -0.17533298388E+03 -0.15161604733E+02 -0.10082240175E+03  0.20282180896E+03  0.00000000000E+00 0.  1.
        -13    1    3    3    0    0 -0.10643817415E+03  0.55536121805E+01  0.10591618541E+02  0.10710793578E+03  0.00000000000E+00 0. -1.
          4    1    6    6  502    0  0.17612183026E+03  0.29280325022E+03 -0.37980594226E+03  0.51088667649E+03  0.00000000000E+00 0. -1.
          3    1    5    5  503    0  0.41413692339E+02 -0.20105100889E+03 -0.34520362068E+03  0.40162437902E+03  0.00000000000E+00 0. -1.
         -4    1    5    5    0  503 -0.29146381789E+02 -0.20427708487E+03 -0.41284644771E+03  0.46154179481E+03  0.00000000000E+00 0.  1.
         -3    1    6    6    0  502  0.93382017219E+02  0.12213283610E+03 -0.11212095818E+03  0.19028331524E+03  0.00000000000E+00 0.  1.
<mgrwt>
<rscale>  0 0.13102350E+04</rscale>
<asrwt>0</asrwt>
<pdfrwt beam="1">  1        2 0.24726720E+00 0.13102350E+04</pdfrwt>
<pdfrwt beam="2">  1       -2 0.41081398E-01 0.13102350E+04</pdfrwt>
<totfact> 0.60715879E+01</totfact>
</mgrwt>
</event>
<event>
12    1  0.1489025E-007  0.1422368E+04  0.7818608E-02  0.8937785E-01
          2   -1    0    0  501    0  0.00000000000E+00  0.00000000000E+00  0.36579925095E+03  0.36579925095E+03  0.00000000000E+00 0. -1.
         -2   -1    0    0    0  501 -0.00000000000E+00 -0.00000000000E+00 -0.13826785327E+04  0.13826785327E+04  0.00000000000E+00 0.  1.
         23    2    1    2    0    0  0.12455233911E+03 -0.29502829635E+03 -0.65039163955E+03  0.73061418389E+03  0.90734888984E+02 0.  0.
        254    2    1    2    0    0 -0.12455233911E+03  0.29502829635E+03 -0.36648764223E+03  0.10178635998E+04  0.89396763647E+03 0.  0.
        -24    2    4    4    0    0 -0.35694296974E+03  0.35948184460E+03  0.65468262481E+02  0.51718361117E+03  0.80977243882E+02 0.  0.
         24    2    4    4    0    0  0.23239063063E+03 -0.64453548242E+02 -0.43195590471E+03  0.50067998863E+03  0.77038187391E+02 0.  0.
         11    1    3    3    0    0  0.91015300595E+02 -0.18657616216E+03 -0.32163226316E+03  0.38280773494E+03  0.00000000000E+00 0. -1.
        -11    1    3    3    0    0  0.33537038516E+02 -0.10845213419E+03 -0.32875937639E+03  0.34780644895E+03  0.00000000000E+00 0.  1.
          4    1    6    6  502    0  0.16863637159E+03 -0.44602003714E+02 -0.37230383586E+03  0.41114195937E+03  0.00000000000E+00 0. -1.
          1    1    5    5  503    0 -0.15568707965E+02  0.58719418633E+01  0.16188899612E+02  0.23215185538E+02  0.00000000000E+00 0. -1.
         -2    1    5    5    0  503 -0.34137426177E+03  0.35360990273E+03  0.49279362869E+02  0.49396842563E+03  0.00000000000E+00 0.  1.
         -3    1    6    6    0  502  0.63754259039E+02 -0.19851544528E+02 -0.59652068848E+02  0.89538029259E+02  0.00000000000E+00 0.  1.
<mgrwt>
<rscale>  0 0.14223681E+04</rscale>
<asrwt>0</asrwt>
<pdfrwt beam="1">  1        2 0.56276808E-01 0.14223681E+04</pdfrwt>
<pdfrwt beam="2">  1       -2 0.21271977E+00 0.14223681E+04</pdfrwt>
<totfact> 0.93927348E+00</totfact>
</mgrwt>
</event>
<event>
12    1  0.1489025E-007  0.1015449E+04  0.7818608E-02  0.9291761E-01
         -4   -1    0    0    0  501 -0.00000000000E+00  0.00000000000E+00  0.24121776946E+03  0.24121776946E+03  0.00000000000E+00 0.  1.
          4   -1    0    0  501    0  0.00000000000E+00 -0.00000000000E+00 -0.10686786761E+04  0.10686786761E+04  0.00000000000E+00 0. -1.
         23    2    1    2    0    0 -0.98416690530E+01  0.36379651645E+02 -0.79793096302E+01  0.97958124224E+02  0.90065460726E+02 0.  0.
        254    2    1    2    0    0  0.98416690530E+01 -0.36379651645E+02 -0.81948159701E+03  0.12119383213E+04  0.89208972049E+03 0.  0.
        -24    2    4    4    0    0 -0.31387608907E+03 -0.39984325264E+02 -0.81507193041E+03  0.87826845291E+03  0.83043832277E+02 0.  0.
         24    2    4    4    0    0  0.32371775813E+03  0.36046736195E+01 -0.44096665949E+01  0.33366986843E+03  0.80684294250E+02 0.  0.
         11    1    3    3    0    0  0.43659444905E+01 -0.17953919600E+01 -0.43595213713E+02  0.43850057723E+02  0.00000000000E+00 0. -1.
        -11    1    3    3    0    0 -0.14207613544E+02  0.38175043605E+02  0.35615904083E+02  0.54108066501E+02  0.00000000000E+00 0.  1.
          4    1    6    6  502    0  0.15367663540E+02  0.10522315991E+02 -0.16674444088E+02  0.24998425994E+02  0.00000000000E+00 0. -1.
          3    1    5    5  503    0 -0.70842677902E+02  0.13533579205E+01 -0.10544646770E+03  0.12704123008E+03  0.00000000000E+00 0. -1.
         -4    1    5    5    0  503 -0.24303341117E+03 -0.41337683185E+02 -0.70962546271E+03  0.75122722283E+03  0.00000000000E+00 0.  1.
         -3    1    6    6    0  502  0.30835009459E+03 -0.69176423720E+01  0.12264777493E+02  0.30867144243E+03  0.00000000000E+00 0.  1.
<mgrwt>
<rscale>  0 0.10154492E+04</rscale>
<asrwt>0</asrwt>
<pdfrwt beam="1">  1        4 0.16441211E+00 0.10154492E+04</pdfrwt>
<pdfrwt beam="2">  1       -4 0.37110425E-01 0.10154492E+04</pdfrwt>
<totfact> 0.32675367E+00</totfact>
</mgrwt>
</event>
<event>
12    1  0.1489025E-007  0.1703553E+04  0.7818608E-02  0.8759340E-01
         -2   -1    0    0    0  501 -0.00000000000E+00  0.00000000000E+00  0.68055719251E+03  0.68055719251E+03  0.00000000000E+00 0.  1.
          2   -1    0    0  501    0  0.00000000000E+00 -0.00000000000E+00 -0.10660728550E+04  0.10660728550E+04  0.00000000000E+00 0. -1.
         23    2    1    2    0    0 -0.64588034761E+02  0.60671505364E+03 -0.15006419667E+03  0.63485912585E+03  0.90840937959E+02 0.  0.
        254    2    1    2    0    0  0.64588034761E+02 -0.60671505364E+03 -0.23545146584E+03  0.11117709217E+04  0.89906752749E+03 0.  0.
        -24    2    4    4    0    0 -0.38023485079E+03 -0.29112891484E+03  0.55511335216E+02  0.48838681460E+03  0.78138246238E+02 0.  0.
         24    2    4    4    0    0  0.44482288556E+03 -0.31558613880E+03 -0.29096280106E+03  0.62338410708E+03  0.80538083181E+02 0.  0.
         11    1    3    3    0    0 -0.68594899774E+02  0.57988002305E+03 -0.16083296617E+03  0.60566768481E+03  0.00000000000E+00 0. -1.
        -11    1    3    3    0    0  0.40068650126E+01  0.26835030582E+02  0.10768769501E+02  0.29191441042E+02  0.00000000000E+00 0.  1.
          2    1    6    6  502    0  0.43814763741E+03 -0.31932819010E+03 -0.29176924793E+03  0.61568915794E+03  0.00000000000E+00 0. -1.
          3    1    5    5  503    0 -0.27540905434E+03 -0.16596216489E+03  0.27326936837E+02  0.32270783824E+03  0.00000000000E+00 0. -1.
         -4    1    5    5    0  503 -0.10482579646E+03 -0.12516674995E+03  0.28184398379E+02  0.16567897636E+03  0.00000000000E+00 0.  1.
         -1    1    6    6    0  502  0.66752481415E+01  0.37420512991E+01  0.80644687950E+00  0.76949491386E+01  0.00000000000E+00 0.  1.
<mgrwt>
<rscale>  0 0.17035534E+04</rscale>
<asrwt>0</asrwt>
<pdfrwt beam="1">  1        2 0.16401121E+00 0.17035534E+04</pdfrwt>
<pdfrwt beam="2">  1       -2 0.10470111E+00 0.17035534E+04</pdfrwt>
<totfact> 0.16105526E+01</totfact>
</mgrwt>
</event>
<event>
12    1  0.1489025E-007  0.1825281E+04  0.7818608E-02  0.8692970E-01
          2   -1    0    0  501    0  0.00000000000E+00  0.00000000000E+00  0.10503140265E+04  0.10503140265E+04  0.00000000000E+00 0. -1.
         -2   -1    0    0    0  501 -0.00000000000E+00 -0.00000000000E+00 -0.79301329342E+03  0.79301329342E+03  0.00000000000E+00 0.  1.
         23    2    1    2    0    0  0.47360372552E+03  0.25603416236E+03 -0.32935018570E+03  0.63838151321E+03  0.95944934560E+02 0.  0.
        254    2    1    2    0    0 -0.47360372552E+03 -0.25603416236E+03  0.58665091880E+03  0.12049458067E+04  0.90436779879E+03 0.  0.
        -24    2    4    4    0    0 -0.34562839261E+03 -0.24578186408E+03  0.81966000697E+03  0.92633787593E+03  0.79947625760E+02 0.  0.
         24    2    4    4    0    0 -0.12797533291E+03 -0.10252298280E+02 -0.23300908817E+03  0.27860793080E+03  0.82742664215E+02 0.  0.
         11    1    3    3    0    0  0.27979219879E+03  0.96917990919E+02 -0.17820710121E+03  0.34559303001E+03  0.00000000000E+00 0.  1.
        -11    1    3    3    0    0  0.19381152673E+03  0.15911617144E+03 -0.15114308449E+03  0.29278848320E+03  0.00000000000E+00 0. -1.
          2    1    6    6  502    0 -0.10987185546E+03 -0.22138042912E+02 -0.23112808668E+03  0.25686983089E+03  0.00000000000E+00 0. -1.
          1    1    5    5  503    0 -0.30968892208E+03 -0.22616123290E+03  0.67862707625E+03  0.77948113534E+03  0.00000000000E+00 0. -1.
         -2    1    5    5    0  503 -0.35939470528E+02 -0.19620631182E+02  0.14103293071E+03  0.14685674059E+03  0.00000000000E+00 0.  1.
         -3    1    6    6    0  502 -0.18103477448E+02  0.11885744633E+02 -0.18810014864E+01  0.21738099911E+02  0.00000000000E+00 0.  1.
<mgrwt>
<rscale>  0 0.18252813E+04</rscale>
<asrwt>0</asrwt>
<pdfrwt beam="1">  1        2 0.16158677E+00 0.18252813E+04</pdfrwt>
<pdfrwt beam="2">  1       -2 0.12200205E+00 0.18252813E+04</pdfrwt>
<totfact> 0.11233637E+01</totfact>
</mgrwt>
</event>
<event>
12    1  0.1489025E-007  0.1230489E+04  0.7818608E-02  0.9086580E-01
         -2   -1    0    0    0  501 -0.00000000000E+00  0.00000000000E+00  0.20183247847E+03  0.20183247847E+03  0.00000000000E+00 0. -1.
          2   -1    0    0  501    0  0.00000000000E+00 -0.00000000000E+00 -0.18754456448E+04  0.18754456448E+04  0.00000000000E+00 0.  1.
         23    2    1    2    0    0  0.42214891280E+02  0.37963812487E+02  0.56333649772E+02  0.12659428258E+03  0.98128916128E+02 0.  0.
        254    2    1    2    0    0 -0.42214891280E+02 -0.37963812487E+02 -0.17299468161E+04  0.19506838407E+04  0.89957107094E+03 0.  0.
        -24    2    4    4    0    0 -0.98675559081E+02 -0.45483668644E+03 -0.96271806415E+03  0.10722723828E+04  0.79553218467E+02 0.  0.
         24    2    4    4    0    0  0.56460667801E+02  0.41687287395E+03 -0.76722875194E+03  0.87841145788E+03  0.77433400400E+02 0.  0.
         11    1    3    3    0    0  0.30068697628E+02  0.24657828667E+02 -0.23041603999E+02  0.45200117328E+02  0.00000000000E+00 0.  1.
        -11    1    3    3    0    0  0.12146193652E+02  0.13305983821E+02  0.79375253771E+02  0.81394165250E+02  0.00000000000E+00 0. -1.
          4    1    6    6  502    0 -0.16680894219E+02  0.10930717343E+03 -0.17297776604E+03  0.20529885031E+03  0.00000000000E+00 0. -1.
          1    1    5    5  503    0 -0.14625162086E+02 -0.10673534189E+03 -0.30371556931E+03  0.32225684727E+03  0.00000000000E+00 0. -1.
         -2    1    5    5    0  503 -0.84050396995E+02 -0.34810134455E+03 -0.65900249485E+03  0.75001553552E+03  0.00000000000E+00 0.  1.
         -1    1    6    6    0  502  0.73141562020E+02  0.30756570051E+03 -0.59425098590E+03  0.67311260757E+03  0.00000000000E+00 0.  1.
<mgrwt>
<rscale>  0 0.12304891E+04</rscale>
<asrwt>0</asrwt>
<pdfrwt beam="1">  1        2 0.28853010E+00 0.12304891E+04</pdfrwt>
<pdfrwt beam="2">  1       -2 0.31051150E-01 0.12304891E+04</pdfrwt>
<totfact> 0.74220058E+01</totfact>
</mgrwt>
</event>
<event>
12    1  0.1489025E-007  0.3452879E+04  0.7818608E-02  0.8125049E-01
          1   -1    0    0  501    0  0.00000000000E+00  0.00000000000E+00  0.31796852282E+04  0.31796852282E+04  0.00000000000E+00 0. -1.
         -1   -1    0    0    0  501 -0.00000000000E+00 -0.00000000000E+00 -0.93738627852E+03  0.93738627852E+03  0.00000000000E+00 0.  1.
         23    2    1    2    0    0 -0.64901824305E+03 -0.10469571805E+04 -0.18346803862E+03  0.12487806953E+04  0.91916734713E+02 0.  0.
        254    2    1    2    0    0  0.64901824305E+03  0.10469571805E+04  0.24257669883E+04  0.28682908114E+04  0.90851674704E+03 0.  0.
        -24    2    4    4    0    0  0.78749326558E+03  0.10887279324E+04  0.19923432973E+04  0.24046063144E+04  0.85003287139E+02 0.  0.
         24    2    4    4    0    0 -0.13847502253E+03 -0.41770751863E+02  0.43342369102E+03  0.46368449704E+03  0.78911908381E+02 0.  0.
         13    1    3    3    0    0 -0.20986851126E+03 -0.26651711930E+03 -0.66146993201E+02  0.34561769574E+03  0.00000000000E+00 0. -1.
        -13    1    3    3    0    0 -0.43914973179E+03 -0.78044006122E+03 -0.11732104542E+03  0.90316299956E+03  0.00000000000E+00 0.  1.
          4    1    6    6  502    0 -0.14293995889E+03 -0.35777359192E+02  0.43150309336E+03  0.45596794937E+03  0.00000000000E+00 0. -1.
          1    1    5    5  503    0  0.69002534387E+03  0.90133516543E+03  0.16784733638E+04  0.20262805552E+04  0.00000000000E+00 0. -1.
         -2    1    5    5    0  503  0.97467921706E+02  0.18739276695E+03  0.31386993349E+03  0.37832575913E+03  0.00000000000E+00 0.  1.
         -3    1    6    6    0  502  0.44649363682E+01 -0.59933926709E+01  0.19205976589E+01  0.77165476638E+01  0.00000000000E+00 0.  1.
<mgrwt>
<rscale>  0 0.34528790E+04</rscale>
<asrwt>0</asrwt>
<pdfrwt beam="1">  1        1 0.48918234E+00 0.34528790E+04</pdfrwt>
<pdfrwt beam="2">  1       -1 0.14421327E+00 0.34528790E+04</pdfrwt>
<totfact> 0.13963624E-01</totfact>
</mgrwt>
</event>
<event>
12    1  0.1489025E-007  0.1501645E+04  0.7818608E-02  0.8883359E-01
         -1   -1    0    0    0  501 -0.00000000000E+00  0.00000000000E+00  0.12272981333E+04  0.12272981333E+04  0.00000000000E+00 0.  1.
          1   -1    0    0  501    0  0.00000000000E+00 -0.00000000000E+00 -0.45932992866E+03  0.45932992866E+03  0.00000000000E+00 0. -1.
         23    2    1    2    0    0  0.46566678471E+02  0.20374445145E+03 -0.22797184653E+03  0.32241104841E+03  0.91090418191E+02 0.  0.
        254    2    1    2    0    0 -0.46566678471E+02 -0.20374445145E+03  0.99594005117E+03  0.13642170136E+04  0.90857647863E+03 0.  0.
        -24    2    4    4    0    0  0.24452596410E+03  0.24750501800E+03  0.22740172977E+03  0.42329658552E+03  0.80104753621E+02 0.  0.
         24    2    4    4    0    0 -0.29109264257E+03 -0.45124946945E+03  0.76853832141E+03  0.94092042804E+03  0.79492705300E+02 0.  0.
         13    1    3    3    0    0  0.57874099988E+02  0.20788492711E+03 -0.21844361099E+03  0.30705563918E+03  0.00000000000E+00 0. -1.
        -13    1    3    3    0    0 -0.11307421516E+02 -0.41404756652E+01 -0.95282355447E+01  0.15355409232E+02  0.00000000000E+00 0.  1.
          2    1    6    6  502    0 -0.13064285561E+03 -0.15984690373E+03  0.24187755239E+03  0.31799896023E+03  0.00000000000E+00 0. -1.
          1    1    5    5  503    0  0.13406660091E+03  0.11088266990E+03  0.15591423212E+03  0.23361949350E+03  0.00000000000E+00 0. -1.
         -2    1    5    5    0  503  0.11045936319E+03  0.13662234810E+03  0.71487497649E+02  0.18967709202E+03  0.00000000000E+00 0.  1.
         -1    1    6    6    0  502 -0.16044978696E+03 -0.29140256572E+03  0.52666076902E+03  0.62292146781E+03  0.00000000000E+00 0.  1.
<mgrwt>
<rscale>  0 0.15016454E+04</rscale>
<asrwt>0</asrwt>
<pdfrwt beam="1">  1        1 0.70666143E-01 0.15016454E+04</pdfrwt>
<pdfrwt beam="2">  1       -1 0.18881510E+00 0.15016454E+04</pdfrwt>
<totfact> 0.86738231E+00</totfact>
</mgrwt>
</event>
<event>
12    1  0.1489025E-007  0.1778434E+04  0.7818608E-02  0.8717853E-01
          2   -1    0    0  501    0  0.00000000000E+00  0.00000000000E+00  0.87836480579E+03  0.87836480579E+03  0.00000000000E+00 0. -1.
         -2   -1    0    0    0  501 -0.00000000000E+00 -0.00000000000E+00 -0.90020352142E+03  0.90020352142E+03  0.00000000000E+00 0.  1.
         23    2    1    2    0    0  0.39195431954E+03  0.51004714603E+03  0.14563227317E+03  0.66583581761E+03  0.91390903515E+02 0.  0.
        254    2    1    2    0    0 -0.39195431954E+03 -0.51004714603E+03 -0.16747098880E+03  0.11127325096E+04  0.89238490913E+03 0.  0.
        -24    2    4    4    0    0 -0.13213317439E+03 -0.49545654577E+03  0.27942439069E+03  0.58940153641E+03  0.79873753401E+02 0.  0.
         24    2    4    4    0    0 -0.25982114514E+03 -0.14590600258E+02 -0.44689537950E+03  0.52333097319E+03  0.80249076025E+02 0.  0.
         13    1    3    3    0    0  0.11957728358E+03  0.18358334380E+03  0.90736284665E+02  0.23713844948E+03  0.00000000000E+00 0. -1.
        -13    1    3    3    0    0  0.27237703596E+03  0.32646380223E+03  0.54895988505E+02  0.42869736813E+03  0.00000000000E+00 0.  1.
          2    1    6    6  502    0 -0.22572634164E+03 -0.22646432896E+02 -0.42572634434E+03  0.48239834421E+03  0.00000000000E+00 0. -1.
          1    1    5    5  503    0 -0.24697140753E+02 -0.24152871336E+03  0.11863432294E+03  0.27022244673E+03  0.00000000000E+00 0. -1.
         -2    1    5    5    0  503 -0.10743603364E+03 -0.25392783241E+03  0.16079006776E+03  0.31917908968E+03  0.00000000000E+00 0.  1.
         -1    1    6    6    0  502 -0.34094803509E+02  0.80558326375E+01 -0.21169035161E+02  0.40932628983E+02  0.00000000000E+00 0.  1.
<mgrwt>
<rscale>  0 0.17784342E+04</rscale>
<asrwt>0</asrwt>
<pdfrwt beam="1">  1        2 0.13513305E+00 0.17784342E+04</pdfrwt>
<pdfrwt beam="2">  1       -2 0.13849285E+00 0.17784342E+04</pdfrwt>
<totfact> 0.10595167E+01</totfact>
</mgrwt>
</event>
<event>
12    1  0.1489025E-007  0.1432966E+04  0.7818608E-02  0.8930296E-01
          2   -1    0    0  501    0  0.00000000000E+00  0.00000000000E+00  0.90919581389E+03  0.90919581389E+03  0.00000000000E+00 0. -1.
         -2   -1    0    0    0  501 -0.00000000000E+00 -0.00000000000E+00 -0.56461771689E+03  0.56461771689E+03  0.00000000000E+00 0.  1.
         23    2    1    2    0    0 -0.23491463346E+03 -0.11313985335E+03 -0.24364648279E+03  0.36820383238E+03  0.90691466922E+02 0.  0.
        254    2    1    2    0    0  0.23491463346E+03  0.11313985335E+03  0.58822457979E+03  0.11056096984E+04  0.89909906990E+03 0.  0.
        -24    2    4    4    0    0 -0.17454253501E+02  0.24518486754E+03 -0.15768788550E+03  0.30289923440E+03  0.80387851904E+02 0.  0.
         24    2    4    4    0    0  0.25236888696E+03 -0.13204501419E+03  0.74591246529E+03  0.80271046400E+03  0.82660403249E+02 0.  0.
         11    1    3    3    0    0 -0.21925898826E+03 -0.12682096204E+03 -0.23554682882E+03  0.34589068925E+03  0.00000000000E+00 0.  1.
        -11    1    3    3    0    0 -0.15655645197E+02  0.13681108690E+02 -0.80996539672E+01  0.22313143121E+02  0.00000000000E+00 0. -1.
          4    1    6    6  502    0  0.14787016368E+03 -0.36883676931E+02  0.33134443271E+03  0.36471238534E+03  0.00000000000E+00 0. -1.
          1    1    5    5  503    0  0.28085463972E+01  0.93580216471E+02 -0.17141488210E+02  0.95178650262E+02  0.00000000000E+00 0. -1.
         -2    1    5    5    0  503 -0.20262799898E+02  0.15160465106E+03 -0.14054639729E+03  0.20772058414E+03  0.00000000000E+00 0.  1.
         -3    1    6    6    0  502  0.10449872328E+03 -0.95161337255E+02  0.41456803258E+03  0.43799807866E+03  0.00000000000E+00 0.  1.
<mgrwt>
<rscale>  0 0.14329662E+04</rscale>
<asrwt>0</asrwt>
<pdfrwt beam="1">  1        2 0.13987628E+00 0.14329662E+04</pdfrwt>
<pdfrwt beam="2">  1       -2 0.86864264E-01 0.14329662E+04</pdfrwt>
<totfact> 0.32191124E+01</totfact>
</mgrwt>
</event>
<event>
12    1  0.1489025E-007  0.2780982E+04  0.7818608E-02  0.8309197E-01
         -2   -1    0    0    0  501 -0.00000000000E+00  0.00000000000E+00  0.55110993139E+03  0.55110993139E+03  0.00000000000E+00 0.  1.
          2   -1    0    0  501    0  0.00000000000E+00 -0.00000000000E+00 -0.35083116599E+04  0.35083116599E+04  0.00000000000E+00 0. -1.
         23    2    1    2    0    0 -0.57850641904E+02 -0.10277270520E+04 -0.32527569143E+03  0.10831097300E+04  0.88050108061E+02 0.  0.
        254    2    1    2    0    0  0.57850641904E+02  0.10277270520E+04 -0.26319260371E+04  0.29763118613E+04  0.93371732375E+03 0.  0.
        -24    2    4    4    0    0 -0.17549473046E+03  0.19148517338E+03 -0.16107113099E+04  0.16334947052E+04  0.80306015291E+02 0.  0.
         24    2    4    4    0    0  0.23334537236E+03  0.83624187866E+03 -0.10212147272E+04  0.13428171561E+04  0.80795130868E+02 0.  0.
         11    1    3    3    0    0 -0.15359458207E+02 -0.16713792581E+03 -0.20177742852E+02  0.16905070395E+03  0.00000000000E+00 0. -1.
        -11    1    3    3    0    0 -0.42491183697E+02 -0.86058912623E+03 -0.30509794858E+03  0.91405902605E+03  0.00000000000E+00 0.  1.
          2    1    6    6  502    0  0.64944679358E+01  0.12990733319E+03 -0.15171804734E+03  0.19984108491E+03  0.00000000000E+00 0. -1.
          3    1    5    5  503    0 -0.65823933432E+01 -0.66902185920E+01 -0.28672242812E+02  0.30169263080E+02  0.00000000000E+00 0. -1.
         -2    1    5    5    0  503 -0.16891233711E+03  0.19817539197E+03 -0.15820390671E+04  0.16033254421E+04  0.00000000000E+00 0.  1.
         -1    1    6    6    0  502  0.22685090442E+03  0.70633454547E+03 -0.86949667983E+03  0.11429760711E+04  0.00000000000E+00 0.  1.
<mgrwt>
<rscale>  0 0.27809821E+04</rscale>
<asrwt>0</asrwt>
<pdfrwt beam="1">  1        2 0.53974027E+00 0.27809821E+04</pdfrwt>
<pdfrwt beam="2">  1       -2 0.84786142E-01 0.27809821E+04</pdfrwt>
<totfact> 0.84709258E-01</totfact>
</mgrwt>
</event>
<event>
12    1  0.1489025E-007  0.1280304E+04  0.7818608E-02  0.9045332E-01
          1   -1    0    0  501    0  0.00000000000E+00  0.00000000000E+00  0.30473411749E+03  0.30473411749E+03  0.00000000000E+00 0. -1.
         -1   -1    0    0    0  501 -0.00000000000E+00 -0.00000000000E+00 -0.13447611345E+04  0.13447611345E+04  0.00000000000E+00 0.  1.
         23    2    1    2    0    0 -0.12226840471E+03 -0.16146893084E+03  0.55587553787E+02  0.22775835543E+03  0.88102859865E+02 0.  0.
        254    2    1    2    0    0  0.12226840471E+03  0.16146893084E+03 -0.10956145708E+04  0.14217368966E+04  0.88314366721E+03 0.  0.
        -24    2    4    4    0    0  0.48372236747E+03  0.14266996415E+03 -0.46686844027E+03  0.69187905166E+03  0.79927680643E+02 0.  0.
         24    2    4    4    0    0 -0.36145396277E+03  0.18798966686E+02 -0.62874613057E+03  0.72985784495E+03  0.79802310677E+02 0.  0.
         11    1    3    3    0    0 -0.63406977343E+02 -0.40635468460E+02  0.55159376853E+02  0.93350109414E+02  0.00000000000E+00 0. -1.
        -11    1    3    3    0    0 -0.58861427364E+02 -0.12083346238E+03  0.42817693416E+00  0.13440824602E+03  0.00000000000E+00 0.  1.
          2    1    6    6  502    0 -0.25353366581E+03  0.35637167210E+02 -0.38017525537E+03  0.45834763246E+03  0.00000000000E+00 0. -1.
          3    1    5    5  503    0  0.45105934422E+03  0.12817241950E+03 -0.40123909490E+03  0.61715112607E+03  0.00000000000E+00 0. -1.
         -4    1    5    5    0  503  0.32663023256E+02  0.14497544649E+02 -0.65629345375E+02  0.74727925593E+02  0.00000000000E+00 0.  1.
         -1    1    6    6    0  502 -0.10792029695E+03 -0.16838200524E+02 -0.24857087519E+03  0.27151021249E+03  0.00000000000E+00 0.  1.
<mgrwt>
<rscale>  0 0.12803040E+04</rscale>
<asrwt>0</asrwt>
<pdfrwt beam="1">  1        1 0.46882172E-01 0.12803040E+04</pdfrwt>
<pdfrwt beam="2">  1       -1 0.20688633E+00 0.12803040E+04</pdfrwt>
<totfact> 0.11411545E+01</totfact>
</mgrwt>
</event>
<event>
12    1  0.1489025E-007  0.1371068E+04  0.7818608E-02  0.8975032E-01
          2   -1    0    0  501    0  0.00000000000E+00  0.00000000000E+00  0.14290467463E+04  0.14290467463E+04  0.00000000000E+00 0. -1.
         -2   -1    0    0    0  501 -0.00000000000E+00 -0.00000000000E+00 -0.32886019846E+03  0.32886019846E+03  0.00000000000E+00 0.  1.
         23    2    1    2    0    0  0.38726054529E+02 -0.13410761312E+03  0.76927564642E+03  0.78725034076E+03  0.92160293342E+02 0.  0.
        254    2    1    2    0    0 -0.38726054529E+02  0.13410761312E+03  0.33091090147E+03  0.97065660404E+03  0.90176918280E+03 0.  0.
        -24    2    4    4    0    0  0.12845236466E+03 -0.35583520856E+03  0.10942185995E+03  0.40179316143E+03  0.79661129161E+02 0.  0.
         24    2    4    4    0    0 -0.16717841919E+03  0.48994282167E+03  0.22148904152E+03  0.56886344261E+03  0.80966835617E+02 0.  0.
         11    1    3    3    0    0  0.31423323260E+02 -0.24048896218E+02  0.80509210608E+02  0.89707901807E+02  0.00000000000E+00 0.  1.
        -11    1    3    3    0    0  0.73027312687E+01 -0.11005871690E+03  0.68876643581E+03  0.69754243896E+03  0.00000000000E+00 0. -1.
          4    1    6    6  502    0 -0.10609336667E+03  0.30587909297E+03  0.95309256670E+02  0.33749322419E+03  0.00000000000E+00 0. -1.
          3    1    5    5  503    0  0.76453042252E+02 -0.18476767457E+03  0.97863334133E+02  0.22262388327E+03  0.00000000000E+00 0. -1.
         -4    1    5    5    0  503  0.51999322406E+02 -0.17106753399E+03  0.11558525817E+02  0.17916927816E+03  0.00000000000E+00 0.  1.
         -3    1    6    6    0  502 -0.61085052512E+02  0.18406372870E+03  0.12617978485E+03  0.23137021842E+03  0.00000000000E+00 0.  1.
<mgrwt>
<rscale>  0 0.13710676E+04</rscale>
<asrwt>0</asrwt>
<pdfrwt beam="1">  1        2 0.21985334E+00 0.13710676E+04</pdfrwt>
<pdfrwt beam="2">  1       -2 0.50593877E-01 0.13710676E+04</pdfrwt>
<totfact> 0.50166523E+01</totfact>
</mgrwt>
</event>
<event>
12    1  0.1489025E-007  0.1167483E+04  0.7818608E-02  0.9141805E-01
         -2   -1    0    0    0  501 -0.00000000000E+00  0.00000000000E+00  0.37707503691E+03  0.37707503691E+03  0.00000000000E+00 0. -1.
          2   -1    0    0  501    0  0.00000000000E+00 -0.00000000000E+00 -0.90367659257E+03  0.90367659257E+03  0.00000000000E+00 0.  1.
         23    2    1    2    0    0  0.34025915605E+02  0.17896913592E+03  0.44361045986E+02  0.20858207769E+03  0.91383073852E+02 0.  0.
        254    2    1    2    0    0 -0.34025915605E+02 -0.17896913592E+03 -0.57096260165E+03  0.10721695518E+04  0.88902280102E+03 0.  0.
        -24    2    4    4    0    0 -0.13486729557E+03 -0.46933091688E+03 -0.56754196721E+03  0.75369940210E+03  0.86592189245E+02 0.  0.
         24    2    4    4    0    0  0.10084137997E+03  0.29036178095E+03 -0.34206344412E+01  0.31847014968E+03  0.83262162746E+02 0.  0.
         13    1    3    3    0    0  0.62631440464E+02  0.13064002353E+03  0.16270627447E+02  0.14578836168E+03  0.00000000000E+00 0. -1.
        -13    1    3    3    0    0 -0.28605524859E+02  0.48329112390E+02  0.28090418539E+02  0.62793716012E+02  0.00000000000E+00 0.  1.
          4    1    6    6  502    0  0.10953688648E+03  0.21519393502E+03  0.97437399877E+01  0.24166443602E+03  0.00000000000E+00 0. -1.
          3    1    5    5  503    0 -0.11830646648E+03 -0.28402362965E+03 -0.38757316259E+03  0.49485229976E+03  0.00000000000E+00 0. -1.
         -2    1    5    5    0  503 -0.16560829087E+02 -0.18530728722E+03 -0.17996880461E+03  0.25884710234E+03  0.00000000000E+00 0.  1.
         -3    1    6    6    0  502 -0.86955065190E+01  0.75167845938E+02 -0.13164374429E+02  0.76805713659E+02  0.00000000000E+00 0.  1.
<mgrwt>
<rscale>  0 0.11674826E+04</rscale>
<asrwt>0</asrwt>
<pdfrwt beam="1">  1        2 0.13902717E+00 0.11674826E+04</pdfrwt>
<pdfrwt beam="2">  1       -2 0.58011544E-01 0.11674826E+04</pdfrwt>
<totfact> 0.80176658E+01</totfact>
</mgrwt>
</event>
<event>
12    1  0.1489025E-007  0.3452704E+04  0.7818608E-02  0.8125091E-01
          2   -1    0    0  501    0  0.00000000000E+00  0.00000000000E+00  0.33380797476E+04  0.33380797476E+04  0.00000000000E+00 0. -1.
         -2   -1    0    0    0  501 -0.00000000000E+00 -0.00000000000E+00 -0.89281629969E+03  0.89281629969E+03  0.00000000000E+00 0.  1.
         23    2    1    2    0    0 -0.14609114131E+04 -0.65021354394E+03  0.13376904975E+04  0.20866566672E+04  0.87637719680E+02 0.  0.
        254    2    1    2    0    0  0.14609114131E+04  0.65021354394E+03  0.11075729504E+04  0.21442393801E+04  0.90222218384E+03 0.  0.
        -24    2    4    4    0    0  0.23375341724E+03 -0.21639846932E+03  0.15543721433E+03  0.36342901303E+03  0.80317882901E+02 0.  0.
         24    2    4    4    0    0  0.12271579959E+04  0.86661201326E+03  0.95213573605E+03  0.17808103671E+04  0.88260836184E+02 0.  0.
         13    1    3    3    0    0 -0.10682904902E+04 -0.51575111132E+03  0.97670003581E+03  0.15366153521E+04  0.00000000000E+00 0. -1.
        -13    1    3    3    0    0 -0.39262092289E+03 -0.13446243262E+03  0.36099046173E+03  0.55004131512E+03  0.00000000000E+00 0.  1.
          4    1    6    6  502    0  0.41136467446E+03  0.24074534429E+03  0.30837947416E+03  0.56769456249E+03  0.00000000000E+00 0. -1.
          3    1    5    5  503    0  0.20026219329E+02  0.51040166953E+01  0.11213833625E+02  0.23512773371E+02  0.00000000000E+00 0. -1.
         -4    1    5    5    0  503  0.21372719792E+03 -0.22150248602E+03  0.14422338071E+03  0.33991623966E+03  0.00000000000E+00 0.  1.
         -3    1    6    6    0  502  0.81579332141E+03  0.62586666897E+03  0.64375626189E+03  0.12131158046E+04  0.00000000000E+00 0.  1.
<mgrwt>
<rscale>  0 0.34527045E+04</rscale>
<asrwt>0</asrwt>
<pdfrwt beam="1">  1        2 0.51355072E+00 0.34527045E+04</pdfrwt>
<pdfrwt beam="2">  1       -2 0.13735636E+00 0.34527045E+04</pdfrwt>
<totfact> 0.32651022E-01</totfact>
</mgrwt>
</event>
<event>
12    1  0.1489025E-007  0.1549576E+04  0.7818608E-02  0.8852139E-01
          1   -1    0    0  501    0  0.00000000000E+00  0.00000000000E+00  0.38979787937E+03  0.38979787937E+03  0.00000000000E+00 0. -1.
         -1   -1    0    0    0  501 -0.00000000000E+00 -0.00000000000E+00 -0.15400200006E+04  0.15400200006E+04  0.00000000000E+00 0.  1.
         23    2    1    2    0    0 -0.13509714367E+03 -0.44859731270E+03 -0.14468569648E+03  0.49881181773E+03  0.91588708631E+02 0.  0.
        254    2    1    2    0    0  0.13509714367E+03  0.44859731270E+03 -0.10055364248E+04  0.14310060623E+04  0.90398233475E+03 0.  0.
        -24    2    4    4    0    0  0.45235935115E+03  0.28066616391E+03 -0.89748339874E+03  0.10463205176E+04  0.76861540109E+02 0.  0.
         24    2    4    4    0    0 -0.31726220748E+03  0.16793114879E+03 -0.10805302605E+03  0.38468554471E+03  0.86321103126E+02 0.  0.
         11    1    3    3    0    0 -0.60664119953E+02 -0.14065820577E+03 -0.68973800075E+01  0.15333766710E+03  0.00000000000E+00 0.  1.
        -11    1    3    3    0    0 -0.74433023719E+02 -0.30793910693E+03 -0.13778831647E+03  0.34547415063E+03  0.00000000000E+00 0. -1.
          2    1    6    6  502    0 -0.22668123483E+03  0.93828218781E+02 -0.10699773822E+03  0.26765020615E+03  0.00000000000E+00 0. -1.
          3    1    5    5  503    0  0.30664332935E+03  0.17767848461E+03 -0.52666251228E+03  0.63480168334E+03  0.00000000000E+00 0. -1.
         -4    1    5    5    0  503  0.14571602180E+03  0.10298767930E+03 -0.37082088646E+03  0.41151883423E+03  0.00000000000E+00 0.  1.
         -1    1    6    6    0  502 -0.90580972644E+02  0.74102930008E+02 -0.10552878266E+01  0.11703533857E+03  0.00000000000E+00 0.  1.
<mgrwt>
<rscale>  0 0.15495761E+04</rscale>
<asrwt>0</asrwt>
<pdfrwt beam="1">  1        1 0.59968904E-01 0.15495761E+04</pdfrwt>
<pdfrwt beam="2">  1       -1 0.23692615E+00 0.15495761E+04</pdfrwt>
<totfact> 0.50832218E+00</totfact>
</mgrwt>
</event>
<event>
12    1  0.1518596E-007  0.1493712E+04  0.7818608E-02  0.8888645E-01
          4   -1    0    0  501    0  0.00000000000E+00  0.00000000000E+00  0.99091572863E+03  0.99091572863E+03  0.00000000000E+00 0. -1.
         -4   -1    0    0    0  501 -0.00000000000E+00 -0.00000000000E+00 -0.56290777142E+03  0.56290777142E+03  0.00000000000E+00 0.  1.
         23    2    1    2    0    0  0.12645836875E+03  0.19586459215E+03  0.55456484653E+03  0.60851158466E+03  0.91594334857E+02 0.  0.
        254    2    1    2    0    0 -0.12645836875E+03 -0.19586459215E+03 -0.12655688932E+03  0.94531191538E+03  0.90732756689E+03 0.  0.
        -24    2    4    4    0    0 -0.17389592332E+03 -0.54164578181E+03 -0.12068130019E+03  0.58711705255E+03  0.80762070812E+02 0.  0.
         24    2    4    4    0    0  0.47437554570E+02  0.34578118966E+03 -0.58755891330E+01  0.35819486283E+03  0.80337317035E+02 0.  0.
         11    1    3    3    0    0  0.12209891259E+03  0.18341294289E+03  0.55293453478E+03  0.59521849083E+03  0.00000000000E+00 0. -1.
        -11    1    3    3    0    0  0.43594561582E+01  0.12451649262E+02  0.16303117549E+01  0.13293093837E+02  0.00000000000E+00 0.  1.
          2    1    6    6  502    0  0.39393350445E+02  0.32273642339E+03 -0.26540920652E+02  0.32621320560E+03  0.00000000000E+00 0. -1.
          1    1    5    5  503    0 -0.10762620813E+03 -0.42564335103E+03 -0.11274206877E+03  0.45328405776E+03  0.00000000000E+00 0. -1.
         -2    1    5    5    0  503 -0.66269715189E+02 -0.11600243078E+03 -0.79392314165E+01  0.13383299479E+03  0.00000000000E+00 0.  1.
         -1    1    6    6    0  502  0.80442041251E+01  0.23044766267E+02  0.20665331519E+02  0.31981657229E+02  0.00000000000E+00 0.  1.
<mgrwt>
<rscale>  0 0.14937124E+04</rscale>
<asrwt>0</asrwt>
<pdfrwt beam="1">  1        4 0.15244857E+00 0.14937124E+04</pdfrwt>
<pdfrwt beam="2">  1       -4 0.86601196E-01 0.14937124E+04</pdfrwt>
<totfact> 0.63790059E-01</totfact>
</mgrwt>
</event>
<event>
12    1  0.1489025E-007  0.1199986E+04  0.7818608E-02  0.9112868E-01
         -2   -1    0    0    0  501 -0.00000000000E+00  0.00000000000E+00  0.74547849821E+03  0.74547849821E+03  0.00000000000E+00 0.  1.
          2   -1    0    0  501    0  0.00000000000E+00 -0.00000000000E+00 -0.48290035271E+03  0.48290035271E+03  0.00000000000E+00 0. -1.
         23    2    1    2    0    0 -0.20598266334E+03 -0.49284489151E+02 -0.10675767592E+03  0.25452896173E+03  0.92357850372E+02 0.  0.
        254    2    1    2    0    0  0.20598266334E+03  0.49284489151E+02  0.36933582142E+03  0.97384988919E+03  0.87585206469E+03 0.  0.
        -24    2    4    4    0    0  0.50279518564E+03 -0.72942277196E+02  0.55239343521E+02  0.51755212678E+03  0.81763343606E+02 0.  0.
         24    2    4    4    0    0 -0.29681252230E+03  0.12222676635E+03  0.31409647790E+03  0.45629776241E+03  0.80709322579E+02 0.  0.
         13    1    3    3    0    0 -0.53282024227E+02 -0.53299543859E+02 -0.16659656682E+02  0.77183933834E+02  0.00000000000E+00 0.  1.
        -13    1    3    3    0    0 -0.15270063911E+03  0.40150547084E+01 -0.90098019236E+02  0.17734502790E+03  0.00000000000E+00 0. -1.
          4    1    6    6  502    0 -0.23621336300E+03  0.11307491723E+03  0.28918520962E+03  0.39014199368E+03  0.00000000000E+00 0. -1.
          1    1    5    5  503    0  0.46855984869E+03 -0.82674317961E+02  0.36161612897E+02  0.47716981977E+03  0.00000000000E+00 0. -1.
         -2    1    5    5    0  503  0.34235336944E+02  0.97320407645E+01  0.19077730623E+02  0.40382307003E+02  0.00000000000E+00 0.  1.
         -3    1    6    6    0  502 -0.60599159299E+02  0.91518491156E+01  0.24911268276E+02  0.66155768737E+02  0.00000000000E+00 0.  1.
<mgrwt>
<rscale>  0 0.11999864E+04</rscale>
<asrwt>0</asrwt>
<pdfrwt beam="1">  1        2 0.74292362E-01 0.11999864E+04</pdfrwt>
<pdfrwt beam="2">  1       -2 0.11468900E+00 0.11999864E+04</pdfrwt>
<totfact> 0.37548296E+01</totfact>
</mgrwt>
</event>
<event>
12    1  0.1489025E-007  0.2025541E+04  0.7818608E-02  0.8594772E-01
         -1   -1    0    0    0  501 -0.00000000000E+00  0.00000000000E+00  0.61430347626E+03  0.61430347626E+03  0.00000000000E+00 0.  1.
          1   -1    0    0  501    0  0.00000000000E+00 -0.00000000000E+00 -0.16697028125E+04  0.16697028125E+04  0.00000000000E+00 0. -1.
         23    2    1    2    0    0 -0.21268747111E+03  0.76703248248E+03 -0.57634441899E+03  0.98933803498E+03  0.11420187661E+03 0.  0.
        254    2    1    2    0    0  0.21268747111E+03 -0.76703248248E+03 -0.47905491725E+03  0.12946682538E+04  0.90171918247E+03 0.  0.
        -24    2    4    4    0    0  0.50974140185E+03 -0.64529055618E+03 -0.49730905701E+03  0.96431212398E+03  0.79657866027E+02 0.  0.
         24    2    4    4    0    0 -0.29705393074E+03 -0.12174192630E+03  0.18254139755E+02  0.33035612979E+03  0.75761629383E+02 0.  0.
         11    1    3    3    0    0 -0.21051560527E+03  0.63575230648E+03 -0.51273881727E+03  0.84344466919E+03  0.00000000000E+00 0. -1.
        -11    1    3    3    0    0 -0.21718658425E+01  0.13128017600E+03 -0.63605601721E+02  0.14589336579E+03  0.00000000000E+00 0.  1.
          2    1    6    6  502    0 -0.23779607475E+03 -0.12774378164E+03  0.90461521735E+01  0.27008754096E+03  0.00000000000E+00 0. -1.
          1    1    5    5  503    0  0.43535032204E+03 -0.50829875853E+03 -0.42197205907E+03  0.79117504350E+03  0.00000000000E+00 0. -1.
         -2    1    5    5    0  503  0.74391079808E+02 -0.13699179765E+03 -0.75336997942E+02  0.17313708048E+03  0.00000000000E+00 0.  1.
         -1    1    6    6    0  502 -0.59257855986E+02  0.60018553458E+01  0.92079875811E+01  0.60268588825E+02  0.00000000000E+00 0.  1.
<mgrwt>
<rscale>  0 0.20255412E+04</rscale>
<asrwt>0</asrwt>
<pdfrwt beam="1">  1        1 0.25687735E+00 0.20255412E+04</pdfrwt>
<pdfrwt beam="2">  1       -1 0.94508228E-01 0.20255412E+04</pdfrwt>
<totfact> 0.50119220E+00</totfact>
</mgrwt>
</event>
<event>
12    1  0.1489025E-007  0.1572159E+04  0.7818608E-02  0.8837837E-01
         -2   -1    0    0    0  501 -0.00000000000E+00  0.00000000000E+00  0.35509911566E+03  0.35509911566E+03  0.00000000000E+00 0.  1.
          2   -1    0    0  501    0  0.00000000000E+00 -0.00000000000E+00 -0.17401364595E+04  0.17401364595E+04  0.00000000000E+00 0. -1.
         23    2    1    2    0    0 -0.41412244122E+01  0.83925869034E+02  0.21855331032E+03  0.25260036739E+03  0.94766528469E+02 0.  0.
        254    2    1    2    0    0  0.41412244122E+01 -0.83925869034E+02 -0.16035906542E+04  0.18426352078E+04  0.90373714188E+03 0.  0.
        -24    2    4    4    0    0  0.17819077966E+03 -0.20756599240E+03 -0.71562093296E+02  0.29387703610E+03  0.80043638042E+02 0.  0.
         24    2    4    4    0    0 -0.17404955525E+03  0.12364012337E+03 -0.15320285609E+04  0.15487581717E+04  0.77202559999E+02 0.  0.
         13    1    3    3    0    0  0.33216100001E+02  0.80410285444E+02  0.13000737322E+03  0.15643222301E+03  0.00000000000E+00 0.  1.
        -13    1    3    3    0    0 -0.37357324413E+02  0.35155835895E+01  0.88545937105E+02  0.96168144378E+02  0.00000000000E+00 0. -1.
          4    1    6    6  502    0 -0.16809654981E+03  0.10167453202E+03 -0.14616081010E+04  0.14747516406E+04  0.00000000000E+00 0. -1.
          3    1    5    5  503    0  0.16605221657E+03 -0.16735350291E+03 -0.83669684931E+02  0.25016224683E+03  0.00000000000E+00 0. -1.
         -4    1    5    5    0  503  0.12138563084E+02 -0.40212489493E+02  0.12107591635E+02  0.43714789262E+02  0.00000000000E+00 0.  1.
         -3    1    6    6    0  502 -0.59530054356E+01  0.21965591354E+02 -0.70420459899E+02  0.74006531128E+02  0.00000000000E+00 0.  1.
<mgrwt>
<rscale>  0 0.15721589E+04</rscale>
<asrwt>0</asrwt>
<pdfrwt beam="1">  1        2 0.26771330E+00 0.15721589E+04</pdfrwt>
<pdfrwt beam="2">  1       -2 0.54630634E-01 0.15721589E+04</pdfrwt>
<totfact> 0.28221100E+01</totfact>
</mgrwt>
</event>
<event>
12    1  0.1489025E-007  0.1426955E+04  0.7818608E-02  0.8934535E-01
          1   -1    0    0  501    0  0.00000000000E+00  0.00000000000E+00  0.87190327207E+03  0.87190327207E+03  0.00000000000E+00 0. -1.
         -1   -1    0    0    0  501 -0.00000000000E+00 -0.00000000000E+00 -0.58383776527E+03  0.58383776527E+03  0.00000000000E+00 0.  1.
         23    2    1    2    0    0  0.95031713381E+02  0.39066168390E+03 -0.33753278450E+02  0.41437226769E+03  0.94432592965E+02 0.  0.
        254    2    1    2    0    0 -0.95031713381E+02 -0.39066168390E+03  0.32181878525E+03  0.10413687696E+04  0.90511546558E+03 0.  0.
        -24    2    4    4    0    0  0.52056591013E+02 -0.38602646271E+03 -0.23372240712E+03  0.46123673712E+03  0.79917742036E+02 0.  0.
         24    2    4    4    0    0 -0.14708830439E+03 -0.46352211825E+01  0.55554119237E+03  0.58013203253E+03  0.79187778011E+02 0.  0.
         13    1    3    3    0    0  0.88361422232E+02  0.37282415240E+03 -0.91522308854E+01  0.38326146804E+03  0.00000000000E+00 0. -1.
        -13    1    3    3    0    0  0.66702911487E+01  0.17837531494E+02 -0.24601047565E+02  0.31110799654E+02  0.00000000000E+00 0.  1.
          4    1    6    6  502    0 -0.90537066774E+02  0.16180057565E+02  0.44327149752E+03  0.45271224330E+03  0.00000000000E+00 0. -1.
          3    1    5    5  503    0 -0.66788868882E+01 -0.29515020133E+01  0.20717775712E+01  0.75902013481E+01  0.00000000000E+00 0. -1.
         -4    1    5    5    0  503  0.58735477901E+02 -0.38307496070E+03 -0.23579418469E+03  0.45364653577E+03  0.00000000000E+00 0.  1.
         -3    1    6    6    0  502 -0.56551237620E+02 -0.20815278747E+02  0.11226969485E+03  0.12741978923E+03  0.00000000000E+00 0.  1.
<mgrwt>
<rscale>  0 0.14269549E+04</rscale>
<asrwt>0</asrwt>
<pdfrwt beam="1">  1        1 0.13413897E+00 0.14269549E+04</pdfrwt>
<pdfrwt beam="2">  1       -1 0.89821195E-01 0.14269549E+04</pdfrwt>
<totfact> 0.22670878E+01</totfact>
</mgrwt>
</event>
<event>
12    1  0.1489025E-007  0.1274085E+04  0.7818608E-02  0.9050372E-01
         -1   -1    0    0    0  501 -0.00000000000E+00  0.00000000000E+00  0.97626535089E+03  0.97626535089E+03  0.00000000000E+00 0.  1.
          1   -1    0    0  501    0  0.00000000000E+00 -0.00000000000E+00 -0.41568918880E+03  0.41568918880E+03  0.00000000000E+00 0. -1.
         23    2    1    2    0    0  0.69443747686E+02  0.25538841152E+03  0.31052527730E+03  0.41806917588E+03  0.91160370508E+02 0.  0.
        254    2    1    2    0    0 -0.69443747686E+02 -0.25538841152E+03  0.25005088479E+03  0.97388536381E+03  0.90326163542E+03 0.  0.
        -24    2    4    4    0    0  0.17235699825E+03 -0.53210168754E+03  0.16479967588E+03  0.58851465842E+03  0.79695854779E+02 0.  0.
         24    2    4    4    0    0 -0.24180074593E+03  0.27671327602E+03  0.85251208915E+02  0.38537070539E+03  0.78771657932E+02 0.  0.
         11    1    3    3    0    0  0.16272276862E+02  0.32317056538E+02  0.57198192674E+01  0.36631891433E+02  0.00000000000E+00 0. -1.
        -11    1    3    3    0    0  0.53171470824E+02  0.22307135499E+03  0.30480545803E+03  0.38143728445E+03  0.00000000000E+00 0.  1.
          4    1    6    6  502    0 -0.25578020480E+02  0.77581450775E+02  0.13572468126E+02  0.82808988202E+02  0.00000000000E+00 0. -1.
          3    1    5    5  503    0  0.31528212827E+02 -0.16661542380E+03  0.81207001601E+02  0.18801410788E+03  0.00000000000E+00 0. -1.
         -4    1    5    5    0  503  0.14082878542E+03 -0.36548626375E+03  0.83592674278E+02  0.40050055054E+03  0.00000000000E+00 0.  1.
         -3    1    6    6    0  502 -0.21622272545E+03  0.19913182525E+03  0.71678740789E+02  0.30256171719E+03  0.00000000000E+00 0.  1.
<mgrwt>
<rscale>  0 0.12740847E+04</rscale>
<asrwt>0</asrwt>
<pdfrwt beam="1">  1        1 0.63952183E-01 0.12740847E+04</pdfrwt>
<pdfrwt beam="2">  1       -1 0.15019467E+00 0.12740847E+04</pdfrwt>
<totfact> 0.19505439E+01</totfact>
</mgrwt>
</event>
<event>
12    1  0.1489025E-007  0.2055133E+04  0.7818608E-02  0.8581269E-01
          2   -1    0    0  501    0  0.00000000000E+00  0.00000000000E+00  0.15526400719E+04  0.15526400719E+04  0.00000000000E+00 0. -1.
         -2   -1    0    0    0  501 -0.00000000000E+00 -0.00000000000E+00 -0.68006322855E+03  0.68006322855E+03  0.00000000000E+00 0.  1.
         23    2    1    2    0    0 -0.45173590909E+02  0.17380866274E+03 -0.52215397043E+03  0.55977967809E+03  0.91969639593E+02 0.  0.
        254    2    1    2    0    0  0.45173590909E+02 -0.17380866274E+03  0.13947308138E+04  0.16729236223E+04  0.90617288568E+03 0.  0.
        -24    2    4    4    0    0  0.10522462702E+02 -0.53499651403E+03  0.69580598706E+03  0.88138783406E+03  0.79790664541E+02 0.  0.
         24    2    4    4    0    0  0.34651128208E+02  0.36118785129E+03  0.69892482671E+03  0.79153578828E+03  0.79847518046E+02 0.  0.
         11    1    3    3    0    0  0.17504024843E+02  0.85766212200E+02 -0.30356148497E+03  0.31593007010E+03  0.00000000000E+00 0.  1.
        -11    1    3    3    0    0 -0.62677615753E+02  0.88042450543E+02 -0.21859248547E+03  0.24384960799E+03  0.00000000000E+00 0. -1.
          2    1    6    6  502    0 -0.15898229772E+02  0.42399237193E+02  0.54987064901E+02  0.71232200099E+02  0.00000000000E+00 0. -1.
          1    1    5    5  503    0  0.52526352811E+01 -0.54555192909E+02  0.11659479239E+03  0.12883402059E+03  0.00000000000E+00 0. -1.
         -2    1    5    5    0  503  0.52698274205E+01 -0.48044132112E+03  0.57921119468E+03  0.75255381346E+03  0.00000000000E+00 0.  1.
         -1    1    6    6    0  502  0.50549357980E+02  0.31878861409E+03  0.64393776181E+03  0.72030358818E+03  0.00000000000E+00 0.  1.
<mgrwt>
<rscale>  0 0.20551335E+04</rscale>
<asrwt>0</asrwt>
<pdfrwt beam="1">  1        2 0.23886770E+00 0.20551335E+04</pdfrwt>
<pdfrwt beam="2">  1       -2 0.10462511E+00 0.20551335E+04</pdfrwt>
<totfact> 0.81309266E+00</totfact>
</mgrwt>
</event>
<event>
12    1  0.1489025E-007  0.2901894E+04  0.7818608E-02  0.8272314E-01
          2   -1    0    0  501    0  0.00000000000E+00  0.00000000000E+00  0.72591694337E+03  0.72591694337E+03  0.00000000000E+00 0. -1.
         -2   -1    0    0    0  501 -0.00000000000E+00 -0.00000000000E+00 -0.29001220221E+04  0.29001220221E+04  0.00000000000E+00 0.  1.
         23    2    1    2    0    0 -0.10151573880E+04 -0.55385201184E+03 -0.22387491000E+03  0.11815341394E+04  0.92770543609E+02 0.  0.
        254    2    1    2    0    0  0.10151573880E+04  0.55385201184E+03 -0.19503301687E+04  0.24445048261E+04  0.91352039067E+03 0.  0.
        -24    2    4    4    0    0  0.20109772388E+03 -0.18921697474E+03 -0.79610837459E+03  0.84651314512E+03  0.80948148093E+02 0.  0.
         24    2    4    4    0    0  0.81405966414E+03  0.74306898657E+03 -0.11542217941E+04  0.15979916809E+04  0.80652382232E+02 0.  0.
         11    1    3    3    0    0 -0.97661751272E+03 -0.54862689067E+03 -0.22536903383E+03  0.11426129847E+04  0.00000000000E+00 0.  1.
        -11    1    3    3    0    0 -0.38539875302E+02 -0.52251211672E+01  0.14941238346E+01  0.38921154730E+02  0.00000000000E+00 0. -1.
          4    1    6    6  502    0  0.70743773941E+02  0.79993820696E+02 -0.83265083966E+02  0.13541331954E+03  0.00000000000E+00 0. -1.
          3    1    5    5  503    0  0.41334466277E+02 -0.37389602935E+02 -0.81861879858E+02  0.99034781183E+02  0.00000000000E+00 0. -1.
         -4    1    5    5    0  503  0.15976325761E+03 -0.15182737180E+03 -0.71424649473E+03  0.74747836393E+03  0.00000000000E+00 0.  1.
         -3    1    6    6    0  502  0.74331589020E+03  0.66307516588E+03 -0.10709567101E+04  0.14625783614E+04  0.00000000000E+00 0.  1.
<mgrwt>
<rscale>  0 0.29018944E+04</rscale>
<asrwt>0</asrwt>
<pdfrwt beam="1">  1        2 0.11167953E+00 0.29018944E+04</pdfrwt>
<pdfrwt beam="2">  1       -2 0.44617262E+00 0.29018944E+04</pdfrwt>
<totfact> 0.12401584E-01</totfact>
</mgrwt>
</event>
<event>
12    1  0.1489025E-007  0.2770185E+04  0.7818608E-02  0.8312585E-01
          2   -1    0    0  501    0  0.00000000000E+00  0.00000000000E+00  0.10190303422E+04  0.10190303422E+04  0.00000000000E+00 0.  1.
         -2   -1    0    0    0  501 -0.00000000000E+00 -0.00000000000E+00 -0.18826539440E+04  0.18826539440E+04  0.00000000000E+00 0. -1.
         23    2    1    2    0    0  0.11035493742E+04 -0.68058599302E+02  0.18825359777E+03  0.11251675369E+04  0.90052066498E+02 0.  0.
        254    2    1    2    0    0 -0.11035493742E+04  0.68058599302E+02 -0.10518771995E+04  0.17765167493E+04  0.90945748858E+03 0.  0.
        -24    2    4    4    0    0 -0.65183840450E+03  0.40804553240E+03 -0.89898590279E+03  0.11856355620E+04  0.78495671554E+02 0.  0.
         24    2    4    4    0    0 -0.45171096972E+03 -0.33998693310E+03 -0.15289129672E+03  0.59088118730E+03  0.78300153556E+02 0.  0.
         11    1    3    3    0    0  0.68353795742E+01 -0.85846980166E+01  0.14342018649E+01  0.11066905121E+02  0.00000000000E+00 0.  1.
        -11    1    3    3    0    0  0.10967139946E+04 -0.59473901286E+02  0.18681939590E+03  0.11141006318E+04  0.00000000000E+00 0. -1.
          4    1    6    6  502    0 -0.46672877076E+02 -0.66771662132E+02 -0.11592787824E+02  0.82287332244E+02  0.00000000000E+00 0. -1.
          1    1    5    5  503    0 -0.56967293905E+02  0.42817075131E+02 -0.52827570268E+02  0.88709225439E+02  0.00000000000E+00 0. -1.
         -2    1    5    5    0  503 -0.59487111060E+03  0.36522845727E+03 -0.84615833252E+03  0.10969263366E+04  0.00000000000E+00 0.  1.
         -3    1    6    6    0  502 -0.40503809264E+03 -0.27321527097E+03 -0.14129850890E+03  0.50859385505E+03  0.00000000000E+00 0.  1.
<mgrwt>
<rscale>  0 0.27701852E+04</rscale>
<asrwt>0</asrwt>
<pdfrwt beam="1">  1        2 0.15677390E+00 0.27701852E+04</pdfrwt>
<pdfrwt beam="2">  1       -2 0.28963906E+00 0.27701852E+04</pdfrwt>
<totfact> 0.78563339E-01</totfact>
</mgrwt>
</event>
<event>
12    1  0.1489025E-007  0.1568013E+04  0.7818608E-02  0.8840444E-01
         -2   -1    0    0    0  501 -0.00000000000E+00  0.00000000000E+00  0.33777850090E+03  0.33777850090E+03  0.00000000000E+00 0.  1.
          2   -1    0    0  501    0  0.00000000000E+00 -0.00000000000E+00 -0.18197304897E+04  0.18197304897E+04  0.00000000000E+00 0. -1.
         23    2    1    2    0    0 -0.15817343037E+03  0.39786647472E+03 -0.90758100040E+03  0.10075211819E+04  0.89883780199E+02 0.  0.
        254    2    1    2    0    0  0.15817343037E+03 -0.39786647472E+03 -0.57437098842E+03  0.11499878087E+04  0.89958510549E+03 0.  0.
        -24    2    4    4    0    0  0.27487203443E+03 -0.29779060744E+03 -0.77908789498E+03  0.88182452064E+03  0.80016597724E+02 0.  0.
         24    2    4    4    0    0 -0.11669860406E+03 -0.10007586728E+03  0.20471690656E+03  0.26816328805E+03  0.79804723052E+02 0.  0.
         11    1    3    3    0    0 -0.52159366536E+02  0.44564729488E+02 -0.14572513104E+03  0.16106653423E+03  0.00000000000E+00 0.  1.
        -11    1    3    3    0    0 -0.10601406384E+03  0.35330174524E+03 -0.76185586936E+03  0.84645464769E+03  0.00000000000E+00 0. -1.
          4    1    6    6  502    0 -0.48653044234E+02 -0.92792387529E+02  0.12476319210E+03  0.16292145347E+03  0.00000000000E+00 0. -1.
          1    1    5    5  503    0  0.39430543609E+02 -0.40514402619E+02 -0.17946718040E+03  0.18816124316E+03  0.00000000000E+00 0. -1.
         -2    1    5    5    0  503  0.23544149082E+03 -0.25727620482E+03 -0.59962071458E+03  0.69366327748E+03  0.00000000000E+00 0.  1.
         -1    1    6    6    0  502 -0.68045559828E+02 -0.72834797542E+01  0.79953714459E+02  0.10524183458E+03  0.00000000000E+00 0.  1.
<mgrwt>
<rscale>  0 0.15680125E+04</rscale>
<asrwt>0</asrwt>
<pdfrwt beam="1">  1        2 0.27995853E+00 0.15680125E+04</pdfrwt>
<pdfrwt beam="2">  1       -2 0.51965925E-01 0.15680125E+04</pdfrwt>
<totfact> 0.28278604E+01</totfact>
</mgrwt>
</event>
<event>
12    1  0.1489025E-007  0.3930209E+04  0.7818608E-02  0.8018776E-01
          2   -1    0    0  501    0  0.00000000000E+00  0.00000000000E+00  0.25207977791E+04  0.25207977791E+04  0.00000000000E+00 0. -1.
         -2   -1    0    0    0  501 -0.00000000000E+00 -0.00000000000E+00 -0.15319099310E+04  0.15319099310E+04  0.00000000000E+00 0.  1.
         23    2    1    2    0    0  0.41098791266E+03  0.13865084407E+04 -0.73757728644E+03  0.16258877597E+04  0.90410360014E+02 0.  0.
        254    2    1    2    0    0 -0.41098791266E+03 -0.13865084407E+04  0.17264651345E+04  0.24268199504E+04  0.90413300463E+03 0.  0.
        -24    2    4    4    0    0 -0.26855166865E+03 -0.54813419608E+03  0.13690447502E+04  0.15010590130E+04  0.79520668064E+02 0.  0.
         24    2    4    4    0    0 -0.14243624401E+03 -0.83837424466E+03  0.35742038434E+03  0.92576093741E+03  0.78259340435E+02 0.  0.
         11    1    3    3    0    0  0.15720158927E+03  0.68580664879E+03 -0.34757007843E+03  0.78475987322E+03  0.00000000000E+00 0. -1.
        -11    1    3    3    0    0  0.25378632339E+03  0.70070179195E+03 -0.39000720801E+03  0.84112788652E+03  0.00000000000E+00 0.  1.
          4    1    6    6  502    0 -0.44322071480E+02 -0.26196295126E+03  0.15157877935E+03  0.30588422679E+03  0.00000000000E+00 0. -1.
          1    1    5    5  503    0 -0.11549414288E+03 -0.23509787045E+03  0.49312287570E+03  0.55837270373E+03  0.00000000000E+00 0. -1.
         -2    1    5    5    0  503 -0.15305752577E+03 -0.31303632562E+03  0.87592187451E+03  0.94268630923E+03  0.00000000000E+00 0.  1.
         -3    1    6    6    0  502 -0.98114172532E+02 -0.57641129341E+03  0.20584160499E+03  0.61987671062E+03  0.00000000000E+00 0.  1.
<mgrwt>
<rscale>  0 0.39302087E+04</rscale>
<asrwt>0</asrwt>
<pdfrwt beam="1">  1        2 0.38781504E+00 0.39302087E+04</pdfrwt>
<pdfrwt beam="2">  1       -2 0.23567845E+00 0.39302087E+04</pdfrwt>
<totfact> 0.21163799E-01</totfact>
</mgrwt>
</event>
<event>
12    1  0.1489025E-007  0.1456241E+04  0.7818608E-02  0.8914085E-01
          2   -1    0    0  501    0  0.00000000000E+00  0.00000000000E+00  0.18162884096E+04  0.18162884096E+04  0.00000000000E+00 0. -1.
         -2   -1    0    0    0  501 -0.00000000000E+00 -0.00000000000E+00 -0.29189159831E+03  0.29189159831E+03  0.00000000000E+00 0.  1.
         23    2    1    2    0    0  0.76663958382E+02 -0.45274360002E+03  0.65124225176E+03  0.80529833129E+03  0.11633916805E+03 0.  0.
        254    2    1    2    0    0 -0.76663958382E+02  0.45274360002E+03  0.87315455955E+03  0.13028816767E+04  0.85102740768E+03 0.  0.
        -24    2    4    4    0    0  0.10782680240E+03  0.32819869297E+03  0.98017650298E+03  0.10423220387E+04  0.79675930378E+02 0.  0.
         24    2    4    4    0    0 -0.18449076078E+03  0.12454490705E+03 -0.10702194343E+03  0.26055963800E+03  0.83002131886E+02 0.  0.
         11    1    3    3    0    0 -0.30531578268E+02 -0.74878272890E+02  0.11595015248E+03  0.14136255120E+03  0.00000000000E+00 0. -1.
        -11    1    3    3    0    0  0.10719553665E+03 -0.37786532713E+03  0.53529209928E+03  0.66393578008E+03  0.00000000000E+00 0.  1.
          4    1    6    6  502    0 -0.12440336971E+01 -0.94062583057E+01 -0.97665035615E+01  0.13616530651E+02  0.00000000000E+00 0. -1.
          3    1    5    5  503    0  0.27691208943E+02  0.31546837497E+02  0.18813853469E+03  0.19276440087E+03  0.00000000000E+00 0. -1.
         -4    1    5    5    0  503  0.80135593453E+02  0.29665185547E+03  0.79203796829E+03  0.84955763778E+03  0.00000000000E+00 0.  1.
         -1    1    6    6    0  502 -0.18324672708E+03  0.13395116535E+03 -0.97255439865E+02  0.24694310735E+03  0.00000000000E+00 0.  1.
<mgrwt>
<rscale>  0 0.14562408E+04</rscale>
<asrwt>0</asrwt>
<pdfrwt beam="1">  1        2 0.27942898E+00 0.14562408E+04</pdfrwt>
<pdfrwt beam="2">  1       -2 0.44906401E-01 0.14562408E+04</pdfrwt>
<totfact> 0.38525179E+01</totfact>
</mgrwt>
</event>
<event>
12    1  0.1489025E-007  0.1052216E+04  0.7818608E-02  0.9253059E-01
         -2   -1    0    0    0  501 -0.00000000000E+00  0.00000000000E+00  0.15298401144E+03  0.15298401144E+03  0.00000000000E+00 0.  1.
          2   -1    0    0  501    0  0.00000000000E+00 -0.00000000000E+00 -0.18092725302E+04  0.18092725302E+04  0.00000000000E+00 0. -1.
         23    2    1    2    0    0  0.95283632915E+01  0.77012527593E+02 -0.37129822282E+03  0.39001911878E+03  0.90723886789E+02 0.  0.
        254    2    1    2    0    0 -0.95283632915E+01 -0.77012527593E+02 -0.12849902959E+04  0.15722374228E+04  0.90261217255E+03 0.  0.
        -24    2    4    4    0    0 -0.39091552084E+03 -0.14535141363E+03 -0.99403732598E+03  0.10810876306E+04  0.81843030380E+02 0.  0.
         24    2    4    4    0    0  0.38138715755E+03  0.68338886042E+02 -0.29095296995E+03  0.49114979228E+03  0.80300189583E+02 0.  0.
         13    1    3    3    0    0  0.34620849019E+02  0.36951355446E+02 -0.78396688156E+02  0.93327630260E+02  0.00000000000E+00 0.  1.
        -13    1    3    3    0    0 -0.25092485728E+02  0.40061172147E+02 -0.29290153466E+03  0.29669148852E+03  0.00000000000E+00 0. -1.
          4    1    6    6  502    0  0.38048370245E+03  0.75844916412E+02 -0.28332124381E+03  0.48040735462E+03  0.00000000000E+00 0. -1.
          3    1    5    5  503    0 -0.34281908915E+03 -0.10246502895E+03 -0.79323157257E+03  0.87019557444E+03  0.00000000000E+00 0. -1.
         -4    1    5    5    0  503 -0.48096431687E+02 -0.42886384684E+02 -0.20080575342E+03  0.21089205613E+03  0.00000000000E+00 0.  1.
         -1    1    6    6    0  502  0.90345509462E+00 -0.75060303705E+01 -0.76317261438E+01  0.10742437664E+02  0.00000000000E+00 0.  1.
<mgrwt>
<rscale>  0 0.10522163E+04</rscale>
<asrwt>0</asrwt>
<pdfrwt beam="1">  1        2 0.27834961E+00 0.10522163E+04</pdfrwt>
<pdfrwt beam="2">  1       -2 0.23536002E-01 0.10522163E+04</pdfrwt>
<totfact> 0.13595351E+02</totfact>
</mgrwt>
</event>
<event>
12    1  0.1489025E-007  0.1251625E+04  0.7818608E-02  0.9068832E-01
         -2   -1    0    0    0  501 -0.00000000000E+00  0.00000000000E+00  0.17388823094E+03  0.17388823094E+03  0.00000000000E+00 0.  1.
          2   -1    0    0  501    0  0.00000000000E+00 -0.00000000000E+00 -0.22522576447E+04  0.22522576447E+04  0.00000000000E+00 0. -1.
         23    2    1    2    0    0  0.23053465379E+03  0.14043705403E+03 -0.71384847631E+03  0.76853184522E+03  0.90513851153E+02 0.  0.
        254    2    1    2    0    0 -0.23053465379E+03 -0.14043705403E+03 -0.13645209374E+04  0.16576140304E+04  0.90160861373E+03 0.  0.
        -24    2    4    4    0    0 -0.46743743651E+03 -0.32244089949E+03 -0.58497092601E+03  0.81899840717E+03  0.78112201022E+02 0.  0.
         24    2    4    4    0    0  0.23690278273E+03  0.18200384546E+03 -0.77955001142E+03  0.83861562323E+03  0.79558877555E+02 0.  0.
         11    1    3    3    0    0  0.22678658332E+03  0.11265165325E+03 -0.59929962044E+03  0.65060170951E+03  0.00000000000E+00 0.  1.
        -11    1    3    3    0    0  0.37480704638E+01  0.27785400779E+02 -0.11454885587E+03  0.11793013571E+03  0.00000000000E+00 0. -1.
          2    1    6    6  502    0  0.21837547857E+03  0.15109383646E+03 -0.61027317101E+03  0.66554529546E+03  0.00000000000E+00 0. -1.
          1    1    5    5  503    0 -0.37791918861E+03 -0.23999292434E+03 -0.49655549128E+03  0.66857076871E+03  0.00000000000E+00 0. -1.
         -2    1    5    5    0  503 -0.89518247903E+02 -0.82447975148E+02 -0.88415434737E+02  0.15042763846E+03  0.00000000000E+00 0.  1.
         -1    1    6    6    0  502  0.18527304162E+02  0.30910009001E+02 -0.16927684040E+03  0.17307032777E+03  0.00000000000E+00 0.  1.
<mgrwt>
<rscale>  0 0.12516247E+04</rscale>
<asrwt>0</asrwt>
<pdfrwt beam="1">  1        2 0.34650116E+00 0.12516247E+04</pdfrwt>
<pdfrwt beam="2">  1       -2 0.26752037E-01 0.12516247E+04</pdfrwt>
<totfact> 0.60330168E+01</totfact>
</mgrwt>
</event>
<event>
12    1  0.1489025E-007  0.1841282E+04  0.7818608E-02  0.8684649E-01
         -1   -1    0    0    0  501 -0.00000000000E+00  0.00000000000E+00  0.36950191410E+04  0.36950191410E+04  0.00000000000E+00 0.  1.
          1   -1    0    0  501    0  0.00000000000E+00 -0.00000000000E+00 -0.22938445438E+03  0.22938445438E+03  0.00000000000E+00 0. -1.
         23    2    1    2    0    0 -0.14953535011E+03  0.39674013917E+03  0.25034572210E+04  0.25406413482E+04  0.88299738052E+02 0.  0.
        254    2    1    2    0    0  0.14953535011E+03 -0.39674013917E+03  0.96217746558E+03  0.13837622472E+04  0.89958263793E+03 0.  0.
        -24    2    4    4    0    0 -0.51830669949E+01  0.23540061303E+01  0.94402257209E+03  0.94785015317E+03  0.84905186625E+02 0.  0.
         24    2    4    4    0    0  0.15471841711E+03 -0.39909414530E+03  0.18154893491E+02  0.43591209400E+03  0.80472530329E+02 0.  0.
         11    1    3    3    0    0 -0.12255232166E+03  0.37306659268E+03  0.23758097126E+04  0.24080426792E+04  0.00000000000E+00 0.  1.
        -11    1    3    3    0    0 -0.26983028456E+02  0.23673546484E+02  0.12764750841E+03  0.13259866904E+03  0.00000000000E+00 0. -1.
          4    1    6    6  502    0  0.51736171117E+02 -0.55551547167E+02 -0.78958013822E+01  0.76321356604E+02  0.00000000000E+00 0. -1.
          1    1    5    5  503    0  0.22858991395E+02  0.26568785901E+02  0.21094543537E+03  0.21383734607E+03  0.00000000000E+00 0. -1.
         -2    1    5    5    0  503 -0.28042058390E+02 -0.24214779771E+02  0.73307713672E+03  0.73401280710E+03  0.00000000000E+00 0.  1.
         -1    1    6    6    0  502  0.10298224599E+03 -0.34354259813E+03  0.26050694873E+02  0.35959073740E+03  0.00000000000E+00 0.  1.
<mgrwt>
<rscale>  0 0.18412821E+04</rscale>
<asrwt>0</asrwt>
<pdfrwt beam="1">  1        1 0.35289919E-01 0.18412821E+04</pdfrwt>
<pdfrwt beam="2">  1       -1 0.56846444E+00 0.18412821E+04</pdfrwt>
<totfact> 0.69532350E-02</totfact>
</mgrwt>
</event>
<event>
12    1  0.1489025E-007  0.1188257E+04  0.7818608E-02  0.9123198E-01
         -2   -1    0    0    0  501 -0.00000000000E+00  0.00000000000E+00  0.96496199312E+03  0.96496199312E+03  0.00000000000E+00 0.  1.
          2   -1    0    0  501    0  0.00000000000E+00 -0.00000000000E+00 -0.36580560374E+03  0.36580560374E+03  0.00000000000E+00 0. -1.
         23    2    1    2    0    0  0.99116207600E+02  0.13860791079E+03 -0.49847684805E+02  0.19981994930E+03  0.91689939001E+02 0.  0.
        254    2    1    2    0    0 -0.99116207600E+02 -0.13860791079E+03  0.64900407418E+03  0.11309476476E+04  0.91038459876E+03 0.  0.
        -24    2    4    4    0    0  0.12212148254E+03  0.29888858284E+01  0.80259646640E+03  0.81575678099E+03  0.79846402011E+02 0.  0.
         24    2    4    4    0    0 -0.22123769014E+03 -0.14159679662E+03 -0.15359239222E+03  0.31519086657E+03  0.82212475168E+02 0.  0.
         13    1    3    3    0    0  0.91229921506E+01 -0.10809606816E+02  0.77519244244E+01  0.16129752558E+02  0.00000000000E+00 0.  1.
        -13    1    3    3    0    0  0.89993215450E+02  0.14941751761E+03 -0.57599609230E+02  0.18369019674E+03  0.00000000000E+00 0. -1.
          4    1    6    6  502    0 -0.10742622446E+03 -0.99112074230E+02 -0.12009970910E+03  0.18917594214E+03  0.00000000000E+00 0. -1.
          1    1    5    5  503    0  0.18402540360E+02 -0.24320559166E+01  0.38469270250E+03  0.38514029099E+03  0.00000000000E+00 0. -1.
         -2    1    5    5    0  503  0.10371894218E+03  0.54209417450E+01  0.41790376390E+03  0.43061649000E+03  0.00000000000E+00 0.  1.
         -3    1    6    6    0  502 -0.11381146568E+03 -0.42484722391E+02 -0.33492683114E+02  0.12601492443E+03  0.00000000000E+00 0.  1.
<mgrwt>
<rscale>  0 0.11882567E+04</rscale>
<asrwt>0</asrwt>
<pdfrwt beam="1">  1        2 0.56277786E-01 0.11882567E+04</pdfrwt>
<pdfrwt beam="2">  1       -2 0.14845569E+00 0.11882567E+04</pdfrwt>
<totfact> 0.26713850E+01</totfact>
</mgrwt>
</event>
<event>
12    1  0.1489025E-007  0.1526289E+04  0.7818608E-02  0.8867157E-01
          2   -1    0    0  501    0  0.00000000000E+00  0.00000000000E+00  0.54541105327E+03  0.54541105327E+03  0.00000000000E+00 0.  1.
         -2   -1    0    0    0  501 -0.00000000000E+00 -0.00000000000E+00 -0.10677994713E+04  0.10677994713E+04  0.00000000000E+00 0. -1.
         23    2    1    2    0    0  0.68702607352E+02 -0.88428941743E+02  0.36480403374E+03  0.39328105909E+03  0.95122460049E+02 0.  0.
        254    2    1    2    0    0 -0.68702607352E+02  0.88428941743E+02 -0.88719245180E+03  0.12199294655E+04  0.82980583770E+03 0.  0.
        -24    2    4    4    0    0 -0.11737285669E+03 -0.22821071376E+02 -0.10165028947E+04  0.10262824634E+04  0.75368236206E+02 0.  0.
         24    2    4    4    0    0  0.48670249335E+02  0.11125001312E+03  0.12931044287E+03  0.19364700211E+03  0.77669892502E+02 0.  0.
         11    1    3    3    0    0  0.81826509202E+02 -0.46550993666E+02  0.30434827346E+03  0.31857564907E+03  0.00000000000E+00 0.  1.
        -11    1    3    3    0    0 -0.13123901850E+02 -0.41877948077E+02  0.60455760285E+02  0.74705410022E+02  0.00000000000E+00 0. -1.
          2    1    6    6  502    0 -0.14489287822E+02  0.38539364005E+02  0.14186134119E+02  0.43548460831E+02  0.00000000000E+00 0. -1.
          3    1    5    5  503    0  0.10618260977E+02  0.15998606421E+01 -0.61308563058E+02  0.62241842232E+02  0.00000000000E+00 0. -1.
         -4    1    5    5    0  503 -0.12799111766E+03 -0.24420932018E+02 -0.95519433161E+03  0.96404062116E+03  0.00000000000E+00 0.  1.
         -1    1    6    6    0  502  0.63159537157E+02  0.72710649114E+02  0.11512430875E+03  0.15009854128E+03  0.00000000000E+00 0.  1.
<mgrwt>
<rscale>  0 0.15262891E+04</rscale>
<asrwt>0</asrwt>
<pdfrwt beam="1">  1        2 0.83909394E-01 0.15262891E+04</pdfrwt>
<pdfrwt beam="2">  1       -2 0.16427684E+00 0.15262891E+04</pdfrwt>
<totfact> 0.12552089E+01</totfact>
</mgrwt>
</event>
<event>
12    1  0.1489025E-007  0.1340738E+04  0.7818608E-02  0.8997869E-01
          2   -1    0    0  501    0  0.00000000000E+00  0.00000000000E+00  0.39898025688E+03  0.39898025688E+03  0.00000000000E+00 0. -1.
         -2   -1    0    0    0  501 -0.00000000000E+00 -0.00000000000E+00 -0.11263579933E+04  0.11263579933E+04  0.00000000000E+00 0.  1.
         23    2    1    2    0    0 -0.68614387774E+02  0.98090071688E+02 -0.58978728370E+03  0.60912522939E+03  0.94100524441E+02 0.  0.
        254    2    1    2    0    0  0.68614387774E+02 -0.98090071688E+02 -0.13759045272E+03  0.91621302078E+03  0.89787837172E+03 0.  0.
        -24    2    4    4    0    0  0.10594065974E+03  0.10101992781E+03  0.34595130259E+03  0.38566017630E+03  0.87309899866E+02 0.  0.
         24    2    4    4    0    0 -0.37326271968E+02 -0.19910999950E+03 -0.48354175531E+03  0.53055284449E+03  0.81459494137E+02 0.  0.
         11    1    3    3    0    0 -0.88630797944E+01  0.89502746153E+02 -0.39920409208E+03  0.40921046283E+03  0.00000000000E+00 0.  1.
        -11    1    3    3    0    0 -0.59751307980E+02  0.85873255344E+01 -0.19058319161E+03  0.19991476657E+03  0.00000000000E+00 0. -1.
          4    1    6    6  502    0  0.17771028625E+02 -0.93203118359E+02 -0.26586521793E+03  0.28228876144E+03  0.00000000000E+00 0. -1.
          1    1    5    5  503    0  0.31045885909E+02  0.35564503022E+02  0.22082959008E+03  0.22581937199E+03  0.00000000000E+00 0. -1.
         -2    1    5    5    0  503  0.74894773834E+02  0.65455424792E+02  0.12512171251E+03  0.15984080431E+03  0.00000000000E+00 0.  1.
         -3    1    6    6    0  502 -0.55097300593E+02 -0.10590688114E+03 -0.21767653738E+03  0.24826408305E+03  0.00000000000E+00 0.  1.
<mgrwt>
<rscale>  0 0.13407380E+04</rscale>
<asrwt>0</asrwt>
<pdfrwt beam="1">  1        2 0.61381578E-01 0.13407380E+04</pdfrwt>
<pdfrwt beam="2">  1       -2 0.17328585E+00 0.13407380E+04</pdfrwt>
<totfact> 0.15727858E+01</totfact>
</mgrwt>
</event>
<event>
12    1  0.1489025E-007  0.1113923E+04  0.7818608E-02  0.9191727E-01
         -2   -1    0    0    0  501 -0.00000000000E+00  0.00000000000E+00  0.16468433441E+03  0.16468433441E+03  0.00000000000E+00 0.  1.
          2   -1    0    0  501    0  0.00000000000E+00 -0.00000000000E+00 -0.18836408852E+04  0.18836408852E+04  0.00000000000E+00 0. -1.
         23    2    1    2    0    0  0.38209796323E+02 -0.13247824906E+03 -0.10905223292E+03  0.19859061968E+03  0.92387064634E+02 0.  0.
        254    2    1    2    0    0 -0.38209796323E+02  0.13247824906E+03 -0.16099043178E+04  0.18497345999E+04  0.90039752467E+03 0.  0.
        -24    2    4    4    0    0 -0.31890785499E+03  0.27628979256E+02 -0.16162109622E+03  0.36847423063E+03  0.84772043860E+02 0.  0.
         24    2    4    4    0    0  0.28069805867E+03  0.10484926981E+03 -0.14482832216E+04  0.14812603693E+04  0.82602796634E+02 0.  0.
         13    1    3    3    0    0 -0.21970493311E+02 -0.36699943912E+01 -0.62220938200E+01  0.23127600106E+02  0.00000000000E+00 0. -1.
        -13    1    3    3    0    0  0.60180289634E+02 -0.12880825467E+03 -0.10283013910E+03  0.17546301958E+03  0.00000000000E+00 0.  1.
          4    1    6    6  502    0  0.19748195408E+03  0.10996791796E+03 -0.11175979060E+04  0.11402267953E+04  0.00000000000E+00 0. -1.
          3    1    5    5  503    0 -0.22816079959E+03 -0.17518501405E+02 -0.12468434988E+03  0.26059630747E+03  0.00000000000E+00 0. -1.
         -4    1    5    5    0  503 -0.90747055406E+02  0.45147480661E+02 -0.36936746337E+02  0.10787792316E+03  0.00000000000E+00 0.  1.
         -1    1    6    6    0  502  0.83216104592E+02 -0.51186481562E+01 -0.33068531564E+03  0.34103357401E+03  0.00000000000E+00 0.  1.
<mgrwt>
<rscale>  0 0.11139231E+04</rscale>
<asrwt>0</asrwt>
<pdfrwt beam="1">  1        2 0.28979093E+00 0.11139231E+04</pdfrwt>
<pdfrwt beam="2">  1       -2 0.25336049E-01 0.11139231E+04</pdfrwt>
<totfact> 0.10782325E+02</totfact>
</mgrwt>
</event>
<event>
12    1  0.1489025E-007  0.4065886E+04  0.7818608E-02  0.7991386E-01
         -2   -1    0    0    0  501 -0.00000000000E+00  0.00000000000E+00  0.13848713557E+04  0.13848713557E+04  0.00000000000E+00 0.  1.
          2   -1    0    0  501    0  0.00000000000E+00 -0.00000000000E+00 -0.29842891612E+04  0.29842891612E+04  0.00000000000E+00 0. -1.
         23    2    1    2    0    0 -0.35226955101E+03 -0.12891743998E+04 -0.22350860426E+04  0.26059189533E+04  0.95600751452E+02 0.  0.
        254    2    1    2    0    0  0.35226955101E+03  0.12891743998E+04  0.63566823704E+03  0.17632415636E+04  0.95858345194E+03 0.  0.
        -24    2    4    4    0    0  0.51161427852E+03  0.77567819908E+03  0.71261148476E+01  0.93270286517E+03  0.80361773633E+02 0.  0.
         24    2    4    4    0    0 -0.15934472751E+03  0.51349620072E+03  0.62854212220E+03  0.83053869843E+03  0.75234565712E+02 0.  0.
         13    1    3    3    0    0 -0.14470561023E+03 -0.67280500416E+03 -0.12060057879E+04  0.13885446509E+04  0.00000000000E+00 0.  1.
        -13    1    3    3    0    0 -0.20756394079E+03 -0.61636939564E+03 -0.10290802547E+04  0.12173743024E+04  0.00000000000E+00 0. -1.
          2    1    6    6  502    0 -0.15651648142E+03  0.51392083739E+03  0.61457101992E+03  0.81627787829E+03  0.00000000000E+00 0. -1.
          1    1    5    5  503    0  0.42295892558E+03  0.61056255842E+03 -0.21802384581E+02  0.74307215965E+03  0.00000000000E+00 0. -1.
         -2    1    5    5    0  503  0.88655352943E+02  0.16511564066E+03  0.28928499429E+02  0.18963070552E+03  0.00000000000E+00 0.  1.
         -1    1    6    6    0  502 -0.28282460883E+01 -0.42463667127E+00  0.13971102280E+02  0.14260820143E+02  0.00000000000E+00 0.  1.
<mgrwt>
<rscale>  0 0.40658857E+04</rscale>
<asrwt>0</asrwt>
<pdfrwt beam="1">  1        2 0.45912140E+00 0.40658857E+04</pdfrwt>
<pdfrwt beam="2">  1       -2 0.21305714E+00 0.40658857E+04</pdfrwt>
<totfact> 0.15287038E-01</totfact>
</mgrwt>
</event>
<event>
12    1  0.1712914E-007  0.2587468E+04  0.7818608E-02  0.8372470E-01
          1   -1    0    0  501    0  0.00000000000E+00  0.00000000000E+00  0.24028327544E+04  0.24028327544E+04  0.00000000000E+00 0. -1.
         -1   -1    0    0    0  501 -0.00000000000E+00 -0.00000000000E+00 -0.69657282319E+03  0.69657282319E+03  0.00000000000E+00 0.  1.
         23    2    1    2    0    0  0.24413992435E+03  0.26338350018E+03  0.20443548575E+04  0.20776800444E+04  0.91610111187E+02 0.  0.
        254    2    1    2    0    0 -0.24413992435E+03 -0.26338350018E+03 -0.33809492634E+03  0.10217255332E+04  0.89478473117E+03 0.  0.
        -24    2    4    4    0    0 -0.25261775289E+03 -0.68006669456E+02  0.26682161392E+03  0.38179062557E+03  0.78292221533E+02 0.  0.
         24    2    4    4    0    0  0.84778285442E+01 -0.19537683072E+03 -0.60491654026E+03  0.63993490762E+03  0.73134709649E+02 0.  0.
         13    1    3    3    0    0  0.22968493506E+03  0.26039917779E+03  0.20163080296E+04  0.20459865521E+04  0.00000000000E+00 0. -1.
        -13    1    3    3    0    0  0.14454989282E+02  0.29843223917E+01  0.28046827953E+02  0.31693492290E+02  0.00000000000E+00 0.  1.
          2    1    6    6  502    0  0.41769272619E+01 -0.20038009020E+03 -0.56542151509E+03  0.59989258788E+03  0.00000000000E+00 0. -1.
          1    1    5    5  503    0 -0.21982760915E+03 -0.34202598090E+02  0.24137082122E+03  0.32825884420E+03  0.00000000000E+00 0. -1.
         -2    1    5    5    0  503 -0.32790143739E+02 -0.33804071366E+02  0.25450792702E+02  0.53531781369E+02  0.00000000000E+00 0.  1.
         -1    1    6    6    0  502  0.43009012824E+01  0.50032594727E+01 -0.39495025173E+02  0.40042319745E+02  0.00000000000E+00 0.  1.
<mgrwt>
<rscale>  0 0.25874683E+04</rscale>
<asrwt>0</asrwt>
<pdfrwt beam="1">  1        1 0.36966657E+00 0.25874683E+04</pdfrwt>
<pdfrwt beam="2">  1       -1 0.10716505E+00 0.25874683E+04</pdfrwt>
<totfact> 0.11314010E+00</totfact>
</mgrwt>
</event>
<event>
12    1  0.1489025E-007  0.1484603E+04  0.7818608E-02  0.8894757E-01
         -3   -1    0    0    0  501 -0.00000000000E+00  0.00000000000E+00  0.38162444729E+03  0.38162444729E+03  0.00000000000E+00 0.  1.
          3   -1    0    0  501    0  0.00000000000E+00 -0.00000000000E+00 -0.14438582338E+04  0.14438582338E+04  0.00000000000E+00 0. -1.
         23    2    1    2    0    0 -0.19450018907E+03 -0.32200452922E+03 -0.11152684906E+03  0.40337929085E+03  0.93591526534E+02 0.  0.
        254    2    1    2    0    0  0.19450018907E+03  0.32200452922E+03 -0.95070693748E+03  0.14221033903E+04  0.98844176929E+03 0.  0.
        -24    2    4    4    0    0  0.57300592378E+03  0.25169310318E+03 -0.75153940031E+03  0.98140469360E+03  0.81599605032E+02 0.  0.
         24    2    4    4    0    0 -0.37850573471E+03  0.70311426039E+02 -0.19916753718E+03  0.44069869667E+03  0.79607446566E+02 0.  0.
         11    1    3    3    0    0 -0.18354869777E+03 -0.32302295825E+03 -0.11895401949E+03  0.39010769637E+03  0.00000000000E+00 0.  1.
        -11    1    3    3    0    0 -0.10951491302E+02  0.10184290378E+01  0.74271704306E+01  0.13271594481E+02  0.00000000000E+00 0. -1.
          4    1    6    6  502    0 -0.18097939820E+03 -0.20699965611E+01 -0.11296626787E+03  0.21335230286E+03  0.00000000000E+00 0. -1.
          3    1    5    5  503    0  0.13882060211E+03  0.99885588718E+02 -0.19383362921E+03  0.25849519573E+03  0.00000000000E+00 0. -1.
         -2    1    5    5    0  503  0.43418532166E+03  0.15180751446E+03 -0.55770577110E+03  0.72290949787E+03  0.00000000000E+00 0.  1.
         -3    1    6    6    0  502 -0.19752633650E+03  0.72381422601E+02 -0.86201269307E+02  0.22734639381E+03  0.00000000000E+00 0.  1.
<mgrwt>
<rscale>  0 0.14846031E+04</rscale>
<asrwt>0</asrwt>
<pdfrwt beam="1">  1        3 0.22213203E+00 0.14846031E+04</pdfrwt>
<pdfrwt beam="2">  1       -3 0.58711454E-01 0.14846031E+04</pdfrwt>
<totfact> 0.77637411E-01</totfact>
</mgrwt>
</event>
<event>
12    1  0.1489025E-007  0.1478638E+04  0.7818608E-02  0.8898784E-01
         -1   -1    0    0    0  501 -0.00000000000E+00  0.00000000000E+00  0.36765943588E+03  0.36765943588E+03  0.00000000000E+00 0.  1.
          1   -1    0    0  501    0  0.00000000000E+00 -0.00000000000E+00 -0.14866825265E+04  0.14866825265E+04  0.00000000000E+00 0. -1.
         23    2    1    2    0    0  0.39008772304E+03  0.33756097111E+02 -0.57130021099E+02  0.40629794130E+03  0.92229453191E+02 0.  0.
        254    2    1    2    0    0 -0.39008772304E+03 -0.33756097111E+02 -0.10618930695E+04  0.14480440211E+04  0.90327553389E+03 0.  0.
        -24    2    4    4    0    0 -0.60379607699E+03  0.28195915853E+02 -0.36120809461E+03  0.70850220989E+03  0.78354205665E+02 0.  0.
         24    2    4    4    0    0  0.21370835395E+03 -0.61952012964E+02 -0.70068497488E+03  0.73954181117E+03  0.80332708059E+02 0.  0.
         11    1    3    3    0    0  0.35502899910E+03  0.33557556476E+02 -0.22973232180E+02  0.35735062501E+03  0.00000000000E+00 0. -1.
        -11    1    3    3    0    0  0.35058723937E+02  0.19854063527E+00 -0.34156788920E+02  0.48947316288E+02  0.00000000000E+00 0.  1.
          4    1    6    6  502    0  0.73950774941E+02  0.26065941848E+01 -0.14316575127E+03  0.16115813285E+03  0.00000000000E+00 0. -1.
          1    1    5    5  503    0 -0.11601051376E+03  0.15525600174E+02 -0.10567369522E+03  0.15769087934E+03  0.00000000000E+00 0. -1.
         -2    1    5    5    0  503 -0.48778556323E+03  0.12670315680E+02 -0.25553439939E+03  0.55081133055E+03  0.00000000000E+00 0.  1.
         -3    1    6    6    0  502  0.13975757901E+03 -0.64558607149E+02 -0.55751922361E+03  0.57838367831E+03  0.00000000000E+00 0.  1.
<mgrwt>
<rscale>  0 0.14786384E+04</rscale>
<asrwt>0</asrwt>
<pdfrwt beam="1">  1        1 0.22872039E+00 0.14786384E+04</pdfrwt>
<pdfrwt beam="2">  1       -1 0.56562991E-01 0.14786384E+04</pdfrwt>
<totfact> 0.20483522E+01</totfact>
</mgrwt>
</event>
<event>
12    1  0.1489025E-007  0.1834193E+04  0.7818608E-02  0.8688325E-01
          1   -1    0    0  501    0  0.00000000000E+00  0.00000000000E+00  0.20801362387E+04  0.20801362387E+04  0.00000000000E+00 0. -1.
         -1   -1    0    0    0  501 -0.00000000000E+00 -0.00000000000E+00 -0.40433201699E+03  0.40433201699E+03  0.00000000000E+00 0.  1.
         23    2    1    2    0    0  0.18623148851E+03  0.71368291363E+01 -0.26252627254E+03  0.33496269565E+03  0.92449240473E+02 0.  0.
        254    2    1    2    0    0 -0.18623148851E+03 -0.71368291363E+01  0.19383304942E+04  0.21495055600E+04  0.91022851307E+03 0.  0.
        -24    2    4    4    0    0  0.55622298807E+02  0.18227808300E+03  0.22679677251E+02  0.20778298147E+03  0.79625749357E+02 0.  0.
         24    2    4    4    0    0 -0.24185378732E+03 -0.18941491214E+03  0.19156508170E+04  0.19417225785E+04  0.78722652675E+02 0.  0.
         11    1    3    3    0    0  0.16688662185E+03  0.25703438163E+02 -0.25712356264E+03  0.30761069187E+03  0.00000000000E+00 0.  1.
        -11    1    3    3    0    0  0.19344866664E+02 -0.18566609026E+02 -0.54027098962E+01  0.27352003788E+02  0.00000000000E+00 0. -1.
          2    1    6    6  502    0 -0.21904575260E+03 -0.15154944840E+03  0.14747426009E+04  0.14986040224E+04  0.00000000000E+00 0. -1.
          3    1    5    5  503    0  0.73631416738E+02  0.16020151998E+03  0.28782109458E+02  0.17864636118E+03  0.00000000000E+00 0. -1.
         -4    1    5    5    0  503 -0.18009117931E+02  0.22076563016E+02 -0.61024322068E+01  0.29136620293E+02  0.00000000000E+00 0.  1.
         -1    1    6    6    0  502 -0.22808034722E+02 -0.37865463735E+02  0.44090821605E+03  0.44311855611E+03  0.00000000000E+00 0.  1.
<mgrwt>
<rscale>  0 0.18341927E+04</rscale>
<asrwt>0</asrwt>
<pdfrwt beam="1">  1        1 0.32002095E+00 0.18341927E+04</pdfrwt>
<pdfrwt beam="2">  1       -1 0.62204927E-01 0.18341927E+04</pdfrwt>
<totfact> 0.64846049E+00</totfact>
</mgrwt>
</event>
<event>
12    1  0.1489025E-007  0.2221764E+04  0.7818608E-02  0.8509424E-01
         -2   -1    0    0    0  501 -0.00000000000E+00  0.00000000000E+00  0.15179942637E+04  0.15179942637E+04  0.00000000000E+00 0.  1.
          2   -1    0    0  501    0  0.00000000000E+00 -0.00000000000E+00 -0.81295326083E+03  0.81295326083E+03  0.00000000000E+00 0. -1.
         23    2    1    2    0    0 -0.23843268076E+03  0.70402211063E+03 -0.28310389159E+03  0.80109800198E+03  0.95461614464E+02 0.  0.
        254    2    1    2    0    0  0.23843268076E+03 -0.70402211063E+03  0.98814489448E+03  0.15298495226E+04  0.90083958266E+03 0.  0.
        -24    2    4    4    0    0  0.27406624298E+03 -0.75333239603E+03  0.11106036556E+04  0.13716903567E+04  0.73972632623E+02 0.  0.
         24    2    4    4    0    0 -0.35633562219E+02  0.49310285398E+02 -0.12245876116E+03  0.15815916583E+03  0.79479044710E+02 0.  0.
         11    1    3    3    0    0 -0.12425908611E+03  0.44251606404E+03 -0.21658156789E+03  0.50810270907E+03  0.00000000000E+00 0. -1.
        -11    1    3    3    0    0 -0.11417359464E+03  0.26150604659E+03 -0.66522323698E+02  0.29299529291E+03  0.00000000000E+00 0.  1.
          2    1    6    6  502    0  0.15429532679E+02  0.28788455673E+02 -0.12085247166E+02  0.34826697486E+02  0.00000000000E+00 0. -1.
          1    1    5    5  503    0  0.14641654821E+03 -0.29819420578E+03  0.44573220290E+03  0.55590897335E+03  0.00000000000E+00 0. -1.
         -2    1    5    5    0  503  0.12764969477E+03 -0.45513819025E+03  0.66487145275E+03  0.81578138338E+03  0.00000000000E+00 0.  1.
         -1    1    6    6    0  502 -0.51063094898E+02  0.20521829725E+02 -0.11037351400E+03  0.12333246834E+03  0.00000000000E+00 0.  1.
<mgrwt>
<rscale>  0 0.22217636E+04</rscale>
<asrwt>0</asrwt>
<pdfrwt beam="1">  1        2 0.12506973E+00 0.22217636E+04</pdfrwt>
<pdfrwt beam="2">  1       -2 0.23353758E+00 0.22217636E+04</pdfrwt>
<totfact> 0.24986916E+00</totfact>
</mgrwt>
</event>
<event>
12    1  0.1489025E-007  0.9849753E+03  0.7818608E-02  0.9325179E-01
          1   -1    0    0  501    0  0.00000000000E+00  0.00000000000E+00  0.19466716330E+04  0.19466716330E+04  0.00000000000E+00 0. -1.
         -1   -1    0    0    0  501 -0.00000000000E+00 -0.00000000000E+00 -0.12459425047E+03  0.12459425047E+03  0.00000000000E+00 0.  1.
         23    2    1    2    0    0 -0.44782861598E+02  0.27803779805E+02  0.27711969323E+03  0.29682539592E+03  0.92365775188E+02 0.  0.
        254    2    1    2    0    0  0.44782861598E+02 -0.27803779805E+02  0.15449576893E+04  0.17744404876E+04  0.87118667762E+03 0.  0.
        -24    2    4    4    0    0  0.30588803760E+03  0.27857654564E+03  0.10557549032E+04  0.11366390033E+04  0.78469260072E+02 0.  0.
         24    2    4    4    0    0 -0.26110517600E+03 -0.30638032544E+03  0.48920278610E+03  0.63780148428E+03  0.73665125229E+02 0.  0.
         13    1    3    3    0    0 -0.50371446654E+02  0.54718745994E+02  0.23534961575E+03  0.24682152547E+03  0.00000000000E+00 0. -1.
        -13    1    3    3    0    0  0.55885850555E+01 -0.26914966189E+02  0.41770077474E+02  0.50003870451E+02  0.00000000000E+00 0.  1.
          2    1    6    6  502    0 -0.14338741334E+03 -0.11679955349E+03  0.19814790430E+03  0.27104368279E+03  0.00000000000E+00 0. -1.
          1    1    5    5  503    0  0.16843623290E+03  0.10670380325E+03  0.55209163386E+03  0.58699372941E+03  0.00000000000E+00 0. -1.
         -2    1    5    5    0  503  0.13745180470E+03  0.17187274239E+03  0.50366326937E+03  0.54964527389E+03  0.00000000000E+00 0.  1.
         -3    1    6    6    0  502 -0.11771776266E+03 -0.18958077195E+03  0.29105488180E+03  0.36675780150E+03  0.00000000000E+00 0.  1.
<mgrwt>
<rscale>  0 0.98497532E+03</rscale>
<asrwt>0</asrwt>
<pdfrwt beam="1">  1        1 0.29948792E+00 0.98497532E+03</pdfrwt>
<pdfrwt beam="2">  1       -1 0.19168348E-01 0.98497532E+03</pdfrwt>
<totfact> 0.71698012E+01</totfact>
</mgrwt>
</event>
<event>
12    1  0.1489025E-007  0.1565309E+04  0.7818608E-02  0.8842148E-01
         -1   -1    0    0    0  501 -0.00000000000E+00  0.00000000000E+00  0.10569610675E+04  0.10569610675E+04  0.00000000000E+00 0.  1.
          1   -1    0    0  501    0  0.00000000000E+00 -0.00000000000E+00 -0.57953737611E+03  0.57953737611E+03  0.00000000000E+00 0. -1.
         23    2    1    2    0    0 -0.12123017606E+03  0.46727080444E+03  0.29211467284E+03  0.57197949589E+03  0.93759273485E+02 0.  0.
        254    2    1    2    0    0  0.12123017606E+03 -0.46727080444E+03  0.18530901859E+03  0.10645189478E+04  0.93049578048E+03 0.  0.
        -24    2    4    4    0    0  0.59864059846E+02  0.22196337334E+03  0.26975552192E+03  0.36281462363E+03  0.77556203793E+02 0.  0.
         24    2    4    4    0    0  0.61366116210E+02 -0.68923417778E+03 -0.84446503327E+02  0.70170432413E+03  0.80300650880E+02 0.  0.
         11    1    3    3    0    0 -0.54699149280E+02  0.24528577017E+03  0.20531296358E+03  0.32451582241E+03  0.00000000000E+00 0. -1.
        -11    1    3    3    0    0 -0.66531026777E+02  0.22198503426E+03  0.86801709260E+02  0.24746367348E+03  0.00000000000E+00 0.  1.
          4    1    6    6  502    0  0.64772662980E+02 -0.55365087640E+03 -0.95818487266E+02  0.56560231021E+03  0.00000000000E+00 0. -1.
          1    1    5    5  503    0  0.78361664550E+02  0.19077640164E+03  0.23341341417E+03  0.31147713850E+03  0.00000000000E+00 0. -1.
         -4    1    5    5    0  503 -0.18497604704E+02  0.31186971700E+02  0.36342107748E+02  0.51337485127E+02  0.00000000000E+00 0.  1.
         -3    1    6    6    0  502 -0.34065467698E+01 -0.13558330138E+03  0.11371983939E+02  0.13610201392E+03  0.00000000000E+00 0.  1.
<mgrwt>
<rscale>  0 0.15653095E+04</rscale>
<asrwt>0</asrwt>
<pdfrwt beam="1">  1        1 0.89159596E-01 0.15653095E+04</pdfrwt>
<pdfrwt beam="2">  1       -1 0.16260940E+00 0.15653095E+04</pdfrwt>
<totfact> 0.96753737E+00</totfact>
</mgrwt>
</event>
<event>
12    1  0.1489025E-007  0.3581528E+04  0.7818608E-02  0.8094736E-01
         -1   -1    0    0    0  501 -0.00000000000E+00  0.00000000000E+00  0.19081672408E+04  0.19081672408E+04  0.00000000000E+00 0.  1.
          1   -1    0    0  501    0  0.00000000000E+00 -0.00000000000E+00 -0.16805840351E+04  0.16805840351E+04  0.00000000000E+00 0. -1.
         23    2    1    2    0    0  0.12036562533E+04  0.11118086382E+04  0.46551090046E+03  0.17057927645E+04  0.90120657556E+02 0.  0.
        254    2    1    2    0    0 -0.12036562533E+04 -0.11118086382E+04 -0.23792769479E+03  0.18829585114E+04  0.89666958450E+03 0.  0.
        -24    2    4    4    0    0 -0.10746846581E+04 -0.12086718191E+04 -0.36663082144E+03  0.16603690075E+04  0.81070346300E+02 0.  0.
         24    2    4    4    0    0 -0.12897159513E+03  0.96863180925E+02  0.12870312665E+03  0.22258950392E+03  0.83459237210E+02 0.  0.
         11    1    3    3    0    0  0.45502633832E+03  0.39874912741E+03  0.21411629013E+03  0.64179094795E+03  0.00000000000E+00 0. -1.
        -11    1    3    3    0    0  0.74862991495E+03  0.71305951078E+03  0.25139461033E+03  0.10640018165E+04  0.00000000000E+00 0.  1.
          2    1    6    6  502    0 -0.12054580416E+02 -0.13114497542E+02  0.16730642847E+01  0.17891397344E+02  0.00000000000E+00 0. -1.
          1    1    5    5  503    0 -0.27858355415E+03 -0.36557364301E+03 -0.11576850278E+03  0.47397809163E+03  0.00000000000E+00 0. -1.
         -2    1    5    5    0  503 -0.79610110399E+03 -0.84309817611E+03 -0.25086231866E+03  0.11863909159E+04  0.00000000000E+00 0.  1.
         -1    1    6    6    0  502 -0.11691701471E+03  0.10997767847E+03  0.12703006237E+03  0.20469810657E+03  0.00000000000E+00 0.  1.
<mgrwt>
<rscale>  0 0.35815278E+04</rscale>
<asrwt>0</asrwt>
<pdfrwt beam="1">  1        1 0.25855139E+00 0.35815278E+04</pdfrwt>
<pdfrwt beam="2">  1       -1 0.29356419E+00 0.35815278E+04</pdfrwt>
<totfact> 0.14474059E-01</totfact>
</mgrwt>
</event>
<event>
12    1  0.1489025E-007  0.1284346E+04  0.7818608E-02  0.9042072E-01
         -2   -1    0    0    0  501 -0.00000000000E+00  0.00000000000E+00  0.17548281824E+03  0.17548281824E+03  0.00000000000E+00 0.  1.
          2   -1    0    0  501    0  0.00000000000E+00 -0.00000000000E+00 -0.23500078133E+04  0.23500078133E+04  0.00000000000E+00 0. -1.
         23    2    1    2    0    0  0.33773103238E+03 -0.10016387703E+03 -0.66162162709E+03  0.75342509804E+03  0.76230888907E+02 0.  0.
        254    2    1    2    0    0 -0.33773103238E+03  0.10016387703E+03 -0.15129033679E+04  0.17720655335E+04  0.85278637518E+03 0.  0.
        -24    2    4    4    0    0 -0.48851866833E+03 -0.13353117562E+03 -0.49095499392E+03  0.70989417712E+03  0.80198955568E+02 0.  0.
         24    2    4    4    0    0  0.15078763594E+03  0.23369505266E+03 -0.10219483740E+04  0.10621713563E+04  0.80493616640E+02 0.  0.
         13    1    3    3    0    0  0.12560519943E+03 -0.18954011430E+02 -0.30766440152E+03  0.33285628225E+03  0.00000000000E+00 0.  1.
        -13    1    3    3    0    0  0.21212583295E+03 -0.81209865604E+02 -0.35395722558E+03  0.42056881579E+03  0.00000000000E+00 0. -1.
          4    1    6    6  502    0  0.15966138097E+02  0.68845496097E+02 -0.35787710157E+03  0.36478848628E+03  0.00000000000E+00 0. -1.
          1    1    5    5  503    0 -0.47239199067E+03 -0.11148124926E+03 -0.46221439957E+03  0.67024205550E+03  0.00000000000E+00 0. -1.
         -2    1    5    5    0  503 -0.16126677656E+02 -0.22049926366E+02 -0.28740594351E+02  0.39652121615E+02  0.00000000000E+00 0.  1.
         -3    1    6    6    0  502  0.13482149785E+03  0.16484955656E+03 -0.66407127244E+03  0.69738287007E+03  0.00000000000E+00 0.  1.
<mgrwt>
<rscale>  0 0.12843457E+04</rscale>
<asrwt>0</asrwt>
<pdfrwt beam="1">  1        2 0.36153966E+00 0.12843457E+04</pdfrwt>
<pdfrwt beam="2">  1       -2 0.26997357E-01 0.12843457E+04</pdfrwt>
<totfact> 0.52123470E+01</totfact>
</mgrwt>
</event>
<event>
12    1  0.1489025E-007  0.1721461E+04  0.7818608E-02  0.8749218E-01
          2   -1    0    0  501    0  0.00000000000E+00  0.00000000000E+00  0.11721377926E+04  0.11721377926E+04  0.00000000000E+00 0.  1.
         -2   -1    0    0    0  501 -0.00000000000E+00 -0.00000000000E+00 -0.63205603171E+03  0.63205603171E+03  0.00000000000E+00 0. -1.
         23    2    1    2    0    0  0.18663500952E+03  0.69331523938E+02  0.80423633252E+03  0.83267539288E+03  0.83142915323E+02 0.  0.
        254    2    1    2    0    0 -0.18663500952E+03 -0.69331523938E+02 -0.26415457158E+03  0.97151843147E+03  0.91347191419E+03 0.  0.
        -24    2    4    4    0    0 -0.88816204005E+02 -0.26316092809E+03 -0.53951348392E+03  0.61205830964E+03  0.79991142681E+02 0.  0.
         24    2    4    4    0    0 -0.97818805514E+02  0.19382940415E+03  0.27535891233E+03  0.35946012183E+03  0.79061317732E+02 0.  0.
         11    1    3    3    0    0  0.17380103974E+03  0.84964315468E+02  0.75621629305E+03  0.78056954731E+03  0.00000000000E+00 0.  1.
        -11    1    3    3    0    0  0.12833969782E+02 -0.15632791529E+02  0.48020039469E+02  0.52105845564E+02  0.00000000000E+00 0. -1.
          2    1    6    6  502    0 -0.52085460713E+02  0.34752147054E+02  0.10266335225E+03  0.12025128206E+03  0.00000000000E+00 0. -1.
          3    1    5    5  503    0  0.12680832353E+02 -0.25048310259E+02 -0.33699796212E+02  0.43862257360E+02  0.00000000000E+00 0. -1.
         -4    1    5    5    0  503 -0.10149703636E+03 -0.23811261783E+03 -0.50581368770E+03  0.56819605228E+03  0.00000000000E+00 0.  1.
         -1    1    6    6    0  502 -0.45733344801E+02  0.15907725709E+03  0.17269556008E+03  0.23920883977E+03  0.00000000000E+00 0.  1.
<mgrwt>
<rscale>  0 0.17214607E+04</rscale>
<asrwt>0</asrwt>
<pdfrwt beam="1">  1        2 0.18032889E+00 0.17214607E+04</pdfrwt>
<pdfrwt beam="2">  1       -2 0.97239390E-01 0.17214607E+04</pdfrwt>
<totfact> 0.16504633E+01</totfact>
</mgrwt>
</event>
<event>
12    1  0.1489025E-007  0.1258626E+04  0.7818608E-02  0.9063035E-01
         -1   -1    0    0    0  501 -0.00000000000E+00  0.00000000000E+00  0.24332185817E+03  0.24332185817E+03  0.00000000000E+00 0.  1.
          1   -1    0    0  501    0  0.00000000000E+00 -0.00000000000E+00 -0.16276162264E+04  0.16276162264E+04  0.00000000000E+00 0. -1.
         23    2    1    2    0    0 -0.10663338284E+02  0.22967244612E+03 -0.67375674595E+03  0.71779368412E+03  0.91741380779E+02 0.  0.
        254    2    1    2    0    0  0.10663338284E+02 -0.22967244612E+03 -0.71053762227E+03  0.11531444004E+04  0.87864393034E+03 0.  0.
        -24    2    4    4    0    0  0.23279547491E+03  0.24695020387E+03 -0.42370931998E+03  0.54862748067E+03  0.79274134363E+02 0.  0.
         24    2    4    4    0    0 -0.22213213662E+03 -0.47662264999E+03 -0.28682830229E+03  0.60451691978E+03  0.81598987086E+02 0.  0.
         11    1    3    3    0    0  0.28927385479E+02  0.26322541825E+02 -0.13598619462E+03  0.14149881613E+03  0.00000000000E+00 0.  1.
        -11    1    3    3    0    0 -0.39590723762E+02  0.20334990430E+03 -0.53777055133E+03  0.57629486799E+03  0.00000000000E+00 0. -1.
          4    1    6    6  502    0 -0.22273665878E+03 -0.44813234741E+03 -0.28514532237E+03  0.57597055031E+03  0.00000000000E+00 0. -1.
          1    1    5    5  503    0  0.12900438485E+03  0.85157233304E+02 -0.16205735618E+03  0.22395640733E+03  0.00000000000E+00 0. -1.
         -2    1    5    5    0  503  0.10379109006E+03  0.16179297057E+03 -0.26165196380E+03  0.32467107334E+03  0.00000000000E+00 0.  1.
         -3    1    6    6    0  502  0.60452215068E+00 -0.28490302583E+02 -0.16829799256E+01  0.28546369467E+02  0.00000000000E+00 0.  1.
<mgrwt>
<rscale>  0 0.12586256E+04</rscale>
<asrwt>0</asrwt>
<pdfrwt beam="1">  1        1 0.25040250E+00 0.12586256E+04</pdfrwt>
<pdfrwt beam="2">  1       -1 0.37434132E-01 0.12586256E+04</pdfrwt>
<totfact> 0.36185977E+01</totfact>
</mgrwt>
</event>
<event>
12    1  0.1489025E-007  0.2467485E+04  0.7818608E-02  0.8414662E-01
         -2   -1    0    0    0  501 -0.00000000000E+00  0.00000000000E+00  0.44032985824E+03  0.44032985824E+03  0.00000000000E+00 0.  1.
          2   -1    0    0  501    0  0.00000000000E+00 -0.00000000000E+00 -0.34567725252E+04  0.34567725252E+04  0.00000000000E+00 0. -1.
         23    2    1    2    0    0 -0.49290724652E+03  0.58857493499E+03 -0.24779981460E+04  0.25959113870E+04  0.94356292626E+02 0.  0.
        254    2    1    2    0    0  0.49290724652E+03 -0.58857493499E+03 -0.53844452096E+03  0.13011909964E+04  0.90210725482E+03 0.  0.
        -24    2    4    4    0    0  0.45762427747E+02  0.15529660763E+03 -0.37274950577E+03  0.41411966311E+03  0.79634572788E+02 0.  0.
         24    2    4    4    0    0  0.44714481877E+03 -0.74387154262E+03 -0.16569501518E+03  0.88707133329E+03  0.78468792612E+02 0.  0.
         11    1    3    3    0    0 -0.44107761207E+03  0.55823664451E+03 -0.22298856768E+04  0.23406340471E+04  0.00000000000E+00 0. -1.
        -11    1    3    3    0    0 -0.51829634445E+02  0.30338290481E+02 -0.24811246920E+03  0.25527733986E+03  0.00000000000E+00 0.  1.
          2    1    6    6  502    0  0.44493889941E+03 -0.73663449235E+03 -0.17153868547E+03  0.87751154986E+03  0.00000000000E+00 0. -1.
          1    1    5    5  503    0 -0.21270153920E+02  0.59307705579E+02 -0.11850740303E+03  0.13421560253E+03  0.00000000000E+00 0. -1.
         -2    1    5    5    0  503  0.67032581667E+02  0.95988902056E+02 -0.25424210275E+03  0.27990406058E+03  0.00000000000E+00 0.  1.
         -1    1    6    6    0  502  0.22059193633E+01 -0.72370502707E+01  0.58436702830E+01  0.95597834303E+01  0.00000000000E+00 0.  1.
<mgrwt>
<rscale>  0 0.24674847E+04</rscale>
<asrwt>0</asrwt>
<pdfrwt beam="1">  1        2 0.53181117E+00 0.24674847E+04</pdfrwt>
<pdfrwt beam="2">  1       -2 0.67743053E-01 0.24674847E+04</pdfrwt>
<totfact> 0.15578827E+00</totfact>
</mgrwt>
</event>
<event>
12    1  0.1489025E-007  0.1343170E+04  0.7818608E-02  0.8996015E-01
         -2   -1    0    0    0  501 -0.00000000000E+00  0.00000000000E+00  0.19019935304E+03  0.19019935304E+03  0.00000000000E+00 0. -1.
          2   -1    0    0  501    0  0.00000000000E+00 -0.00000000000E+00 -0.23713342046E+04  0.23713342046E+04  0.00000000000E+00 0.  1.
         23    2    1    2    0    0  0.18406025805E+02  0.34475149086E+03 -0.61721382141E+03  0.71288680000E+03  0.89790400595E+02 0.  0.
        254    2    1    2    0    0 -0.18406025805E+02 -0.34475149086E+03 -0.15639210301E+04  0.18486467576E+04  0.92328406990E+03 0.  0.
        -24    2    4    4    0    0  0.18207595667E+03 -0.60973429673E+03 -0.95826819618E+03  0.11530347095E+04  0.79268776506E+02 0.  0.
         24    2    4    4    0    0 -0.20048198248E+03  0.26498280587E+03 -0.60565283392E+03  0.69561204808E+03  0.81558895868E+02 0.  0.
         11    1    3    3    0    0  0.37783979151E+02  0.30745587197E+03 -0.57605169957E+03  0.65405833293E+03  0.00000000000E+00 0. -1.
        -11    1    3    3    0    0 -0.19377953345E+02  0.37295618889E+02 -0.41162121839E+02  0.58828467076E+02  0.00000000000E+00 0.  1.
          4    1    6    6  502    0 -0.52668182105E+02  0.44461545400E+02 -0.19299673391E+03  0.20493536963E+03  0.00000000000E+00 0. -1.
          3    1    5    5  503    0  0.12710774050E+03 -0.36933481191E+03 -0.52293432751E+03  0.65270582338E+03  0.00000000000E+00 0. -1.
         -4    1    5    5    0  503  0.54968216165E+02 -0.24039948482E+03 -0.43533386867E+03  0.50032888613E+03  0.00000000000E+00 0.  1.
         -3    1    6    6    0  502 -0.14781380037E+03  0.22052126047E+03 -0.41265610001E+03  0.49067667844E+03  0.00000000000E+00 0.  1.
<mgrwt>
<rscale>  0 0.13431697E+04</rscale>
<asrwt>0</asrwt>
<pdfrwt beam="1">  1        2 0.36482067E+00 0.13431697E+04</pdfrwt>
<pdfrwt beam="2">  1       -2 0.29261437E-01 0.13431697E+04</pdfrwt>
<totfact> 0.43476995E+01</totfact>
</mgrwt>
</event>
<event>
12    1  0.1489025E-007  0.1538201E+04  0.7818608E-02  0.8859440E-01
          1   -1    0    0  501    0  0.00000000000E+00  0.00000000000E+00  0.41390455300E+03  0.41390455300E+03  0.00000000000E+00 0. -1.
         -1   -1    0    0    0  501 -0.00000000000E+00 -0.00000000000E+00 -0.14291102138E+04  0.14291102138E+04  0.00000000000E+00 0.  1.
         23    2    1    2    0    0  0.11568192751E+03 -0.28102416738E+03  0.14237434946E+03  0.34772247381E+03  0.91014133007E+02 0.  0.
        254    2    1    2    0    0 -0.11568192751E+03  0.28102416738E+03 -0.11575800102E+04  0.14952922930E+04  0.89640987850E+03 0.  0.
        -24    2    4    4    0    0  0.36294150601E+03  0.15195654269E+03 -0.74250355704E+03  0.84403929093E+03  0.79205206716E+02 0.  0.
         24    2    4    4    0    0 -0.47862343352E+03  0.12906762470E+03 -0.41507645320E+03  0.65125300203E+03  0.78122773823E+02 0.  0.
         13    1    3    3    0    0  0.95153350896E+02 -0.26396892621E+03  0.10046905117E+03  0.29803990410E+03  0.00000000000E+00 0. -1.
        -13    1    3    3    0    0  0.20528576609E+02 -0.17055241174E+02  0.41905298289E+02  0.49682569718E+02  0.00000000000E+00 0.  1.
          2    1    6    6  502    0 -0.88037519719E+02  0.56314276765E+02 -0.83724060685E+02  0.13390900262E+03  0.00000000000E+00 0. -1.
          1    1    5    5  503    0  0.13890640341E+03  0.64655991719E+02 -0.37242274073E+03  0.40270843545E+03  0.00000000000E+00 0. -1.
         -2    1    5    5    0  503  0.22403510260E+03  0.87300550969E+02 -0.37008081632E+03  0.44133085549E+03  0.00000000000E+00 0.  1.
         -1    1    6    6    0  502 -0.39058591380E+03  0.72753347931E+02 -0.33135239252E+03  0.51734399940E+03  0.00000000000E+00 0.  1.
<mgrwt>
<rscale>  0 0.15382005E+04</rscale>
<asrwt>0</asrwt>
<pdfrwt beam="1">  1        1 0.63677624E-01 0.15382005E+04</pdfrwt>
<pdfrwt beam="2">  1       -1 0.21986311E+00 0.15382005E+04</pdfrwt>
<totfact> 0.60955120E+00</totfact>
</mgrwt>
</event>
<event>
12    1  0.1489025E-007  0.1990546E+04  0.7818608E-02  0.8611054E-01
         -1   -1    0    0    0  501 -0.00000000000E+00  0.00000000000E+00  0.12111878538E+04  0.12111878538E+04  0.00000000000E+00 0.  1.
          1   -1    0    0  501    0  0.00000000000E+00 -0.00000000000E+00 -0.81784853997E+03  0.81784853997E+03  0.00000000000E+00 0. -1.
         23    2    1    2    0    0 -0.38773305392E+03  0.66916177721E+03 -0.26605006018E+02  0.77908625315E+03  0.90294841019E+02 0.  0.
        254    2    1    2    0    0  0.38773305392E+03 -0.66916177721E+03  0.41994431982E+03  0.12499501406E+04  0.88764166027E+03 0.  0.
        -24    2    4    4    0    0 -0.24218093798E+03 -0.25642599464E+03 -0.40350995164E+02  0.36379701764E+03  0.79461750439E+02 0.  0.
         24    2    4    4    0    0  0.62991399190E+03 -0.41273578257E+03  0.46029531498E+03  0.88615312296E+03  0.79076652271E+02 0.  0.
         13    1    3    3    0    0 -0.19101114538E+03  0.25800699235E+03 -0.37220863812E+02  0.32316908649E+03  0.00000000000E+00 0.  1.
        -13    1    3    3    0    0 -0.19672190854E+03  0.41115478487E+03  0.10615857794E+02  0.45591716666E+03  0.00000000000E+00 0. -1.
          4    1    6    6  502    0  0.11075383077E+03 -0.76945298269E+02  0.11936105130E+03  0.18009455995E+03  0.00000000000E+00 0. -1.
          3    1    5    5  503    0 -0.33602125233E+02 -0.83616211797E+02 -0.18955795267E+02  0.92087436004E+02  0.00000000000E+00 0. -1.
         -2    1    5    5    0  503 -0.20857881274E+03 -0.17280978284E+03 -0.21395199897E+02  0.27170958163E+03  0.00000000000E+00 0.  1.
         -3    1    6    6    0  502  0.51916016113E+03 -0.33579048430E+03  0.34093426369E+03  0.70605856301E+03  0.00000000000E+00 0.  1.
<mgrwt>
<rscale>  0 0.19905459E+04</rscale>
<asrwt>0</asrwt>
<pdfrwt beam="1">  1        1 0.12582285E+00 0.19905459E+04</pdfrwt>
<pdfrwt beam="2">  1       -1 0.18633659E+00 0.19905459E+04</pdfrwt>
<totfact> 0.37142145E+00</totfact>
</mgrwt>
</event>
<event>
12    1  0.1489025E-007  0.1185170E+04  0.7818608E-02  0.9125937E-01
         -2   -1    0    0    0  501 -0.00000000000E+00  0.00000000000E+00  0.46326983017E+03  0.46326983017E+03  0.00000000000E+00 0.  1.
          2   -1    0    0  501    0  0.00000000000E+00 -0.00000000000E+00 -0.75799712193E+03  0.75799712193E+03  0.00000000000E+00 0. -1.
         23    2    1    2    0    0 -0.13542725006E+03 -0.51930681898E+02 -0.25555072004E+03  0.30750090413E+03  0.90627257187E+02 0.  0.
        254    2    1    2    0    0  0.13542725006E+03  0.51930681898E+02 -0.39176571717E+02  0.91376604797E+03  0.90133026736E+03 0.  0.
        -24    2    4    4    0    0  0.22771735045E+03  0.44010511576E+03  0.16786791403E+02  0.50168548676E+03  0.76542972557E+02 0.  0.
         24    2    4    4    0    0 -0.92290100390E+02 -0.38817443387E+03 -0.55963363121E+02  0.41208056120E+03  0.86496457572E+02 0.  0.
         11    1    3    3    0    0 -0.14475519848E+03 -0.48062842413E+02 -0.20259983033E+03  0.25359573252E+03  0.00000000000E+00 0. -1.
        -11    1    3    3    0    0  0.93279484169E+01 -0.38678394855E+01 -0.52950889718E+02  0.53905171607E+02  0.00000000000E+00 0.  1.
          4    1    6    6  502    0 -0.17403665464E+02 -0.76214503859E+01  0.45512715829E+01  0.19536840855E+02  0.00000000000E+00 0. -1.
          3    1    5    5  503    0  0.44608903546E+02  0.12958444175E+03 -0.23159164584E+02  0.13899075050E+03  0.00000000000E+00 0. -1.
         -4    1    5    5    0  503  0.18310844690E+03  0.31052067401E+03  0.39945955987E+02  0.36269473627E+03  0.00000000000E+00 0.  1.
         -3    1    6    6    0  502 -0.74886434925E+02 -0.38055298348E+03 -0.60514634703E+02  0.39254372035E+03  0.00000000000E+00 0.  1.
<mgrwt>
<rscale>  0 0.11851704E+04</rscale>
<asrwt>0</asrwt>
<pdfrwt beam="1">  1        2 0.11661494E+00 0.11851704E+04</pdfrwt>
<pdfrwt beam="2">  1       -2 0.71272282E-01 0.11851704E+04</pdfrwt>
<totfact> 0.65310927E+01</totfact>
</mgrwt>
</event>
<event>
12    1  0.1489025E-007  0.1869402E+04  0.7818608E-02  0.8670239E-01
          1   -1    0    0  501    0  0.00000000000E+00  0.00000000000E+00  0.71573015621E+03  0.71573015621E+03  0.00000000000E+00 0. -1.
         -1   -1    0    0    0  501 -0.00000000000E+00 -0.00000000000E+00 -0.12206635861E+04  0.12206635861E+04  0.00000000000E+00 0.  1.
         23    2    1    2    0    0  0.57690162769E+03  0.15662442311E+03 -0.59365965383E+03  0.84741253765E+03  0.91266239283E+02 0.  0.
        254    2    1    2    0    0 -0.57690162769E+03 -0.15662442311E+03  0.88726223907E+02  0.10889812047E+04  0.90590342942E+03 0.  0.
        -24    2    4    4    0    0 -0.37856500212E+03  0.34657325603E+03  0.14470047787E+03  0.53943702536E+03  0.81422315155E+02 0.  0.
         24    2    4    4    0    0 -0.19833662557E+03 -0.50319767913E+03 -0.55974253966E+02  0.54954417934E+03  0.79500733402E+02 0.  0.
         11    1    3    3    0    0  0.33170646290E+03  0.44367607123E+02 -0.31376906383E+03  0.45874686648E+03  0.00000000000E+00 0. -1.
        -11    1    3    3    0    0  0.24519516479E+03  0.11225681598E+03 -0.27989059000E+03  0.38866567117E+03  0.00000000000E+00 0.  1.
          4    1    6    6  502    0 -0.17147982890E+03 -0.36892932750E+03 -0.66410523924E+02  0.41221904140E+03  0.00000000000E+00 0. -1.
          3    1    5    5  503    0 -0.23720968704E+03  0.22623196009E+03  0.13195345242E+03  0.35335682956E+03  0.00000000000E+00 0. -1.
         -4    1    5    5    0  503 -0.14135531508E+03  0.12034129593E+03  0.12747025452E+02  0.18608019580E+03  0.00000000000E+00 0.  1.
         -3    1    6    6    0  502 -0.26856796663E+02 -0.13426835164E+03  0.10436269959E+02  0.13732513793E+03  0.00000000000E+00 0.  1.
<mgrwt>
<rscale>  0 0.18694018E+04</rscale>
<asrwt>0</asrwt>
<pdfrwt beam="1">  1        1 0.11011233E+00 0.18694018E+04</pdfrwt>
<pdfrwt beam="2">  1       -1 0.18779439E+00 0.18694018E+04</pdfrwt>
<totfact> 0.45232769E+00</totfact>
</mgrwt>
</event>
<event>
12    1  0.1489025E-007  0.1874473E+04  0.7818608E-02  0.8667668E-01
          2   -1    0    0  501    0  0.00000000000E+00  0.00000000000E+00  0.82851471760E+03  0.82851471760E+03  0.00000000000E+00 0. -1.
         -2   -1    0    0    0  501 -0.00000000000E+00 -0.00000000000E+00 -0.10602255632E+04  0.10602255632E+04  0.00000000000E+00 0.  1.
         23    2    1    2    0    0 -0.48142193438E+03 -0.50421903597E+03 -0.25491813226E+03  0.74781033883E+03  0.90736616478E+02 0.  0.
        254    2    1    2    0    0  0.48142193438E+03  0.50421903597E+03  0.23207286695E+02  0.11409299419E+04  0.90287243790E+03 0.  0.
        -24    2    4    4    0    0  0.37435164219E+03  0.64426103954E+02  0.39175848323E+03  0.55173279090E+03  0.81513731882E+02 0.  0.
         24    2    4    4    0    0  0.10707029219E+03  0.43979293202E+03 -0.36855119654E+03  0.58919715104E+03  0.80258506125E+02 0.  0.
         13    1    3    3    0    0 -0.32206632673E+03 -0.35965913988E+03 -0.13414193700E+03  0.50107432081E+03  0.00000000000E+00 0.  1.
        -13    1    3    3    0    0 -0.15935560765E+03 -0.14455989609E+03 -0.12077619527E+03  0.24673601802E+03  0.00000000000E+00 0. -1.
          2    1    6    6  502    0  0.89992256307E+02  0.25466387001E+03 -0.25435829795E+03  0.37101271759E+03  0.00000000000E+00 0. -1.
          3    1    5    5  503    0  0.15129082160E+03  0.60582981985E+02  0.19624585829E+03  0.25509144890E+03  0.00000000000E+00 0. -1.
         -4    1    5    5    0  503  0.22306082060E+03  0.38431219692E+01  0.19551262494E+03  0.29664134200E+03  0.00000000000E+00 0.  1.
         -1    1    6    6    0  502  0.17078035882E+02  0.18512906201E+03 -0.11419289859E+03  0.21818443345E+03  0.00000000000E+00 0.  1.
<mgrwt>
<rscale>  0 0.18744732E+04</rscale>
<asrwt>0</asrwt>
<pdfrwt beam="1">  1        2 0.12746380E+00 0.18744732E+04</pdfrwt>
<pdfrwt beam="2">  1       -2 0.16311163E+00 0.18744732E+04</pdfrwt>
<totfact> 0.73669878E+00</totfact>
</mgrwt>
</event>
<event>
12    1  0.1489025E-007  0.2781651E+04  0.7818608E-02  0.8308988E-01
         -2   -1    0    0    0  501 -0.00000000000E+00  0.00000000000E+00  0.55137688447E+03  0.55137688447E+03  0.00000000000E+00 0.  1.
          2   -1    0    0  501    0  0.00000000000E+00 -0.00000000000E+00 -0.35083007809E+04  0.35083007809E+04  0.00000000000E+00 0. -1.
         23    2    1    2    0    0 -0.52865014835E+03  0.33524857986E+02 -0.29666219782E+04  0.30149374795E+04  0.91690502246E+02 0.  0.
        254    2    1    2    0    0  0.52865014835E+03 -0.33524857986E+02  0.96980817555E+01  0.10447401859E+04  0.90044050763E+03 0.  0.
        -24    2    4    4    0    0  0.33116693515E+03  0.33983003725E+03 -0.25066780213E+03  0.54229768698E+03  0.78079710116E+02 0.  0.
         24    2    4    4    0    0  0.19748321320E+03 -0.37335489523E+03  0.26036588389E+03  0.50244249891E+03  0.79149061449E+02 0.  0.
         13    1    3    3    0    0 -0.40120407784E+03 -0.89770334800E+00 -0.23860841334E+04  0.24195790976E+04  0.00000000000E+00 0. -1.
        -13    1    3    3    0    0 -0.12744607051E+03  0.34422561334E+02 -0.58053784478E+03  0.59535838185E+03  0.00000000000E+00 0.  1.
          4    1    6    6  502    0  0.25186277164E+02 -0.96853743592E+01  0.11853989208E+02  0.29473243697E+02  0.00000000000E+00 0. -1.
          1    1    5    5  503    0  0.21562775790E+03  0.20727818758E+03 -0.19816405512E+03  0.35878763881E+03  0.00000000000E+00 0. -1.
         -2    1    5    5    0  503  0.11553917724E+03  0.13255184967E+03 -0.52503747013E+02  0.18351004817E+03  0.00000000000E+00 0.  1.
         -3    1    6    6    0  502  0.17229693604E+03 -0.36366952087E+03  0.24851189468E+03  0.47296925521E+03  0.00000000000E+00 0.  1.
<mgrwt>
<rscale>  0 0.27816513E+04</rscale>
<asrwt>0</asrwt>
<pdfrwt beam="1">  1        2 0.53973860E+00 0.27816513E+04</pdfrwt>
<pdfrwt beam="2">  1       -2 0.84827210E-01 0.27816513E+04</pdfrwt>
<totfact> 0.84612487E-01</totfact>
</mgrwt>
</event>
<event>
12    1  0.1489025E-007  0.1984264E+04  0.7818608E-02  0.8614013E-01
         -2   -1    0    0    0  501 -0.00000000000E+00  0.00000000000E+00  0.12682720523E+04  0.12682720523E+04  0.00000000000E+00 0.  1.
          2   -1    0    0  501    0  0.00000000000E+00 -0.00000000000E+00 -0.77611606914E+03  0.77611606914E+03  0.00000000000E+00 0. -1.
         23    2    1    2    0    0  0.13773042863E+02  0.61689733563E+02  0.10040618118E+04  0.10101679056E+04  0.91124945276E+02 0.  0.
        254    2    1    2    0    0 -0.13773042863E+02 -0.61689733563E+02 -0.51190582859E+03  0.10342202159E+04  0.89641985568E+03 0.  0.
        -24    2    4    4    0    0 -0.41937535749E+03  0.11919701312E+03 -0.20240616686E+03  0.48680181725E+03  0.76968399267E+02 0.  0.
         24    2    4    4    0    0  0.40560231463E+03 -0.18088674669E+03 -0.30949966173E+03  0.54741839863E+03  0.81508341852E+02 0.  0.
         13    1    3    3    0    0  0.36848660005E+02  0.11621436416E+02  0.17221025843E+03  0.17649151435E+03  0.00000000000E+00 0. -1.
        -13    1    3    3    0    0 -0.23075617142E+02  0.50068297146E+02  0.83185155332E+03  0.83367639120E+03  0.00000000000E+00 0.  1.
          2    1    6    6  502    0  0.35358712302E+03 -0.12716322531E+03 -0.24416942764E+03  0.44812168976E+03  0.00000000000E+00 0. -1.
          3    1    5    5  503    0 -0.28059831131E+03  0.46910803402E+02 -0.15110715163E+03  0.32213259236E+03  0.00000000000E+00 0. -1.
         -4    1    5    5    0  503 -0.13877704619E+03  0.72286209721E+02 -0.51299015232E+02  0.16466922489E+03  0.00000000000E+00 0.  1.
         -1    1    6    6    0  502  0.52015191607E+02 -0.53723521374E+02 -0.65330234093E+02  0.99296708875E+02  0.00000000000E+00 0.  1.
<mgrwt>
<rscale>  0 0.19842644E+04</rscale>
<asrwt>0</asrwt>
<pdfrwt beam="1">  1        2 0.11940247E+00 0.19842644E+04</pdfrwt>
<pdfrwt beam="2">  1       -2 0.19511878E+00 0.19842644E+04</pdfrwt>
<totfact> 0.47758861E+00</totfact>
</mgrwt>
</event>
<event>
12    1  0.1489025E-007  0.2912792E+04  0.7818608E-02  0.8269082E-01
         -1   -1    0    0    0  501 -0.00000000000E+00  0.00000000000E+00  0.12837952547E+04  0.12837952547E+04  0.00000000000E+00 0.  1.
          1   -1    0    0  501    0  0.00000000000E+00 -0.00000000000E+00 -0.16522017623E+04  0.16522017623E+04  0.00000000000E+00 0. -1.
         23    2    1    2    0    0 -0.17606432891E+03 -0.10871457758E+04  0.55764590780E+03  0.12380186604E+04  0.94003506301E+02 0.  0.
        254    2    1    2    0    0  0.17606432891E+03  0.10871457758E+04 -0.92605241539E+03  0.16979783566E+04  0.90148368693E+03 0.  0.
        -24    2    4    4    0    0  0.12508775150E+03  0.11902932951E+04 -0.59544139010E+03  0.13392054920E+04  0.80472520946E+02 0.  0.
         24    2    4    4    0    0  0.50976577413E+02 -0.10314751934E+03 -0.33061102529E+03  0.35877286467E+03  0.78589415247E+02 0.  0.
         13    1    3    3    0    0 -0.14535518101E+03 -0.73034242836E+03  0.33692372102E+03  0.81734067872E+03  0.00000000000E+00 0.  1.
        -13    1    3    3    0    0 -0.30709147898E+02 -0.35680334743E+03  0.22072218679E+03  0.42067798165E+03  0.00000000000E+00 0. -1.
          4    1    6    6  502    0  0.29491026057E+02 -0.86582344504E+02 -0.14675223206E+03  0.17292322173E+03  0.00000000000E+00 0. -1.
          1    1    5    5  503    0  0.10557473827E+03  0.11413546725E+04 -0.56001232708E+03  0.12757156111E+04  0.00000000000E+00 0. -1.
         -2    1    5    5    0  503  0.19513013231E+02  0.48938622611E+02 -0.35429063016E+02  0.63489880883E+02  0.00000000000E+00 0.  1.
         -3    1    6    6    0  502  0.21485551356E+02 -0.16565174840E+02 -0.18385879323E+03  0.18584964294E+03  0.00000000000E+00 0.  1.
<mgrwt>
<rscale>  0 0.29127916E+04</rscale>
<asrwt>0</asrwt>
<pdfrwt beam="1">  1        1 0.25418489E+00 0.29127916E+04</pdfrwt>
<pdfrwt beam="2">  1       -1 0.19750696E+00 0.29127916E+04</pdfrwt>
<totfact> 0.69000966E-01</totfact>
</mgrwt>
</event>
<event>
12    1  0.1489025E-007  0.1966315E+04  0.7818608E-02  0.8622534E-01
         -1   -1    0    0    0  501 -0.00000000000E+00  0.00000000000E+00  0.26730992988E+03  0.26730992988E+03  0.00000000000E+00 0. -1.
          1   -1    0    0  501    0  0.00000000000E+00 -0.00000000000E+00 -0.36160206355E+04  0.36160206355E+04  0.00000000000E+00 0.  1.
         23    2    1    2    0    0  0.62294513968E+03  0.43399945579E+03 -0.10315274967E+04  0.12840066086E+04  0.90597019133E+02 0.  0.
        254    2    1    2    0    0 -0.62294513968E+03 -0.43399945579E+03 -0.23171832088E+04  0.25993239567E+04  0.90040592721E+03 0.  0.
        -24    2    4    4    0    0 -0.14855021686E+03  0.50550594090E+02 -0.15982098058E+04  0.16077722007E+04  0.77680992890E+02 0.  0.
         24    2    4    4    0    0 -0.47439492282E+03 -0.48455004988E+03 -0.71897340310E+03  0.99155175598E+03  0.80080189779E+02 0.  0.
         11    1    3    3    0    0  0.79923156328E+02  0.63758851882E+02 -0.19502010472E+03  0.22019478503E+03  0.00000000000E+00 0. -1.
        -11    1    3    3    0    0  0.54302198335E+03  0.37024060391E+03 -0.83650739201E+03  0.10638118236E+04  0.00000000000E+00 0.  1.
          2    1    6    6  502    0 -0.47341995800E+03 -0.47565787509E+03 -0.71758460387E+03  0.98249912696E+03  0.00000000000E+00 0. -1.
          3    1    5    5  503    0 -0.61708868714E+02  0.16628855980E+02 -0.10285457416E+04  0.10305294008E+04  0.00000000000E+00 0. -1.
         -4    1    5    5    0  503 -0.86841348144E+02  0.33921738110E+02 -0.56966406415E+03  0.57724279991E+03  0.00000000000E+00 0.  1.
         -1    1    6    6    0  502 -0.97496481519E+00 -0.88921747916E+01 -0.13887992302E+01  0.90526290224E+01  0.00000000000E+00 0.  1.
<mgrwt>
<rscale>  0 0.19663145E+04</rscale>
<asrwt>0</asrwt>
<pdfrwt beam="1">  1        1 0.55631082E+00 0.19663145E+04</pdfrwt>
<pdfrwt beam="2">  1       -1 0.41124608E-01 0.19663145E+04</pdfrwt>
<totfact> 0.10934655E+00</totfact>
</mgrwt>
</event>
<event>
12    1  0.1489025E-007  0.1470793E+04  0.7818608E-02  0.8904111E-01
          1   -1    0    0  501    0  0.00000000000E+00  0.00000000000E+00  0.21924492703E+03  0.21924492703E+03  0.00000000000E+00 0. -1.
         -1   -1    0    0    0  501 -0.00000000000E+00 -0.00000000000E+00 -0.24666834265E+04  0.24666834265E+04  0.00000000000E+00 0.  1.
         23    2    1    2    0    0  0.24534327763E+03  0.13350021476E+03 -0.13615774719E+04  0.13927631453E+04  0.88771255993E+02 0.  0.
        254    2    1    2    0    0 -0.24534327763E+03 -0.13350021476E+03 -0.88586102765E+03  0.12931652082E+04  0.89972821690E+03 0.  0.
        -24    2    4    4    0    0 -0.36422042488E+02  0.19350358286E+03  0.97462977098E+02  0.23293507191E+03  0.77391950889E+02 0.  0.
         24    2    4    4    0    0 -0.20892123514E+03 -0.32700379762E+03 -0.98332400474E+03  0.10602301363E+04  0.81131236441E+02 0.  0.
         13    1    3    3    0    0  0.41576217188E+02  0.38172192073E+02 -0.14572155050E+03  0.15627049742E+03  0.00000000000E+00 0. -1.
        -13    1    3    3    0    0  0.20376706044E+03  0.95328022685E+02 -0.12158559213E+04  0.12364926479E+04  0.00000000000E+00 0.  1.
          2    1    6    6  502    0 -0.33057686080E+02 -0.14225754211E+02 -0.65132831121E+02  0.74414167883E+02  0.00000000000E+00 0. -1.
          1    1    5    5  503    0  0.11490664123E+02 -0.54640093969E+00  0.31702835240E+01  0.11932502403E+02  0.00000000000E+00 0. -1.
         -2    1    5    5    0  503 -0.47912706611E+02  0.19404998380E+03  0.94292693574E+02  0.22100256951E+03  0.00000000000E+00 0.  1.
         -1    1    6    6    0  502 -0.17586354906E+03 -0.31277804341E+03 -0.91819117362E+03  0.98581596845E+03  0.00000000000E+00 0.  1.
<mgrwt>
<rscale>  0 0.14707927E+04</rscale>
<asrwt>0</asrwt>
<pdfrwt beam="1">  1        1 0.33729988E-01 0.14707927E+04</pdfrwt>
<pdfrwt beam="2">  1       -1 0.37948977E+00 0.14707927E+04</pdfrwt>
<totfact> 0.12705769E+00</totfact>
</mgrwt>
</event>
<event>
12    1  0.1489025E-007  0.1352640E+04  0.7818608E-02  0.8988832E-01
         -2   -1    0    0    0  501 -0.00000000000E+00  0.00000000000E+00  0.32910737388E+03  0.32910737388E+03  0.00000000000E+00 0.  1.
          2   -1    0    0  501    0  0.00000000000E+00 -0.00000000000E+00 -0.13898468479E+04  0.13898468479E+04  0.00000000000E+00 0. -1.
         23    2    1    2    0    0  0.28459854759E+02 -0.26375237305E+03  0.31391733446E+02  0.28269093667E+03  0.92484848079E+02 0.  0.
        254    2    1    2    0    0 -0.28459854759E+02  0.26375237305E+03 -0.10921312074E+04  0.14362632851E+04  0.89427421531E+03 0.  0.
        -24    2    4    4    0    0  0.17851087919E+03  0.46523548433E+03 -0.29449380332E+03  0.58411637128E+03  0.78454733006E+02 0.  0.
         24    2    4    4    0    0 -0.20697073395E+03 -0.20148311128E+03 -0.79763740411E+03  0.85214691379E+03  0.80601522415E+02 0.  0.
         11    1    3    3    0    0  0.25501982614E+01  0.42676943674E+01  0.11688076841E+02  0.12701490725E+02  0.00000000000E+00 0. -1.
        -11    1    3    3    0    0  0.25909656497E+02 -0.26802006742E+03  0.19703656605E+02  0.26998944595E+03  0.00000000000E+00 0.  1.
          4    1    6    6  502    0 -0.13139379341E+03 -0.12207569536E+03 -0.59891993276E+03  0.62519748096E+03  0.00000000000E+00 0. -1.
          1    1    5    5  503    0  0.14204214141E+03  0.39894224797E+03 -0.21709637890E+03  0.47587994797E+03  0.00000000000E+00 0. -1.
         -2    1    5    5    0  503  0.36468737780E+02  0.66293236357E+02 -0.77397424425E+02  0.10823642330E+03  0.00000000000E+00 0.  1.
         -3    1    6    6    0  502 -0.75576940534E+02 -0.79407415920E+02 -0.19871747135E+03  0.22694943283E+03  0.00000000000E+00 0.  1.
<mgrwt>
<rscale>  0 0.13526402E+04</rscale>
<asrwt>0</asrwt>
<pdfrwt beam="1">  1        2 0.21382260E+00 0.13526402E+04</pdfrwt>
<pdfrwt beam="2">  1       -2 0.50631903E-01 0.13526402E+04</pdfrwt>
<totfact> 0.52813005E+01</totfact>
</mgrwt>
</event>
<event>
12    1  0.1489025E-007  0.2215556E+04  0.7818608E-02  0.8511981E-01
          1   -1    0    0  501    0  0.00000000000E+00  0.00000000000E+00  0.60397968571E+03  0.60397968571E+03  0.00000000000E+00 0. -1.
         -1   -1    0    0    0  501 -0.00000000000E+00 -0.00000000000E+00 -0.20318099682E+04  0.20318099682E+04  0.00000000000E+00 0.  1.
         23    2    1    2    0    0 -0.19064538633E+02 -0.85154143597E+03 -0.10146238628E+04  0.13278100102E+04  0.90175199215E+02 0.  0.
        254    2    1    2    0    0  0.19064538633E+02  0.85154143597E+03 -0.41320641969E+03  0.13079796437E+04  0.90254358851E+03 0.  0.
        -24    2    4    4    0    0  0.14472090597E+03  0.95204404898E+03 -0.52248735440E+03  0.10984678389E+04  0.79413762996E+02 0.  0.
         24    2    4    4    0    0 -0.12565636734E+03 -0.10050261301E+03  0.10928093472E+03  0.20951180476E+03  0.77862544060E+02 0.  0.
         13    1    3    3    0    0  0.28079395007E+02 -0.11797330490E+03 -0.15289786170E+03  0.19515099079E+03  0.00000000000E+00 0. -1.
        -13    1    3    3    0    0 -0.47143933640E+02 -0.73356813106E+03 -0.86172600108E+03  0.11326590194E+04  0.00000000000E+00 0.  1.
          4    1    6    6  502    0  0.30565210260E+01  0.91285427761E+01  0.47621825361E+01  0.10740158123E+02  0.00000000000E+00 0. -1.
          1    1    5    5  503    0 -0.87230060034E+01  0.10712826134E+03 -0.55376636064E+02  0.12090958206E+03  0.00000000000E+00 0. -1.
         -2    1    5    5    0  503  0.15344391198E+03  0.84491578764E+03 -0.46711071834E+03  0.97755825684E+03  0.00000000000E+00 0.  1.
         -3    1    6    6    0  502 -0.12871288837E+03 -0.10963115579E+03  0.10451875218E+03  0.19877164664E+03  0.00000000000E+00 0.  1.
<mgrwt>
<rscale>  0 0.22155559E+04</rscale>
<asrwt>0</asrwt>
<pdfrwt beam="1">  1        1 0.92919951E-01 0.22155559E+04</pdfrwt>
<pdfrwt beam="2">  1       -1 0.31258615E+00 0.22155559E+04</pdfrwt>
<totfact> 0.84529930E-01</totfact>
</mgrwt>
</event>
<event>
12    1  0.1489025E-007  0.3164285E+04  0.7818608E-02  0.8198314E-01
          2   -1    0    0  501    0  0.00000000000E+00  0.00000000000E+00  0.24960214225E+04  0.24960214225E+04  0.00000000000E+00 0. -1.
         -2   -1    0    0    0  501 -0.00000000000E+00 -0.00000000000E+00 -0.10028658004E+04  0.10028658004E+04  0.00000000000E+00 0.  1.
         23    2    1    2    0    0  0.24241700915E+03 -0.11047504258E+04 -0.31912442081E+03  0.11788265866E+04  0.92478190547E+02 0.  0.
        254    2    1    2    0    0 -0.24241700915E+03  0.11047504258E+04  0.18122800429E+04  0.23200606363E+04  0.90503198443E+03 0.  0.
        -24    2    4    4    0    0 -0.41348752253E+03  0.61071399078E+03  0.15739138188E+04  0.17399723803E+04  0.79722425162E+02 0.  0.
         24    2    4    4    0    0  0.17107051338E+03  0.49403643498E+03  0.23836622404E+03  0.58008825607E+03  0.79666859042E+02 0.  0.
         13    1    3    3    0    0  0.34660444352E+02 -0.28453253293E+03 -0.50208124936E+02  0.29099993902E+03  0.00000000000E+00 0. -1.
        -13    1    3    3    0    0  0.20775656480E+03 -0.82021789282E+03 -0.26891629587E+03  0.88782664756E+03  0.00000000000E+00 0.  1.
          4    1    6    6  502    0  0.34357347145E+01 -0.21479744033E+01  0.57079310963E+01  0.69998960325E+01  0.00000000000E+00 0. -1.
          1    1    5    5  503    0 -0.10152586532E+02  0.32680854353E+01  0.10922501627E+02  0.15266186082E+02  0.00000000000E+00 0. -1.
         -2    1    5    5    0  503 -0.40333493600E+03  0.60744590534E+03  0.15629913172E+04  0.17247061942E+04  0.00000000000E+00 0.  1.
         -3    1    6    6    0  502  0.16763477867E+03  0.49618440938E+03  0.23265829294E+03  0.57308836003E+03  0.00000000000E+00 0.  1.
<mgrwt>
<rscale>  0 0.31642848E+04</rscale>
<asrwt>0</asrwt>
<pdfrwt beam="1">  1        2 0.38400329E+00 0.31642848E+04</pdfrwt>
<pdfrwt beam="2">  1       -2 0.15428705E+00 0.31642848E+04</pdfrwt>
<totfact> 0.82131517E-01</totfact>
</mgrwt>
</event>
<event>
12    1  0.1489025E-007  0.1327493E+04  0.7818608E-02  0.9008043E-01
         -1   -1    0    0    0  501 -0.00000000000E+00  0.00000000000E+00  0.40505944513E+03  0.40505944513E+03  0.00000000000E+00 0.  1.
          1   -1    0    0  501    0  0.00000000000E+00 -0.00000000000E+00 -0.10876407674E+04  0.10876407674E+04  0.00000000000E+00 0. -1.
         23    2    1    2    0    0 -0.23377848060E+03 -0.18457045207E+03  0.11491711237E+02  0.31190156476E+03  0.91825360870E+02 0.  0.
        254    2    1    2    0    0  0.23377848060E+03  0.18457045207E+03 -0.69407303354E+03  0.11807986478E+04  0.90765050598E+03 0.  0.
        -24    2    4    4    0    0  0.53220492813E+03  0.31064116464E+03 -0.47650195834E+03  0.78301271367E+03  0.79465557169E+02 0.  0.
         24    2    4    4    0    0 -0.29842644753E+03 -0.12607071257E+03 -0.21757107521E+03  0.39778593414E+03  0.77099335166E+02 0.  0.
         13    1    3    3    0    0 -0.14243348941E+03 -0.13421072804E+03 -0.33063629531E+02  0.19847675437E+03  0.00000000000E+00 0.  1.
        -13    1    3    3    0    0 -0.91344991189E+02 -0.50359724030E+02  0.44555340768E+02  0.11342481038E+03  0.00000000000E+00 0. -1.
          4    1    6    6  502    0 -0.25448844061E+03 -0.10374132957E+03 -0.14687946739E+03  0.31160906246E+03  0.00000000000E+00 0. -1.
          3    1    5    5  503    0  0.26561782916E+03  0.17423134753E+03 -0.29066567342E+03  0.43057627354E+03  0.00000000000E+00 0. -1.
         -4    1    5    5    0  503  0.26658709896E+03  0.13640981711E+03 -0.18583628491E+03  0.35243644013E+03  0.00000000000E+00 0.  1.
         -3    1    6    6    0  502 -0.43938006911E+02 -0.22329383003E+02 -0.70691607822E+02  0.86176871683E+02  0.00000000000E+00 0.  1.
<mgrwt>
<rscale>  0 0.13274926E+04</rscale>
<asrwt>0</asrwt>
<pdfrwt beam="1">  1        1 0.16732935E+00 0.13274926E+04</pdfrwt>
<pdfrwt beam="2">  1       -1 0.62316837E-01 0.13274926E+04</pdfrwt>
<totfact> 0.33176023E+01</totfact>
</mgrwt>
</event>
<event>
12    1  0.1489025E-007  0.1718610E+04  0.7818608E-02  0.8750821E-01
          2   -1    0    0  501    0  0.00000000000E+00  0.00000000000E+00  0.80611767759E+03  0.80611767759E+03  0.00000000000E+00 0. -1.
         -2   -1    0    0    0  501 -0.00000000000E+00 -0.00000000000E+00 -0.91600169176E+03  0.91600169176E+03  0.00000000000E+00 0.  1.
         23    2    1    2    0    0  0.97286073078E+02  0.14258653768E+03  0.54890438113E+03  0.58247900224E+03  0.90500097681E+02 0.  0.
        254    2    1    2    0    0 -0.97286073078E+02 -0.14258653768E+03 -0.65878839530E+03  0.11396403671E+04  0.91377377716E+03 0.  0.
        -24    2    4    4    0    0 -0.39925815226E+02 -0.30194247594E+03 -0.82875584948E+03  0.88689744921E+03  0.83591254743E+02 0.  0.
         24    2    4    4    0    0 -0.57360257852E+02  0.15935593826E+03  0.16996745419E+03  0.25274291790E+03  0.79407385208E+02 0.  0.
         11    1    3    3    0    0  0.71687588565E+02  0.72449822902E+02  0.43127804898E+03  0.44315780793E+03  0.00000000000E+00 0. -1.
        -11    1    3    3    0    0  0.25598484513E+02  0.70136714778E+02  0.11762633215E+03  0.13932119431E+03  0.00000000000E+00 0.  1.
          4    1    6    6  502    0 -0.41693246094E+02  0.34121499915E+02  0.21828822345E+02  0.58130035362E+02  0.00000000000E+00 0. -1.
          3    1    5    5  503    0 -0.29345326400E+02 -0.56993662235E+02 -0.25535679586E+03  0.26328030483E+03  0.00000000000E+00 0. -1.
         -4    1    5    5    0  503 -0.10580488826E+02 -0.24494881371E+03 -0.57339905362E+03  0.62361714439E+03  0.00000000000E+00 0.  1.
         -3    1    6    6    0  502 -0.15667011759E+02  0.12523443835E+03  0.14813863184E+03  0.19461288254E+03  0.00000000000E+00 0.  1.
<mgrwt>
<rscale>  0 0.17186101E+04</rscale>
<asrwt>0</asrwt>
<pdfrwt beam="1">  1        2 0.12401810E+00 0.17186101E+04</pdfrwt>
<pdfrwt beam="2">  1       -2 0.14092334E+00 0.17186101E+04</pdfrwt>
<totfact> 0.11435265E+01</totfact>
</mgrwt>
</event>
<event>
12    1  0.1489025E-007  0.1471565E+04  0.7818608E-02  0.8903585E-01
         -1   -1    0    0    0  501 -0.00000000000E+00  0.00000000000E+00  0.36794157603E+03  0.36794157603E+03  0.00000000000E+00 0.  1.
          1   -1    0    0  501    0  0.00000000000E+00 -0.00000000000E+00 -0.14713639033E+04  0.14713639033E+04  0.00000000000E+00 0. -1.
         23    2    1    2    0    0  0.41585350496E+03  0.11104129754E+03 -0.55478473112E+03  0.70818919933E+03  0.92095259397E+02 0.  0.
        254    2    1    2    0    0 -0.41585350496E+03 -0.11104129754E+03 -0.54863759615E+03  0.11311162800E+04  0.89059335258E+03 0.  0.
        -24    2    4    4    0    0 -0.34454605788E+01 -0.43450321658E+03 -0.14390035053E+03  0.46412543922E+03  0.76812733527E+02 0.  0.
         24    2    4    4    0    0 -0.41240804439E+03  0.32346191905E+03 -0.40473724562E+03  0.66699084079E+03  0.79727884449E+02 0.  0.
         13    1    3    3    0    0  0.79836309269E+02  0.57822648939E+02 -0.10214541746E+03  0.14195415216E+03  0.00000000000E+00 0.  1.
        -13    1    3    3    0    0  0.33601719570E+03  0.53218648596E+02 -0.45263931367E+03  0.56623504717E+03  0.00000000000E+00 0. -1.
          4    1    6    6  502    0 -0.25368579652E+03  0.19854808152E+03 -0.29656179028E+03  0.43786609766E+03  0.00000000000E+00 0. -1.
          1    1    5    5  503    0  0.20089417883E+02 -0.39242452685E+03 -0.12502567164E+03  0.41234938166E+03  0.00000000000E+00 0. -1.
         -2    1    5    5    0  503 -0.23534878462E+02 -0.42078689734E+02 -0.18874678892E+02  0.51776057567E+02  0.00000000000E+00 0.  1.
         -3    1    6    6    0  502 -0.15872224787E+03  0.12491383753E+03 -0.10817545534E+03  0.22912474313E+03  0.00000000000E+00 0.  1.
<mgrwt>
<rscale>  0 0.14715651E+04</rscale>
<asrwt>0</asrwt>
<pdfrwt beam="1">  1        1 0.22636367E+00 0.14715651E+04</pdfrwt>
<pdfrwt beam="2">  1       -1 0.56606397E-01 0.14715651E+04</pdfrwt>
<totfact> 0.20972712E+01</totfact>
</mgrwt>
</event>
<event>
12    1  0.1489025E-007  0.1969689E+04  0.7818608E-02  0.8620925E-01
         -2   -1    0    0    0  501 -0.00000000000E+00  0.00000000000E+00  0.71809941502E+03  0.71809941502E+03  0.00000000000E+00 0. -1.
          2   -1    0    0  501    0  0.00000000000E+00 -0.00000000000E+00 -0.13506744504E+04  0.13506744504E+04  0.00000000000E+00 0.  1.
         23    2    1    2    0    0  0.43569203054E+03  0.10544391219E+03 -0.90967241350E+03  0.10182779553E+04  0.91870181749E+02 0.  0.
        254    2    1    2    0    0 -0.43569203054E+03 -0.10544391219E+03  0.27709737816E+03  0.10504959101E+04  0.90874239255E+03 0.  0.
        -24    2    4    4    0    0 -0.32244100463E+03  0.36609613977E+03  0.17485741347E+02  0.49464390412E+03  0.79826409878E+02 0.  0.
         24    2    4    4    0    0 -0.11325102591E+03 -0.47154005197E+03  0.25961163681E+03  0.55585200596E+03  0.79983967632E+02 0.  0.
         11    1    3    3    0    0  0.10146205630E+03  0.23748463291E+02 -0.13423302471E+03  0.16993246688E+03  0.00000000000E+00 0. -1.
        -11    1    3    3    0    0  0.33422997424E+03  0.81695448904E+02 -0.77543938879E+03  0.84834548843E+03  0.00000000000E+00 0.  1.
          4    1    6    6  502    0 -0.96881549730E+02 -0.36070807523E+03  0.16143471451E+03  0.40688759783E+03  0.00000000000E+00 0. -1.
          1    1    5    5  503    0 -0.31018008275E+03  0.32116179439E+03  0.26187374207E+02  0.44726095345E+03  0.00000000000E+00 0. -1.
         -2    1    5    5    0  503 -0.12260921876E+02  0.44934345384E+02 -0.87016328592E+01  0.47382950676E+02  0.00000000000E+00 0.  1.
         -3    1    6    6    0  502 -0.16369476184E+02 -0.11083197674E+03  0.98176922294E+02  0.14896440813E+03  0.00000000000E+00 0.  1.
<mgrwt>
<rscale>  0 0.19696888E+04</rscale>
<asrwt>0</asrwt>
<pdfrwt beam="1">  1        2 0.20779607E+00 0.19696888E+04</pdfrwt>
<pdfrwt beam="2">  1       -2 0.11047683E+00 0.19696888E+04</pdfrwt>
<totfact> 0.93557252E+00</totfact>
</mgrwt>
</event>
<event>
12    1  0.1489025E-007  0.2492985E+04  0.7818608E-02  0.8405489E-01
          2   -1    0    0  501    0  0.00000000000E+00  0.00000000000E+00  0.11009411258E+04  0.11009411258E+04  0.00000000000E+00 0. -1.
         -2   -1    0    0    0  501 -0.00000000000E+00 -0.00000000000E+00 -0.14112866225E+04  0.14112866225E+04  0.00000000000E+00 0.  1.
         23    2    1    2    0    0  0.49556045333E+03  0.93803968430E+03 -0.36430686640E+03  0.11253327329E+04  0.90308662901E+02 0.  0.
        254    2    1    2    0    0 -0.49556045333E+03 -0.93803968430E+03  0.53961369775E+02  0.13868950154E+04  0.89166548776E+03 0.  0.
        -24    2    4    4    0    0 -0.71930900563E+03 -0.82541367889E+03  0.14800366953E+03  0.11076392867E+04  0.79034906262E+02 0.  0.
         24    2    4    4    0    0  0.22374855230E+03 -0.11262600541E+03 -0.94042299753E+02  0.27925572868E+03  0.79948584118E+02 0.  0.
         13    1    3    3    0    0  0.32640229631E+02  0.36427745630E+02 -0.17995772386E+01  0.48944904947E+02  0.00000000000E+00 0. -1.
        -13    1    3    3    0    0  0.46292022370E+03  0.90161193867E+03 -0.36250728916E+03  0.10763878279E+04  0.00000000000E+00 0.  1.
          4    1    6    6  502    0  0.18296681310E+03 -0.81902210211E+02 -0.10607588138E+03  0.22679708848E+03  0.00000000000E+00 0. -1.
          3    1    5    5  503    0 -0.63490863888E+03 -0.75347098096E+03  0.15036120389E+03  0.99671259173E+03  0.00000000000E+00 0. -1.
         -4    1    5    5    0  503 -0.84400366750E+02 -0.71942697923E+02 -0.23575343625E+01  0.11092669499E+03  0.00000000000E+00 0.  1.
         -3    1    6    6    0  502  0.40781739208E+02 -0.30723795200E+02  0.12033581630E+02  0.52458640196E+02  0.00000000000E+00 0.  1.
<mgrwt>
<rscale>  0 0.24929849E+04</rscale>
<asrwt>0</asrwt>
<pdfrwt beam="1">  1        2 0.16937556E+00 0.24929849E+04</pdfrwt>
<pdfrwt beam="2">  1       -2 0.21712102E+00 0.24929849E+04</pdfrwt>
<totfact> 0.20013073E+00</totfact>
</mgrwt>
</event>
<event>
12    1  0.1831218E-007  0.1430568E+04  0.7818608E-02  0.8931984E-01
         -2   -1    0    0    0  501 -0.00000000000E+00  0.00000000000E+00  0.18559227798E+03  0.18559227798E+03  0.00000000000E+00 0. -1.
          2   -1    0    0  501    0  0.00000000000E+00 -0.00000000000E+00 -0.27567489566E+04  0.27567489566E+04  0.00000000000E+00 0.  1.
         23    2    1    2    0    0 -0.20543020133E+03 -0.35265340743E+03 -0.10128038551E+04  0.10955880306E+04  0.89305602217E+02 0.  0.
        254    2    1    2    0    0  0.20543020133E+03  0.35265340743E+03 -0.15583528235E+04  0.18467532039E+04  0.90303260201E+03 0.  0.
        -24    2    4    4    0    0 -0.15303226960E+03  0.29174245857E+03 -0.14026916217E+04  0.14432472320E+04  0.82983427831E+02 0.  0.
         24    2    4    4    0    0  0.35846247093E+03  0.60910948857E+02 -0.15566120181E+03  0.40350597196E+03  0.79882244007E+02 0.  0.
         11    1    3    3    0    0 -0.20885538241E+03 -0.35462957434E+03 -0.98529340034E+03  0.10677948260E+04  0.00000000000E+00 0.  1.
        -11    1    3    3    0    0  0.34251810782E+01  0.19761669103E+01 -0.27510454753E+02  0.27793204598E+02  0.00000000000E+00 0. -1.
          2    1    6    6  502    0  0.34336638141E+03  0.74232435420E+02 -0.15309813524E+03  0.38321007994E+03  0.00000000000E+00 0. -1.
          3    1    5    5  503    0 -0.15496931640E+03  0.29618673600E+03 -0.13696697280E+04  0.14098713542E+04  0.00000000000E+00 0. -1.
         -4    1    5    5    0  503  0.19370467957E+01 -0.44442774348E+01 -0.33021893697E+02  0.33375877749E+02  0.00000000000E+00 0.  1.
         -1    1    6    6    0  502  0.15096089517E+02 -0.13321486562E+02 -0.25630665701E+01  0.20295892027E+02  0.00000000000E+00 0.  1.
<mgrwt>
<rscale>  0 0.14305682E+04</rscale>
<asrwt>0</asrwt>
<pdfrwt beam="1">  1        2 0.42411524E+00 0.14305682E+04</pdfrwt>
<pdfrwt beam="2">  1       -2 0.28552657E-01 0.14305682E+04</pdfrwt>
<totfact> 0.26966875E+01</totfact>
</mgrwt>
</event>
<event>
12    1  0.1489025E-007  0.1292014E+04  0.7818608E-02  0.9035922E-01
          2   -1    0    0  501    0  0.00000000000E+00  0.00000000000E+00  0.15265992921E+04  0.15265992921E+04  0.00000000000E+00 0. -1.
         -2   -1    0    0    0  501 -0.00000000000E+00 -0.00000000000E+00 -0.27336911691E+03  0.27336911691E+03  0.00000000000E+00 0.  1.
         23    2    1    2    0    0 -0.91693440151E+02 -0.86462529055E+02 -0.92218058853E+02  0.18122736199E+03  0.91955045861E+02 0.  0.
        254    2    1    2    0    0  0.91693440151E+02  0.86462529055E+02  0.13454482341E+04  0.16187410471E+04  0.89118357871E+03 0.  0.
        -24    2    4    4    0    0  0.12126429060E+03 -0.27342312676E+03  0.11684970903E+04  0.12088649012E+04  0.80645301971E+02 0.  0.
         24    2    4    4    0    0 -0.29570850448E+02  0.35988565582E+03  0.17695114373E+03  0.40987614588E+03  0.79338686891E+02 0.  0.
         11    1    3    3    0    0 -0.26823709354E+02  0.18251831350E+02 -0.14174317330E+02  0.35405536331E+02  0.00000000000E+00 0. -1.
        -11    1    3    3    0    0 -0.64869730797E+02 -0.10471436041E+03 -0.78043741523E+02  0.14582182566E+03  0.00000000000E+00 0.  1.
          4    1    6    6  502    0 -0.14577263599E+02  0.66827675016E+02  0.69140791089E+02  0.97256792845E+02  0.00000000000E+00 0. -1.
          1    1    5    5  503    0 -0.85153523804E+01 -0.20414685299E+02  0.14195037030E+03  0.14366341994E+03  0.00000000000E+00 0. -1.
         -2    1    5    5    0  503  0.12977964298E+03 -0.25300844146E+03  0.10265467200E+04  0.10652014812E+04  0.00000000000E+00 0.  1.
         -3    1    6    6    0  502 -0.14993586850E+02  0.29305798080E+03  0.10781035265E+03  0.31261935304E+03  0.00000000000E+00 0.  1.
<mgrwt>
<rscale>  0 0.12920141E+04</rscale>
<asrwt>0</asrwt>
<pdfrwt beam="1">  1        2 0.23486142E+00 0.12920141E+04</pdfrwt>
<pdfrwt beam="2">  1       -2 0.42056788E-01 0.12920141E+04</pdfrwt>
<totfact> 0.64412481E+01</totfact>
</mgrwt>
</event>
<event>
12    1  0.1489025E-007  0.1272433E+04  0.7818608E-02  0.9051717E-01
         -1   -1    0    0    0  501 -0.00000000000E+00  0.00000000000E+00  0.20407549678E+03  0.20407549678E+03  0.00000000000E+00 0.  1.
          1   -1    0    0  501    0  0.00000000000E+00 -0.00000000000E+00 -0.19834384764E+04  0.19834384764E+04  0.00000000000E+00 0. -1.
         23    2    1    2    0    0  0.23509745533E+01  0.98337006538E+01 -0.99273708343E+03  0.99706879269E+03  0.92287766195E+02 0.  0.
        254    2    1    2    0    0 -0.23509745533E+01 -0.98337006538E+01 -0.78662589618E+03  0.11904451805E+04  0.89346359658E+03 0.  0.
        -24    2    4    4    0    0 -0.30673184710E+03  0.14538457032E+03 -0.22344693513E+02  0.34924946196E+03  0.79087306408E+02 0.  0.
         24    2    4    4    0    0  0.30438087255E+03 -0.15521827098E+03 -0.76428120267E+03  0.84119571851E+03  0.82122182594E+02 0.  0.
         13    1    3    3    0    0 -0.10065348801E+02 -0.34164444356E+02 -0.21008797903E+03  0.21308561528E+03  0.00000000000E+00 0.  1.
        -13    1    3    3    0    0  0.12416323355E+02  0.43998145010E+02 -0.78264910439E+03  0.78398317741E+03  0.00000000000E+00 0. -1.
          4    1    6    6  502    0  0.24438125948E+03 -0.15385762667E+03 -0.59024759953E+03  0.65710470856E+03  0.00000000000E+00 0. -1.
          1    1    5    5  503    0 -0.24711286316E+03  0.92734774369E+02 -0.42143010460E+02  0.26728362997E+03  0.00000000000E+00 0. -1.
         -2    1    5    5    0  503 -0.59618983939E+02  0.52649795953E+02  0.19798316948E+02  0.81965831990E+02  0.00000000000E+00 0.  1.
         -3    1    6    6    0  502  0.59999613074E+02 -0.13606443012E+01 -0.17403360314E+03  0.18409100995E+03  0.00000000000E+00 0.  1.
<mgrwt>
<rscale>  0 0.12724326E+04</rscale>
<asrwt>0</asrwt>
<pdfrwt beam="1">  1        1 0.30514438E+00 0.12724326E+04</pdfrwt>
<pdfrwt beam="2">  1       -1 0.31396231E-01 0.12724326E+04</pdfrwt>
<totfact> 0.28391982E+01</totfact>
</mgrwt>
</event>
<event>
12    1  0.1489025E-007  0.1924901E+04  0.7818608E-02  0.8642560E-01
          2   -1    0    0  501    0  0.00000000000E+00  0.00000000000E+00  0.75753312806E+03  0.75753312806E+03  0.00000000000E+00 0. -1.
         -2   -1    0    0    0  501 -0.00000000000E+00 -0.00000000000E+00 -0.12227995086E+04  0.12227995086E+04  0.00000000000E+00 0.  1.
         23    2    1    2    0    0 -0.16180451424E+03  0.54294030648E+03  0.31744794606E+03  0.65549895787E+03  0.89111211895E+02 0.  0.
        254    2    1    2    0    0  0.16180451424E+03 -0.54294030648E+03 -0.78271432664E+03  0.13248336788E+04  0.90640922447E+03 0.  0.
        -24    2    4    4    0    0 -0.25322090933E+03 -0.69680033828E+02 -0.60724276911E+03  0.66644227315E+03  0.80158510291E+02 0.  0.
         24    2    4    4    0    0  0.41502542357E+03 -0.47326027265E+03 -0.17547155753E+03  0.65839140568E+03  0.80421313666E+02 0.  0.
         11    1    3    3    0    0 -0.31963075298E+02  0.18866983932E+03  0.14784598280E+03  0.24181890142E+03  0.00000000000E+00 0.  1.
        -11    1    3    3    0    0 -0.12984143894E+03  0.35427046715E+03  0.16960196325E+03  0.41368005645E+03  0.00000000000E+00 0. -1.
          2    1    6    6  502    0  0.37948197588E+03 -0.42390953921E+03 -0.13322868090E+03  0.58434215051E+03  0.00000000000E+00 0. -1.
          3    1    5    5  503    0 -0.24190688801E+03 -0.43848427239E+02 -0.53101971444E+03  0.58516968835E+03  0.00000000000E+00 0. -1.
         -4    1    5    5    0  503 -0.11314021318E+02 -0.25831606589E+02 -0.76223054664E+02  0.81272584797E+02  0.00000000000E+00 0.  1.
         -1    1    6    6    0  502  0.35543447693E+02 -0.49350733435E+02 -0.42242876631E+02  0.74049255165E+02  0.00000000000E+00 0.  1.
<mgrwt>
<rscale>  0 0.19249012E+04</rscale>
<asrwt>0</asrwt>
<pdfrwt beam="1">  1        2 0.11654356E+00 0.19249012E+04</pdfrwt>
<pdfrwt beam="2">  1       -2 0.18812300E+00 0.19249012E+04</pdfrwt>
<totfact> 0.55177327E+00</totfact>
</mgrwt>
</event>
<event>
12    1  0.1489025E-007  0.1692600E+04  0.7818608E-02  0.8765596E-01
         -2   -1    0    0    0  501 -0.00000000000E+00  0.00000000000E+00  0.15305942223E+03  0.15305942223E+03  0.00000000000E+00 0.  1.
          2   -1    0    0  501    0  0.00000000000E+00 -0.00000000000E+00 -0.46793850231E+04  0.46793850231E+04  0.00000000000E+00 0. -1.
         23    2    1    2    0    0 -0.45103729014E+03 -0.40219720662E+03 -0.17519976806E+04  0.18551305693E+04  0.82561045517E+02 0.  0.
        254    2    1    2    0    0  0.45103729014E+03  0.40219720662E+03 -0.27743279203E+04  0.29773138761E+04  0.89571495304E+03 0.  0.
        -24    2    4    4    0    0  0.60699674744E+03 -0.31049871866E+02 -0.15795306770E+04  0.16943820310E+04  0.81265992027E+02 0.  0.
         24    2    4    4    0    0 -0.15595945730E+03  0.43324707848E+03 -0.11947972433E+04  0.12829318451E+04  0.79669838242E+02 0.  0.
         11    1    3    3    0    0 -0.14663472482E+03 -0.14312312778E+03 -0.48300978794E+03  0.52467554496E+03  0.00000000000E+00 0.  1.
        -11    1    3    3    0    0 -0.30440256532E+03 -0.25907407883E+03 -0.12689878927E+04  0.13304550244E+04  0.00000000000E+00 0. -1.
          2    1    6    6  502    0 -0.93884339732E+02  0.16390337311E+03 -0.42758206290E+03  0.46744518981E+03  0.00000000000E+00 0. -1.
          3    1    5    5  503    0  0.43480127191E+03  0.14387541936E+02 -0.11323340873E+04  0.12130291145E+04  0.00000000000E+00 0. -1.
         -4    1    5    5    0  503  0.17219547553E+03 -0.45437413803E+02 -0.44719658967E+03  0.48135291645E+03  0.00000000000E+00 0.  1.
         -1    1    6    6    0  502 -0.62075117565E+02  0.26934370538E+03 -0.76721518044E+03  0.81548665528E+03  0.00000000000E+00 0.  1.
<mgrwt>
<rscale>  0 0.16926003E+04</rscale>
<asrwt>0</asrwt>
<pdfrwt beam="1">  1        2 0.71990542E+00 0.16926003E+04</pdfrwt>
<pdfrwt beam="2">  1       -2 0.23547602E-01 0.16926003E+04</pdfrwt>
<totfact> 0.12672789E+00</totfact>
</mgrwt>
</event>
<event>
12    1  0.1489025E-007  0.2270131E+04  0.7818608E-02  0.8489792E-01
         -2   -1    0    0    0  501 -0.00000000000E+00  0.00000000000E+00  0.36367544188E+03  0.36367544188E+03  0.00000000000E+00 0.  1.
          2   -1    0    0  501    0  0.00000000000E+00 -0.00000000000E+00 -0.35426456670E+04  0.35426456670E+04  0.00000000000E+00 0. -1.
         23    2    1    2    0    0 -0.39491331088E+03 -0.27819231883E+03  0.74333299100E+02  0.49725488290E+03  0.91594158409E+02 0.  0.
        254    2    1    2    0    0  0.39491331088E+03  0.27819231883E+03 -0.32533035243E+04  0.34090662260E+04  0.89688417480E+03 0.  0.
        -24    2    4    4    0    0  0.33871219510E+03 -0.18031819352E+03 -0.24370977577E+04  0.24683120492E+04  0.76670003484E+02 0.  0.
         24    2    4    4    0    0  0.56201115777E+02  0.45851051235E+03 -0.81620576654E+03  0.94075417683E+03  0.73729997573E+02 0.  0.
         13    1    3    3    0    0 -0.52594886193E+02 -0.34053290694E+02 -0.21076803409E+02  0.66106582899E+02  0.00000000000E+00 0. -1.
        -13    1    3    3    0    0 -0.34231842468E+03 -0.24413902814E+03  0.95410102509E+02  0.43114830001E+03  0.00000000000E+00 0.  1.
          2    1    6    6  502    0  0.27102229334E+02  0.12926080003E+03 -0.17364274459E+03  0.21816206822E+03  0.00000000000E+00 0. -1.
          3    1    5    5  503    0  0.32755980510E+03 -0.15549908493E+03 -0.23145615252E+04  0.23427911655E+04  0.00000000000E+00 0. -1.
         -4    1    5    5    0  503  0.11152389996E+02 -0.24819108586E+02 -0.12253623253E+03  0.12552088367E+03  0.00000000000E+00 0.  1.
         -1    1    6    6    0  502  0.29098886443E+02  0.32924971231E+03 -0.64256302195E+03  0.72259210861E+03  0.00000000000E+00 0.  1.
<mgrwt>
<rscale>  0 0.22701306E+04</rscale>
<asrwt>0</asrwt>
<pdfrwt beam="1">  1        2 0.54502243E+00 0.22701306E+04</pdfrwt>
<pdfrwt beam="2">  1       -2 0.55950066E-01 0.22701306E+04</pdfrwt>
<totfact> 0.20748625E+00</totfact>
</mgrwt>
</event>
<event>
12    1  0.1489025E-007  0.1707932E+04  0.7818608E-02  0.8756853E-01
         -2   -1    0    0    0  501 -0.00000000000E+00  0.00000000000E+00  0.67719096031E+03  0.67719096031E+03  0.00000000000E+00 0.  1.
          2   -1    0    0  501    0  0.00000000000E+00 -0.00000000000E+00 -0.10768864621E+04  0.10768864621E+04  0.00000000000E+00 0. -1.
         23    2    1    2    0    0  0.20278097593E+03  0.19368347250E+03  0.41401642825E+03  0.50827976669E+03  0.91133455153E+02 0.  0.
        254    2    1    2    0    0 -0.20278097593E+03 -0.19368347250E+03 -0.81371193001E+03  0.12457976557E+04  0.90069488847E+03 0.  0.
        -24    2    4    4    0    0 -0.16046455114E+03  0.34110774712E+03 -0.45326819814E+03  0.59481247288E+03  0.79034493343E+02 0.  0.
         24    2    4    4    0    0 -0.42316424784E+02 -0.53479121962E+03 -0.36044373187E+03  0.65098518279E+03  0.77908253557E+02 0.  0.
         11    1    3    3    0    0  0.19485790339E+03  0.13842574270E+03  0.33720751257E+03  0.41332819320E+03  0.00000000000E+00 0.  1.
        -11    1    3    3    0    0  0.79230725311E+01  0.55257729799E+02  0.76808915686E+02  0.94951573498E+02  0.00000000000E+00 0. -1.
          4    1    6    6  502    0 -0.38205879658E+02 -0.53457843310E+03 -0.36182214633E+03  0.64664445869E+03  0.00000000000E+00 0. -1.
          1    1    5    5  503    0 -0.12650919910E+03  0.21429172178E+03 -0.34053106161E+03  0.42176643228E+03  0.00000000000E+00 0. -1.
         -2    1    5    5    0  503 -0.33955352046E+02  0.12681602534E+03 -0.11273713652E+03  0.17304604060E+03  0.00000000000E+00 0.  1.
         -3    1    6    6    0  502 -0.41105451260E+01 -0.21278652198E+00  0.13784144532E+01  0.43407241033E+01  0.00000000000E+00 0.  1.
<mgrwt>
<rscale>  0 0.17079318E+04</rscale>
<asrwt>0</asrwt>
<pdfrwt beam="1">  1        2 0.16567484E+00 0.17079318E+04</pdfrwt>
<pdfrwt beam="2">  1       -2 0.10418323E+00 0.17079318E+04</pdfrwt>
<totfact> 0.16041379E+01</totfact>
</mgrwt>
</event>
<event>
12    1  0.1489025E-007  0.2666307E+04  0.7818608E-02  0.8346021E-01
          2   -1    0    0  501    0  0.00000000000E+00  0.00000000000E+00  0.39484956688E+04  0.39484956688E+04  0.00000000000E+00 0. -1.
         -2   -1    0    0    0  501 -0.00000000000E+00 -0.00000000000E+00 -0.45012040099E+03  0.45012040099E+03  0.00000000000E+00 0.  1.
         23    2    1    2    0    0 -0.55822376844E+03 -0.31833156697E+03 -0.82204696578E+02  0.65144667793E+03  0.68384207707E+02 0.  0.
        254    2    1    2    0    0  0.55822376844E+03  0.31833156697E+03  0.35805799644E+04  0.37471693919E+04  0.89876404456E+03 0.  0.
        -24    2    4    4    0    0  0.97939391891E+02  0.34528538135E+03  0.44647340699E+03  0.57834501158E+03  0.79563372332E+02 0.  0.
         24    2    4    4    0    0  0.46028437655E+03 -0.26953814379E+02  0.31341065574E+04  0.31688243803E+04  0.78967237178E+02 0.  0.
         11    1    3    3    0    0 -0.53691419053E+03 -0.30669430200E+03 -0.92234862496E+02  0.62517638530E+03  0.00000000000E+00 0.  1.
        -11    1    3    3    0    0 -0.21309577913E+02 -0.11637264966E+02  0.10030165917E+02  0.26270292634E+02  0.00000000000E+00 0. -1.
          4    1    6    6  502    0  0.10824446149E+03  0.13641842697E+02  0.57020308923E+03  0.58054674772E+03  0.00000000000E+00 0. -1.
          3    1    5    5  503    0 -0.93286965278E+01  0.13718358948E+02  0.37688448851E+02  0.41178114672E+02  0.00000000000E+00 0. -1.
         -4    1    5    5    0  503  0.10726808842E+03  0.33156702240E+03  0.40878495813E+03  0.53716689691E+03  0.00000000000E+00 0.  1.
         -3    1    6    6    0  502  0.35203991506E+03 -0.40595657077E+02  0.25639034682E+04  0.25882776326E+04  0.00000000000E+00 0.  1.
<mgrwt>
<rscale>  0 0.26663071E+04</rscale>
<asrwt>0</asrwt>
<pdfrwt beam="1">  1        2 0.60746085E+00 0.26663071E+04</pdfrwt>
<pdfrwt beam="2">  1       -2 0.69249295E-01 0.26663071E+04</pdfrwt>
<totfact> 0.63108864E-01</totfact>
</mgrwt>
</event>
<event>
12    1  0.1489025E-007  0.1680615E+04  0.7818608E-02  0.8772498E-01
          2   -1    0    0  501    0  0.00000000000E+00  0.00000000000E+00  0.25618100244E+04  0.25618100244E+04  0.00000000000E+00 0. -1.
         -2   -1    0    0    0  501 -0.00000000000E+00 -0.00000000000E+00 -0.27563200448E+03  0.27563200448E+03  0.00000000000E+00 0.  1.
         23    2    1    2    0    0 -0.21351380376E+02  0.47202267366E+03  0.14111303882E+04  0.14910371580E+04  0.92959928844E+02 0.  0.
        254    2    1    2    0    0  0.21351380376E+02 -0.47202267366E+03  0.87504763177E+03  0.13464048708E+04  0.90765435738E+03 0.  0.
        -24    2    4    4    0    0  0.11947267167E+02  0.25392637219E+03  0.37966702549E+03  0.46375521037E+03  0.79375721828E+02 0.  0.
         24    2    4    4    0    0  0.94041132090E+01 -0.72594904585E+03  0.49538060628E+03  0.88264966047E+03  0.81105015450E+02 0.  0.
         13    1    3    3    0    0 -0.10736164691E+02  0.35949191146E+03  0.93783667589E+03  0.10044338357E+04  0.00000000000E+00 0. -1.
        -13    1    3    3    0    0 -0.10615215685E+02  0.11253076220E+03  0.47329371227E+03  0.48660332235E+03  0.00000000000E+00 0.  1.
          4    1    6    6  502    0 -0.27502700626E+02 -0.20087749103E+03  0.16272777462E+03  0.25997787132E+03  0.00000000000E+00 0. -1.
          3    1    5    5  503    0 -0.31623304941E+02  0.14394323939E+03  0.22643587520E+03  0.27017197330E+03  0.00000000000E+00 0. -1.
         -4    1    5    5    0  503  0.43570572108E+02  0.10998313280E+03  0.15323115029E+03  0.19358323707E+03  0.00000000000E+00 0.  1.
         -3    1    6    6    0  502  0.36906813835E+02 -0.52507155482E+03  0.33265283166E+03  0.62267178915E+03  0.00000000000E+00 0.  1.
<mgrwt>
<rscale>  0 0.16806152E+04</rscale>
<asrwt>0</asrwt>
<pdfrwt beam="1">  1        2 0.39412460E+00 0.16806152E+04</pdfrwt>
<pdfrwt beam="2">  1       -2 0.42404926E-01 0.16806152E+04</pdfrwt>
<totfact> 0.16129637E+01</totfact>
</mgrwt>
</event>
<event>
12    1  0.1489025E-007  0.1475923E+04  0.7818608E-02  0.8900624E-01
         -1   -1    0    0    0  501 -0.00000000000E+00  0.00000000000E+00  0.22639527193E+03  0.22639527193E+03  0.00000000000E+00 0.  1.
          1   -1    0    0  501    0  0.00000000000E+00 -0.00000000000E+00 -0.24054707831E+04  0.24054707831E+04  0.00000000000E+00 0. -1.
         23    2    1    2    0    0 -0.14415674565E+03 -0.20922791127E+03 -0.13625482194E+02  0.26942905169E+03  0.88593870887E+02 0.  0.
        254    2    1    2    0    0  0.14415674565E+03  0.20922791127E+03 -0.21654500290E+04  0.23624370033E+04  0.90960281473E+03 0.  0.
        -24    2    4    4    0    0 -0.23840279991E+03  0.38047847545E+03 -0.70508458671E+03  0.84066664218E+03  0.89310489663E+02 0.  0.
         24    2    4    4    0    0  0.38255954556E+03 -0.17125056418E+03 -0.14603654423E+04  0.15217703612E+04  0.86251060900E+02 0.  0.
         13    1    3    3    0    0 -0.23762253300E+02  0.27225678824E+01  0.66629160119E+01  0.24828441505E+02  0.00000000000E+00 0. -1.
        -13    1    3    3    0    0 -0.12039449235E+03 -0.21195047915E+03 -0.20288398206E+02  0.24460061018E+03  0.00000000000E+00 0.  1.
          2    1    6    6  502    0  0.21078702080E+02  0.60775657029E+01 -0.42267690583E+02  0.47621488358E+02  0.00000000000E+00 0. -1.
          3    1    5    5  503    0 -0.33349665474E+02  0.37521831001E+02 -0.37603377415E+02  0.62722420089E+02  0.00000000000E+00 0. -1.
         -4    1    5    5    0  503 -0.20505313444E+03  0.34295664445E+03 -0.66748120930E+03  0.77794422209E+03  0.00000000000E+00 0.  1.
         -1    1    6    6    0  502  0.36148084348E+03 -0.17732812989E+03 -0.14180977517E+04  0.14741488728E+04  0.00000000000E+00 0.  1.
<mgrwt>
<rscale>  0 0.14759230E+04</rscale>
<asrwt>0</asrwt>
<pdfrwt beam="1">  1        1 0.37007243E+00 0.14759230E+04</pdfrwt>
<pdfrwt beam="2">  1       -1 0.34830041E-01 0.14759230E+04</pdfrwt>
<totfact> 0.11976891E+01</totfact>
</mgrwt>
</event>
<event>
12    1  0.1489025E-007  0.1556672E+04  0.7818608E-02  0.8847617E-01
         -2   -1    0    0    0  501 -0.00000000000E+00  0.00000000000E+00  0.49211280404E+03  0.49211280404E+03  0.00000000000E+00 0.  1.
          2   -1    0    0  501    0  0.00000000000E+00 -0.00000000000E+00 -0.12310320892E+04  0.12310320892E+04  0.00000000000E+00 0. -1.
         23    2    1    2    0    0 -0.14905441240E+03 -0.37964670871E+03  0.94509244707E+02  0.42862913731E+03  0.91880894238E+02 0.  0.
        254    2    1    2    0    0  0.14905441240E+03  0.37964670871E+03 -0.83342852990E+03  0.12945157560E+04  0.90267330010E+03 0.  0.
        -24    2    4    4    0    0 -0.25069876308E+03  0.20333748602E+03  0.18721350794E+02  0.33333662466E+03  0.81035876854E+02 0.  0.
         24    2    4    4    0    0  0.39975317547E+03  0.17630922269E+03 -0.85214988070E+03  0.96117913130E+03  0.82573361188E+02 0.  0.
         11    1    3    3    0    0 -0.79871737064E+02 -0.15691416227E+03 -0.23457969713E+01  0.17608819229E+03  0.00000000000E+00 0. -1.
        -11    1    3    3    0    0 -0.69182675334E+02 -0.22273254645E+03  0.96855041679E+02  0.25254094502E+03  0.00000000000E+00 0.  1.
          2    1    6    6  502    0  0.30782832195E+03  0.96132037559E+02 -0.63013355546E+03  0.70786152753E+03  0.00000000000E+00 0. -1.
          3    1    5    5  503    0 -0.22081049977E+03  0.19798404671E+03 -0.19952019717E+01  0.29657872546E+03  0.00000000000E+00 0. -1.
         -4    1    5    5    0  503 -0.29888263302E+02  0.53534393104E+01  0.20716552765E+02  0.36757899207E+02  0.00000000000E+00 0.  1.
         -1    1    6    6    0  502  0.91924853524E+02  0.80177185132E+02 -0.22201632524E+03  0.25331760378E+03  0.00000000000E+00 0.  1.
<mgrwt>
<rscale>  0 0.15566716E+04</rscale>
<asrwt>0</asrwt>
<pdfrwt beam="1">  1        2 0.18938955E+00 0.15566716E+04</pdfrwt>
<pdfrwt beam="2">  1       -2 0.75709664E-01 0.15566716E+04</pdfrwt>
<totfact> 0.27310303E+01</totfact>
</mgrwt>
</event>
<event>
12    1  0.1489025E-007  0.1350453E+04  0.7818608E-02  0.8990485E-01
         -2   -1    0    0    0  501 -0.00000000000E+00  0.00000000000E+00  0.34596170223E+03  0.34596170223E+03  0.00000000000E+00 0.  1.
          2   -1    0    0  501    0  0.00000000000E+00 -0.00000000000E+00 -0.13178657368E+04  0.13178657368E+04  0.00000000000E+00 0. -1.
         23    2    1    2    0    0 -0.98934027677E+02  0.32199749775E+03 -0.87245593139E+02  0.35969616535E+03  0.91099986052E+02 0.  0.
        254    2    1    2    0    0  0.98934027677E+02 -0.32199749775E+03 -0.88465844146E+03  0.13041312737E+04  0.89703260289E+03 0.  0.
        -24    2    4    4    0    0 -0.15028107314E+03 -0.53897771211E+03 -0.74870346346E+03  0.93810380348E+03  0.80003092517E+02 0.  0.
         24    2    4    4    0    0  0.24921510081E+03  0.21698021436E+03 -0.13595497799E+03  0.36602747023E+03  0.79396303594E+02 0.  0.
         11    1    3    3    0    0 -0.86905855268E+02  0.24863968045E+03 -0.28458693800E+02  0.26492303718E+03  0.00000000000E+00 0.  1.
        -11    1    3    3    0    0 -0.12028172409E+02  0.73357817296E+02 -0.58786899339E+02  0.94773128173E+02  0.00000000000E+00 0. -1.
          2    1    6    6  502    0  0.17549318281E+03  0.11363115274E+03 -0.57653020615E+02  0.21687269739E+03  0.00000000000E+00 0. -1.
          1    1    5    5  503    0 -0.15460920732E+03 -0.47668410228E+03 -0.68664958318E+03  0.85007022676E+03  0.00000000000E+00 0. -1.
         -2    1    5    5    0  503  0.43281341821E+01 -0.62293609833E+02 -0.62053880287E+02  0.88033576721E+02  0.00000000000E+00 0.  1.
         -1    1    6    6    0  502  0.73721917999E+02  0.10334906162E+03 -0.78301957379E+02  0.14915477284E+03  0.00000000000E+00 0.  1.
<mgrwt>
<rscale>  0 0.13504534E+04</rscale>
<asrwt>0</asrwt>
<pdfrwt beam="1">  1        2 0.20274857E+00 0.13504534E+04</pdfrwt>
<pdfrwt beam="2">  1       -2 0.53224878E-01 0.13504534E+04</pdfrwt>
<totfact> 0.52454009E+01</totfact>
</mgrwt>
</event>
<event>
12    1  0.1489025E-007  0.1191178E+04  0.7818608E-02  0.9120614E-01
          2   -1    0    0  501    0  0.00000000000E+00  0.00000000000E+00  0.19382556972E+04  0.19382556972E+04  0.00000000000E+00 0. -1.
         -2   -1    0    0    0  501 -0.00000000000E+00 -0.00000000000E+00 -0.18301312310E+03  0.18301312310E+03  0.00000000000E+00 0.  1.
         23    2    1    2    0    0 -0.67150869477E+02 -0.85777441111E+00  0.78590277377E+03  0.79506872157E+03  0.99905591260E+02 0.  0.
        254    2    1    2    0    0  0.67150869477E+02  0.85777441111E+00  0.96933980031E+03  0.13262000987E+04  0.90259463676E+03 0.  0.
        -24    2    4    4    0    0 -0.78639852152E+02  0.34657509968E+03  0.84891729062E+03  0.92367989268E+03  0.78901531976E+02 0.  0.
         24    2    4    4    0    0  0.14579072163E+03 -0.34571732527E+03  0.12042250968E+03  0.40252020603E+03  0.82131187257E+02 0.  0.
         11    1    3    3    0    0  0.12260692762E+02  0.31963946161E+02  0.24607272635E+03  0.24844276020E+03  0.00000000000E+00 0.  1.
        -11    1    3    3    0    0 -0.79411562239E+02 -0.32821720572E+02  0.53983004741E+03  0.54662596137E+03  0.00000000000E+00 0. -1.
          4    1    6    6  502    0  0.14285707298E+03 -0.33742528346E+03  0.99296558908E+02  0.37963636789E+03  0.00000000000E+00 0. -1.
          1    1    5    5  503    0 -0.44169759284E+02  0.14133512606E+03  0.45003720407E+03  0.47377217155E+03  0.00000000000E+00 0. -1.
         -2    1    5    5    0  503 -0.34470092867E+02  0.20523997362E+03  0.39888008656E+03  0.44990772112E+03  0.00000000000E+00 0.  1.
         -3    1    6    6    0  502  0.29336486511E+01 -0.82920418126E+01  0.21125950774E+02  0.22883838138E+02  0.00000000000E+00 0.  1.
<mgrwt>
<rscale>  0 0.11911780E+04</rscale>
<asrwt>0</asrwt>
<pdfrwt beam="1">  1        2 0.29819317E+00 0.11911780E+04</pdfrwt>
<pdfrwt beam="2">  1       -2 0.28155866E-01 0.11911780E+04</pdfrwt>
<totfact> 0.82453458E+01</totfact>
</mgrwt>
</event>
<event>
12    1  0.1489025E-007  0.1171334E+04  0.7818608E-02  0.9138325E-01
         -1   -1    0    0    0  501 -0.00000000000E+00  0.00000000000E+00  0.41310804019E+03  0.41310804019E+03  0.00000000000E+00 0.  1.
          1   -1    0    0  501    0  0.00000000000E+00 -0.00000000000E+00 -0.83030513727E+03  0.83030513727E+03  0.00000000000E+00 0. -1.
         23    2    1    2    0    0  0.10422269581E+03  0.12425615965E+03 -0.23083788840E+03  0.29560101389E+03  0.88271542202E+02 0.  0.
        254    2    1    2    0    0 -0.10422269581E+03 -0.12425615965E+03 -0.18635920869E+03  0.94781216357E+03  0.91504982335E+03 0.  0.
        -24    2    4    4    0    0  0.37476952936E+03  0.72266880105E+01  0.59720408599E+02  0.38788700610E+03  0.79908554865E+02 0.  0.
         24    2    4    4    0    0 -0.47899222516E+03 -0.13148284766E+03 -0.24607961728E+03  0.55992515747E+03  0.78991853575E+02 0.  0.
         13    1    3    3    0    0  0.75807748189E+02  0.46664794295E+02 -0.17356590306E+03  0.19506291400E+03  0.00000000000E+00 0. -1.
        -13    1    3    3    0    0  0.28414947617E+02  0.77591365358E+02 -0.57271985333E+02  0.10053809989E+03  0.00000000000E+00 0.  1.
          4    1    6    6  502    0 -0.46046927393E+03 -0.12381193722E+03 -0.25159721634E+03  0.53913125238E+03  0.00000000000E+00 0. -1.
          3    1    5    5  503    0  0.34730486481E+03  0.27148585946E+02  0.62174582243E+02  0.35386917571E+03  0.00000000000E+00 0. -1.
         -4    1    5    5    0  503  0.27464664550E+02 -0.19921897935E+02 -0.24541736436E+01  0.34017830390E+02  0.00000000000E+00 0.  1.
         -3    1    6    6    0  502 -0.18522951237E+02 -0.76709104387E+01  0.55175990527E+01  0.20793905087E+02  0.00000000000E+00 0.  1.
<mgrwt>
<rscale>  0 0.11713338E+04</rscale>
<asrwt>0</asrwt>
<pdfrwt beam="1">  1        1 0.12773925E+00 0.11713338E+04</pdfrwt>
<pdfrwt beam="2">  1       -1 0.63555083E-01 0.11713338E+04</pdfrwt>
<totfact> 0.51839389E+01</totfact>
</mgrwt>
</event>
<event>
12    1  0.1489025E-007  0.2377166E+04  0.7818608E-02  0.8448102E-01
         -1   -1    0    0    0  501 -0.00000000000E+00  0.00000000000E+00  0.94499587756E+03  0.94499587756E+03  0.00000000000E+00 0.  1.
          1   -1    0    0  501    0  0.00000000000E+00 -0.00000000000E+00 -0.14949580847E+04  0.14949580847E+04  0.00000000000E+00 0. -1.
         23    2    1    2    0    0  0.40607217865E+03 -0.68554561576E+03 -0.87877943956E+03  0.11898596645E+04  0.92980171198E+02 0.  0.
        254    2    1    2    0    0 -0.40607217865E+03  0.68554561576E+03  0.32881723242E+03  0.12500942978E+04  0.90539912493E+03 0.  0.
        -24    2    4    4    0    0 -0.62338134917E+03  0.40803450647E+03  0.44382341218E+03  0.87089504223E+03  0.79890477632E+02 0.  0.
         24    2    4    4    0    0  0.21730917052E+03  0.27751110929E+03 -0.11500617975E+03  0.37919925554E+03  0.79561062407E+02 0.  0.
         13    1    3    3    0    0  0.17619719697E+03 -0.25219116974E+03 -0.28194919789E+03  0.41730227475E+03  0.00000000000E+00 0.  1.
        -13    1    3    3    0    0  0.22987498168E+03 -0.43335444602E+03 -0.59683024167E+03  0.77255738975E+03  0.00000000000E+00 0. -1.
          4    1    6    6  502    0  0.20142602128E+03  0.24420819796E+03 -0.12597791295E+03  0.34070591505E+03  0.00000000000E+00 0. -1.
          3    1    5    5  503    0 -0.53321977247E+03  0.35292735192E+03  0.34674095822E+03  0.72739970690E+03  0.00000000000E+00 0. -1.
         -4    1    5    5    0  503 -0.90161576701E+02  0.55107154556E+02  0.97082453954E+02  0.14349533533E+03  0.00000000000E+00 0.  1.
         -3    1    6    6    0  502  0.15883149238E+02  0.33302911331E+02  0.10971733196E+02  0.38493340491E+02  0.00000000000E+00 0.  1.
<mgrwt>
<rscale>  0 0.23771657E+04</rscale>
<asrwt>0</asrwt>
<pdfrwt beam="1">  1        1 0.22999355E+00 0.23771657E+04</pdfrwt>
<pdfrwt beam="2">  1       -1 0.14538398E+00 0.23771657E+04</pdfrwt>
<totfact> 0.22465939E+00</totfact>
</mgrwt>
</event>
<event>
12    1  0.1489025E-007  0.1531772E+04  0.7818608E-02  0.8863595E-01
         -2   -1    0    0    0  501 -0.00000000000E+00  0.00000000000E+00  0.26510811816E+03  0.26510811816E+03  0.00000000000E+00 0. -1.
          2   -1    0    0  501    0  0.00000000000E+00 -0.00000000000E+00 -0.22126124650E+04  0.22126124650E+04  0.00000000000E+00 0.  1.
         23    2    1    2    0    0 -0.28694659821E+03  0.39451739152E+03 -0.76074262094E+03  0.90819915879E+03  0.90078045454E+02 0.  0.
        254    2    1    2    0    0  0.28694659821E+03 -0.39451739152E+03 -0.11867617259E+04  0.15695214243E+04  0.90388704219E+03 0.  0.
        -24    2    4    4    0    0  0.40897930881E+03  0.79990443147E+02 -0.90539786258E+03  0.99989179267E+03  0.79848365453E+02 0.  0.
         24    2    4    4    0    0 -0.12203271060E+03 -0.47450783467E+03 -0.28136386331E+03  0.56962963168E+03  0.72543959723E+02 0.  0.
         13    1    3    3    0    0 -0.50993815325E+02  0.45882950404E+02 -0.62123134046E+02  0.92546734804E+02  0.00000000000E+00 0. -1.
        -13    1    3    3    0    0 -0.23595278288E+03  0.34863444112E+03 -0.69861948689E+03  0.81565242398E+03  0.00000000000E+00 0.  1.
          2    1    6    6  502    0 -0.45913626421E+02 -0.25696589194E+03 -0.18434930078E+03  0.31956876476E+03  0.00000000000E+00 0. -1.
          3    1    5    5  503    0  0.23087685855E+03  0.70555541237E+02 -0.44713500235E+03  0.50814556826E+03  0.00000000000E+00 0. -1.
         -4    1    5    5    0  503  0.17810245026E+03  0.94349019095E+01 -0.45826286023E+03  0.49174622441E+03  0.00000000000E+00 0.  1.
         -1    1    6    6    0  502 -0.76119084179E+02 -0.21754194272E+03 -0.97014562531E+02  0.25006086692E+03  0.00000000000E+00 0.  1.
<mgrwt>
<rscale>  0 0.15317722E+04</rscale>
<asrwt>0</asrwt>
<pdfrwt beam="1">  1        2 0.34040191E+00 0.15317722E+04</pdfrwt>
<pdfrwt beam="2">  1       -2 0.40785866E-01 0.15317722E+04</pdfrwt>
<totfact> 0.27902478E+01</totfact>
</mgrwt>
</event>
<event>
12    1  0.1489025E-007  0.1797394E+04  0.7818608E-02  0.8707686E-01
         -1   -1    0    0    0  501 -0.00000000000E+00  0.00000000000E+00  0.46270309377E+03  0.46270309377E+03  0.00000000000E+00 0.  1.
          1   -1    0    0  501    0  0.00000000000E+00 -0.00000000000E+00 -0.17455176206E+04  0.17455176206E+04  0.00000000000E+00 0. -1.
         23    2    1    2    0    0 -0.55769353030E+03 -0.98612605565E+02 -0.43083719611E+02  0.57494602098E+03  0.89219955352E+02 0.  0.
        254    2    1    2    0    0  0.55769353030E+03  0.98612605565E+02 -0.12397308072E+04  0.16332746933E+04  0.89994845962E+03 0.  0.
        -24    2    4    4    0    0  0.39698080083E+03 -0.27720165516E+03 -0.23173045839E+03  0.54275659673E+03  0.80319388003E+02 0.  0.
         24    2    4    4    0    0  0.16071272946E+03  0.37581426072E+03 -0.10080003488E+04  0.10905180966E+04  0.78102982971E+02 0.  0.
         13    1    3    3    0    0 -0.81659718183E+02 -0.47213279780E+02 -0.12772389406E+02  0.95186854620E+02  0.00000000000E+00 0. -1.
        -13    1    3    3    0    0 -0.47603381212E+03 -0.51399325785E+02 -0.30311330205E+02  0.47975916636E+03  0.00000000000E+00 0.  1.
          2    1    6    6  502    0  0.19764575836E+02  0.82165299167E+02 -0.14145092859E+03  0.16477299550E+03  0.00000000000E+00 0. -1.
          1    1    5    5  503    0  0.98165948147E+02 -0.40673818783E+02 -0.24848014718E+02  0.10912532587E+03  0.00000000000E+00 0. -1.
         -2    1    5    5    0  503  0.29881485269E+03 -0.23652783637E+03 -0.20688244367E+03  0.43363127086E+03  0.00000000000E+00 0.  1.
         -1    1    6    6    0  502  0.14094815363E+03  0.29364896156E+03 -0.86654942018E+03  0.92574510112E+03  0.00000000000E+00 0.  1.
<mgrwt>
<rscale>  0 0.17973941E+04</rscale>
<asrwt>0</asrwt>
<pdfrwt beam="1">  1        1 0.26854117E+00 0.17973941E+04</pdfrwt>
<pdfrwt beam="2">  1       -1 0.71185091E-01 0.17973941E+04</pdfrwt>
<totfact> 0.83461652E+00</totfact>
</mgrwt>
</event>
<event>
12    1  0.1489025E-007  0.1215986E+04  0.7818608E-02  0.9098978E-01
         -1   -1    0    0    0  501 -0.00000000000E+00  0.00000000000E+00  0.35489205214E+03  0.35489205214E+03  0.00000000000E+00 0.  1.
          1   -1    0    0  501    0  0.00000000000E+00 -0.00000000000E+00 -0.10416000014E+04  0.10416000014E+04  0.00000000000E+00 0. -1.
         23    2    1    2    0    0 -0.23259735628E+03 -0.11897481956E+03 -0.18569209981E+03  0.33392256210E+03  0.93627900275E+02 0.  0.
        254    2    1    2    0    0  0.23259735628E+03  0.11897481956E+03 -0.50101584949E+03  0.10625694915E+04  0.89987805005E+03 0.  0.
        -24    2    4    4    0    0 -0.75488546550E+02 -0.34488676336E+03 -0.28337480829E+03  0.45931612316E+03  0.77618418054E+02 0.  0.
         24    2    4    4    0    0  0.30808590283E+03  0.46386158292E+03 -0.21764104120E+03  0.60325336833E+03  0.80389750280E+02 0.  0.
         11    1    3    3    0    0 -0.51941712663E+02 -0.47195648089E+02 -0.98316631867E+02  0.12079540891E+03  0.00000000000E+00 0. -1.
        -11    1    3    3    0    0 -0.18065564361E+03 -0.71779171474E+02 -0.87375467946E+02  0.21312715319E+03  0.00000000000E+00 0.  1.
          4    1    6    6  502    0  0.12569722488E+03  0.24321821823E+03 -0.13525394333E+03  0.30536621164E+03  0.00000000000E+00 0. -1.
          3    1    5    5  503    0  0.92051375198E+01 -0.13265852973E+03 -0.10499636044E+03  0.16943215684E+03  0.00000000000E+00 0. -1.
         -4    1    5    5    0  503 -0.84693684070E+02 -0.21222823363E+03 -0.17837844784E+03  0.28988396632E+03  0.00000000000E+00 0.  1.
         -3    1    6    6    0  502  0.18238867795E+03  0.22064336469E+03 -0.82387097870E+02  0.29788715669E+03  0.00000000000E+00 0.  1.
<mgrwt>
<rscale>  0 0.12159861E+04</rscale>
<asrwt>0</asrwt>
<pdfrwt beam="1">  1        1 0.16024615E+00 0.12159861E+04</pdfrwt>
<pdfrwt beam="2">  1       -1 0.54598778E-01 0.12159861E+04</pdfrwt>
<totfact> 0.47052826E+01</totfact>
</mgrwt>
</event>
<event>
12    1  0.1489025E-007  0.3398059E+04  0.7818608E-02  0.8138383E-01
          1   -1    0    0  501    0  0.00000000000E+00  0.00000000000E+00  0.22336006932E+04  0.22336006932E+04  0.00000000000E+00 0. -1.
         -1   -1    0    0    0  501 -0.00000000000E+00 -0.00000000000E+00 -0.12923980432E+04  0.12923980432E+04  0.00000000000E+00 0.  1.
         23    2    1    2    0    0  0.45231079366E+03  0.86440325336E+03 -0.84857861283E+03  0.12962490419E+04  0.91639936395E+02 0.  0.
        254    2    1    2    0    0 -0.45231079366E+03 -0.86440325336E+03  0.17897812628E+04  0.22297496945E+04  0.90370830073E+03 0.  0.
        -24    2    4    4    0    0  0.24806637593E+03 -0.21154837032E+03  0.26571118707E+03  0.42802885692E+03  0.79477214154E+02 0.  0.
         24    2    4    4    0    0 -0.70037716959E+03 -0.65285488303E+03  0.15240700758E+04  0.18017208376E+04  0.81613128236E+02 0.  0.
         11    1    3    3    0    0  0.38222843454E+03  0.64864505107E+03 -0.64266329719E+03  0.98987630136E+03  0.00000000000E+00 0.  1.
        -11    1    3    3    0    0  0.70082359114E+02  0.21575820229E+03 -0.20591531564E+03  0.30637274052E+03  0.00000000000E+00 0. -1.
          4    1    6    6  502    0 -0.31406804829E+02 -0.29077527097E+02  0.10530263663E+03  0.11366853238E+03  0.00000000000E+00 0. -1.
          1    1    5    5  503    0  0.58981577089E+02 -0.11436141441E+02  0.42395746904E+02  0.73532381455E+02  0.00000000000E+00 0. -1.
         -2    1    5    5    0  503  0.18908479884E+03 -0.20011222888E+03  0.22331544017E+03  0.35449647547E+03  0.00000000000E+00 0.  1.
         -3    1    6    6    0  502 -0.66897036476E+03 -0.62377735594E+03  0.14187674391E+04  0.16880523052E+04  0.00000000000E+00 0.  1.
<mgrwt>
<rscale>  0 0.33980590E+04</rscale>
<asrwt>0</asrwt>
<pdfrwt beam="1">  1        1 0.34363087E+00 0.33980590E+04</pdfrwt>
<pdfrwt beam="2">  1       -1 0.19883047E+00 0.33980590E+04</pdfrwt>
<totfact> 0.26071221E-01</totfact>
</mgrwt>
</event>
<event>
12    1  0.1489025E-007  0.1789235E+04  0.7818608E-02  0.8712045E-01
          3   -1    0    0  501    0  0.00000000000E+00  0.00000000000E+00  0.13724889366E+04  0.13724889366E+04  0.00000000000E+00 0. -1.
         -3   -1    0    0    0  501 -0.00000000000E+00 -0.00000000000E+00 -0.58313042415E+03  0.58313042415E+03  0.00000000000E+00 0.  1.
         23    2    1    2    0    0 -0.40109246565E+03 -0.18418443405E+03  0.82592096028E+03  0.94078956419E+03  0.90224717777E+02 0.  0.
        254    2    1    2    0    0  0.40109246565E+03  0.18418443405E+03 -0.36562447874E+02  0.10148297965E+04  0.91309563113E+03 0.  0.
        -24    2    4    4    0    0  0.66676881347E+03 -0.15776098522E+02 -0.39573378060E+02  0.67282028239E+03  0.79319255143E+02 0.  0.
         24    2    4    4    0    0 -0.26567634782E+03  0.19996053257E+03  0.30109301857E+01  0.34200951414E+03  0.79958149599E+02 0.  0.
         11    1    3    3    0    0 -0.23888749955E+02  0.10242519900E+02  0.53210297489E+02  0.59219231227E+02  0.00000000000E+00 0.  1.
        -11    1    3    3    0    0 -0.37720371570E+03 -0.19442695395E+03  0.77271066279E+03  0.88157033296E+03  0.00000000000E+00 0. -1.
          2    1    6    6  502    0 -0.17863346803E+03  0.16162893340E+03  0.30948418275E+02  0.24288193141E+03  0.00000000000E+00 0. -1.
          3    1    5    5  503    0  0.65610945713E+03 -0.19592858386E+02 -0.48801920264E+02  0.65821358787E+03  0.00000000000E+00 0. -1.
         -4    1    5    5    0  503  0.10659356340E+02  0.38167598638E+01  0.92285422039E+01  0.14606694515E+02  0.00000000000E+00 0.  1.
         -1    1    6    6    0  502 -0.87042879795E+02  0.38331599164E+02 -0.27937488090E+02  0.99127582731E+02  0.00000000000E+00 0.  1.
<mgrwt>
<rscale>  0 0.17892345E+04</rscale>
<asrwt>0</asrwt>
<pdfrwt beam="1">  1        3 0.21115214E+00 0.17892345E+04</pdfrwt>
<pdfrwt beam="2">  1       -3 0.89712373E-01 0.17892345E+04</pdfrwt>
<totfact> 0.34854030E-01</totfact>
</mgrwt>
</event>
<event>
12    1  0.1489025E-007  0.1892237E+04  0.7818608E-02  0.8658730E-01
          2   -1    0    0  501    0  0.00000000000E+00  0.00000000000E+00  0.31051834419E+04  0.31051834419E+04  0.00000000000E+00 0. -1.
         -2   -1    0    0    0  501 -0.00000000000E+00 -0.00000000000E+00 -0.28827275344E+03  0.28827275344E+03  0.00000000000E+00 0.  1.
         23    2    1    2    0    0  0.18469724029E+03  0.84588631343E+01 -0.15122650798E+03  0.25681748096E+03  0.94345847132E+02 0.  0.
        254    2    1    2    0    0 -0.18469724029E+03 -0.84588631343E+01  0.29681371964E+04  0.31366387143E+04  0.99723587218E+03 0.  0.
        -24    2    4    4    0    0  0.24366832679E+03 -0.34248505745E+03  0.17300094335E+04  0.17822560899E+04  0.82667174018E+02 0.  0.
         24    2    4    4    0    0 -0.42836556708E+03  0.33402619432E+03  0.12381277628E+04  0.13543826245E+04  0.79507099055E+02 0.  0.
         11    1    3    3    0    0  0.17927147739E+03  0.24029783541E+02 -0.10826640716E+03  0.21080158448E+03  0.00000000000E+00 0.  1.
        -11    1    3    3    0    0  0.54257629052E+01 -0.15570920407E+02 -0.42960100823E+02  0.46015896472E+02  0.00000000000E+00 0. -1.
          2    1    6    6  502    0 -0.37278322498E+03  0.25448693874E+03  0.99420342117E+03  0.10918660071E+04  0.00000000000E+00 0. -1.
          3    1    5    5  503    0  0.20621735100E+03 -0.31960079878E+03  0.16142682396E+04  0.16584728565E+04  0.00000000000E+00 0. -1.
         -4    1    5    5    0  503  0.37450975784E+02 -0.22884258675E+02  0.11574119395E+03  0.12378323336E+03  0.00000000000E+00 0.  1.
         -3    1    6    6    0  502 -0.55582342102E+02  0.79539255575E+02  0.24392434167E+03  0.26251661736E+03  0.00000000000E+00 0.  1.
<mgrwt>
<rscale>  0 0.18922365E+04</rscale>
<asrwt>0</asrwt>
<pdfrwt beam="1">  1        2 0.47772051E+00 0.18922365E+04</pdfrwt>
<pdfrwt beam="2">  1       -2 0.44349657E-01 0.18922365E+04</pdfrwt>
<totfact> 0.67735152E+00</totfact>
</mgrwt>
</event>
<event>
12    1  0.1489025E-007  0.1118668E+04  0.7818608E-02  0.9187186E-01
          2   -1    0    0  501    0  0.00000000000E+00  0.00000000000E+00  0.36379416873E+03  0.36379416873E+03  0.00000000000E+00 0. -1.
         -2   -1    0    0    0  501 -0.00000000000E+00 -0.00000000000E+00 -0.85997657708E+03  0.85997657708E+03  0.00000000000E+00 0.  1.
         23    2    1    2    0    0  0.93134395935E+02 -0.13108438355E+03 -0.16522046718E+03  0.24801141471E+03  0.91404199764E+02 0.  0.
        254    2    1    2    0    0 -0.93134395935E+02  0.13108438355E+03 -0.33096194117E+03  0.97575933111E+03  0.90372193424E+03 0.  0.
        -24    2    4    4    0    0 -0.47771581115E+03 -0.46098946504E+02 -0.17554906893E+03  0.51757142348E+03  0.82007278400E+02 0.  0.
         24    2    4    4    0    0  0.38458141522E+03  0.17718333005E+03 -0.15541287224E+03  0.45818790762E+03  0.80536950883E+02 0.  0.
         11    1    3    3    0    0  0.37390630952E+02 -0.12021362096E+03 -0.95101844221E+02  0.15777748484E+03  0.00000000000E+00 0. -1.
        -11    1    3    3    0    0  0.55743764983E+02 -0.10870762581E+02 -0.70118622958E+02  0.90233929867E+02  0.00000000000E+00 0.  1.
          4    1    6    6  502    0  0.31195614625E+03  0.12258296010E+03 -0.92610748013E+02  0.34773548846E+03  0.00000000000E+00 0. -1.
          3    1    5    5  503    0 -0.37465389113E+03 -0.81495623039E+01 -0.15648276943E+03  0.40610197074E+03  0.00000000000E+00 0. -1.
         -4    1    5    5    0  503 -0.10306192002E+03 -0.37949384200E+02 -0.19066299501E+02  0.11146945275E+03  0.00000000000E+00 0.  1.
         -3    1    6    6    0  502  0.72625268968E+02  0.54600369947E+02 -0.62802124224E+02  0.11045241916E+03  0.00000000000E+00 0.  1.
<mgrwt>
<rscale>  0 0.11186679E+04</rscale>
<asrwt>0</asrwt>
<pdfrwt beam="1">  1        2 0.55968334E-01 0.11186679E+04</pdfrwt>
<pdfrwt beam="2">  1       -2 0.13230409E+00 0.11186679E+04</pdfrwt>
<totfact> 0.36422868E+01</totfact>
</mgrwt>
</event>
<event>
12    1  0.1489025E-007  0.1227259E+04  0.7818608E-02  0.9089326E-01
          2   -1    0    0  501    0  0.00000000000E+00  0.00000000000E+00  0.73170657121E+03  0.73170657121E+03  0.00000000000E+00 0. -1.
         -2   -1    0    0    0  501 -0.00000000000E+00 -0.00000000000E+00 -0.51460639721E+03  0.51460639721E+03  0.00000000000E+00 0.  1.
         23    2    1    2    0    0  0.20892918694E+03 -0.15194894270E+03 -0.51681299949E+02  0.27886300008E+03  0.91398740187E+02 0.  0.
        254    2    1    2    0    0 -0.20892918694E+03  0.15194894270E+03  0.26878147394E+03  0.96744996834E+03  0.89273516463E+03 0.  0.
        -24    2    4    4    0    0 -0.14449336637E+03 -0.35473335677E+03  0.15274812274E+02  0.39174142026E+03  0.80708940772E+02 0.  0.
         24    2    4    4    0    0 -0.64435820567E+02  0.50668229948E+03  0.25350666167E+03  0.57570854808E+03  0.79345934050E+02 0.  0.
         11    1    3    3    0    0  0.18243059357E+03 -0.13501437577E+03 -0.75746223352E+02  0.23926406644E+03  0.00000000000E+00 0.  1.
        -11    1    3    3    0    0  0.26498593362E+02 -0.16934566936E+02  0.24064923403E+02  0.39598933645E+02  0.00000000000E+00 0. -1.
          2    1    6    6  502    0  0.11043051284E+02  0.21676729063E+03  0.11556677938E+03  0.24589771810E+03  0.00000000000E+00 0. -1.
          3    1    5    5  503    0  0.10762871850E+01 -0.81216008859E+02  0.10167125278E+02  0.81857002911E+02  0.00000000000E+00 0. -1.
         -4    1    5    5    0  503 -0.14556965355E+03 -0.27351734792E+03  0.51076869962E+01  0.30988441734E+03  0.00000000000E+00 0.  1.
         -1    1    6    6    0  502 -0.75478871851E+02  0.28991500884E+03  0.13793988228E+03  0.32981082998E+03  0.00000000000E+00 0.  1.
<mgrwt>
<rscale>  0 0.12272585E+04</rscale>
<asrwt>0</asrwt>
<pdfrwt beam="1">  1        2 0.11257024E+00 0.12272585E+04</pdfrwt>
<pdfrwt beam="2">  1       -2 0.79170215E-01 0.12272585E+04</pdfrwt>
<totfact> 0.53992411E+01</totfact>
</mgrwt>
</event>
<event>
12    1  0.1489025E-007  0.2368426E+04  0.7818608E-02  0.8451420E-01
         -2   -1    0    0    0  501 -0.00000000000E+00  0.00000000000E+00  0.37573813545E+03  0.37573813545E+03  0.00000000000E+00 0.  1.
          2   -1    0    0  501    0  0.00000000000E+00 -0.00000000000E+00 -0.37322812755E+04  0.37322812755E+04  0.00000000000E+00 0. -1.
         23    2    1    2    0    0 -0.87195774597E+03  0.46092521533E+03 -0.17830721725E+04  0.20396751471E+04  0.90365748323E+02 0.  0.
        254    2    1    2    0    0  0.87195774597E+03 -0.46092521533E+03 -0.15734709675E+04  0.20683442638E+04  0.91075504014E+03 0.  0.
        -24    2    4    4    0    0  0.36543945492E+03 -0.68684942603E+03 -0.92332934194E+03  0.12100546049E+04  0.79918357834E+02 0.  0.
         24    2    4    4    0    0  0.50651829105E+03  0.22592421070E+03 -0.65014162552E+03  0.85828965886E+03  0.79840322662E+02 0.  0.
         13    1    3    3    0    0 -0.12897640436E+03  0.57016206093E+02 -0.19749869451E+03  0.24267569918E+03  0.00000000000E+00 0. -1.
        -13    1    3    3    0    0 -0.74298134161E+03  0.40390900924E+03 -0.15855734780E+04  0.17969994480E+04  0.00000000000E+00 0.  1.
          4    1    6    6  502    0  0.39647441501E+03  0.20213936078E+03 -0.55100008640E+03  0.70827493119E+03  0.00000000000E+00 0. -1.
          1    1    5    5  503    0  0.56291923485E+02 -0.58480080245E+02 -0.81567937706E+02  0.11507401486E+03  0.00000000000E+00 0. -1.
         -4    1    5    5    0  503  0.30914753144E+03 -0.62836934579E+03 -0.84176140423E+03  0.10949805900E+04  0.00000000000E+00 0.  1.
         -3    1    6    6    0  502  0.11004387604E+03  0.23784849920E+02 -0.99141539120E+02  0.15001472767E+03  0.00000000000E+00 0.  1.
<mgrwt>
<rscale>  0 0.23684260E+04</rscale>
<asrwt>0</asrwt>
<pdfrwt beam="1">  1        2 0.57419714E+00 0.23684260E+04</pdfrwt>
<pdfrwt beam="2">  1       -2 0.57805865E-01 0.23684260E+04</pdfrwt>
<totfact> 0.13998168E+00</totfact>
</mgrwt>
</event>
<event>
12    1  0.1489025E-007  0.2185834E+04  0.7818608E-02  0.8524348E-01
         -2   -1    0    0    0  501 -0.00000000000E+00  0.00000000000E+00  0.45196439778E+03  0.45196439778E+03  0.00000000000E+00 0.  1.
          2   -1    0    0  501    0  0.00000000000E+00 -0.00000000000E+00 -0.26428346355E+04  0.26428346355E+04  0.00000000000E+00 0. -1.
         23    2    1    2    0    0 -0.23999938178E+03  0.86857527520E+03 -0.10278759055E+04  0.13699289186E+04  0.90297579118E+02 0.  0.
        254    2    1    2    0    0  0.23999938178E+03 -0.86857527520E+03 -0.11629943322E+04  0.17248701147E+04  0.90033237419E+03 0.  0.
        -24    2    4    4    0    0 -0.67593052672E+01 -0.95923148094E+03 -0.10593952510E+04  0.14311698908E+04  0.75883043507E+02 0.  0.
         24    2    4    4    0    0  0.24675868705E+03  0.90656205738E+02 -0.10359908122E+03  0.29370022393E+03  0.80116506639E+02 0.  0.
         11    1    3    3    0    0 -0.24333249684E+03  0.80806802061E+03 -0.94076308880E+03  0.12638116233E+04  0.00000000000E+00 0. -1.
        -11    1    3    3    0    0  0.33331150554E+01  0.60507254592E+02 -0.87112816727E+02  0.10611729526E+03  0.00000000000E+00 0.  1.
          4    1    6    6  502    0  0.24400706442E+03  0.96615757671E+02 -0.10997456555E+03  0.28454956894E+03  0.00000000000E+00 0. -1.
          3    1    5    5  503    0  0.17271031880E+02 -0.44822696718E+03 -0.54249727184E+03  0.70392399633E+03  0.00000000000E+00 0. -1.
         -4    1    5    5    0  503 -0.24030337147E+02 -0.51100451376E+03 -0.51689797914E+03  0.72724589447E+03  0.00000000000E+00 0.  1.
         -3    1    6    6    0  502  0.27516226293E+01 -0.59595519328E+01  0.63754843302E+01  0.91506549917E+01  0.00000000000E+00 0.  1.
<mgrwt>
<rscale>  0 0.21858336E+04</rscale>
<asrwt>0</asrwt>
<pdfrwt beam="1">  1        2 0.40658995E+00 0.21858336E+04</pdfrwt>
<pdfrwt beam="2">  1       -2 0.69532984E-01 0.21858336E+04</pdfrwt>
<totfact> 0.49582152E+00</totfact>
</mgrwt>
</event>
<event>
12    1  0.1489025E-007  0.1860935E+04  0.7818608E-02  0.8674549E-01
          2   -1    0    0  501    0  0.00000000000E+00  0.00000000000E+00  0.11984827757E+04  0.11984827757E+04  0.00000000000E+00 0. -1.
         -2   -1    0    0    0  501 -0.00000000000E+00 -0.00000000000E+00 -0.72238837176E+03  0.72238837176E+03  0.00000000000E+00 0.  1.
         23    2    1    2    0    0  0.66469205246E+03 -0.24986183914E+03  0.19299036000E+03  0.74201564258E+03  0.95370181480E+02 0.  0.
        254    2    1    2    0    0 -0.66469205246E+03  0.24986183914E+03  0.28310404397E+03  0.11788555049E+04  0.89738839891E+03 0.  0.
        -24    2    4    4    0    0 -0.74349751109E+03 -0.66728111019E+02  0.18298702567E+02  0.75087970257E+03  0.79020854283E+02 0.  0.
         24    2    4    4    0    0  0.78805458629E+02  0.31658995016E+03  0.26480534141E+03  0.42797580235E+03  0.81252210511E+02 0.  0.
         13    1    3    3    0    0  0.12987072823E+03 -0.62356095436E+02  0.23881680322E+01  0.14408466967E+03  0.00000000000E+00 0. -1.
        -13    1    3    3    0    0  0.53482132424E+03 -0.18750574370E+03  0.19060219196E+03  0.59793097291E+03  0.00000000000E+00 0.  1.
          2    1    6    6  502    0 -0.30892393322E+01  0.76607139738E+02  0.29821003222E+02  0.82264752425E+02  0.00000000000E+00 0. -1.
          1    1    5    5  503    0 -0.24328775951E+03 -0.59054011811E+02  0.26500097447E+01  0.25036639709E+03  0.00000000000E+00 0. -1.
         -2    1    5    5    0  503 -0.50020975158E+03 -0.76740992082E+01  0.15648692822E+02  0.50051330548E+03  0.00000000000E+00 0.  1.
         -3    1    6    6    0  502  0.81894697962E+02  0.23998281042E+03  0.23498433818E+03  0.34571104993E+03  0.00000000000E+00 0.  1.
<mgrwt>
<rscale>  0 0.18609353E+04</rscale>
<asrwt>0</asrwt>
<pdfrwt beam="1">  1        2 0.18438196E+00 0.18609353E+04</pdfrwt>
<pdfrwt beam="2">  1       -2 0.11113667E+00 0.18609353E+04</pdfrwt>
<totfact> 0.11429329E+01</totfact>
</mgrwt>
</event>
<event>
12    1  0.1489025E-007  0.1748991E+04  0.7818608E-02  0.8733906E-01
         -2   -1    0    0    0  501 -0.00000000000E+00  0.00000000000E+00  0.48308607147E+03  0.48308607147E+03  0.00000000000E+00 0.  1.
          2   -1    0    0  501    0  0.00000000000E+00 -0.00000000000E+00 -0.15830349766E+04  0.15830349766E+04  0.00000000000E+00 0. -1.
         23    2    1    2    0    0  0.57360547724E+02  0.49404482127E+03  0.73928634127E+02  0.51115367091E+03  0.91880979977E+02 0.  0.
        254    2    1    2    0    0 -0.57360547724E+02 -0.49404482127E+03 -0.11738775392E+04  0.15549673771E+04  0.89026094431E+03 0.  0.
        -24    2    4    4    0    0  0.81257172531E+02 -0.62448523385E+03 -0.11896328852E+04  0.13483257369E+04  0.78557978076E+02 0.  0.
         24    2    4    4    0    0 -0.13861772025E+03  0.13044041259E+03  0.15755345946E+02  0.20664164022E+03  0.78885758809E+02 0.  0.
         11    1    3    3    0    0 -0.34591652303E+01  0.38503164232E+02  0.31031406521E+02  0.49572246980E+02  0.00000000000E+00 0. -1.
        -11    1    3    3    0    0  0.60819712954E+02  0.45554165703E+03  0.42897227606E+02  0.46158142393E+03  0.00000000000E+00 0.  1.
          2    1    6    6  502    0 -0.19303037637E+02  0.36152078763E+02 -0.26503611051E+02  0.48805957215E+02  0.00000000000E+00 0. -1.
          1    1    5    5  503    0 -0.48371287375E+01 -0.78610088193E+02 -0.19827354736E+03  0.21334325244E+03  0.00000000000E+00 0. -1.
         -2    1    5    5    0  503  0.86094301268E+02 -0.54587514566E+03 -0.99135933781E+03  0.11349824845E+04  0.00000000000E+00 0.  1.
         -1    1    6    6    0  502 -0.11931468262E+03  0.94288333824E+02  0.42258956997E+02  0.15783568301E+03  0.00000000000E+00 0.  1.
<mgrwt>
<rscale>  0 0.17489907E+04</rscale>
<asrwt>0</asrwt>
<pdfrwt beam="1">  1        2 0.24354384E+00 0.17489907E+04</pdfrwt>
<pdfrwt beam="2">  1       -2 0.74320934E-01 0.17489907E+04</pdfrwt>
<totfact> 0.17603439E+01</totfact>
</mgrwt>
</event>
<event>
12    1  0.1489025E-007  0.3411265E+04  0.7818608E-02  0.8135147E-01
          1   -1    0    0  501    0  0.00000000000E+00  0.00000000000E+00  0.12146271921E+04  0.12146271921E+04  0.00000000000E+00 0. -1.
         -1   -1    0    0    0  501 -0.00000000000E+00 -0.00000000000E+00 -0.23951232524E+04  0.23951232524E+04  0.00000000000E+00 0.  1.
         23    2    1    2    0    0  0.76093779382E+03  0.47105639576E+03 -0.19407052361E+04  0.21388136635E+04  0.85244470146E+02 0.  0.
        254    2    1    2    0    0 -0.76093779382E+03 -0.47105639576E+03  0.76020917576E+03  0.14709367810E+04  0.88589873502E+03 0.  0.
        -24    2    4    4    0    0 -0.87935072430E+03 -0.51347220370E+03  0.82042516064E+03  0.13101361297E+04  0.80298405358E+02 0.  0.
         24    2    4    4    0    0  0.11841293047E+03  0.42415807937E+02 -0.60215984885E+02  0.16080065126E+03  0.80063485715E+02 0.  0.
         13    1    3    3    0    0  0.29938873001E+02  0.95954328830E+01 -0.10756521802E+03  0.11206553697E+03  0.00000000000E+00 0. -1.
        -13    1    3    3    0    0  0.73099892082E+03  0.46146096288E+03 -0.18331400180E+04  0.20267481265E+04  0.00000000000E+00 0.  1.
          4    1    6    6  502    0 -0.40755462316E+01 -0.77449238002E+01 -0.21002109922E+02  0.22752638153E+02  0.00000000000E+00 0. -1.
          3    1    5    5  503    0 -0.19190319809E+03 -0.87238854507E+02  0.13907202236E+03  0.25254402106E+03  0.00000000000E+00 0. -1.
         -4    1    5    5    0  503 -0.68744752621E+03 -0.42623334919E+03  0.68135313828E+03  0.10575921087E+04  0.00000000000E+00 0.  1.
         -3    1    6    6    0  502  0.12248847671E+03  0.50160731737E+02 -0.39213874962E+02  0.13804801311E+03  0.00000000000E+00 0.  1.
<mgrwt>
<rscale>  0 0.34112648E+04</rscale>
<asrwt>0</asrwt>
<pdfrwt beam="1">  1        1 0.18686572E+00 0.34112648E+04</pdfrwt>
<pdfrwt beam="2">  1       -1 0.36848050E+00 0.34112648E+04</pdfrwt>
<totfact> 0.10017891E-01</totfact>
</mgrwt>
</event>
<event>
12    1  0.1489025E-007  0.1493211E+04  0.7818608E-02  0.8888980E-01
         -2   -1    0    0    0  501 -0.00000000000E+00  0.00000000000E+00  0.11589991083E+04  0.11589991083E+04  0.00000000000E+00 0. -1.
          2   -1    0    0  501    0  0.00000000000E+00 -0.00000000000E+00 -0.48094938018E+03  0.48094938018E+03  0.00000000000E+00 0.  1.
         23    2    1    2    0    0  0.19166842233E+03 -0.17989819535E+03  0.62933659837E+03  0.68698016113E+03  0.82322797070E+02 0.  0.
        254    2    1    2    0    0 -0.19166842233E+03  0.17989819535E+03  0.48713129704E+02  0.95296832732E+03  0.91469968791E+03 0.  0.
        -24    2    4    4    0    0  0.11372297047E+02  0.50186071821E+03  0.18481867603E+03  0.54131987114E+03  0.82920143864E+02 0.  0.
         24    2    4    4    0    0 -0.20304071938E+03 -0.32196252287E+03 -0.13610554633E+03  0.41164845618E+03  0.77745301307E+02 0.  0.
         11    1    3    3    0    0  0.17789575693E+03 -0.18852182671E+03  0.59143149765E+03  0.64573879850E+03  0.00000000000E+00 0. -1.
        -11    1    3    3    0    0  0.13772665400E+02  0.86236313586E+01  0.37905100722E+02  0.41241362621E+02  0.00000000000E+00 0.  1.
          2    1    6    6  502    0 -0.11640798642E+03 -0.25037574390E+03 -0.96575250970E+02  0.29251600219E+03  0.00000000000E+00 0. -1.
          1    1    5    5  503    0 -0.17926814528E+02  0.33744340197E+03  0.91851315163E+02  0.35018007412E+03  0.00000000000E+00 0. -1.
         -2    1    5    5    0  503  0.29299111575E+02  0.16441731624E+03  0.92967360868E+02  0.19113979702E+03  0.00000000000E+00 0.  1.
         -1    1    6    6    0  502 -0.86632732955E+02 -0.71586778964E+02 -0.39530295357E+02  0.11913245399E+03  0.00000000000E+00 0.  1.
<mgrwt>
<rscale>  0 0.14932112E+04</rscale>
<asrwt>0</asrwt>
<pdfrwt beam="1">  1        2 0.73992213E-01 0.14932112E+04</pdfrwt>
<pdfrwt beam="2">  1       -2 0.17830755E+00 0.14932112E+04</pdfrwt>
<totfact> 0.11588483E+01</totfact>
</mgrwt>
</event>
<event>
12    1  0.1489025E-007  0.1151117E+04  0.7818608E-02  0.9156754E-01
         -2   -1    0    0    0  501 -0.00000000000E+00  0.00000000000E+00  0.34077107233E+03  0.34077107233E+03  0.00000000000E+00 0.  1.
          2   -1    0    0  501    0  0.00000000000E+00 -0.00000000000E+00 -0.97211099546E+03  0.97211099546E+03  0.00000000000E+00 0. -1.
         23    2    1    2    0    0 -0.24863438807E+01  0.12627172305E+03 -0.31062922954E+03  0.34734520426E+03  0.90594937655E+02 0.  0.
        254    2    1    2    0    0  0.24863438807E+01 -0.12627172305E+03 -0.32071069360E+03  0.96553686354E+03  0.90191759929E+03 0.  0.
        -24    2    4    4    0    0 -0.10115652925E+03 -0.49847951336E+03 -0.15610936306E+03  0.53799048829E+03  0.79681639087E+02 0.  0.
         24    2    4    4    0    0  0.10364287313E+03  0.37220779031E+03 -0.16460133054E+03  0.42754637525E+03  0.80136263006E+02 0.  0.
         13    1    3    3    0    0  0.12868092159E+02  0.55487688575E+02 -0.23819387846E+03  0.24490976933E+03  0.00000000000E+00 0. -1.
        -13    1    3    3    0    0 -0.15354436039E+02  0.70784034471E+02 -0.72435351085E+02  0.10243543493E+03  0.00000000000E+00 0.  1.
          2    1    6    6  502    0  0.64991649059E+02  0.10089273148E+03 -0.40081050560E+02  0.12652963418E+03  0.00000000000E+00 0. -1.
          3    1    5    5  503    0 -0.33419622066E+01 -0.20382760031E+03 -0.50026309988E+02  0.20990352796E+03  0.00000000000E+00 0. -1.
         -4    1    5    5    0  503 -0.97814567041E+02 -0.29465191305E+03 -0.10608305307E+03  0.32808696033E+03  0.00000000000E+00 0.  1.
         -1    1    6    6    0  502  0.38651224070E+02  0.27131505884E+03 -0.12452027998E+03  0.30101674106E+03  0.00000000000E+00 0.  1.
<mgrwt>
<rscale>  0 0.11511165E+04</rscale>
<asrwt>0</asrwt>
<pdfrwt beam="1">  1        2 0.14955553E+00 0.11511165E+04</pdfrwt>
<pdfrwt beam="2">  1       -2 0.52426320E-01 0.11511165E+04</pdfrwt>
<totfact> 0.89232848E+01</totfact>
</mgrwt>
</event>
<event>
12    1  0.1489025E-007  0.1850185E+04  0.7818608E-02  0.8680058E-01
          2   -1    0    0  501    0  0.00000000000E+00  0.00000000000E+00  0.24055585143E+04  0.24055585143E+04  0.00000000000E+00 0.  1.
         -2   -1    0    0    0  501 -0.00000000000E+00 -0.00000000000E+00 -0.35575770375E+03  0.35575770375E+03  0.00000000000E+00 0. -1.
         23    2    1    2    0    0 -0.57294018389E+03  0.40485006124E+03  0.88546269970E+03  0.11341358867E+04  0.10027956166E+03 0.  0.
        254    2    1    2    0    0  0.57294018389E+03 -0.40485006124E+03  0.11643381109E+04  0.16271803314E+04  0.89435371529E+03 0.  0.
        -24    2    4    4    0    0 -0.23220383184E+03 -0.12923389157E+03  0.22459774800E+03  0.35686424148E+03  0.79296407179E+02 0.  0.
         24    2    4    4    0    0  0.80514401573E+03 -0.27561616967E+03  0.93974036288E+03  0.12703160899E+04  0.79811400313E+02 0.  0.
         11    1    3    3    0    0 -0.36796822978E+03  0.30873497458E+03  0.64024257981E+03  0.80039269341E+03  0.00000000000E+00 0.  1.
        -11    1    3    3    0    0 -0.20497195411E+03  0.96115086665E+02  0.24522011989E+03  0.33374319327E+03  0.00000000000E+00 0. -1.
          2    1    6    6  502    0  0.69222753373E+03 -0.21829757877E+03  0.83146006031E+03  0.11037022349E+04  0.00000000000E+00 0. -1.
          1    1    5    5  503    0 -0.10529925151E+03 -0.99330532194E+02  0.95745078141E+02  0.17355577484E+03  0.00000000000E+00 0. -1.
         -4    1    5    5    0  503 -0.12690458034E+03 -0.29903359374E+02  0.12885266985E+03  0.18330846664E+03  0.00000000000E+00 0.  1.
         -1    1    6    6    0  502  0.11291648200E+03 -0.57318590906E+02  0.10828030257E+03  0.16661385505E+03  0.00000000000E+00 0.  1.
<mgrwt>
<rscale>  0 0.18501848E+04</rscale>
<asrwt>0</asrwt>
<pdfrwt beam="1">  1        2 0.37008591E+00 0.18501848E+04</pdfrwt>
<pdfrwt beam="2">  1       -2 0.54731956E-01 0.18501848E+04</pdfrwt>
<totfact> 0.11662537E+01</totfact>
</mgrwt>
</event>
<event>
12    1  0.2132031E-007  0.1416287E+04  0.7818608E-02  0.8942113E-01
          1   -1    0    0  501    0  0.00000000000E+00  0.00000000000E+00  0.10240932926E+04  0.10240932926E+04  0.00000000000E+00 0. -1.
         -1   -1    0    0    0  501 -0.00000000000E+00 -0.00000000000E+00 -0.48966979269E+03  0.48966979269E+03  0.00000000000E+00 0.  1.
         23    2    1    2    0    0  0.29870556045E+03 -0.27090432945E+03  0.24019911769E+03  0.47742256669E+03  0.87307064348E+02 0.  0.
        254    2    1    2    0    0 -0.29870556045E+03  0.27090432945E+03  0.29422438221E+03  0.10363405186E+04  0.90819574753E+03 0.  0.
        -24    2    4    4    0    0 -0.59247736624E+02 -0.18680196108E+03 -0.21726297975E+03  0.30516767614E+03  0.86711252055E+02 0.  0.
         24    2    4    4    0    0 -0.23945782382E+03  0.45770629053E+03  0.51148736196E+03  0.73117284245E+03  0.78481248176E+02 0.  0.
         11    1    3    3    0    0  0.21070632579E+01 -0.94735174282E+01 -0.62394751153E+01  0.11537690313E+02  0.00000000000E+00 0. -1.
        -11    1    3    3    0    0  0.29659849719E+03 -0.26143081202E+03  0.24643859281E+03  0.46588487638E+03  0.00000000000E+00 0.  1.
          2    1    6    6  502    0 -0.13747822762E+02  0.20267159421E+02  0.51939184210E+01  0.25034719297E+02  0.00000000000E+00 0. -1.
          1    1    5    5  503    0 -0.27643202773E+02 -0.42974513220E+02 -0.11901487164E+02  0.52465234610E+02  0.00000000000E+00 0. -1.
         -2    1    5    5    0  503 -0.31604533851E+02 -0.14382744786E+03 -0.20536149259E+03  0.25270244153E+03  0.00000000000E+00 0.  1.
         -1    1    6    6    0  502 -0.22571000106E+03  0.43743913111E+03  0.50629344354E+03  0.70613812316E+03  0.00000000000E+00 0.  1.
<mgrwt>
<rscale>  0 0.14162875E+04</rscale>
<asrwt>0</asrwt>
<pdfrwt beam="1">  1        1 0.15755281E+00 0.14162875E+04</pdfrwt>
<pdfrwt beam="2">  1       -1 0.75333814E-01 0.14162875E+04</pdfrwt>
<totfact> 0.25001177E+01</totfact>
</mgrwt>
</event>
<event>
12    1  0.1489025E-007  0.1741887E+04  0.7818608E-02  0.8737829E-01
          2   -1    0    0  501    0  0.00000000000E+00  0.00000000000E+00  0.86534857481E+03  0.86534857481E+03  0.00000000000E+00 0.  1.
         -2   -1    0    0    0  501 -0.00000000000E+00 -0.00000000000E+00 -0.87657491584E+03  0.87657491584E+03  0.00000000000E+00 0. -1.
         23    2    1    2    0    0  0.46839357775E+03 -0.41936099553E+03 -0.21314203089E+02  0.63627833590E+03  0.95601449961E+02 0.  0.
        254    2    1    2    0    0 -0.46839357775E+03  0.41936099553E+03  0.10087862063E+02  0.11056451548E+04  0.90944667520E+03 0.  0.
        -24    2    4    4    0    0 -0.63744506390E+02 -0.34371820227E+02  0.37635552211E+03  0.39159816801E+03  0.80379487721E+02 0.  0.
         24    2    4    4    0    0 -0.40464907136E+03  0.45373281576E+03 -0.36626766005E+03  0.71404698674E+03  0.78081761187E+02 0.  0.
         13    1    3    3    0    0  0.13547334978E+02 -0.23638368815E+02  0.17090837127E+02  0.32162081384E+02  0.00000000000E+00 0. -1.
        -13    1    3    3    0    0  0.45484624277E+03 -0.39572262672E+03 -0.38405040217E+02  0.60411625451E+03  0.00000000000E+00 0.  1.
          2    1    6    6  502    0 -0.20193624083E+03  0.18954248403E+03 -0.20158453513E+03  0.34255061439E+03  0.00000000000E+00 0. -1.
          3    1    5    5  503    0 -0.27994103896E+02 -0.11029977697E+02  0.29544181917E+02  0.42168577710E+02  0.00000000000E+00 0. -1.
         -4    1    5    5    0  503 -0.35750402494E+02 -0.23341842530E+02  0.34681134020E+03  0.34942959030E+03  0.00000000000E+00 0.  1.
         -1    1    6    6    0  502 -0.20271283052E+03  0.26419033173E+03 -0.16468312492E+03  0.37149637235E+03  0.00000000000E+00 0.  1.
<mgrwt>
<rscale>  0 0.17418873E+04</rscale>
<asrwt>0</asrwt>
<pdfrwt beam="1">  1        2 0.13313055E+00 0.17418873E+04</pdfrwt>
<pdfrwt beam="2">  1       -2 0.13485768E+00 0.17418873E+04</pdfrwt>
<totfact> 0.11616600E+01</totfact>
</mgrwt>
</event>
<event>
12    1  0.1489025E-007  0.1369915E+04  0.7818608E-02  0.8975888E-01
          2   -1    0    0  501    0  0.00000000000E+00  0.00000000000E+00  0.96985194804E+03  0.96985194804E+03  0.00000000000E+00 0. -1.
         -2   -1    0    0    0  501 -0.00000000000E+00 -0.00000000000E+00 -0.48375092526E+03  0.48375092526E+03  0.00000000000E+00 0.  1.
         23    2    1    2    0    0  0.77647429569E+01  0.54410202172E+02  0.55650788305E+03  0.56652821999E+03  0.90732787985E+02 0.  0.
        254    2    1    2    0    0 -0.77647429569E+01 -0.54410202172E+02 -0.70406860276E+02  0.88707465331E+03  0.88256645826E+03 0.  0.
        -24    2    4    4    0    0  0.38287482142E+03 -0.18816447533E+03  0.77657994241E+02  0.44132528563E+03  0.82086813863E+02 0.  0.
         24    2    4    4    0    0 -0.39063956438E+03  0.13375427315E+03 -0.14806485452E+03  0.44574936769E+03  0.79245333026E+02 0.  0.
         13    1    3    3    0    0  0.40977551400E+02  0.37299691239E+02  0.45502476591E+03  0.45838626101E+03  0.00000000000E+00 0. -1.
        -13    1    3    3    0    0 -0.33212808444E+02  0.17110510933E+02  0.10148311714E+03  0.10814195898E+03  0.00000000000E+00 0.  1.
          4    1    6    6  502    0 -0.33227098523E+02  0.35628264604E+02 -0.27781150918E+02  0.56082133173E+02  0.00000000000E+00 0. -1.
          3    1    5    5  503    0  0.55351292698E+02 -0.24433323453E+02  0.41514279209E+02  0.73377028262E+02  0.00000000000E+00 0. -1.
         -4    1    5    5    0  503  0.32752352872E+03 -0.16373115187E+03  0.36143715032E+02  0.36794825736E+03  0.00000000000E+00 0.  1.
         -3    1    6    6    0  502 -0.35741246585E+03  0.98126008551E+02 -0.12028370360E+03  0.38966723451E+03  0.00000000000E+00 0.  1.
<mgrwt>
<rscale>  0 0.13699150E+04</rscale>
<asrwt>0</asrwt>
<pdfrwt beam="1">  1        2 0.14920799E+00 0.13699150E+04</pdfrwt>
<pdfrwt beam="2">  1       -2 0.74423219E-01 0.13699150E+04</pdfrwt>
<totfact> 0.41757651E+01</totfact>
</mgrwt>
</event>
<event>
12    1  0.1489025E-007  0.2151555E+04  0.7818608E-02  0.8538867E-01
         -1   -1    0    0    0  501 -0.00000000000E+00  0.00000000000E+00  0.55093190108E+03  0.55093190108E+03  0.00000000000E+00 0.  1.
          1   -1    0    0  501    0  0.00000000000E+00 -0.00000000000E+00 -0.21006172545E+04  0.21006172545E+04  0.00000000000E+00 0. -1.
         23    2    1    2    0    0 -0.85449954157E+03 -0.23880749408E+03 -0.67562420016E+03  0.11188516545E+04  0.90346440112E+02 0.  0.
        254    2    1    2    0    0  0.85449954157E+03  0.23880749408E+03 -0.87406115326E+03  0.15326975010E+04  0.89329739969E+03 0.  0.
        -24    2    4    4    0    0  0.83517236383E+03  0.50418017820E+03 -0.71990860142E+03  0.12151456216E+04  0.81240124386E+02 0.  0.
         24    2    4    4    0    0  0.19327177744E+02 -0.26537268412E+03 -0.15415255183E+03  0.31755187948E+03  0.79246360482E+02 0.  0.
         13    1    3    3    0    0 -0.22370878930E+03 -0.76780924263E+02 -0.13431327271E+03  0.27199446312E+03  0.00000000000E+00 0. -1.
        -13    1    3    3    0    0 -0.63079075227E+03 -0.16202656982E+03 -0.54131092745E+03  0.84685719142E+03  0.00000000000E+00 0.  1.
          4    1    6    6  502    0 -0.17891765030E+02 -0.31022660642E+02 -0.41699250433E+02  0.54966791937E+02  0.00000000000E+00 0. -1.
          1    1    5    5  503    0  0.82438906357E+01  0.14235569208E+02 -0.48137486325E+01  0.17140167425E+02  0.00000000000E+00 0. -1.
         -2    1    5    5    0  503  0.82692847319E+03  0.48994460899E+03 -0.71509485279E+03  0.11980054541E+04  0.00000000000E+00 0.  1.
         -3    1    6    6    0  502  0.37218942775E+02 -0.23435002347E+03 -0.11245330140E+03  0.26258508754E+03  0.00000000000E+00 0.  1.
<mgrwt>
<rscale>  0 0.21515548E+04</rscale>
<asrwt>0</asrwt>
<pdfrwt beam="1">  1        1 0.32317189E+00 0.21515548E+04</pdfrwt>
<pdfrwt beam="2">  1       -1 0.84758754E-01 0.21515548E+04</pdfrwt>
<totfact> 0.32107120E+00</totfact>
</mgrwt>
</event>
<event>
12    1  0.1489025E-007  0.2088745E+04  0.7818608E-02  0.8566217E-01
          2   -1    0    0  501    0  0.00000000000E+00  0.00000000000E+00  0.14726143734E+04  0.14726143734E+04  0.00000000000E+00 0.  1.
         -2   -1    0    0    0  501 -0.00000000000E+00 -0.00000000000E+00 -0.74066519156E+03  0.74066519156E+03  0.00000000000E+00 0. -1.
         23    2    1    2    0    0 -0.15324680767E+03 -0.29109450826E+02 -0.57977188105E+03  0.60677246986E+03  0.87780703670E+02 0.  0.
        254    2    1    2    0    0  0.15324680767E+03  0.29109450826E+02  0.13117210629E+04  0.16065070951E+04  0.91428712974E+03 0.  0.
        -24    2    4    4    0    0 -0.30674519270E+03 -0.22392274903E+03  0.65886781863E+03  0.76470055206E+03  0.80163090748E+02 0.  0.
         24    2    4    4    0    0  0.45999200037E+03  0.25303219986E+03  0.65285324426E+03  0.84180654305E+03  0.82480075211E+02 0.  0.
         11    1    3    3    0    0 -0.12331894011E+03  0.11477745683E+02 -0.46872584114E+03  0.48481255531E+03  0.00000000000E+00 0. -1.
        -11    1    3    3    0    0 -0.29927867560E+02 -0.40587196509E+02 -0.11104603991E+03  0.12195991455E+03  0.00000000000E+00 0.  1.
          4    1    6    6  502    0  0.30417793420E+03  0.20595256999E+03  0.47912093072E+03  0.60373631910E+03  0.00000000000E+00 0. -1.
          3    1    5    5  503    0 -0.27936224801E+03 -0.20062203542E+03  0.53751946566E+03  0.63813763615E+03  0.00000000000E+00 0. -1.
         -4    1    5    5    0  503 -0.27382944687E+02 -0.23300713609E+02  0.12134835298E+03  0.12656291591E+03  0.00000000000E+00 0.  1.
         -3    1    6    6    0  502  0.15581406617E+03  0.47079629863E+02  0.17373231354E+03  0.23807022395E+03  0.00000000000E+00 0.  1.
<mgrwt>
<rscale>  0 0.20887453E+04</rscale>
<asrwt>0</asrwt>
<pdfrwt beam="1">  1        2 0.22655606E+00 0.20887453E+04</pdfrwt>
<pdfrwt beam="2">  1       -2 0.11394849E+00 0.20887453E+04</pdfrwt>
<totfact> 0.73184316E+00</totfact>
</mgrwt>
</event>
<event>
12    1  0.1489025E-007  0.1567253E+04  0.7818608E-02  0.8840922E-01
          1   -1    0    0  501    0  0.00000000000E+00  0.00000000000E+00  0.81570724289E+03  0.81570724289E+03  0.00000000000E+00 0. -1.
         -1   -1    0    0    0  501 -0.00000000000E+00 -0.00000000000E+00 -0.75280724791E+03  0.75280724791E+03  0.00000000000E+00 0.  1.
         23    2    1    2    0    0  0.12363920154E+03 -0.21127952057E+03 -0.43579101843E+03  0.50803667056E+03  0.90894218259E+02 0.  0.
        254    2    1    2    0    0 -0.12363920154E+03  0.21127952057E+03  0.49869101341E+03  0.10604778202E+04  0.90332430079E+03 0.  0.
        -24    2    4    4    0    0 -0.21162819328E+03 -0.26665387964E+03  0.44290805296E+03  0.56471685469E+03  0.82745385810E+02 0.  0.
         24    2    4    4    0    0  0.87988991738E+02  0.47793340022E+03  0.55782960450E+02  0.49576096556E+03  0.80652331555E+02 0.  0.
         13    1    3    3    0    0  0.24233673915E+02 -0.10289491954E+03 -0.12156964071E+03  0.16110187138E+03  0.00000000000E+00 0. -1.
        -13    1    3    3    0    0  0.99405527625E+02 -0.10838460103E+03 -0.31422137772E+03  0.34693479918E+03  0.00000000000E+00 0.  1.
          4    1    6    6  502    0  0.88504828896E+02  0.32199840683E+03  0.13585328936E+02  0.33421645666E+03  0.00000000000E+00 0. -1.
          3    1    5    5  503    0 -0.96071223075E+02 -0.12387198105E+03  0.27134753752E+03  0.31337427098E+03  0.00000000000E+00 0. -1.
         -4    1    5    5    0  503 -0.11555697020E+03 -0.14278189859E+03  0.17156051544E+03  0.25134258371E+03  0.00000000000E+00 0.  1.
         -3    1    6    6    0  502 -0.51583715831E+00  0.15593499339E+03  0.42197631513E+02  0.16154450890E+03  0.00000000000E+00 0.  1.
<mgrwt>
<rscale>  0 0.15672528E+04</rscale>
<asrwt>0</asrwt>
<pdfrwt beam="1">  1        1 0.12549342E+00 0.15672528E+04</pdfrwt>
<pdfrwt beam="2">  1       -1 0.11581650E+00 0.15672528E+04</pdfrwt>
<totfact> 0.13914517E+01</totfact>
</mgrwt>
</event>
<event>
12    1  0.1489025E-007  0.2712714E+04  0.7818608E-02  0.8330892E-01
          2   -1    0    0  501    0  0.00000000000E+00  0.00000000000E+00  0.12055255969E+04  0.12055255969E+04  0.00000000000E+00 0. -1.
         -2   -1    0    0    0  501 -0.00000000000E+00 -0.00000000000E+00 -0.15260598311E+04  0.15260598311E+04  0.00000000000E+00 0.  1.
         23    2    1    2    0    0  0.59234860637E+03 -0.85241316694E+02  0.91405401039E+03  0.10963776006E+04  0.91685090082E+02 0.  0.
        254    2    1    2    0    0 -0.59234860637E+03  0.85241316694E+02 -0.12345882447E+04  0.16352078273E+04  0.88969295331E+03 0.  0.
        -24    2    4    4    0    0  0.33005888106E+02 -0.29111556505E+03 -0.56413977937E+03  0.64059259397E+03  0.79167669594E+02 0.  0.
         24    2    4    4    0    0 -0.62535449448E+03  0.37635688175E+03 -0.67044846529E+03  0.99461523337E+03  0.83937903442E+02 0.  0.
         11    1    3    3    0    0  0.86431719933E+02  0.19463067425E+02  0.12407753732E+03  0.15246143274E+03  0.00000000000E+00 0.  1.
        -11    1    3    3    0    0  0.50591688644E+03 -0.10470438412E+03  0.78997647307E+03  0.94391616791E+03  0.00000000000E+00 0. -1.
          2    1    6    6  502    0 -0.14155151626E+03  0.11346213618E+03 -0.20387650228E+03  0.27290312619E+03  0.00000000000E+00 0. -1.
          3    1    5    5  503    0 -0.22070834918E+02 -0.11114149463E+03 -0.17765364384E+03  0.21071395481E+03  0.00000000000E+00 0. -1.
         -4    1    5    5    0  503  0.55076723024E+02 -0.17997407043E+03 -0.38648613554E+03  0.42987863916E+03  0.00000000000E+00 0.  1.
         -1    1    6    6    0  502 -0.48380297822E+03  0.26289474557E+03 -0.46657196301E+03  0.72171210718E+03  0.00000000000E+00 0.  1.
<mgrwt>
<rscale>  0 0.27127139E+04</rscale>
<asrwt>0</asrwt>
<pdfrwt beam="1">  1        2 0.18546548E+00 0.27127139E+04</pdfrwt>
<pdfrwt beam="2">  1       -2 0.23477844E+00 0.27127139E+04</pdfrwt>
<totfact> 0.13149008E+00</totfact>
</mgrwt>
</event>
<event>
12    1  0.1489025E-007  0.1821640E+04  0.7818608E-02  0.8694876E-01
          1   -1    0    0  501    0  0.00000000000E+00  0.00000000000E+00  0.46545856340E+03  0.46545856340E+03  0.00000000000E+00 0. -1.
         -1   -1    0    0    0  501 -0.00000000000E+00 -0.00000000000E+00 -0.17823126161E+04  0.17823126161E+04  0.00000000000E+00 0.  1.
         23    2    1    2    0    0 -0.58272234478E+03  0.26102128086E+03 -0.78921088457E+03  0.10192555315E+04  0.91272000282E+02 0.  0.
        254    2    1    2    0    0  0.58272234478E+03 -0.26102128086E+03 -0.52764316815E+03  0.12285156480E+04  0.90727390812E+03 0.  0.
        -24    2    4    4    0    0  0.33547430192E+03  0.41819328648E+02 -0.70904809555E+03  0.78985389830E+03  0.82632411077E+02 0.  0.
         24    2    4    4    0    0  0.24724804285E+03 -0.30284060950E+03  0.18140492740E+03  0.43866174971E+03  0.81684475351E+02 0.  0.
         11    1    3    3    0    0 -0.16565904034E+03  0.11926786894E+03 -0.23379667277E+03  0.31036853321E+03  0.00000000000E+00 0. -1.
        -11    1    3    3    0    0 -0.41706330443E+03  0.14175341192E+03 -0.55541421180E+03  0.70888699830E+03  0.00000000000E+00 0.  1.
          2    1    6    6  502    0  0.99138400381E+02 -0.10158598829E+03  0.25732865652E+02  0.14425781026E+03  0.00000000000E+00 0. -1.
          3    1    5    5  503    0  0.14754943377E+03  0.59725015974E+02 -0.33216449444E+03  0.36833566798E+03  0.00000000000E+00 0. -1.
         -4    1    5    5    0  503  0.18792486815E+03 -0.17905687326E+02 -0.37688360110E+03  0.42151823032E+03  0.00000000000E+00 0.  1.
         -1    1    6    6    0  502  0.14810964247E+03 -0.20125462122E+03  0.15567206175E+03  0.29440393945E+03  0.00000000000E+00 0.  1.
<mgrwt>
<rscale>  0 0.18216396E+04</rscale>
<asrwt>0</asrwt>
<pdfrwt beam="1">  1        1 0.71609007E-01 0.18216396E+04</pdfrwt>
<pdfrwt beam="2">  1       -1 0.27420195E+00 0.18216396E+04</pdfrwt>
<totfact> 0.22362910E+00</totfact>
</mgrwt>
</event>
<event>
12    1  0.1489025E-007  0.1544366E+04  0.7818608E-02  0.8855475E-01
          2   -1    0    0  501    0  0.00000000000E+00  0.00000000000E+00  0.59671353109E+03  0.59671353109E+03  0.00000000000E+00 0. -1.
         -2   -1    0    0    0  501 -0.00000000000E+00 -0.00000000000E+00 -0.99925065504E+03  0.99925065504E+03  0.00000000000E+00 0.  1.
         23    2    1    2    0    0  0.25910532138E+03  0.42362422109E+03 -0.16687431052E+03  0.53138101391E+03  0.89026390264E+02 0.  0.
        254    2    1    2    0    0 -0.25910532138E+03 -0.42362422109E+03 -0.23566281343E+03  0.10645831722E+04  0.91170572044E+03 0.  0.
        -24    2    4    4    0    0  0.16782955028E+03  0.73679428475E+01 -0.39097704625E+03  0.43302321833E+03  0.80156174977E+02 0.  0.
         24    2    4    4    0    0 -0.42693487166E+03 -0.43099216394E+03  0.15531423282E+03  0.63155995390E+03  0.81962396498E+02 0.  0.
         13    1    3    3    0    0  0.63325014994E+02  0.15155748726E+03 -0.20147055699E+02  0.16548605174E+03  0.00000000000E+00 0. -1.
        -13    1    3    3    0    0  0.19578030639E+03  0.27206673383E+03 -0.14672725483E+03  0.36589496216E+03  0.00000000000E+00 0.  1.
          4    1    6    6  502    0 -0.10008854207E+01 -0.20767709029E+02  0.60829016185E+01  0.21663360820E+02  0.00000000000E+00 0. -1.
          1    1    5    5  503    0  0.86998353010E+02  0.19253832569E+02 -0.11664516215E+03  0.14678391379E+03  0.00000000000E+00 0. -1.
         -2    1    5    5    0  503  0.80831197269E+02 -0.11885889721E+02 -0.27433188410E+03  0.28623930454E+03  0.00000000000E+00 0.  1.
         -3    1    6    6    0  502 -0.42593398624E+03 -0.41022445491E+03  0.14923133120E+03  0.60989659308E+03  0.00000000000E+00 0.  1.
<mgrwt>
<rscale>  0 0.15443657E+04</rscale>
<asrwt>0</asrwt>
<pdfrwt beam="1">  1        2 0.91802083E-01 0.15443657E+04</pdfrwt>
<pdfrwt beam="2">  1       -2 0.15373087E+00 0.15443657E+04</pdfrwt>
<totfact> 0.13482273E+01</totfact>
</mgrwt>
</event>
<event>
12    1  0.1489025E-007  0.1102763E+04  0.7818608E-02  0.9202503E-01
          2   -1    0    0  501    0  0.00000000000E+00  0.00000000000E+00  0.13786584164E+04  0.13786584164E+04  0.00000000000E+00 0. -1.
         -2   -1    0    0    0  501 -0.00000000000E+00 -0.00000000000E+00 -0.22051972901E+03  0.22051972901E+03  0.00000000000E+00 0.  1.
         23    2    1    2    0    0  0.98642659027E+01 -0.92562514894E+01  0.43318552786E+03  0.44288747453E+03  0.91195567932E+02 0.  0.
        254    2    1    2    0    0 -0.98642659027E+01  0.92562514894E+01  0.72495315948E+03  0.11562906708E+04  0.90070419678E+03 0.  0.
        -24    2    4    4    0    0  0.21537524929E+03  0.34605142576E+03  0.13636427265E+03  0.43720046107E+03  0.80068352202E+02 0.  0.
         24    2    4    4    0    0 -0.22523951519E+03 -0.33679517427E+03  0.58858888683E+03  0.71909020977E+03  0.80560681961E+02 0.  0.
         11    1    3    3    0    0  0.12785171637E+02 -0.34851141323E+02  0.39550082431E+03  0.39723917820E+03  0.00000000000E+00 0. -1.
        -11    1    3    3    0    0 -0.29209057346E+01  0.25594889834E+02  0.37684703547E+02  0.45648296325E+02  0.00000000000E+00 0.  1.
          4    1    6    6  502    0 -0.15176362278E+03 -0.15906520936E+03  0.28975565422E+03  0.36372005331E+03  0.00000000000E+00 0. -1.
          3    1    5    5  503    0 -0.17683773585E+01  0.19743199672E+02 -0.51519727803E+01  0.20480818228E+02  0.00000000000E+00 0. -1.
         -4    1    5    5    0  503  0.21714362665E+03  0.32630822609E+03  0.14151624543E+03  0.41671964284E+03  0.00000000000E+00 0.  1.
         -3    1    6    6    0  502 -0.73475892412E+02 -0.17772996491E+03  0.29883323261E+03  0.35537015646E+03  0.00000000000E+00 0.  1.
<mgrwt>
<rscale>  0 0.11027627E+04</rscale>
<asrwt>0</asrwt>
<pdfrwt beam="1">  1        2 0.21210129E+00 0.11027627E+04</pdfrwt>
<pdfrwt beam="2">  1       -2 0.33926113E-01 0.11027627E+04</pdfrwt>
<totfact> 0.12002988E+02</totfact>
</mgrwt>
</event>
<event>
12    1  0.1489025E-007  0.1491170E+04  0.7818608E-02  0.8890346E-01
          2   -1    0    0  501    0  0.00000000000E+00  0.00000000000E+00  0.20922707001E+04  0.20922707001E+04  0.00000000000E+00 0. -1.
         -2   -1    0    0    0  501 -0.00000000000E+00 -0.00000000000E+00 -0.26569070844E+03  0.26569070844E+03  0.00000000000E+00 0.  1.
         23    2    1    2    0    0  0.24279384769E+03  0.20088555648E+03  0.11575790688E+04  0.12031693852E+04  0.91232722612E+02 0.  0.
        254    2    1    2    0    0 -0.24279384769E+03 -0.20088555648E+03  0.66900092285E+03  0.11547920233E+04  0.88694899688E+03 0.  0.
        -24    2    4    4    0    0 -0.53454482382E+03 -0.26540659349E+03  0.29730209546E+03  0.67159925379E+03  0.80487223742E+02 0.  0.
         24    2    4    4    0    0  0.29175097613E+03  0.64521037007E+02  0.37169882738E+03  0.48319276953E+03  0.77676495554E+02 0.  0.
         13    1    3    3    0    0  0.38925809211E+02  0.72863611180E+02  0.21470646905E+03  0.23005041254E+03  0.00000000000E+00 0.  1.
        -13    1    3    3    0    0  0.20386803848E+03  0.12802194530E+03  0.94287259978E+03  0.97311897269E+03  0.00000000000E+00 0. -1.
          4    1    6    6  502    0  0.23062808297E+03  0.74329090910E+02  0.25944615550E+03  0.35500201974E+03  0.00000000000E+00 0. -1.
          3    1    5    5  503    0 -0.33910784512E+03 -0.20243398699E+03  0.22088626415E+03  0.45250899593E+03  0.00000000000E+00 0. -1.
         -4    1    5    5    0  503 -0.19543697870E+03 -0.62972606496E+02  0.76415831318E+02  0.21909025786E+03  0.00000000000E+00 0.  1.
         -3    1    6    6    0  502  0.61122893154E+02 -0.98080539029E+01  0.11225267188E+03  0.12819074979E+03  0.00000000000E+00 0.  1.
<mgrwt>
<rscale>  0 0.14911699E+04</rscale>
<asrwt>0</asrwt>
<pdfrwt beam="1">  1        2 0.32188779E+00 0.14911699E+04</pdfrwt>
<pdfrwt beam="2">  1       -2 0.40875495E-01 0.14911699E+04</pdfrwt>
<totfact> 0.32544203E+01</totfact>
</mgrwt>
</event>
<event>
12    1  0.1489025E-007  0.1599973E+04  0.7818608E-02  0.8820565E-01
          1   -1    0    0  501    0  0.00000000000E+00  0.00000000000E+00  0.26658816874E+04  0.26658816874E+04  0.00000000000E+00 0. -1.
         -1   -1    0    0    0  501 -0.00000000000E+00 -0.00000000000E+00 -0.24006257241E+03  0.24006257241E+03  0.00000000000E+00 0.  1.
         23    2    1    2    0    0 -0.49009520826E+03 -0.12476142977E+03  0.11164178706E+04  0.12290219580E+04  0.91364018846E+02 0.  0.
        254    2    1    2    0    0  0.49009520826E+03  0.12476142977E+03  0.13094012444E+04  0.16769223018E+04  0.91748463745E+03 0.  0.
        -24    2    4    4    0    0  0.45994456473E+03 -0.22430400594E+03  0.28326774384E+03  0.59018682600E+03  0.78858006475E+02 0.  0.
         24    2    4    4    0    0  0.30150643529E+02  0.34906543571E+03  0.10261335005E+04  0.10867354758E+04  0.72720655231E+02 0.  0.
         11    1    3    3    0    0 -0.17130452156E+03  0.49556493581E+00  0.36131831684E+03  0.39987049250E+03  0.00000000000E+00 0.  1.
        -11    1    3    3    0    0 -0.31879068670E+03 -0.12525699471E+03  0.75509955373E+03  0.82915146547E+03  0.00000000000E+00 0. -1.
          2    1    6    6  502    0  0.29587522588E+02  0.35280689859E+03  0.10147870002E+04  0.10747747601E+04  0.00000000000E+00 0. -1.
          1    1    5    5  503    0  0.34829123175E+03 -0.16367200811E+03  0.17289206806E+03  0.42188502646E+03  0.00000000000E+00 0. -1.
         -2    1    5    5    0  503  0.11165333298E+03 -0.60631997830E+02  0.11037567578E+03  0.16830179955E+03  0.00000000000E+00 0.  1.
         -1    1    6    6    0  502  0.56312094072E+00 -0.37414628821E+01  0.11346500355E+02  0.11960715697E+02  0.00000000000E+00 0.  1.
<mgrwt>
<rscale>  0 0.15999730E+04</rscale>
<asrwt>0</asrwt>
<pdfrwt beam="1">  1        1 0.41013562E+00 0.15999730E+04</pdfrwt>
<pdfrwt beam="2">  1       -1 0.36932705E-01 0.15999730E+04</pdfrwt>
<totfact> 0.70302835E+00</totfact>
</mgrwt>
</event>
<event>
12    1  0.1489025E-007  0.1760855E+04  0.7818608E-02  0.8727398E-01
         -2   -1    0    0    0  501 -0.00000000000E+00  0.00000000000E+00  0.86687580991E+03  0.86687580991E+03  0.00000000000E+00 0.  1.
          2   -1    0    0  501    0  0.00000000000E+00 -0.00000000000E+00 -0.89419084012E+03  0.89419084012E+03  0.00000000000E+00 0. -1.
         23    2    1    2    0    0 -0.30897769115E+03  0.24711073025E+03  0.50184567185E+03  0.64492337760E+03  0.86868624887E+02 0.  0.
        254    2    1    2    0    0  0.30897769115E+03 -0.24711073025E+03 -0.52916070206E+03  0.11161432724E+04  0.89957424894E+03 0.  0.
        -24    2    4    4    0    0  0.60737052245E+03 -0.25055864287E+03 -0.27718210070E+03  0.71734801286E+03  0.77972235765E+02 0.  0.
         24    2    4    4    0    0 -0.29839283130E+03  0.34479126255E+01 -0.25197860136E+03  0.39879525957E+03  0.80587056239E+02 0.  0.
         13    1    3    3    0    0 -0.57534012478E+02  0.63689736359E+02  0.61062091719E+02  0.10533339525E+03  0.00000000000E+00 0. -1.
        -13    1    3    3    0    0 -0.25144367867E+03  0.18342099389E+03  0.44078358013E+03  0.53958998235E+03  0.00000000000E+00 0.  1.
          2    1    6    6  502    0 -0.27423183535E+03  0.13033113699E+02 -0.25220608738E+03  0.37280138423E+03  0.00000000000E+00 0. -1.
          3    1    5    5  503    0  0.38909822595E+03 -0.13390913759E+03 -0.14174123041E+03  0.43522369302E+03  0.00000000000E+00 0. -1.
         -4    1    5    5    0  503  0.21827229650E+03 -0.11664950528E+03 -0.13544087028E+03  0.28212431984E+03  0.00000000000E+00 0.  1.
         -1    1    6    6    0  502 -0.24160995950E+02 -0.95852010737E+01  0.22748601965E+00  0.25993875332E+02  0.00000000000E+00 0.  1.
<mgrwt>
<rscale>  0 0.17608548E+04</rscale>
<asrwt>0</asrwt>
<pdfrwt beam="1">  1        2 0.13756782E+00 0.17608548E+04</pdfrwt>
<pdfrwt beam="2">  1       -2 0.13336551E+00 0.17608548E+04</pdfrwt>
<totfact> 0.11402588E+01</totfact>
</mgrwt>
</event>
<event>
12    1  0.1489025E-007  0.1417180E+04  0.7818608E-02  0.8941476E-01
         -2   -1    0    0    0  501 -0.00000000000E+00  0.00000000000E+00  0.39234789424E+03  0.39234789424E+03  0.00000000000E+00 0.  1.
          2   -1    0    0  501    0  0.00000000000E+00 -0.00000000000E+00 -0.12797314137E+04  0.12797314137E+04  0.00000000000E+00 0. -1.
         23    2    1    2    0    0  0.27851679301E+03  0.10235961626E+03  0.64782282886E+02  0.31695745504E+03  0.90643196675E+02 0.  0.
        254    2    1    2    0    0 -0.27851679301E+03 -0.10235961626E+03 -0.95216580235E+03  0.13551218529E+04  0.91743469851E+03 0.  0.
        -24    2    4    4    0    0  0.66393730420E+02 -0.23120588692E+03  0.72416885617E+02  0.26361380873E+03  0.79898343219E+02 0.  0.
         24    2    4    4    0    0 -0.34491052343E+03  0.12884627066E+03 -0.10245826880E+04  0.10915080442E+04  0.77817063529E+02 0.  0.
         13    1    3    3    0    0  0.10774165714E+03  0.59465135171E+02 -0.14382568181E+02  0.12390006154E+03  0.00000000000E+00 0.  1.
        -13    1    3    3    0    0  0.17077513587E+03  0.42894481089E+02  0.79164851068E+02  0.19305739350E+03  0.00000000000E+00 0. -1.
          4    1    6    6  502    0 -0.14475780135E+03  0.15200725587E+02 -0.36715888939E+03  0.39495763465E+03  0.00000000000E+00 0. -1.
          1    1    5    5  503    0  0.71099853340E+02 -0.10901940450E+03  0.25410022284E+02  0.13261255195E+03  0.00000000000E+00 0. -1.
         -2    1    5    5    0  503 -0.47061229208E+01 -0.12218648242E+03  0.47006863333E+02  0.13100125678E+03  0.00000000000E+00 0.  1.
         -3    1    6    6    0  502 -0.20015272208E+03  0.11364554507E+03 -0.65742379858E+03  0.69655040952E+03  0.00000000000E+00 0.  1.
<mgrwt>
<rscale>  0 0.14171802E+04</rscale>
<asrwt>0</asrwt>
<pdfrwt beam="1">  1        2 0.19688176E+00 0.14171802E+04</pdfrwt>
<pdfrwt beam="2">  1       -2 0.60361214E-01 0.14171802E+04</pdfrwt>
<totfact> 0.42230768E+01</totfact>
</mgrwt>
</event>
<event>
12    1  0.1489025E-007  0.1532606E+04  0.7818608E-02  0.8863055E-01
          1   -1    0    0  501    0  0.00000000000E+00  0.00000000000E+00  0.63227201154E+03  0.63227201154E+03  0.00000000000E+00 0. -1.
         -1   -1    0    0    0  501 -0.00000000000E+00 -0.00000000000E+00 -0.92874594750E+03  0.92874594750E+03  0.00000000000E+00 0.  1.
         23    2    1    2    0    0 -0.38167517209E+02 -0.62204495111E+02  0.40028351365E+03  0.41698788248E+03  0.91246064332E+02 0.  0.
        254    2    1    2    0    0  0.38167517209E+02  0.62204495111E+02 -0.69675744961E+03  0.11440300766E+04  0.90443778886E+03 0.  0.
        -24    2    4    4    0    0  0.29227171472E+03 -0.32126453886E+03 -0.33633859524E+03  0.55485469433E+03  0.78143598676E+02 0.  0.
         24    2    4    4    0    0 -0.25410419751E+03  0.38346903397E+03 -0.36041885437E+03  0.58917538224E+03  0.74889500233E+02 0.  0.
         11    1    3    3    0    0 -0.24474270073E+02 -0.84955951418E+02  0.27282358662E+03  0.28679123591E+03  0.00000000000E+00 0. -1.
        -11    1    3    3    0    0 -0.13693247135E+02  0.22751456307E+02  0.12745992702E+03  0.13019664657E+03  0.00000000000E+00 0.  1.
          2    1    6    6  502    0 -0.48468415484E+02  0.13452943537E+03 -0.11848509401E+03  0.18570426431E+03  0.00000000000E+00 0. -1.
          1    1    5    5  503    0  0.22655207202E+03 -0.29139651922E+03 -0.28179644341E+03  0.46437808762E+03  0.00000000000E+00 0. -1.
         -2    1    5    5    0  503  0.65719642698E+02 -0.29868019644E+02 -0.54542151837E+02  0.90476606704E+02  0.00000000000E+00 0.  1.
         -1    1    6    6    0  502 -0.20563578202E+03  0.24893959860E+03 -0.24193376036E+03  0.40347111793E+03  0.00000000000E+00 0.  1.
<mgrwt>
<rscale>  0 0.15326057E+04</rscale>
<asrwt>0</asrwt>
<pdfrwt beam="1">  1        1 0.97272617E-01 0.15326057E+04</pdfrwt>
<pdfrwt beam="2">  1       -1 0.14288399E+00 0.15326057E+04</pdfrwt>
<totfact> 0.12162044E+01</totfact>
</mgrwt>
</event>
<event>
12    1  0.1489025E-007  0.2769081E+04  0.7818608E-02  0.8312932E-01
         -1   -1    0    0    0  501 -0.00000000000E+00  0.00000000000E+00  0.22808287282E+04  0.22808287282E+04  0.00000000000E+00 0.  1.
          1   -1    0    0  501    0  0.00000000000E+00 -0.00000000000E+00 -0.84046322373E+03  0.84046322373E+03  0.00000000000E+00 0. -1.
         23    2    1    2    0    0 -0.44807901056E+03 -0.10469851238E+04  0.11798224096E+04  0.16421219254E+04  0.87354740669E+02 0.  0.
        254    2    1    2    0    0  0.44807901056E+03  0.10469851238E+04  0.26054309494E+03  0.14791700265E+04  0.90725333508E+03 0.  0.
        -24    2    4    4    0    0  0.47692163475E+03  0.18210105870E+03 -0.12035485755E+03  0.53035964215E+03  0.78619444268E+02 0.  0.
         24    2    4    4    0    0 -0.28842624183E+02  0.86488406506E+03  0.38089795249E+03  0.94881038439E+03  0.79382317646E+02 0.  0.
         13    1    3    3    0    0 -0.24325184683E+03 -0.58867275355E+03  0.72070298514E+03  0.96183151567E+03  0.00000000000E+00 0. -1.
        -13    1    3    3    0    0 -0.20482716373E+03 -0.45831237021E+03  0.45911942442E+03  0.68029040973E+03  0.00000000000E+00 0.  1.
          4    1    6    6  502    0 -0.47676062537E+02  0.53953064192E+03  0.26434222212E+03  0.60269654961E+03  0.00000000000E+00 0. -1.
          1    1    5    5  503    0  0.47371176881E+03  0.18806254374E+03 -0.11979479339E+03  0.52356580559E+03  0.00000000000E+00 0. -1.
         -2    1    5    5    0  503  0.32098659406E+01 -0.59614850441E+01 -0.56006416349E+00  0.67938365564E+01  0.00000000000E+00 0.  1.
         -3    1    6    6    0  502  0.18833438355E+02  0.32535342314E+03  0.11655573036E+03  0.34611383478E+03  0.00000000000E+00 0.  1.
<mgrwt>
<rscale>  0 0.27690812E+04</rscale>
<asrwt>0</asrwt>
<pdfrwt beam="1">  1        1 0.12930204E+00 0.27690812E+04</pdfrwt>
<pdfrwt beam="2">  1       -1 0.35089672E+00 0.27690812E+04</pdfrwt>
<totfact> 0.27141888E-01</totfact>
</mgrwt>
</event>
<event>
12    1  0.1489025E-007  0.3568909E+04  0.7818608E-02  0.8097651E-01
         -2   -1    0    0    0  501 -0.00000000000E+00  0.00000000000E+00  0.14904566263E+04  0.14904566263E+04  0.00000000000E+00 0.  1.
          2   -1    0    0  501    0  0.00000000000E+00 -0.00000000000E+00 -0.21364448691E+04  0.21364448691E+04  0.00000000000E+00 0. -1.
         23    2    1    2    0    0 -0.16259848024E+04  0.34393320152E+03 -0.13502710754E+03  0.16699332307E+04  0.91258152781E+02 0.  0.
        254    2    1    2    0    0  0.16259848024E+04 -0.34393320152E+03 -0.51096113530E+03  0.19569682647E+04  0.89806841746E+03 0.  0.
        -24    2    4    4    0    0  0.51847643614E+03  0.15691261051E+03 -0.49621734268E+03  0.73871313722E+03  0.77627738309E+02 0.  0.
         24    2    4    4    0    0  0.11075083663E+04 -0.50084581203E+03 -0.14743792621E+02  0.12182551275E+04  0.80665156036E+02 0.  0.
         13    1    3    3    0    0 -0.45713991780E+03  0.59341255572E+02 -0.19153993985E+02  0.46137312942E+03  0.00000000000E+00 0. -1.
        -13    1    3    3    0    0 -0.11688448846E+04  0.28459194595E+03 -0.11587311355E+03  0.12085601013E+04  0.00000000000E+00 0.  1.
          4    1    6    6  502    0  0.45337391254E+01  0.25451793647E+01  0.23773183260E+01  0.57170246526E+01  0.00000000000E+00 0. -1.
          3    1    5    5  503    0  0.12321556300E+03  0.64958533179E+02 -0.15616246868E+03  0.20925678632E+03  0.00000000000E+00 0. -1.
         -4    1    5    5    0  503  0.39526087314E+03  0.91954077333E+02 -0.34005487400E+03  0.52945635090E+03  0.00000000000E+00 0.  1.
         -3    1    6    6    0  502  0.11029746272E+04 -0.50339099140E+03 -0.17121110947E+02  0.12125381028E+04  0.00000000000E+00 0.  1.
<mgrwt>
<rscale>  0 0.35689093E+04</rscale>
<asrwt>0</asrwt>
<pdfrwt beam="1">  1        2 0.32868382E+00 0.35689093E+04</pdfrwt>
<pdfrwt beam="2">  1       -2 0.22930102E+00 0.35689093E+04</pdfrwt>
<totfact> 0.39564965E-01</totfact>
</mgrwt>
</event>
<event>
12    1  0.1489025E-007  0.1152984E+04  0.7818608E-02  0.9155035E-01
         -1   -1    0    0    0  501 -0.00000000000E+00  0.00000000000E+00  0.17288831513E+03  0.17288831513E+03  0.00000000000E+00 0.  1.
          1   -1    0    0  501    0  0.00000000000E+00 -0.00000000000E+00 -0.19222993325E+04  0.19222993325E+04  0.00000000000E+00 0. -1.
         23    2    1    2    0    0 -0.54161500859E+02 -0.11647406524E+03 -0.64466749846E+03  0.66349239353E+03  0.90145974121E+02 0.  0.
        254    2    1    2    0    0  0.54161500859E+02  0.11647406524E+03 -0.11047435190E+04  0.14316952541E+04  0.90155054323E+03 0.  0.
        -24    2    4    4    0    0 -0.40947148775E+03 -0.10588854223E+02 -0.42525294854E+03  0.59561624853E+03  0.78355741034E+02 0.  0.
         24    2    4    4    0    0  0.46363298861E+03  0.12706291947E+03 -0.67949057041E+03  0.83607900561E+03  0.78867830619E+02 0.  0.
         11    1    3    3    0    0 -0.23932321674E+00 -0.99158819705E+01 -0.27149573000E+03  0.27167685474E+03  0.00000000000E+00 0. -1.
        -11    1    3    3    0    0 -0.53922177643E+02 -0.10655818327E+03 -0.37317176846E+03  0.39181553879E+03  0.00000000000E+00 0.  1.
          4    1    6    6  502    0  0.29159770047E+03  0.86105219747E+02 -0.49183539503E+03  0.57822606617E+03  0.00000000000E+00 0. -1.
          1    1    5    5  503    0 -0.96193177147E+01 -0.14106891442E+02 -0.15000115105E+02  0.22727496840E+02  0.00000000000E+00 0. -1.
         -2    1    5    5    0  503 -0.39985217004E+03  0.35180372181E+01 -0.41025283343E+03  0.57288875169E+03  0.00000000000E+00 0.  1.
         -3    1    6    6    0  502  0.17203528814E+03  0.40957699718E+02 -0.18765517538E+03  0.25785293944E+03  0.00000000000E+00 0.  1.
<mgrwt>
<rscale>  0 0.11529841E+04</rscale>
<asrwt>0</asrwt>
<pdfrwt beam="1">  1        1 0.29573833E+00 0.11529841E+04</pdfrwt>
<pdfrwt beam="2">  1       -1 0.26598205E-01 0.11529841E+04</pdfrwt>
<totfact> 0.42130241E+01</totfact>
</mgrwt>
</event>
<event>
12    1  0.1489025E-007  0.1799662E+04  0.7818608E-02  0.8706479E-01
          1   -1    0    0  501    0  0.00000000000E+00  0.00000000000E+00  0.14736871590E+04  0.14736871590E+04  0.00000000000E+00 0. -1.
         -1   -1    0    0    0  501 -0.00000000000E+00 -0.00000000000E+00 -0.54943520073E+03  0.54943520073E+03  0.00000000000E+00 0.  1.
         23    2    1    2    0    0 -0.57025214740E+03  0.34970964121E+03  0.28361887665E+03  0.73227849916E+03  0.91147069983E+02 0.  0.
        254    2    1    2    0    0  0.57025214740E+03 -0.34970964121E+03  0.64063308161E+03  0.12908438606E+04  0.89910109685E+03 0.  0.
        -24    2    4    4    0    0  0.35613758202E+03 -0.20434111209E+03 -0.15815794810E+03  0.44737891123E+03  0.80899235126E+02 0.  0.
         24    2    4    4    0    0  0.21411456538E+03 -0.14536852911E+03  0.79879102971E+03  0.84346494935E+03  0.79930940638E+02 0.  0.
         13    1    3    3    0    0 -0.22173570381E+03  0.13385517157E+03  0.15853426998E+03  0.30367259353E+03  0.00000000000E+00 0.  1.
        -13    1    3    3    0    0 -0.34851644359E+03  0.21585446964E+03  0.12508460666E+03  0.42860590563E+03  0.00000000000E+00 0. -1.
          4    1    6    6  502    0  0.21076153193E+03 -0.11526813378E+03  0.69497379073E+03  0.73532015871E+03  0.00000000000E+00 0. -1.
          1    1    5    5  503    0  0.26969064903E+03 -0.18962942303E+03 -0.11137209896E+03  0.34798866172E+03  0.00000000000E+00 0. -1.
         -2    1    5    5    0  503  0.86446932990E+02 -0.14711689056E+02 -0.46785849134E+02  0.99390249509E+02  0.00000000000E+00 0.  1.
         -3    1    6    6    0  502  0.33530334478E+01 -0.30100395331E+02  0.10381723898E+03  0.10814479064E+03  0.00000000000E+00 0.  1.
<mgrwt>
<rscale>  0 0.17996617E+04</rscale>
<asrwt>0</asrwt>
<pdfrwt beam="1">  1        1 0.22672110E+00 0.17996617E+04</pdfrwt>
<pdfrwt beam="2">  1       -1 0.84528493E-01 0.17996617E+04</pdfrwt>
<totfact> 0.89215467E+00</totfact>
</mgrwt>
</event>
<event>
12    1  0.1489025E-007  0.2545041E+04  0.7818608E-02  0.8387113E-01
         -2   -1    0    0    0  501 -0.00000000000E+00  0.00000000000E+00  0.11523735219E+04  0.11523735219E+04  0.00000000000E+00 0.  1.
          2   -1    0    0  501    0  0.00000000000E+00 -0.00000000000E+00 -0.14051945692E+04  0.14051945692E+04  0.00000000000E+00 0. -1.
         23    2    1    2    0    0 -0.55450667093E+00 -0.26490158174E+03 -0.11995408734E+04  0.12318599291E+04  0.91691997870E+02 0.  0.
        254    2    1    2    0    0  0.55450667093E+00  0.26490158174E+03  0.94671982606E+03  0.13257081620E+04  0.88941022378E+03 0.  0.
        -24    2    4    4    0    0  0.11156691285E+03  0.87108938507E+02  0.10616000418E+04  0.10738646673E+04  0.78457197403E+02 0.  0.
         24    2    4    4    0    0 -0.11101240618E+03  0.17779264324E+03 -0.11488021571E+03  0.25184349465E+03  0.79332865335E+02 0.  0.
         11    1    3    3    0    0  0.16400459823E+02 -0.26262617139E+03 -0.11190831622E+04  0.11496036730E+04  0.00000000000E+00 0. -1.
        -11    1    3    3    0    0 -0.16954966494E+02 -0.22754103524E+01 -0.80457711163E+02  0.82256256094E+02  0.00000000000E+00 0.  1.
          4    1    6    6  502    0 -0.70184955425E+02  0.15261976839E+03 -0.11552624885E+03  0.20387504959E+03  0.00000000000E+00 0. -1.
          1    1    5    5  503    0  0.33062523370E+01 -0.67941842997E+01  0.22148539244E+03  0.22161423987E+03  0.00000000000E+00 0. -1.
         -2    1    5    5    0  503  0.10826066051E+03  0.93903122806E+02  0.84011464932E+03  0.85225042745E+03  0.00000000000E+00 0.  1.
         -3    1    6    6    0  502 -0.40827450751E+02  0.25172874847E+02  0.64603314035E+00  0.47968445062E+02  0.00000000000E+00 0.  1.
<mgrwt>
<rscale>  0 0.25450415E+04</rscale>
<asrwt>0</asrwt>
<pdfrwt beam="1">  1        2 0.21618378E+00 0.25450415E+04</pdfrwt>
<pdfrwt beam="2">  1       -2 0.17728823E+00 0.25450415E+04</pdfrwt>
<totfact> 0.24185558E+00</totfact>
</mgrwt>
</event>
<event>
12    1  0.1489025E-007  0.2363730E+04  0.7818608E-02  0.8453209E-01
         -1   -1    0    0    0  501 -0.00000000000E+00  0.00000000000E+00  0.39742429774E+03  0.39742429774E+03  0.00000000000E+00 0.  1.
          1   -1    0    0  501    0  0.00000000000E+00 -0.00000000000E+00 -0.35146442182E+04  0.35146442182E+04  0.00000000000E+00 0. -1.
         23    2    1    2    0    0 -0.65170505695E+03 -0.92455531758E+02 -0.25938895280E+04  0.26776559603E+04  0.91164970073E+02 0.  0.
        254    2    1    2    0    0  0.65170505695E+03  0.92455531758E+02 -0.52333039247E+03  0.12344125556E+04  0.90367701708E+03 0.  0.
        -24    2    4    4    0    0  0.36388380398E+03  0.45022458690E+03 -0.49727615968E+03  0.76743527321E+03  0.80992086856E+02 0.  0.
         24    2    4    4    0    0  0.28782125297E+03 -0.35776905515E+03 -0.26054232792E+02  0.46697728241E+03  0.80927058276E+02 0.  0.
         11    1    3    3    0    0 -0.35231558563E+03 -0.94699389070E+02 -0.14642740339E+04  0.15090370083E+04  0.00000000000E+00 0. -1.
        -11    1    3    3    0    0 -0.29938947132E+03  0.22438573125E+01 -0.11296154941E+04  0.11686189520E+04  0.00000000000E+00 0.  1.
          4    1    6    6  502    0  0.20667088686E+03 -0.30776371953E+03 -0.15031205617E+02  0.37102196657E+03  0.00000000000E+00 0. -1.
          1    1    5    5  503    0  0.33951987981E+03  0.41182846463E+03 -0.42605248228E+03  0.68293275710E+03  0.00000000000E+00 0. -1.
         -2    1    5    5    0  503  0.24363924176E+02  0.38396122271E+02 -0.71223677406E+02  0.84502516116E+02  0.00000000000E+00 0.  1.
         -3    1    6    6    0  502  0.81150366115E+02 -0.50005335612E+02 -0.11023027175E+02  0.95955315842E+02  0.00000000000E+00 0.  1.
<mgrwt>
<rscale>  0 0.23637301E+04</rscale>
<asrwt>0</asrwt>
<pdfrwt beam="1">  1        1 0.54071448E+00 0.23637301E+04</pdfrwt>
<pdfrwt beam="2">  1       -1 0.61142202E-01 0.23637301E+04</pdfrwt>
<totfact> 0.59443834E-01</totfact>
</mgrwt>
</event>
<event>
12    1  0.1489025E-007  0.1620099E+04  0.7818608E-02  0.8808295E-01
         -1   -1    0    0    0  501 -0.00000000000E+00  0.00000000000E+00  0.13840644432E+04  0.13840644432E+04  0.00000000000E+00 0.  1.
          1   -1    0    0  501    0  0.00000000000E+00 -0.00000000000E+00 -0.47409646561E+03  0.47409646561E+03  0.00000000000E+00 0. -1.
         23    2    1    2    0    0  0.31397502929E+03  0.45191074283E+03  0.21065787949E+03  0.59646412801E+03  0.92677264272E+02 0.  0.
        254    2    1    2    0    0 -0.31397502929E+03 -0.45191074283E+03  0.69931009814E+03  0.12616967808E+04  0.89444983924E+03 0.  0.
        -24    2    4    4    0    0 -0.28220872682E+03 -0.59944346663E+03  0.14648784668E+03  0.68296577215E+03  0.77519813783E+02 0.  0.
         24    2    4    4    0    0 -0.31766302470E+02  0.14753272380E+03  0.55282225147E+03  0.57873100869E+03  0.80883472587E+02 0.  0.
         11    1    3    3    0    0  0.23712838906E+03  0.36220384938E+03  0.12517353208E+03  0.45065498392E+03  0.00000000000E+00 0. -1.
        -11    1    3    3    0    0  0.76846640227E+02  0.89706893450E+02  0.85484347416E+02  0.14580914409E+03  0.00000000000E+00 0.  1.
          4    1    6    6  502    0 -0.12002754578E+02  0.88136732201E+02  0.18099518151E+03  0.20167152851E+03  0.00000000000E+00 0. -1.
          1    1    5    5  503    0 -0.20236161939E+02 -0.43629462435E+02 -0.94857209148E+01  0.49020517579E+02  0.00000000000E+00 0. -1.
         -2    1    5    5    0  503 -0.26197256488E+03 -0.55581400419E+03  0.15597356759E+03  0.63394525457E+03  0.00000000000E+00 0.  1.
         -3    1    6    6    0  502 -0.19763547892E+02  0.59395991600E+02  0.37182706995E+03  0.37705948018E+03  0.00000000000E+00 0.  1.
<mgrwt>
<rscale>  0 0.16200988E+04</rscale>
<asrwt>0</asrwt>
<pdfrwt beam="1">  1        1 0.72937918E-01 0.16200988E+04</pdfrwt>
<pdfrwt beam="2">  1       -1 0.21293299E+00 0.16200988E+04</pdfrwt>
<totfact> 0.56092875E+00</totfact>
</mgrwt>
</event>
<event>
12    1  0.1489025E-007  0.1276682E+04  0.7818608E-02  0.9048264E-01
          1   -1    0    0  501    0  0.00000000000E+00  0.00000000000E+00  0.49502683429E+03  0.49502683429E+03  0.00000000000E+00 0. -1.
         -1   -1    0    0    0  501 -0.00000000000E+00 -0.00000000000E+00 -0.82314530877E+03  0.82314530877E+03  0.00000000000E+00 0.  1.
         23    2    1    2    0    0  0.11075962657E+03  0.33954680337E+02  0.21609282970E+03  0.26104725300E+03  0.89604364064E+02 0.  0.
        254    2    1    2    0    0 -0.11075962657E+03 -0.33954680337E+02 -0.54421130417E+03  0.10571248901E+04  0.89884730316E+03 0.  0.
        -24    2    4    4    0    0 -0.41530974456E+03  0.10689670701E+03 -0.56271515176E+03  0.71172797552E+03  0.77455014155E+02 0.  0.
         24    2    4    4    0    0  0.30455011799E+03 -0.14085138735E+03  0.18503847595E+02  0.34539691454E+03  0.79791907551E+02 0.  0.
         13    1    3    3    0    0  0.90070660460E+02 -0.15678197986E+02  0.11907902706E+03  0.15012776043E+03  0.00000000000E+00 0. -1.
        -13    1    3    3    0    0  0.20688966107E+02  0.49632878323E+02  0.97013802638E+02  0.11091949257E+03  0.00000000000E+00 0.  1.
          2    1    6    6  502    0  0.23265676731E+03 -0.13227785457E+03 -0.94169920077E+01  0.26779709095E+03  0.00000000000E+00 0. -1.
          1    1    5    5  503    0 -0.34139421174E+03  0.59337779456E+02 -0.47056368227E+03  0.58438100496E+03  0.00000000000E+00 0. -1.
         -2    1    5    5    0  503 -0.73915532813E+02  0.47558927558E+02 -0.92151469494E+02  0.12734697056E+03  0.00000000000E+00 0.  1.
         -1    1    6    6    0  502  0.71893350680E+02 -0.85735327816E+01  0.27920839603E+02  0.77599823585E+02  0.00000000000E+00 0.  1.
<mgrwt>
<rscale>  0 0.12766817E+04</rscale>
<asrwt>0</asrwt>
<pdfrwt beam="1">  1        1 0.76157976E-01 0.12766817E+04</pdfrwt>
<pdfrwt beam="2">  1       -1 0.12663774E+00 0.12766817E+04</pdfrwt>
<totfact> 0.23968159E+01</totfact>
</mgrwt>
</event>
<event>
12    1  0.1489025E-007  0.1197710E+04  0.7818608E-02  0.9114863E-01
         -1   -1    0    0    0  501 -0.00000000000E+00  0.00000000000E+00  0.35947475393E+03  0.35947475393E+03  0.00000000000E+00 0.  1.
          1   -1    0    0  501    0  0.00000000000E+00 -0.00000000000E+00 -0.99764235133E+03  0.99764235133E+03  0.00000000000E+00 0. -1.
         23    2    1    2    0    0 -0.21821831056E+03  0.44838432142E+02 -0.23317063096E+03  0.33495184002E+03  0.90523344687E+02 0.  0.
        254    2    1    2    0    0  0.21821831056E+03 -0.44838432142E+02 -0.40499696645E+03  0.10221652652E+04  0.91168501720E+03 0.  0.
        -24    2    4    4    0    0  0.55730197497E+03 -0.10051002364E+03 -0.33480738571E+03  0.66276161711E+03  0.80431457898E+02 0.  0.
         24    2    4    4    0    0 -0.33908366442E+03  0.55671591503E+02 -0.70189580733E+02  0.35940364814E+03  0.78532461282E+02 0.  0.
         11    1    3    3    0    0 -0.70017368666E+02 -0.27705338522E+01 -0.13157479760E+03  0.14907057099E+03  0.00000000000E+00 0. -1.
        -11    1    3    3    0    0 -0.14820094189E+03  0.47608965994E+02 -0.10159583336E+03  0.18588126903E+03  0.00000000000E+00 0.  1.
          4    1    6    6  502    0 -0.88511530308E+02 -0.63114069761E+01 -0.46533776753E+02  0.10019739135E+03  0.00000000000E+00 0. -1.
          1    1    5    5  503    0  0.82477376199E+02  0.13697904534E+02 -0.48215369366E+02  0.96513584621E+02  0.00000000000E+00 0. -1.
         -2    1    5    5    0  503  0.47482459877E+03 -0.11420792818E+03 -0.28659201635E+03  0.56624803249E+03  0.00000000000E+00 0.  1.
         -3    1    6    6    0  502 -0.25057213411E+03  0.61982998479E+02 -0.23655803980E+02  0.25920625678E+03  0.00000000000E+00 0.  1.
<mgrwt>
<rscale>  0 0.11977099E+04</rscale>
<asrwt>0</asrwt>
<pdfrwt beam="1">  1        1 0.15348343E+00 0.11977099E+04</pdfrwt>
<pdfrwt beam="2">  1       -1 0.55303810E-01 0.11977099E+04</pdfrwt>
<totfact> 0.49713954E+01</totfact>
</mgrwt>
</event>
<event>
12    1  0.1489025E-007  0.2268015E+04  0.7818608E-02  0.8490640E-01
         -2   -1    0    0    0  501 -0.00000000000E+00  0.00000000000E+00  0.57094948983E+03  0.57094948983E+03  0.00000000000E+00 0. -1.
          2   -1    0    0  501    0  0.00000000000E+00 -0.00000000000E+00 -0.22523406425E+04  0.22523406425E+04  0.00000000000E+00 0.  1.
         23    2    1    2    0    0 -0.88575937663E+03 -0.80726412296E+02 -0.11317167815E+04  0.14422128368E+04  0.90047577012E+02 0.  0.
        254    2    1    2    0    0  0.88575937663E+03  0.80726412296E+02 -0.54967437114E+03  0.13810772955E+04  0.90230047931E+03 0.  0.
        -24    2    4    4    0    0 -0.13666306960E+03  0.90636579883E+02  0.55428273119E+02  0.19038909231E+03  0.79271235656E+02 0.  0.
         24    2    4    4    0    0  0.10224224462E+04 -0.99101675872E+01 -0.60510264426E+03  0.11906882032E+04  0.78379316100E+02 0.  0.
         11    1    3    3    0    0  0.18870879387E+01 -0.15238628338E+01 -0.12821186641E+01  0.27435537343E+01  0.00000000000E+00 0. -1.
        -11    1    3    3    0    0 -0.88764646457E+03 -0.79202549462E+02 -0.11304346628E+04  0.14394692830E+04  0.00000000000E+00 0.  1.
          4    1    6    6  502    0  0.45575110693E+03 -0.23213185920E+02 -0.30965388683E+03  0.55148295812E+03  0.00000000000E+00 0. -1.
          3    1    5    5  503    0 -0.74298870804E+02  0.14249515759E+02  0.51843600387E+02  0.91712211854E+02  0.00000000000E+00 0. -1.
         -4    1    5    5    0  503 -0.62364198798E+02  0.76387064124E+02  0.35846727315E+01  0.98676880452E+02  0.00000000000E+00 0.  1.
         -3    1    6    6    0  502  0.56667133930E+03  0.13303018333E+02 -0.29544875743E+03  0.63920524509E+03  0.00000000000E+00 0.  1.
<mgrwt>
<rscale>  0 0.22680148E+04</rscale>
<asrwt>0</asrwt>
<pdfrwt beam="1">  1        2 0.34651394E+00 0.22680148E+04</pdfrwt>
<pdfrwt beam="2">  1       -2 0.87838383E-01 0.22680148E+04</pdfrwt>
<totfact> 0.49006901E+00</totfact>
</mgrwt>
</event>
<event>
12    1  0.1489025E-007  0.3820791E+04  0.7818608E-02  0.8041708E-01
         -2   -1    0    0    0  501 -0.00000000000E+00  0.00000000000E+00  0.14421471855E+04  0.14421471855E+04  0.00000000000E+00 0.  1.
          2   -1    0    0  501    0  0.00000000000E+00 -0.00000000000E+00 -0.25306780881E+04  0.25306780881E+04  0.00000000000E+00 0. -1.
         23    2    1    2    0    0  0.10908095564E+04  0.76467876981E+03  0.74879810120E+03  0.15305970638E+04  0.86195510285E+02 0.  0.
        254    2    1    2    0    0 -0.10908095564E+04 -0.76467876981E+03 -0.18373290038E+04  0.24422282098E+04  0.90227581772E+03 0.  0.
        -24    2    4    4    0    0 -0.77991187062E+03 -0.81507757579E+03 -0.88657091589E+03  0.14371125468E+04  0.81673146787E+02 0.  0.
         24    2    4    4    0    0 -0.31089768579E+03  0.50398805976E+02 -0.95075808787E+03  0.10051156629E+04  0.84375017427E+02 0.  0.
         13    1    3    3    0    0  0.32218909633E+03  0.22293358440E+03  0.17590243511E+03  0.42947277390E+03  0.00000000000E+00 0. -1.
        -13    1    3    3    0    0  0.76862046008E+03  0.54174518541E+03  0.57289566610E+03  0.11011242899E+04  0.00000000000E+00 0.  1.
          2    1    6    6  502    0 -0.20809254069E+02 -0.12810089180E+02 -0.37056030963E+02  0.44387755862E+02  0.00000000000E+00 0. -1.
          1    1    5    5  503    0 -0.55956509790E+03 -0.58463114584E+03 -0.58823658343E+03  0.10004643690E+04  0.00000000000E+00 0. -1.
         -2    1    5    5    0  503 -0.22034677272E+03 -0.23044642994E+03 -0.29833433246E+03  0.43664817788E+03  0.00000000000E+00 0.  1.
         -1    1    6    6    0  502 -0.29008843172E+03  0.63208895155E+02 -0.91370205690E+03  0.96072790708E+03  0.00000000000E+00 0.  1.
<mgrwt>
<rscale>  0 0.38207906E+04</rscale>
<asrwt>0</asrwt>
<pdfrwt beam="1">  1        2 0.38933508E+00 0.38207906E+04</pdfrwt>
<pdfrwt beam="2">  1       -2 0.22186880E+00 0.38207906E+04</pdfrwt>
<totfact> 0.25720584E-01</totfact>
</mgrwt>
</event>
<event>
12    1  0.1489025E-007  0.1857178E+04  0.7818608E-02  0.8676470E-01
         -2   -1    0    0    0  501 -0.00000000000E+00  0.00000000000E+00  0.16862859769E+04  0.16862859769E+04  0.00000000000E+00 0.  1.
          2   -1    0    0  501    0  0.00000000000E+00 -0.00000000000E+00 -0.51134735063E+03  0.51134735063E+03  0.00000000000E+00 0. -1.
         23    2    1    2    0    0 -0.65739494278E+03 -0.11675020828E+03  0.17734658137E+03  0.69671002919E+03  0.90301345127E+02 0.  0.
        254    2    1    2    0    0  0.65739494278E+03  0.11675020828E+03  0.99759204489E+03  0.15009232983E+04  0.90098953241E+03 0.  0.
        -24    2    4    4    0    0  0.22252618562E+03 -0.30426621052E+03  0.70881876002E+02  0.39112944573E+03  0.76564827577E+02 0.  0.
         24    2    4    4    0    0  0.43486875715E+03  0.42101641880E+03  0.92671016889E+03  0.11097938526E+04  0.80529480902E+02 0.  0.
         13    1    3    3    0    0 -0.57249010847E+03 -0.11538168794E+03  0.18189388788E+03  0.61167249787E+03  0.00000000000E+00 0. -1.
        -13    1    3    3    0    0 -0.84904834306E+02 -0.13685203382E+01 -0.45473065011E+01  0.85037531319E+02  0.00000000000E+00 0.  1.
          4    1    6    6  502    0  0.78602893543E+02  0.40486489641E+02  0.11388130838E+03  0.14417532075E+03  0.00000000000E+00 0. -1.
          1    1    5    5  503    0  0.48922580282E+00 -0.24994994598E+02  0.17169236704E+02  0.30327739544E+02  0.00000000000E+00 0. -1.
         -2    1    5    5    0  503  0.22203695982E+03 -0.27927121592E+03  0.53712639298E+02  0.36080170618E+03  0.00000000000E+00 0.  1.
         -3    1    6    6    0  502  0.35626586361E+03  0.38052992916E+03  0.81282886051E+03  0.96561853184E+03  0.00000000000E+00 0.  1.
<mgrwt>
<rscale>  0 0.18571784E+04</rscale>
<asrwt>0</asrwt>
<pdfrwt beam="1">  1        2 0.78668824E-01 0.18571784E+04</pdfrwt>
<pdfrwt beam="2">  1       -2 0.25942861E+00 0.18571784E+04</pdfrwt>
<totfact> 0.31711074E+00</totfact>
</mgrwt>
</event>
<event>
12    1  0.1489025E-007  0.1081887E+04  0.7818608E-02  0.9223028E-01
         -1   -1    0    0    0  501 -0.00000000000E+00  0.00000000000E+00  0.49044480011E+03  0.49044480011E+03  0.00000000000E+00 0.  1.
          1   -1    0    0  501    0  0.00000000000E+00 -0.00000000000E+00 -0.59664223022E+03  0.59664223022E+03  0.00000000000E+00 0. -1.
         23    2    1    2    0    0 -0.20847039652E+02 -0.13955918254E+03 -0.57307169027E+02  0.17930011429E+03  0.94620583737E+02 0.  0.
        254    2    1    2    0    0  0.20847039652E+02  0.13955918254E+03 -0.48890261080E+02  0.90778691604E+03  0.89541915481E+03 0.  0.
        -24    2    4    4    0    0 -0.55720770979E+02 -0.11399911054E+03  0.37370229031E+03  0.40275483662E+03  0.80358292145E+02 0.  0.
         24    2    4    4    0    0  0.76567810630E+02  0.25355829308E+03 -0.42259255139E+03  0.50503207942E+03  0.79488987501E+02 0.  0.
         11    1    3    3    0    0 -0.14562520879E+02 -0.12141414154E+03 -0.36811809190E+01  0.12233973955E+03  0.00000000000E+00 0.  1.
        -11    1    3    3    0    0 -0.62845187725E+01 -0.18145041000E+02 -0.53625988108E+02  0.56960374732E+02  0.00000000000E+00 0. -1.
          2    1    6    6  502    0  0.13073065231E+00  0.12980927977E+03 -0.17521238385E+03  0.21805927098E+03  0.00000000000E+00 0. -1.
          1    1    5    5  503    0 -0.52044079077E+02 -0.12435297529E+03  0.36376720729E+03  0.38794178652E+03  0.00000000000E+00 0. -1.
         -2    1    5    5    0  503 -0.36766919014E+01  0.10353864751E+02  0.99350830230E+01  0.14813050101E+02  0.00000000000E+00 0.  1.
         -1    1    6    6    0  502  0.76437079978E+02  0.12374901332E+03 -0.24738016754E+03  0.28697280844E+03  0.00000000000E+00 0.  1.
<mgrwt>
<rscale>  0 0.10818874E+04</rscale>
<asrwt>0</asrwt>
<pdfrwt beam="1">  1        1 0.91791112E-01 0.10818874E+04</pdfrwt>
<pdfrwt beam="2">  1       -1 0.75453047E-01 0.10818874E+04</pdfrwt>
<totfact> 0.60844931E+01</totfact>
</mgrwt>
</event>
<event>
12    1  0.1540020E-007  0.2218387E+04  0.7818608E-02  0.8510814E-01
         -1   -1    0    0    0  501 -0.00000000000E+00  0.00000000000E+00  0.67168153768E+03  0.67168153768E+03  0.00000000000E+00 0.  1.
          1   -1    0    0  501    0  0.00000000000E+00 -0.00000000000E+00 -0.18316864406E+04  0.18316864406E+04  0.00000000000E+00 0. -1.
         23    2    1    2    0    0  0.90520905740E+03 -0.27073166399E+02 -0.27829164862E+03  0.95181988223E+03  0.91533887564E+02 0.  0.
        254    2    1    2    0    0 -0.90520905740E+03  0.27073166399E+02 -0.88171325434E+03  0.15515480961E+04  0.89985934327E+03 0.  0.
        -24    2    4    4    0    0 -0.21377529423E+03  0.26604185580E+03  0.59845203446E+02  0.35644641686E+03  0.83632853910E+02 0.  0.
         24    2    4    4    0    0 -0.69143376317E+03 -0.23896868940E+03 -0.94155845779E+03  0.11951016792E+04  0.80925959471E+02 0.  0.
         13    1    3    3    0    0  0.54171414875E+03 -0.44711385600E+02 -0.20275661428E+03  0.58014099286E+03  0.00000000000E+00 0.  1.
        -13    1    3    3    0    0  0.36349490865E+03  0.17638219201E+02 -0.75535034344E+02  0.37167888937E+03  0.00000000000E+00 0. -1.
          2    1    6    6  502    0 -0.85197030860E+01 -0.14661662326E+02 -0.17222634095E+02  0.24169584358E+02  0.00000000000E+00 0. -1.
          3    1    5    5  503    0 -0.34863513523E+01  0.41861836662E+02 -0.50141409806E+01  0.42304959806E+02  0.00000000000E+00 0. -1.
         -4    1    5    5    0  503 -0.21028894288E+03  0.22418001914E+03  0.64859344426E+02  0.31414145705E+03  0.00000000000E+00 0.  1.
         -1    1    6    6    0  502 -0.68291406008E+03 -0.22430702708E+03 -0.92433582369E+03  0.11709320949E+04  0.00000000000E+00 0.  1.
<mgrwt>
<rscale>  0 0.22183868E+04</rscale>
<asrwt>0</asrwt>
<pdfrwt beam="1">  1        1 0.28179791E+00 0.22183868E+04</pdfrwt>
<pdfrwt beam="2">  1       -1 0.10333562E+00 0.22183868E+04</pdfrwt>
<totfact> 0.31177949E+00</totfact>
</mgrwt>
</event>
<event>
12    1  0.1489025E-007  0.1168804E+04  0.7818608E-02  0.9140609E-01
         -1   -1    0    0    0  501 -0.00000000000E+00  0.00000000000E+00  0.65419546370E+03  0.65419546370E+03  0.00000000000E+00 0.  1.
          1   -1    0    0  501    0  0.00000000000E+00 -0.00000000000E+00 -0.52205426126E+03  0.52205426126E+03  0.00000000000E+00 0. -1.
         23    2    1    2    0    0 -0.10911019728E+02 -0.21913298330E+03  0.39260202281E+02  0.24253287606E+03  0.95616514093E+02 0.  0.
        254    2    1    2    0    0  0.10911019728E+02  0.21913298330E+03  0.92881000158E+02  0.93371684890E+03  0.90280781953E+03 0.  0.
        -24    2    4    4    0    0 -0.34005585024E+03  0.37499549053E+03 -0.52395549740E+02  0.51525985750E+03  0.80547054116E+02 0.  0.
         24    2    4    4    0    0  0.35096686997E+03 -0.15586250723E+03  0.14527654990E+03  0.41845699140E+03  0.80809112885E+02 0.  0.
         11    1    3    3    0    0 -0.54284645196E+01 -0.74628606994E+01  0.29121995009E+02  0.30549191645E+02  0.00000000000E+00 0.  1.
        -11    1    3    3    0    0 -0.54825552082E+01 -0.21167012260E+03  0.10138207272E+02  0.21198368441E+03  0.00000000000E+00 0. -1.
          2    1    6    6  502    0  0.18666186791E+00  0.55664171060E+01  0.54086094650E+01  0.77635622234E+01  0.00000000000E+00 0. -1.
          1    1    5    5  503    0 -0.11867317451E+02 -0.39212541087E+00  0.58698971855E+01  0.13245477673E+02  0.00000000000E+00 0. -1.
         -2    1    5    5    0  503 -0.32818853279E+03  0.37538761594E+03 -0.58265446925E+02  0.50201437983E+03  0.00000000000E+00 0.  1.
         -1    1    6    6    0  502  0.35078020810E+03 -0.16142892434E+03  0.13986794043E+03  0.41069342917E+03  0.00000000000E+00 0.  1.
<mgrwt>
<rscale>  0 0.11688037E+04</rscale>
<asrwt>0</asrwt>
<pdfrwt beam="1">  1        1 0.80316041E-01 0.11688037E+04</pdfrwt>
<pdfrwt beam="2">  1       -1 0.10064546E+00 0.11688037E+04</pdfrwt>
<totfact> 0.38904463E+01</totfact>
</mgrwt>
</event>
<event>
12    1  0.1489025E-007  0.2486309E+04  0.7818608E-02  0.8407879E-01
         -1   -1    0    0    0  501 -0.00000000000E+00  0.00000000000E+00  0.16469482512E+04  0.16469482512E+04  0.00000000000E+00 0.  1.
          1   -1    0    0  501    0  0.00000000000E+00 -0.00000000000E+00 -0.93836171389E+03  0.93836171389E+03  0.00000000000E+00 0. -1.
         23    2    1    2    0    0 -0.75183590176E+03 -0.65318661311E+03 -0.12195101789E+03  0.10074983008E+04  0.90943942239E+02 0.  0.
        254    2    1    2    0    0  0.75183590176E+03  0.65318661311E+03  0.83053755520E+03  0.15778116643E+04  0.89876973837E+03 0.  0.
        -24    2    4    4    0    0  0.22295552639E+02  0.20823515634E+03 -0.15349422260E+03  0.27207768085E+03  0.81282323081E+02 0.  0.
         24    2    4    4    0    0  0.72954034912E+03  0.44495145678E+03  0.98403177780E+03  0.13057339834E+04  0.80073565323E+02 0.  0.
         11    1    3    3    0    0 -0.26006533971E+03 -0.20054976182E+03 -0.18113504581E+01  0.32841660870E+03  0.00000000000E+00 0.  1.
        -11    1    3    3    0    0 -0.49177056205E+03 -0.45263685130E+03 -0.12013966744E+03  0.67908169210E+03  0.00000000000E+00 0. -1.
          2    1    6    6  502    0  0.47292543662E+03  0.24326529088E+03  0.60250686163E+03  0.80364854797E+03  0.00000000000E+00 0. -1.
          3    1    5    5  503    0  0.12013635435E+02  0.11795681964E+03 -0.36730282815E+02  0.12412595382E+03  0.00000000000E+00 0. -1.
         -4    1    5    5    0  503  0.10281917204E+02  0.90278336692E+02 -0.11676393978E+03  0.14795172703E+03  0.00000000000E+00 0.  1.
         -1    1    6    6    0  502  0.25661491250E+03  0.20168616590E+03  0.38152491617E+03  0.50208543545E+03  0.00000000000E+00 0.  1.
<mgrwt>
<rscale>  0 0.24863091E+04</rscale>
<asrwt>0</asrwt>
<pdfrwt beam="1">  1        1 0.14436334E+00 0.24863091E+04</pdfrwt>
<pdfrwt beam="2">  1       -1 0.25337665E+00 0.24863091E+04</pdfrwt>
<totfact> 0.99815297E-01</totfact>
</mgrwt>
</event>
<event>
12    1  0.1644955E-007  0.2195115E+04  0.7818608E-02  0.8520464E-01
         -2   -1    0    0    0  501 -0.00000000000E+00  0.00000000000E+00  0.57083665054E+03  0.57083665054E+03  0.00000000000E+00 0.  1.
          2   -1    0    0  501    0  0.00000000000E+00 -0.00000000000E+00 -0.21102923979E+04  0.21102923979E+04  0.00000000000E+00 0. -1.
         23    2    1    2    0    0 -0.20617569159E+03 -0.32932445543E+03 -0.16463462302E+04  0.16940737895E+04  0.92016746601E+02 0.  0.
        254    2    1    2    0    0  0.20617569159E+03  0.32932445543E+03  0.10689048281E+03  0.98705525903E+03  0.90104910872E+03 0.  0.
        -24    2    4    4    0    0  0.12040331172E+03 -0.30132294719E+03 -0.13816444638E+02  0.33424344817E+03  0.78963995099E+02 0.  0.
         24    2    4    4    0    0  0.85772379868E+02  0.63064740262E+03  0.12070692744E+03  0.65281181086E+03  0.80746829593E+02 0.  0.
         11    1    3    3    0    0 -0.67269625774E+02 -0.19382732957E+03 -0.86204737845E+03  0.88612635607E+03  0.00000000000E+00 0. -1.
        -11    1    3    3    0    0 -0.13890606581E+03 -0.13549712586E+03 -0.78429885176E+03  0.80794743339E+03  0.00000000000E+00 0.  1.
          4    1    6    6  502    0  0.79536743705E+02  0.62998370598E+03  0.12145710085E+03  0.64649624187E+03  0.00000000000E+00 0. -1.
          3    1    5    5  503    0  0.11916857497E+03 -0.28996034378E+03 -0.29454166941E+02  0.31487409893E+03  0.00000000000E+00 0. -1.
         -4    1    5    5    0  503  0.12347367533E+01 -0.11362603412E+02  0.15637722303E+02  0.19369349240E+02  0.00000000000E+00 0.  1.
         -3    1    6    6    0  502  0.62356361633E+01  0.66369663670E+00 -0.75017340372E+00  0.63155689943E+01  0.00000000000E+00 0.  1.
<mgrwt>
<rscale>  0 0.21951148E+04</rscale>
<asrwt>0</asrwt>
<pdfrwt beam="1">  1        2 0.32466037E+00 0.21951148E+04</pdfrwt>
<pdfrwt beam="2">  1       -2 0.87821022E-01 0.21951148E+04</pdfrwt>
<totfact> 0.59280938E+00</totfact>
</mgrwt>
</event>
<event>
12    1  0.1489025E-007  0.1849158E+04  0.7818608E-02  0.8680586E-01
          2   -1    0    0  501    0  0.00000000000E+00  0.00000000000E+00  0.58188356029E+03  0.58188356029E+03  0.00000000000E+00 0.  1.
         -2   -1    0    0    0  501 -0.00000000000E+00 -0.00000000000E+00 -0.14691014566E+04  0.14691014566E+04  0.00000000000E+00 0. -1.
         23    2    1    2    0    0 -0.19469412275E+03  0.66915408222E+03 -0.30810392425E+03  0.76740283826E+03  0.91137812378E+02 0.  0.
        254    2    1    2    0    0  0.19469412275E+03 -0.66915408222E+03 -0.57911397206E+03  0.12835821786E+04  0.90914092939E+03 0.  0.
        -24    2    4    4    0    0  0.53960160527E+03 -0.32046287016E+03 -0.21780825169E+03  0.66911792201E+03  0.80075061637E+02 0.  0.
         24    2    4    4    0    0 -0.34490748252E+03 -0.34869121207E+03 -0.36130572037E+03  0.61446425662E+03  0.80484571362E+02 0.  0.
         13    1    3    3    0    0 -0.13231186740E+02  0.10957710281E+02  0.24250630959E+01  0.17349831359E+02  0.00000000000E+00 0.  1.
        -13    1    3    3    0    0 -0.18146293601E+03  0.65819637194E+03 -0.31052898735E+03  0.75005300690E+03  0.00000000000E+00 0. -1.
          2    1    6    6  502    0 -0.11960374276E+03 -0.15323157173E+03 -0.10351494248E+03  0.22022786648E+03  0.00000000000E+00 0. -1.
          1    1    5    5  503    0  0.89662903106E+02 -0.38185027608E+02 -0.71611145269E+01  0.97718033587E+02  0.00000000000E+00 0. -1.
         -2    1    5    5    0  503  0.44993870216E+03 -0.28227784255E+03 -0.21064713716E+03  0.57139988842E+03  0.00000000000E+00 0.  1.
         -1    1    6    6    0  502 -0.22530373975E+03 -0.19545964033E+03 -0.25779077789E+03  0.39423639014E+03  0.00000000000E+00 0.  1.
<mgrwt>
<rscale>  0 0.18491576E+04</rscale>
<asrwt>0</asrwt>
<pdfrwt beam="1">  1        2 0.89520550E-01 0.18491576E+04</pdfrwt>
<pdfrwt beam="2">  1       -2 0.22601560E+00 0.18491576E+04</pdfrwt>
<totfact> 0.43804676E+00</totfact>
</mgrwt>
</event>
<event>
12    1  0.1489025E-007  0.1252997E+04  0.7818608E-02  0.9067693E-01
         -1   -1    0    0    0  501 -0.00000000000E+00  0.00000000000E+00  0.20088154076E+03  0.20088154076E+03  0.00000000000E+00 0.  1.
          1   -1    0    0  501    0  0.00000000000E+00 -0.00000000000E+00 -0.19538890214E+04  0.19538890214E+04  0.00000000000E+00 0. -1.
         23    2    1    2    0    0 -0.22838793591E+03 -0.28455335918E+02 -0.72781289425E+03  0.76871597935E+03  0.90784869113E+02 0.  0.
        254    2    1    2    0    0  0.22838793591E+03  0.28455335918E+02 -0.10251945863E+04  0.13860545828E+04  0.90396493910E+03 0.  0.
        -24    2    4    4    0    0  0.18562340410E+02 -0.14364354360E+02  0.15910550506E+03  0.17982908362E+03  0.80455219942E+02 0.  0.
         24    2    4    4    0    0  0.20982559550E+03  0.42819690278E+02 -0.11843000914E+04  0.12062254992E+04  0.80950243352E+02 0.  0.
         11    1    3    3    0    0 -0.12509505790E+03 -0.59070409284E+02 -0.44827825363E+03  0.46913908326E+03  0.00000000000E+00 0. -1.
        -11    1    3    3    0    0 -0.10329287801E+03  0.30615073365E+02 -0.27953464062E+03  0.29957689609E+03  0.00000000000E+00 0.  1.
          2    1    6    6  502    0  0.39538630410E+02  0.82495921556E+01 -0.44279900608E+03  0.44463728909E+03  0.00000000000E+00 0. -1.
          3    1    5    5  503    0 -0.24448132503E+02  0.17578357127E+02  0.61983372374E+02  0.68910436604E+02  0.00000000000E+00 0. -1.
         -4    1    5    5    0  503  0.43010472913E+02 -0.31942711486E+02  0.97122132686E+02  0.11091864701E+03  0.00000000000E+00 0.  1.
         -1    1    6    6    0  502  0.17028696509E+03  0.34570098123E+02 -0.74150108533E+03  0.76158821006E+03  0.00000000000E+00 0.  1.
<mgrwt>
<rscale>  0 0.12529968E+04</rscale>
<asrwt>0</asrwt>
<pdfrwt beam="1">  1        1 0.30059830E+00 0.12529968E+04</pdfrwt>
<pdfrwt beam="2">  1       -1 0.30904853E-01 0.12529968E+04</pdfrwt>
<totfact> 0.30616357E+01</totfact>
</mgrwt>
</event>
<event>
12    1  0.1489025E-007  0.1163803E+04  0.7818608E-02  0.9145143E-01
          2   -1    0    0  501    0  0.00000000000E+00  0.00000000000E+00  0.10321055811E+04  0.10321055811E+04  0.00000000000E+00 0. -1.
         -2   -1    0    0    0  501 -0.00000000000E+00 -0.00000000000E+00 -0.32807618964E+03  0.32807618964E+03  0.00000000000E+00 0.  1.
         23    2    1    2    0    0  0.76921275826E+02 -0.14289058586E+03 -0.19166232946E+02  0.18876625264E+03  0.94502653134E+02 0.  0.
        254    2    1    2    0    0 -0.76921275826E+02  0.14289058586E+03  0.72319562438E+03  0.11714155181E+04  0.90712061087E+03 0.  0.
        -24    2    4    4    0    0  0.33211664090E+03 -0.37604828509E+02  0.33648352868E+02  0.34562280842E+03  0.81285470778E+02 0.  0.
         24    2    4    4    0    0 -0.40903791672E+03  0.18049541437E+03  0.68954727151E+03  0.82579270966E+03  0.81040408114E+02 0.  0.
         13    1    3    3    0    0  0.92206481709E+01 -0.38003361176E+01  0.25809298630E+02  0.27669167011E+02  0.00000000000E+00 0. -1.
        -13    1    3    3    0    0  0.67700627656E+02 -0.13909024975E+03 -0.44975531576E+02  0.16109708563E+03  0.00000000000E+00 0.  1.
          4    1    6    6  502    0 -0.91236443932E+02  0.32346600482E+02  0.21473228911E+03  0.23554266546E+03  0.00000000000E+00 0. -1.
          3    1    5    5  503    0  0.53913013972E+02 -0.30832459629E+02 -0.13003543790E+02  0.63453493154E+02  0.00000000000E+00 0. -1.
         -4    1    5    5    0  503  0.27820362692E+03 -0.67723688801E+01  0.46651896659E+02  0.28216931526E+03  0.00000000000E+00 0.  1.
         -1    1    6    6    0  502 -0.31780147279E+03  0.14814881389E+03  0.47481498240E+03  0.59025004420E+03  0.00000000000E+00 0.  1.
<mgrwt>
<rscale>  0 0.11638028E+04</rscale>
<asrwt>0</asrwt>
<pdfrwt beam="1">  1        2 0.15878547E+00 0.11638028E+04</pdfrwt>
<pdfrwt beam="2">  1       -2 0.50473260E-01 0.11638028E+04</pdfrwt>
<totfact> 0.88190068E+01</totfact>
</mgrwt>
</event>
<event>
12    1  0.1489025E-007  0.2276408E+04  0.7818608E-02  0.8487282E-01
         -2   -1    0    0    0  501 -0.00000000000E+00  0.00000000000E+00  0.79217422115E+03  0.79217422115E+03  0.00000000000E+00 0.  1.
          2   -1    0    0  501    0  0.00000000000E+00 -0.00000000000E+00 -0.16353829794E+04  0.16353829794E+04  0.00000000000E+00 0. -1.
         23    2    1    2    0    0  0.48683444855E+03 -0.11854913404E+03  0.51326741000E+03  0.72304404294E+03  0.91036126839E+02 0.  0.
        254    2    1    2    0    0 -0.48683444855E+03  0.11854913404E+03 -0.13564761682E+04  0.17045131576E+04  0.90237233554E+03 0.  0.
        -24    2    4    4    0    0  0.17011502840E+03 -0.12035938523E+03 -0.72595930163E+03  0.75947564836E+03  0.79754926682E+02 0.  0.
         24    2    4    4    0    0 -0.65694947695E+03  0.23890851927E+03 -0.63051686660E+03  0.94503750923E+03  0.82972760201E+02 0.  0.
         13    1    3    3    0    0  0.39914359566E+03 -0.11606619087E+03  0.37815556229E+03  0.56195070950E+03  0.00000000000E+00 0.  1.
        -13    1    3    3    0    0  0.87690852893E+02 -0.24829431663E+01  0.13511184771E+03  0.16109333344E+03  0.00000000000E+00 0. -1.
          2    1    6    6  502    0 -0.50660677753E+03  0.17255031464E+03 -0.52526894564E+03  0.74988766050E+03  0.00000000000E+00 0. -1.
          3    1    5    5  503    0  0.12248570609E+03 -0.11272411606E+03 -0.46035310634E+03  0.48952472569E+03  0.00000000000E+00 0. -1.
         -4    1    5    5    0  503  0.47629322306E+02 -0.76352691769E+01 -0.26560619529E+03  0.26995092268E+03  0.00000000000E+00 0.  1.
         -1    1    6    6    0  502 -0.15034269942E+03  0.66358204630E+02 -0.10524792096E+03  0.19514984873E+03  0.00000000000E+00 0.  1.
<mgrwt>
<rscale>  0 0.22764079E+04</rscale>
<asrwt>0</asrwt>
<pdfrwt beam="1">  1        2 0.25159738E+00 0.22764079E+04</pdfrwt>
<pdfrwt beam="2">  1       -2 0.12187296E+00 0.22764079E+04</pdfrwt>
<totfact> 0.49454899E+00</totfact>
</mgrwt>
</event>
<event>
12    1  0.1587121E-007  0.1741221E+04  0.7818608E-02  0.8738197E-01
          2   -1    0    0  501    0  0.00000000000E+00  0.00000000000E+00  0.12464638384E+04  0.12464638384E+04  0.00000000000E+00 0. -1.
         -2   -1    0    0    0  501 -0.00000000000E+00 -0.00000000000E+00 -0.60809058160E+03  0.60809058160E+03  0.00000000000E+00 0.  1.
         23    2    1    2    0    0 -0.45335100139E+03  0.25793822481E+03 -0.10744013856E+03  0.54028394030E+03  0.91126804490E+02 0.  0.
        254    2    1    2    0    0  0.45335100139E+03 -0.25793822481E+03  0.74581339540E+03  0.13142704797E+04  0.94816138652E+03 0.  0.
        -24    2    4    4    0    0  0.74984001098E+01 -0.13787076032E+02 -0.21209517527E+03  0.22702204197E+03  0.79425025649E+02 0.  0.
         24    2    4    4    0    0  0.44585260128E+03 -0.24415114878E+03  0.95790857066E+03  0.10872484378E+04  0.78268832687E+02 0.  0.
         13    1    3    3    0    0 -0.12877921360E+03  0.50722790474E+02 -0.64882268337E+02  0.15286136226E+03  0.00000000000E+00 0.  1.
        -13    1    3    3    0    0 -0.32457178779E+03  0.20721543434E+03 -0.42557870225E+02  0.38742257804E+03  0.00000000000E+00 0. -1.
          4    1    6    6  502    0  0.22860942976E+02 -0.33409189928E+02  0.56989696233E+02  0.69904378705E+02  0.00000000000E+00 0. -1.
          1    1    5    5  503    0 -0.14171158962E+02  0.19480643532E+02 -0.21351357432E+02  0.32190024587E+02  0.00000000000E+00 0. -1.
         -4    1    5    5    0  503  0.21669559072E+02 -0.33267719563E+02 -0.19074381783E+03  0.19483201738E+03  0.00000000000E+00 0.  1.
         -3    1    6    6    0  502  0.42299165830E+03 -0.21074195885E+03  0.90091887443E+03  0.10173440591E+04  0.00000000000E+00 0.  1.
<mgrwt>
<rscale>  0 0.17412213E+04</rscale>
<asrwt>0</asrwt>
<pdfrwt beam="1">  1        2 0.19176367E+00 0.17412213E+04</pdfrwt>
<pdfrwt beam="2">  1       -2 0.93552397E-01 0.17412213E+04</pdfrwt>
<totfact> 0.16287118E+01</totfact>
</mgrwt>
</event>
<event>
12    1  0.1489025E-007  0.1473102E+04  0.7818608E-02  0.8902540E-01
          2   -1    0    0  501    0  0.00000000000E+00  0.00000000000E+00  0.28689134750E+04  0.28689134750E+04  0.00000000000E+00 0. -1.
         -2   -1    0    0    0  501 -0.00000000000E+00 -0.00000000000E+00 -0.18909849377E+03  0.18909849377E+03  0.00000000000E+00 0.  1.
         23    2    1    2    0    0  0.44322620214E+03  0.80227558104E+02  0.10357653287E+04  0.11330987626E+04  0.90648013160E+02 0.  0.
        254    2    1    2    0    0 -0.44322620214E+03 -0.80227558104E+02  0.16440496526E+04  0.19249132062E+04  0.89415080611E+03 0.  0.
        -24    2    4    4    0    0 -0.62562173329E+03 -0.25484231600E+03  0.14328825601E+04  0.15862339010E+04  0.81476368703E+02 0.  0.
         24    2    4    4    0    0  0.18239553115E+03  0.17461475790E+03  0.21116709250E+03  0.33867930519E+03  0.79710020395E+02 0.  0.
         11    1    3    3    0    0  0.75300879555E+02 -0.19677395035E+02  0.15882193086E+03  0.17686669573E+03  0.00000000000E+00 0. -1.
        -11    1    3    3    0    0  0.36792532259E+03  0.99904953139E+02  0.87694339781E+03  0.95623206683E+03  0.00000000000E+00 0.  1.
          2    1    6    6  502    0  0.17891171400E+03  0.16208698024E+03  0.21683168523E+03  0.32449587099E+03  0.00000000000E+00 0. -1.
          3    1    5    5  503    0 -0.53681796051E+03 -0.24791122712E+03  0.12522121047E+04  0.13847991387E+04  0.00000000000E+00 0. -1.
         -4    1    5    5    0  503 -0.88803772784E+02 -0.69310888875E+01  0.18067045531E+03  0.20143476233E+03  0.00000000000E+00 0.  1.
         -1    1    6    6    0  502  0.34838171534E+01  0.12527777657E+02 -0.56645927315E+01  0.14183434203E+02  0.00000000000E+00 0.  1.
<mgrwt>
<rscale>  0 0.14731018E+04</rscale>
<asrwt>0</asrwt>
<pdfrwt beam="1">  1        2 0.44137127E+00 0.14731018E+04</pdfrwt>
<pdfrwt beam="2">  1       -2 0.29092078E-01 0.14731018E+04</pdfrwt>
<totfact> 0.22210443E+01</totfact>
</mgrwt>
</event>
<event>
12    1  0.1489025E-007  0.1458011E+04  0.7818608E-02  0.8912866E-01
          2   -1    0    0  501    0  0.00000000000E+00  0.00000000000E+00  0.29571925628E+04  0.29571925628E+04  0.00000000000E+00 0. -1.
         -2   -1    0    0    0  501 -0.00000000000E+00 -0.00000000000E+00 -0.17971397952E+03  0.17971397952E+03  0.00000000000E+00 0.  1.
         23    2    1    2    0    0 -0.27893822772E+03  0.34160931919E+03  0.11266065895E+04  0.12132827194E+04  0.91154199013E+02 0.  0.
        254    2    1    2    0    0  0.27893822772E+03 -0.34160931919E+03  0.16508719938E+04  0.19236238229E+04  0.88342900687E+03 0.  0.
        -24    2    4    4    0    0  0.31303268284E+03 -0.25956834944E+03  0.18756740287E+03  0.45545484819E+03  0.83020476760E+02 0.  0.
         24    2    4    4    0    0 -0.34094455126E+02 -0.82040969745E+02  0.14633045909E+04  0.14681689747E+04  0.79791351630E+02 0.  0.
         11    1    3    3    0    0 -0.81566580057E+02  0.12555184122E+03  0.49559211621E+03  0.51771412717E+03  0.00000000000E+00 0.  1.
        -11    1    3    3    0    0 -0.19737164766E+03  0.21605747796E+03  0.63101447325E+03  0.69556859225E+03  0.00000000000E+00 0. -1.
          2    1    6    6  502    0 -0.38439359432E+02 -0.94847826967E+02  0.13784077079E+04  0.13822016871E+04  0.00000000000E+00 0. -1.
          3    1    5    5  503    0  0.25177289074E+03 -0.23978746336E+03  0.17723672032E+03  0.39025692963E+03  0.00000000000E+00 0. -1.
         -4    1    5    5    0  503  0.61259792098E+02 -0.19780886078E+02  0.10330682555E+02  0.65197918555E+02  0.00000000000E+00 0.  1.
         -1    1    6    6    0  502  0.43449043065E+01  0.12806857222E+02  0.84896883015E+02  0.85967287563E+02  0.00000000000E+00 0.  1.
<mgrwt>
<rscale>  0 0.14580108E+04</rscale>
<asrwt>0</asrwt>
<pdfrwt beam="1">  1        2 0.45495266E+00 0.14580108E+04</pdfrwt>
<pdfrwt beam="2">  1       -2 0.27648307E-01 0.14580108E+04</pdfrwt>
<totfact> 0.21577588E+01</totfact>
</mgrwt>
</event>
<event>
12    1  0.1489025E-007  0.1647294E+04  0.7818608E-02  0.8792009E-01
         -1   -1    0    0    0  501 -0.00000000000E+00  0.00000000000E+00  0.14841292351E+04  0.14841292351E+04  0.00000000000E+00 0.  1.
          1   -1    0    0  501    0  0.00000000000E+00 -0.00000000000E+00 -0.45709951801E+03  0.45709951801E+03  0.00000000000E+00 0. -1.
         23    2    1    2    0    0 -0.50263052148E+03 -0.22038766325E+03  0.18582289562E+03  0.58667082039E+03  0.91893088568E+02 0.  0.
        254    2    1    2    0    0  0.50263052148E+03  0.22038766325E+03  0.84120682145E+03  0.13545579327E+04  0.90883998226E+03 0.  0.
        -24    2    4    4    0    0  0.46669911689E+03  0.51929446191E+03  0.75497703201E+03  0.10314598035E+04  0.80275796944E+02 0.  0.
         24    2    4    4    0    0  0.35931404585E+02 -0.29890679866E+03  0.86229789439E+02  0.32309812916E+03  0.79501473933E+02 0.  0.
         13    1    3    3    0    0 -0.75860987153E+02 -0.61518710708E+02  0.58402006640E+02  0.11379910157E+03  0.00000000000E+00 0. -1.
        -13    1    3    3    0    0 -0.42676953433E+03 -0.15886895254E+03  0.12742088898E+03  0.47287171882E+03  0.00000000000E+00 0.  1.
          4    1    6    6  502    0 -0.62658922190E+01 -0.20257688255E+03  0.79526139592E+02  0.21771784867E+03  0.00000000000E+00 0. -1.
          1    1    5    5  503    0  0.45754840359E+03  0.51286565913E+03  0.72285756025E+03  0.99744913572E+03  0.00000000000E+00 0. -1.
         -2    1    5    5    0  503  0.91507133040E+01  0.64288027820E+01  0.32119471768E+02  0.34010667824E+02  0.00000000000E+00 0.  1.
         -3    1    6    6    0  502  0.42197296803E+02 -0.96329916108E+02  0.67036498474E+01  0.10538028049E+03  0.00000000000E+00 0.  1.
<mgrwt>
<rscale>  0 0.16472945E+04</rscale>
<asrwt>0</asrwt>
<pdfrwt beam="1">  1        1 0.70323003E-01 0.16472945E+04</pdfrwt>
<pdfrwt beam="2">  1       -1 0.22832757E+00 0.16472945E+04</pdfrwt>
<totfact> 0.46394206E+00</totfact>
</mgrwt>
</event>
<event>
12    1  0.1489025E-007  0.2104753E+04  0.7818608E-02  0.8559153E-01
          2   -1    0    0  501    0  0.00000000000E+00  0.00000000000E+00  0.20264242933E+03  0.20264242933E+03  0.00000000000E+00 0.  1.
         -2   -1    0    0    0  501 -0.00000000000E+00 -0.00000000000E+00 -0.54652713765E+04  0.54652713765E+04  0.00000000000E+00 0. -1.
         23    2    1    2    0    0  0.66588918384E+02  0.43580789176E+03 -0.41431481487E+04  0.41674901625E+04  0.89079010346E+02 0.  0.
        254    2    1    2    0    0 -0.66588918384E+02 -0.43580789176E+03 -0.11194807985E+04  0.15004236434E+04  0.89647713228E+03 0.  0.
        -24    2    4    4    0    0 -0.10525061668E+03  0.26125230501E+03 -0.38687964192E+03  0.48515937470E+03  0.79832965248E+02 0.  0.
         24    2    4    4    0    0  0.38661698294E+02 -0.69706019677E+03 -0.73260115660E+03  0.10152642687E+04  0.81666613282E+02 0.  0.
         11    1    3    3    0    0  0.76211865244E+02  0.37636454443E+03 -0.33178487902E+04  0.33399968732E+04  0.00000000000E+00 0. -1.
        -11    1    3    3    0    0 -0.96229468592E+01  0.59443347334E+02 -0.82529935848E+03  0.82749328925E+03  0.00000000000E+00 0.  1.
          2    1    6    6  502    0  0.59206362974E+02 -0.52878641857E+03 -0.58111576958E+03  0.78791878232E+03  0.00000000000E+00 0. -1.
          3    1    5    5  503    0 -0.39444101283E+02  0.19086882770E+03 -0.23516866839E+03  0.30543583468E+03  0.00000000000E+00 0. -1.
         -4    1    5    5    0  503 -0.65806515396E+02  0.70383477302E+02 -0.15171097353E+03  0.17972354001E+03  0.00000000000E+00 0.  1.
         -1    1    6    6    0  502 -0.20544664680E+02 -0.16827377820E+03 -0.15148538702E+03  0.22734548634E+03  0.00000000000E+00 0.  1.
<mgrwt>
<rscale>  0 0.21047526E+04</rscale>
<asrwt>0</asrwt>
<pdfrwt beam="1">  1        2 0.31175759E-01 0.21047526E+04</pdfrwt>
<pdfrwt beam="2">  1       -2 0.84081095E+00 0.21047526E+04</pdfrwt>
<totfact> 0.63945691E-03</totfact>
</mgrwt>
</event>
<event>
12    1  0.1489025E-007  0.3745805E+04  0.7818608E-02  0.8057886E-01
          2   -1    0    0  501    0  0.00000000000E+00  0.00000000000E+00  0.31436396138E+04  0.31436396138E+04  0.00000000000E+00 0. -1.
         -2   -1    0    0    0  501 -0.00000000000E+00 -0.00000000000E+00 -0.11158285930E+04  0.11158285930E+04  0.00000000000E+00 0.  1.
         23    2    1    2    0    0 -0.31624176910E+03 -0.12943812275E+04  0.22607925443E+04  0.26258305652E+04  0.91496503796E+02 0.  0.
        254    2    1    2    0    0  0.31624176910E+03  0.12943812275E+04 -0.23298152342E+03  0.16336376417E+04  0.91600214807E+03 0.  0.
        -24    2    4    4    0    0  0.10629278885E+03  0.69858158424E+03 -0.57169601947E+03  0.91247523285E+03  0.80376147499E+02 0.  0.
         24    2    4    4    0    0  0.20994898025E+03  0.59579964329E+03  0.33871449605E+03  0.72116240881E+03  0.79321628783E+02 0.  0.
         11    1    3    3    0    0 -0.12520704626E+03 -0.68782048527E+03  0.12209670152E+04  0.14069592306E+04  0.00000000000E+00 0. -1.
        -11    1    3    3    0    0 -0.19103472284E+03 -0.60656074225E+03  0.10398255291E+04  0.12188713346E+04  0.00000000000E+00 0.  1.
          2    1    6    6  502    0  0.11709650487E+03  0.41552912631E+03  0.20223974692E+03  0.47673573550E+03  0.00000000000E+00 0. -1.
          1    1    5    5  503    0  0.29483926635E+02  0.17494274306E+03 -0.18999701427E+03  0.25994832315E+03  0.00000000000E+00 0. -1.
         -2    1    5    5    0  503  0.76808862218E+02  0.52363884118E+03 -0.38169900520E+03  0.65252690970E+03  0.00000000000E+00 0.  1.
         -1    1    6    6    0  502  0.92852475380E+02  0.18027051697E+03  0.13647474913E+03  0.24442667331E+03  0.00000000000E+00 0.  1.
<mgrwt>
<rscale>  0 0.37458046E+04</rscale>
<asrwt>0</asrwt>
<pdfrwt beam="1">  1        2 0.48363686E+00 0.37458046E+04</pdfrwt>
<pdfrwt beam="2">  1       -2 0.17166594E+00 0.37458046E+04</pdfrwt>
<totfact> 0.23543615E-01</totfact>
</mgrwt>
</event>
<event>
12    1  0.1489025E-007  0.1625450E+04  0.7818608E-02  0.8805064E-01
         -1   -1    0    0    0  501 -0.00000000000E+00  0.00000000000E+00  0.10045021968E+04  0.10045021968E+04  0.00000000000E+00 0.  1.
          1   -1    0    0  501    0  0.00000000000E+00 -0.00000000000E+00 -0.65756175064E+03  0.65756175064E+03  0.00000000000E+00 0. -1.
         23    2    1    2    0    0  0.20817570680E+03 -0.16723946989E+03  0.62891564827E+03  0.69027724098E+03  0.98191708339E+02 0.  0.
        254    2    1    2    0    0 -0.20817570680E+03  0.16723946989E+03 -0.28197520208E+03  0.97178670648E+03  0.89081604336E+03 0.  0.
        -24    2    4    4    0    0 -0.55081861640E+03  0.14992005816E+03 -0.14447804668E+03  0.59342618206E+03  0.73508880958E+02 0.  0.
         24    2    4    4    0    0  0.34264290960E+03  0.17319411736E+02 -0.13749715540E+03  0.37836052442E+03  0.80914109851E+02 0.  0.
         11    1    3    3    0    0  0.33502048824E+02 -0.81734753616E+02  0.23279869759E+03  0.24899435902E+03  0.00000000000E+00 0. -1.
        -11    1    3    3    0    0  0.17467365798E+03 -0.85504716277E+02  0.39611695068E+03  0.44128288196E+03  0.00000000000E+00 0.  1.
          4    1    6    6  502    0  0.31068514392E+02  0.21083887209E+02  0.55443563964E+00  0.37551168893E+02  0.00000000000E+00 0. -1.
          1    1    5    5  503    0 -0.21249551184E+02 -0.58607815513E+01  0.25087531282E+01  0.22185266015E+02  0.00000000000E+00 0. -1.
         -2    1    5    5    0  503 -0.52956906521E+03  0.15578083971E+03 -0.14698679980E+03  0.57124091605E+03  0.00000000000E+00 0.  1.
         -3    1    6    6    0  502  0.31157439521E+03 -0.37644754735E+01 -0.13805159104E+03  0.34080935552E+03  0.00000000000E+00 0.  1.
<mgrwt>
<rscale>  0 0.16254504E+04</rscale>
<asrwt>0</asrwt>
<pdfrwt beam="1">  1        1 0.10116335E+00 0.16254504E+04</pdfrwt>
<pdfrwt beam="2">  1       -1 0.15453880E+00 0.16254504E+04</pdfrwt>
<totfact> 0.92231517E+00</totfact>
</mgrwt>
</event>
<event>
12    1  0.1489025E-007  0.1600608E+04  0.7818608E-02  0.8820174E-01
          2   -1    0    0  501    0  0.00000000000E+00  0.00000000000E+00  0.23275316380E+04  0.23275316380E+04  0.00000000000E+00 0. -1.
         -2   -1    0    0    0  501 -0.00000000000E+00 -0.00000000000E+00 -0.27517854482E+03  0.27517854482E+03  0.00000000000E+00 0.  1.
         23    2    1    2    0    0  0.71633430743E+02 -0.31046704680E+03  0.13932455411E+04  0.14313197960E+04  0.77602093747E+02 0.  0.
        254    2    1    2    0    0 -0.71633430743E+02  0.31046704680E+03  0.65910755206E+03  0.11713903868E+04  0.91444602775E+03 0.  0.
        -24    2    4    4    0    0 -0.49733199925E+01 -0.31402454399E+03  0.30810263649E+03  0.44737600083E+03  0.81128930504E+02 0.  0.
         24    2    4    4    0    0 -0.66660110751E+02  0.62449159079E+03  0.35100491557E+03  0.72401438602E+03  0.80988042807E+02 0.  0.
         11    1    3    3    0    0  0.22290351683E+02 -0.86753803549E+02  0.25568199683E+03  0.27091763640E+03  0.00000000000E+00 0.  1.
        -11    1    3    3    0    0  0.49343079060E+02 -0.22371324325E+03  0.11375635443E+04  0.11604021596E+04  0.00000000000E+00 0. -1.
          2    1    6    6  502    0  0.17813742484E+02  0.16528858038E+03  0.97426247479E+02  0.19269021232E+03  0.00000000000E+00 0. -1.
          1    1    5    5  503    0 -0.15296858222E+02 -0.64255562755E+01  0.16523591184E+02  0.23416035328E+02  0.00000000000E+00 0. -1.
         -2    1    5    5    0  503  0.10323538229E+02 -0.30759898771E+03  0.29157904531E+03  0.42395996550E+03  0.00000000000E+00 0.  1.
         -1    1    6    6    0  502 -0.84473853235E+02  0.45920301041E+03  0.25357866809E+03  0.53132417370E+03  0.00000000000E+00 0.  1.
<mgrwt>
<rscale>  0 0.16006083E+04</rscale>
<asrwt>0</asrwt>
<pdfrwt beam="1">  1        2 0.35808178E+00 0.16006083E+04</pdfrwt>
<pdfrwt beam="2">  1       -2 0.42335162E-01 0.16006083E+04</pdfrwt>
<totfact> 0.22205272E+01</totfact>
</mgrwt>
</event>
<event>
12    1  0.1489025E-007  0.1614148E+04  0.7818608E-02  0.8811903E-01
         -2   -1    0    0    0  501 -0.00000000000E+00  0.00000000000E+00  0.45084419254E+03  0.45084419254E+03  0.00000000000E+00 0. -1.
          2   -1    0    0  501    0  0.00000000000E+00 -0.00000000000E+00 -0.14447755570E+04  0.14447755570E+04  0.00000000000E+00 0.  1.
         23    2    1    2    0    0 -0.31114809440E+03  0.11714929795E+03  0.18414348525E+03  0.39131754778E+03  0.93185328152E+02 0.  0.
        254    2    1    2    0    0  0.31114809440E+03 -0.11714929795E+03 -0.11780748497E+04  0.15043022018E+04  0.87437272832E+03 0.  0.
        -24    2    4    4    0    0 -0.25925560031E+03  0.12247674793E+03 -0.51142473968E+03  0.59140254361E+03  0.77380127635E+02 0.  0.
         24    2    4    4    0    0  0.57040369471E+03 -0.23962604588E+03 -0.66665011005E+03  0.91289965816E+03  0.78628238219E+02 0.  0.
         13    1    3    3    0    0 -0.16347045349E+03  0.68224270325E+02  0.45389327121E+02  0.18285877403E+03  0.00000000000E+00 0.  1.
        -13    1    3    3    0    0 -0.14767764091E+03  0.48925027622E+02  0.13875415813E+03  0.20845877375E+03  0.00000000000E+00 0. -1.
          2    1    6    6  502    0  0.11539515647E+03 -0.41821471005E+02 -0.90086792908E+02  0.15225211930E+03  0.00000000000E+00 0. -1.
          1    1    5    5  503    0 -0.82929132270E+02  0.75703267917E+02 -0.23129466026E+03  0.25710979293E+03  0.00000000000E+00 0. -1.
         -2    1    5    5    0  503 -0.17632646804E+03  0.46773480014E+02 -0.28013007942E+03  0.33429275068E+03  0.00000000000E+00 0.  1.
         -1    1    6    6    0  502  0.45500853823E+03 -0.19780457487E+03 -0.57656331714E+03  0.76064753886E+03  0.00000000000E+00 0.  1.
<mgrwt>
<rscale>  0 0.16141483E+04</rscale>
<asrwt>0</asrwt>
<pdfrwt beam="1">  1        2 0.22227316E+00 0.16141483E+04</pdfrwt>
<pdfrwt beam="2">  1       -2 0.69360646E-01 0.16141483E+04</pdfrwt>
<totfact> 0.24784318E+01</totfact>
</mgrwt>
</event>
<event>
12    1  0.1489025E-007  0.2231064E+04  0.7818608E-02  0.8505609E-01
          1   -1    0    0  501    0  0.00000000000E+00  0.00000000000E+00  0.18009212588E+04  0.18009212588E+04  0.00000000000E+00 0. -1.
         -1   -1    0    0    0  501 -0.00000000000E+00 -0.00000000000E+00 -0.69098633003E+03  0.69098633003E+03  0.00000000000E+00 0.  1.
         23    2    1    2    0    0 -0.58416747770E+03 -0.17429877724E+03  0.12117954790E+04  0.13596079977E+04  0.91945195106E+02 0.  0.
        254    2    1    2    0    0  0.58416747770E+03  0.17429877724E+03 -0.10186055020E+03  0.11322995911E+04  0.94873341174E+03 0.  0.
        -24    2    4    4    0    0  0.78255236520E+03  0.31994676350E+03 -0.16759147363E+03  0.86558310796E+03  0.79956732073E+02 0.  0.
         24    2    4    4    0    0 -0.19838488750E+03 -0.14564798626E+03  0.65730923430E+02  0.26671648313E+03  0.79039411631E+02 0.  0.
         11    1    3    3    0    0 -0.36934240612E+03 -0.11875031445E+03  0.67140120662E+03  0.77543215718E+03  0.00000000000E+00 0. -1.
        -11    1    3    3    0    0 -0.21482507158E+03 -0.55548462787E+02  0.54039427234E+03  0.58417584054E+03  0.00000000000E+00 0.  1.
          4    1    6    6  502    0 -0.81726594933E+02 -0.10684037272E+03  0.46223105960E+02  0.14223458471E+03  0.00000000000E+00 0. -1.
          3    1    5    5  503    0  0.22501983826E+03  0.13180875017E+03 -0.52125897742E+02  0.26594093977E+03  0.00000000000E+00 0. -1.
         -4    1    5    5    0  503  0.55753252694E+03  0.18813801333E+03 -0.11546557589E+03  0.59964216819E+03  0.00000000000E+00 0.  1.
         -3    1    6    6    0  502 -0.11665829256E+03 -0.38807613534E+02  0.19507817470E+02  0.12448189842E+03  0.00000000000E+00 0.  1.
<mgrwt>
<rscale>  0 0.22310643E+04</rscale>
<asrwt>0</asrwt>
<pdfrwt beam="1">  1        1 0.27706481E+00 0.22310643E+04</pdfrwt>
<pdfrwt beam="2">  1       -1 0.10630559E+00 0.22310643E+04</pdfrwt>
<totfact> 0.30591335E+00</totfact>
</mgrwt>
</event>
<event>
12    1  0.1489025E-007  0.1386777E+04  0.7818608E-02  0.8963446E-01
          2   -1    0    0  501    0  0.00000000000E+00  0.00000000000E+00  0.83160839130E+03  0.83160839130E+03  0.00000000000E+00 0. -1.
         -2   -1    0    0    0  501 -0.00000000000E+00 -0.00000000000E+00 -0.57814208582E+03  0.57814208582E+03  0.00000000000E+00 0.  1.
         23    2    1    2    0    0 -0.13450020956E+03  0.29887288773E+03 -0.12571490274E+03  0.36270566719E+03  0.91300902775E+02 0.  0.
        254    2    1    2    0    0  0.13450020956E+03 -0.29887288773E+03  0.37918120823E+03  0.10470448099E+04  0.91929817574E+03 0.  0.
        -24    2    4    4    0    0 -0.25777661866E+03 -0.19404920574E+03 -0.15879942982E+03  0.36838221056E+03  0.79901907162E+02 0.  0.
         24    2    4    4    0    0  0.39227682823E+03 -0.10482368199E+03  0.53798063805E+03  0.67866259937E+03  0.79313571337E+02 0.  0.
         13    1    3    3    0    0 -0.94761585480E+01  0.78839826017E+01  0.12132975443E+02  0.17296353824E+02  0.00000000000E+00 0. -1.
        -13    1    3    3    0    0 -0.12502405102E+03  0.29098890513E+03 -0.13784787818E+03  0.34540931337E+03  0.00000000000E+00 0.  1.
          2    1    6    6  502    0  0.27582188268E+02  0.65524571890E+01  0.17053076599E+02  0.33083518953E+02  0.00000000000E+00 0. -1.
          3    1    5    5  503    0 -0.85109212822E+02 -0.21624157290E+02 -0.32658323213E+02  0.93689638492E+02  0.00000000000E+00 0. -1.
         -4    1    5    5    0  503 -0.17266740584E+03 -0.17242504845E+03 -0.12614110660E+03  0.27469257207E+03  0.00000000000E+00 0.  1.
         -1    1    6    6    0  502  0.36469463996E+03 -0.11137613918E+03  0.52092756145E+03  0.64557908041E+03  0.00000000000E+00 0.  1.
<mgrwt>
<rscale>  0 0.13867773E+04</rscale>
<asrwt>0</asrwt>
<pdfrwt beam="1">  1        2 0.12793975E+00 0.13867773E+04</pdfrwt>
<pdfrwt beam="2">  1       -2 0.88944936E-01 0.13867773E+04</pdfrwt>
<totfact> 0.34604885E+01</totfact>
</mgrwt>
</event>
<event>
12    1  0.1489025E-007  0.2468717E+04  0.7818608E-02  0.8414216E-01
         -2   -1    0    0    0  501 -0.00000000000E+00  0.00000000000E+00  0.56629371139E+03  0.56629371139E+03  0.00000000000E+00 0.  1.
          2   -1    0    0  501    0  0.00000000000E+00 -0.00000000000E+00 -0.26905478855E+04  0.26905478855E+04  0.00000000000E+00 0. -1.
         23    2    1    2    0    0  0.16859607550E+03  0.78592604778E+03 -0.16871918774E+04  0.18712338357E+04  0.93782981763E+02 0.  0.
        254    2    1    2    0    0 -0.16859607550E+03 -0.78592604778E+03 -0.43706229675E+03  0.13856077612E+04  0.10405676467E+04 0.  0.
        -24    2    4    4    0    0  0.37712212814E+03 -0.17180827504E+03  0.53440361603E+02  0.42524855264E+03  0.79001749150E+02 0.  0.
         24    2    4    4    0    0 -0.54571820364E+03 -0.61411777274E+03 -0.49050265835E+03  0.96035920853E+03  0.82145937066E+02 0.  0.
         11    1    3    3    0    0  0.49520787009E+02  0.45261369495E+03 -0.95023669463E+03  0.10536893475E+04  0.00000000000E+00 0. -1.
        -11    1    3    3    0    0  0.11907528849E+03  0.33331235283E+03 -0.73695518275E+03  0.81754448824E+03  0.00000000000E+00 0.  1.
          2    1    6    6  502    0 -0.90220735532E+02 -0.15213469960E+03 -0.10431756304E+03  0.20534581053E+03  0.00000000000E+00 0. -1.
          3    1    5    5  503    0  0.15727179723E+03 -0.35039992349E+02  0.39792128952E+02  0.16596877054E+03  0.00000000000E+00 0. -1.
         -2    1    5    5    0  503  0.21985033091E+03 -0.13676828269E+03  0.13648232651E+02  0.25927978210E+03  0.00000000000E+00 0.  1.
         -3    1    6    6    0  502 -0.45549746811E+03 -0.46198307313E+03 -0.38618509531E+03  0.75501339800E+03  0.00000000000E+00 0.  1.
<mgrwt>
<rscale>  0 0.24687165E+04</rscale>
<asrwt>0</asrwt>
<pdfrwt beam="1">  1        2 0.41393045E+00 0.24687165E+04</pdfrwt>
<pdfrwt beam="2">  1       -2 0.87122109E-01 0.24687165E+04</pdfrwt>
<totfact> 0.27393039E+00</totfact>
</mgrwt>
</event>
<event>
12    1  0.1489025E-007  0.1305593E+04  0.7818608E-02  0.9025142E-01
         -2   -1    0    0    0  501 -0.00000000000E+00  0.00000000000E+00  0.58037420263E+03  0.58037420263E+03  0.00000000000E+00 0.  1.
          2   -1    0    0  501    0  0.00000000000E+00 -0.00000000000E+00 -0.73425592980E+03  0.73425592980E+03  0.00000000000E+00 0. -1.
         23    2    1    2    0    0 -0.22662356430E+03  0.18937730634E+03  0.91957697543E+02  0.32341574773E+03  0.94443229999E+02 0.  0.
        254    2    1    2    0    0  0.22662356430E+03 -0.18937730634E+03 -0.24583942471E+03  0.99121438470E+03  0.91369958391E+03 0.  0.
        -24    2    4    4    0    0  0.27241828977E+03 -0.46875815920E+03 -0.37913709047E+03  0.66707062792E+03  0.85395274178E+02 0.  0.
         24    2    4    4    0    0 -0.45794725464E+02  0.27938085286E+03  0.13329766576E+03  0.32414375677E+03  0.84558202025E+02 0.  0.
         11    1    3    3    0    0 -0.13278108752E+03  0.69727609825E+02  0.82241138438E+02  0.17104491114E+03  0.00000000000E+00 0.  1.
        -11    1    3    3    0    0 -0.93842476781E+02  0.11964969651E+03  0.97165591051E+01  0.15237083659E+03  0.00000000000E+00 0. -1.
          2    1    6    6  502    0 -0.70801993195E+02  0.19486275809E+03  0.93766935979E+02  0.22754484176E+03  0.00000000000E+00 0. -1.
          1    1    5    5  503    0  0.14263380325E+03 -0.17331458655E+03 -0.12994892826E+03  0.25936281865E+03  0.00000000000E+00 0. -1.
         -2    1    5    5    0  503  0.12978448652E+03 -0.29544357265E+03 -0.24918816221E+03  0.40770780928E+03  0.00000000000E+00 0.  1.
         -1    1    6    6    0  502  0.25007267730E+02  0.84518094775E+02  0.39530729781E+02  0.96598915008E+02  0.00000000000E+00 0.  1.
<mgrwt>
<rscale>  0 0.13055929E+04</rscale>
<asrwt>0</asrwt>
<pdfrwt beam="1">  1        2 0.11296245E+00 0.13055929E+04</pdfrwt>
<pdfrwt beam="2">  1       -2 0.89288339E-01 0.13055929E+04</pdfrwt>
<totfact> 0.40664549E+01</totfact>
</mgrwt>
</event>
<event>
12    1  0.1489025E-007  0.1413352E+04  0.7818608E-02  0.8944210E-01
         -2   -1    0    0    0  501 -0.00000000000E+00  0.00000000000E+00  0.29550572318E+03  0.29550572318E+03  0.00000000000E+00 0.  1.
          2   -1    0    0  501    0  0.00000000000E+00 -0.00000000000E+00 -0.16899547662E+04  0.16899547662E+04  0.00000000000E+00 0. -1.
         23    2    1    2    0    0  0.37758500847E+02  0.41066469763E+03 -0.37467228911E+03  0.56436844126E+03  0.89784269191E+02 0.  0.
        254    2    1    2    0    0 -0.37758500847E+02 -0.41066469763E+03 -0.10197767539E+04  0.14210920481E+04  0.89971483436E+03 0.  0.
        -24    2    4    4    0    0  0.27898733424E+03 -0.40684164008E+03 -0.19933805161E+03  0.53799674004E+03  0.79691785673E+02 0.  0.
         24    2    4    4    0    0 -0.31674583509E+03 -0.38230575420E+01 -0.82043870228E+03  0.88309530807E+03  0.79969488662E+02 0.  0.
         13    1    3    3    0    0  0.65062486091E+02  0.29403593499E+03 -0.28623061873E+03  0.41547349525E+03  0.00000000000E+00 0.  1.
        -13    1    3    3    0    0 -0.27303985243E+02  0.11662876264E+03 -0.88441670386E+02  0.14889494601E+03  0.00000000000E+00 0. -1.
          4    1    6    6  502    0 -0.10079625056E+03 -0.42960550270E+01 -0.37091804808E+03  0.38439372862E+03  0.00000000000E+00 0. -1.
          3    1    5    5  503    0  0.72255168560E+02 -0.14676581261E+03 -0.97809538886E+02  0.19059831855E+03  0.00000000000E+00 0. -1.
         -4    1    5    5    0  503  0.20673216568E+03 -0.26007582747E+03 -0.10152851272E+03  0.34739842150E+03  0.00000000000E+00 0.  1.
         -3    1    6    6    0  502 -0.21594958453E+03  0.47299748503E+00 -0.44952065421E+03  0.49870157945E+03  0.00000000000E+00 0.  1.
<mgrwt>
<rscale>  0 0.14133525E+04</rscale>
<asrwt>0</asrwt>
<pdfrwt beam="1">  1        2 0.25999304E+00 0.14133525E+04</pdfrwt>
<pdfrwt beam="2">  1       -2 0.45462419E-01 0.14133525E+04</pdfrwt>
<totfact> 0.44313708E+01</totfact>
</mgrwt>
</event>
<event>
12    1  0.1489025E-007  0.1622865E+04  0.7818608E-02  0.8806623E-01
         -1   -1    0    0    0  501 -0.00000000000E+00  0.00000000000E+00  0.55275777586E+03  0.55275777586E+03  0.00000000000E+00 0. -1.
          1   -1    0    0  501    0  0.00000000000E+00 -0.00000000000E+00 -0.11911592636E+04  0.11911592636E+04  0.00000000000E+00 0.  1.
         23    2    1    2    0    0 -0.53385193351E+02  0.48440363684E+03  0.68023341260E+02  0.50040268363E+03  0.90987958416E+02 0.  0.
        254    2    1    2    0    0  0.53385193351E+02 -0.48440363684E+03 -0.70642482904E+03  0.12435143559E+04  0.89988613276E+03 0.  0.
        -24    2    4    4    0    0  0.98923495392E+02 -0.13569902655E+03  0.19694887196E+03  0.27086370269E+03  0.79863655808E+02 0.  0.
         24    2    4    4    0    0 -0.45538302041E+02 -0.34870461029E+03 -0.90337370100E+03  0.97265065319E+03  0.79351164445E+02 0.  0.
         11    1    3    3    0    0 -0.43940999488E+02  0.32154254545E+03  0.87472071915E+02  0.33611275390E+03  0.00000000000E+00 0. -1.
        -11    1    3    3    0    0 -0.94441938630E+01  0.16286109139E+03 -0.19448730655E+02  0.16428992973E+03  0.00000000000E+00 0.  1.
          4    1    6    6  502    0 -0.21223717169E+02 -0.13905888696E+03 -0.47031742369E+03  0.49090355391E+03  0.00000000000E+00 0. -1.
          1    1    5    5  503    0  0.10421128344E+02 -0.22823580044E+02 -0.24780819549E+01  0.25212231400E+02  0.00000000000E+00 0. -1.
         -4    1    5    5    0  503  0.88502367048E+02 -0.11287544651E+03  0.19942695392E+03  0.24565147129E+03  0.00000000000E+00 0.  1.
         -3    1    6    6    0  502 -0.24314584872E+02 -0.20964572333E+03 -0.43305627731E+03  0.48174709928E+03  0.00000000000E+00 0.  1.
<mgrwt>
<rscale>  0 0.16228648E+04</rscale>
<asrwt>0</asrwt>
<pdfrwt beam="1">  1        1 0.18325527E+00 0.16228648E+04</pdfrwt>
<pdfrwt beam="2">  1       -1 0.85039658E-01 0.16228648E+04</pdfrwt>
<totfact> 0.14209044E+01</totfact>
</mgrwt>
</event>
<event>
12    1  0.1489025E-007  0.2311745E+04  0.7818608E-02  0.8473304E-01
          2   -1    0    0  501    0  0.00000000000E+00  0.00000000000E+00  0.28779247934E+04  0.28779247934E+04  0.00000000000E+00 0.  1.
         -2   -1    0    0    0  501 -0.00000000000E+00 -0.00000000000E+00 -0.46423783386E+03  0.46423783386E+03  0.00000000000E+00 0. -1.
         23    2    1    2    0    0  0.20531263748E+03 -0.58432656898E+02 -0.35029049024E+03  0.42027104018E+03  0.91414797267E+02 0.  0.
        254    2    1    2    0    0 -0.20531263748E+03  0.58432656898E+02  0.27639774498E+04  0.29218915871E+04  0.92320715406E+03 0.  0.
        -24    2    4    4    0    0 -0.37693523493E+03 -0.82450948757E+02  0.45839162560E+03  0.60425104143E+03  0.78218337764E+02 0.  0.
         24    2    4    4    0    0  0.17162259745E+03  0.14088360565E+03  0.23055858242E+04  0.23176405457E+04  0.80182291789E+02 0.  0.
         13    1    3    3    0    0  0.21406504457E+03 -0.49947584773E+02 -0.32758982152E+03  0.39450436714E+03  0.00000000000E+00 0. -1.
        -13    1    3    3    0    0 -0.87524070936E+01 -0.84850721248E+01 -0.22700668727E+02  0.25766673040E+02  0.00000000000E+00 0.  1.
          2    1    6    6  502    0  0.16758636176E+03  0.10034633740E+03  0.19014581811E+04  0.19114648285E+04  0.00000000000E+00 0. -1.
          3    1    5    5  503    0 -0.16806736344E+03 -0.14710440831E+02  0.15050314355E+03  0.22608456812E+03  0.00000000000E+00 0. -1.
         -4    1    5    5    0  503 -0.20886787149E+03 -0.67740507926E+02  0.30788848205E+03  0.37816647331E+03  0.00000000000E+00 0.  1.
         -1    1    6    6    0  502  0.40362356960E+01  0.40537268257E+02  0.40412764312E+03  0.40617571721E+03  0.00000000000E+00 0.  1.
<mgrwt>
<rscale>  0 0.23117453E+04</rscale>
<asrwt>0</asrwt>
<pdfrwt beam="1">  1        2 0.44275765E+00 0.23117453E+04</pdfrwt>
<pdfrwt beam="2">  1       -2 0.71421207E-01 0.23117453E+04</pdfrwt>
<totfact> 0.33412932E+00</totfact>
</mgrwt>
</event>
<event>
12    1  0.1489025E-007  0.1594315E+04  0.7818608E-02  0.8824048E-01
         -2   -1    0    0    0  501 -0.00000000000E+00  0.00000000000E+00  0.74661941236E+03  0.74661941236E+03  0.00000000000E+00 0.  1.
          2   -1    0    0  501    0  0.00000000000E+00 -0.00000000000E+00 -0.85111640275E+03  0.85111640275E+03  0.00000000000E+00 0. -1.
         23    2    1    2    0    0  0.23920773888E+03  0.58500379121E+02  0.44431512031E+03  0.51588487946E+03  0.89881288520E+02 0.  0.
        254    2    1    2    0    0 -0.23920773888E+03 -0.58500379121E+02 -0.54881211069E+03  0.10818509356E+04  0.89920191137E+03 0.  0.
        -24    2    4    4    0    0  0.27102872023E+03 -0.77688295948E+02 -0.47742046689E+03  0.56016304905E+03  0.79751494030E+02 0.  0.
         24    2    4    4    0    0 -0.51023645911E+03  0.19187916826E+02 -0.71391643808E+02  0.52168788660E+03  0.79699836012E+02 0.  0.
         13    1    3    3    0    0  0.21936052044E+03  0.75167637377E+02  0.36486468856E+03  0.43231406708E+03  0.00000000000E+00 0.  1.
        -13    1    3    3    0    0  0.19847218442E+02 -0.16667258255E+02  0.79450431746E+02  0.83570812383E+02  0.00000000000E+00 0. -1.
          2    1    6    6  502    0 -0.33659120989E+03  0.30676462905E+02 -0.13388909276E+02  0.33825131314E+03  0.00000000000E+00 0. -1.
          3    1    5    5  503    0  0.62381788588E+02 -0.44927960563E+02 -0.17656543829E+03  0.19257560382E+03  0.00000000000E+00 0. -1.
         -4    1    5    5    0  503  0.20864693164E+03 -0.32760335384E+02 -0.30085502860E+03  0.36758744523E+03  0.00000000000E+00 0.  1.
         -1    1    6    6    0  502 -0.17364524922E+03 -0.11488546078E+02 -0.58002734531E+02  0.18343657345E+03  0.00000000000E+00 0.  1.
<mgrwt>
<rscale>  0 0.15943149E+04</rscale>
<asrwt>0</asrwt>
<pdfrwt beam="1">  1        2 0.13094098E+00 0.15943149E+04</pdfrwt>
<pdfrwt beam="2">  1       -2 0.11486453E+00 0.15943149E+04</pdfrwt>
<totfact> 0.17974092E+01</totfact>
</mgrwt>
</event>
<event>
12    1  0.1489025E-007  0.1143325E+04  0.7818608E-02  0.9163964E-01
          2   -1    0    0  501    0  0.00000000000E+00  0.00000000000E+00  0.13673515718E+04  0.13673515718E+04  0.00000000000E+00 0. -1.
         -2   -1    0    0    0  501 -0.00000000000E+00 -0.00000000000E+00 -0.23900063979E+03  0.23900063979E+03  0.00000000000E+00 0.  1.
         23    2    1    2    0    0  0.13947993336E+03  0.19671517075E+02  0.33976562046E+02  0.17166025210E+03  0.92039203537E+02 0.  0.
        254    2    1    2    0    0 -0.13947993336E+03 -0.19671517075E+02  0.10943743699E+04  0.14346919595E+04  0.91697553762E+03 0.  0.
        -24    2    4    4    0    0 -0.36663419209E+02  0.12077039028E+03 -0.12884790435E+03  0.19664942601E+03  0.78355094393E+02 0.  0.
         24    2    4    4    0    0 -0.10281651415E+03 -0.14044190735E+03  0.12232222743E+04  0.12380425335E+04  0.78621990689E+02 0.  0.
         11    1    3    3    0    0  0.59155296350E+02 -0.69882206376E+01 -0.28918790734E+02  0.66215411888E+02  0.00000000000E+00 0.  1.
        -11    1    3    3    0    0  0.80324637009E+02  0.26659737713E+02  0.62895352780E+02  0.10544484021E+03  0.00000000000E+00 0. -1.
          4    1    6    6  502    0 -0.94955011810E+02 -0.14121069160E+03  0.12141356222E+04  0.12260025379E+04  0.00000000000E+00 0. -1.
          3    1    5    5  503    0 -0.18170662218E+02  0.12665883745E+03 -0.11961242437E+03  0.17515640477E+03  0.00000000000E+00 0. -1.
         -4    1    5    5    0  503 -0.18492756991E+02 -0.58884471736E+01 -0.92354799850E+01  0.21493021235E+02  0.00000000000E+00 0.  1.
         -3    1    6    6    0  502 -0.78615023402E+01  0.76878424449E+00  0.90866520579E+01  0.12039995593E+02  0.00000000000E+00 0.  1.
<mgrwt>
<rscale>  0 0.11433248E+04</rscale>
<asrwt>0</asrwt>
<pdfrwt beam="1">  1        2 0.21036177E+00 0.11433248E+04</pdfrwt>
<pdfrwt beam="2">  1       -2 0.36769330E-01 0.11433248E+04</pdfrwt>
<totfact> 0.10416834E+02</totfact>
</mgrwt>
</event>
<event>
12    1  0.2007704E-007  0.2085725E+04  0.7818608E-02  0.8567558E-01
         -2   -1    0    0    0  501 -0.00000000000E+00  0.00000000000E+00  0.91077109508E+03  0.91077109508E+03  0.00000000000E+00 0.  1.
          2   -1    0    0  501    0  0.00000000000E+00 -0.00000000000E+00 -0.11941119365E+04  0.11941119365E+04  0.00000000000E+00 0. -1.
         23    2    1    2    0    0 -0.58801176479E+02  0.64750158143E+03 -0.65713998407E+03  0.92988819488E+03  0.10071355424E+03 0.  0.
        254    2    1    2    0    0  0.58801176479E+02 -0.64750158143E+03  0.37379914261E+03  0.11749948367E+04  0.90452815935E+03 0.  0.
        -24    2    4    4    0    0 -0.26484798312E+03 -0.36946876589E+03 -0.15868341049E+03  0.48798807709E+03  0.79374526712E+02 0.  0.
         24    2    4    4    0    0  0.32364915960E+03 -0.27803281555E+03  0.53248255310E+03  0.68700675965E+03  0.79934932424E+02 0.  0.
         13    1    3    3    0    0 -0.64955728669E+02  0.53607363053E+03 -0.49163303824E+03  0.73027202351E+03  0.00000000000E+00 0. -1.
        -13    1    3    3    0    0  0.61545521901E+01  0.11142795091E+03 -0.16550694583E+03  0.19961617137E+03  0.00000000000E+00 0.  1.
          4    1    6    6  502    0  0.28091148548E+03 -0.26939371519E+03  0.46159713364E+03  0.60378485427E+03  0.00000000000E+00 0. -1.
          1    1    5    5  503    0 -0.24432671495E+03 -0.28909391380E+03 -0.12953083293E+03  0.40006133444E+03  0.00000000000E+00 0. -1.
         -2    1    5    5    0  503 -0.20521268173E+02 -0.80374852084E+02 -0.29152577563E+02  0.87926742652E+02  0.00000000000E+00 0.  1.
         -3    1    6    6    0  502  0.42737674115E+02 -0.86391003602E+01  0.70885419453E+02  0.83221905379E+02  0.00000000000E+00 0.  1.
<mgrwt>
<rscale>  0 0.20857254E+04</rscale>
<asrwt>0</asrwt>
<pdfrwt beam="1">  1        2 0.18370953E+00 0.20857254E+04</pdfrwt>
<pdfrwt beam="2">  1       -2 0.14011863E+00 0.20857254E+04</pdfrwt>
<totfact> 0.63143421E+00</totfact>
</mgrwt>
</event>
<event>
12    1  0.1489025E-007  0.2073906E+04  0.7818608E-02  0.8572826E-01
         -1   -1    0    0    0  501 -0.00000000000E+00  0.00000000000E+00  0.72580265656E+03  0.72580265656E+03  0.00000000000E+00 0.  1.
          1   -1    0    0  501    0  0.00000000000E+00 -0.00000000000E+00 -0.14814935008E+04  0.14814935008E+04  0.00000000000E+00 0. -1.
         23    2    1    2    0    0  0.20493796340E+03 -0.80151234059E+03 -0.44200475210E+03  0.94244522525E+03  0.91723501720E+02 0.  0.
        254    2    1    2    0    0 -0.20493796340E+03  0.80151234059E+03 -0.31368609212E+03  0.12648509321E+04  0.90389563283E+03 0.  0.
        -24    2    4    4    0    0 -0.83354971545E+02  0.45573677669E+03 -0.62204174817E+03  0.77969615413E+03  0.79662383792E+02 0.  0.
         24    2    4    4    0    0 -0.12158299185E+03  0.34577556390E+03  0.30835565605E+03  0.48515477795E+03  0.77128357021E+02 0.  0.
         13    1    3    3    0    0  0.14329497857E+03 -0.52824833616E+03 -0.24318962869E+03  0.59893317744E+03  0.00000000000E+00 0.  1.
        -13    1    3    3    0    0  0.61642984823E+02 -0.27326400443E+03 -0.19881512341E+03  0.34351204781E+03  0.00000000000E+00 0. -1.
          2    1    6    6  502    0 -0.40564885806E+02  0.52604445111E+02  0.30146161446E+02  0.72948808461E+02  0.00000000000E+00 0. -1.
          1    1    5    5  503    0  0.15020327790E+02  0.76552445275E+02 -0.11474738160E+03  0.13875463491E+03  0.00000000000E+00 0. -1.
         -2    1    5    5    0  503 -0.98375299335E+02  0.37918433141E+03 -0.50729436657E+03  0.64094151922E+03  0.00000000000E+00 0.  1.
         -1    1    6    6    0  502 -0.81018106045E+02  0.29317111879E+03  0.27820949460E+03  0.41220596949E+03  0.00000000000E+00 0.  1.
<mgrwt>
<rscale>  0 0.20739064E+04</rscale>
<asrwt>0</asrwt>
<pdfrwt beam="1">  1        1 0.22792208E+00 0.20739064E+04</pdfrwt>
<pdfrwt beam="2">  1       -1 0.11166195E+00 0.20739064E+04</pdfrwt>
<totfact> 0.45742825E+00</totfact>
</mgrwt>
</event>
<event>
12    1  0.1489025E-007  0.1298485E+04  0.7818608E-02  0.9030768E-01
          2   -1    0    0  501    0  0.00000000000E+00  0.00000000000E+00  0.49966753167E+03  0.49966753167E+03  0.00000000000E+00 0. -1.
         -2   -1    0    0    0  501 -0.00000000000E+00 -0.00000000000E+00 -0.84359234442E+03  0.84359234442E+03  0.00000000000E+00 0.  1.
         23    2    1    2    0    0  0.17885453643E+03 -0.67767262116E+02 -0.37351378592E+03  0.42934382592E+03  0.90786703711E+02 0.  0.
        254    2    1    2    0    0 -0.17885453643E+03  0.67767262116E+02  0.29588973163E+02  0.91391605017E+03  0.89318849769E+03 0.  0.
        -24    2    4    4    0    0 -0.50011013448E+03 -0.48996091258E+02  0.16953761511E+03  0.53646520486E+03  0.80877373357E+02 0.  0.
         24    2    4    4    0    0  0.32125559805E+03  0.11676335337E+03 -0.13994864194E+03  0.37745084531E+03  0.77747529061E+02 0.  0.
         13    1    3    3    0    0  0.60939850501E+02 -0.22201113207E+02 -0.49641100576E+02  0.81674926832E+02  0.00000000000E+00 0. -1.
        -13    1    3    3    0    0  0.11791468593E+03 -0.45566148910E+02 -0.32387268534E+03  0.34766889909E+03  0.00000000000E+00 0.  1.
          2    1    6    6  502    0  0.28440050848E+03  0.11564574819E+03 -0.99538381212E+02  0.32274677013E+03  0.00000000000E+00 0. -1.
          1    1    5    5  503    0 -0.46697183759E+03 -0.29032153245E+02  0.14189428698E+03  0.48891671244E+03  0.00000000000E+00 0. -1.
         -2    1    5    5    0  503 -0.33138296891E+02 -0.19963938014E+02  0.27643328122E+02  0.47548492421E+02  0.00000000000E+00 0.  1.
         -1    1    6    6    0  502  0.36855089567E+02  0.11176051844E+01 -0.40410260731E+02  0.54704075174E+02  0.00000000000E+00 0.  1.
<mgrwt>
<rscale>  0 0.12984848E+04</rscale>
<asrwt>0</asrwt>
<pdfrwt beam="1">  1        2 0.76871929E-01 0.12984848E+04</pdfrwt>
<pdfrwt beam="2">  1       -2 0.12978344E+00 0.12984848E+04</pdfrwt>
<totfact> 0.26334318E+01</totfact>
</mgrwt>
</event>
<event>
12    1  0.1489025E-007  0.1639542E+04  0.7818608E-02  0.8796617E-01
         -3   -1    0    0    0  501 -0.00000000000E+00  0.00000000000E+00  0.82593728222E+03  0.82593728222E+03  0.00000000000E+00 0. -1.
          3   -1    0    0  501    0  0.00000000000E+00 -0.00000000000E+00 -0.81365123712E+03  0.81365123712E+03  0.00000000000E+00 0.  1.
         23    2    1    2    0    0  0.52156201334E+02 -0.21885952312E+03 -0.52303071751E+03  0.57665390967E+03  0.91371986353E+02 0.  0.
        254    2    1    2    0    0 -0.52156201334E+02  0.21885952312E+03  0.53531676260E+03  0.10629346097E+04  0.89030679427E+03 0.  0.
        -24    2    4    4    0    0  0.39755184407E+03  0.34374752428E+02  0.13669451319E+03  0.42923235010E+03  0.79535703357E+02 0.  0.
         24    2    4    4    0    0 -0.44970804540E+03  0.18448477069E+03  0.39862224941E+03  0.63370225957E+03  0.80043109283E+02 0.  0.
         11    1    3    3    0    0 -0.14489216542E+02 -0.11907951961E+03 -0.30580436809E+03  0.32849076232E+03  0.00000000000E+00 0. -1.
        -11    1    3    3    0    0  0.66645417876E+02 -0.99780003508E+02 -0.21722634941E+03  0.24816314735E+03  0.00000000000E+00 0.  1.
          2    1    6    6  502    0 -0.42338791999E+03  0.15978820834E+03  0.38794688265E+03  0.59606407883E+03  0.00000000000E+00 0. -1.
          3    1    5    5  503    0  0.17836297785E+03  0.46599896058E+02  0.36543595244E+02  0.18793705471E+03  0.00000000000E+00 0. -1.
         -4    1    5    5    0  503  0.21918886622E+03 -0.12225143629E+02  0.10015091795E+03  0.24129529539E+03  0.00000000000E+00 0.  1.
         -1    1    6    6    0  502 -0.26320125415E+02  0.24696562351E+02  0.10675366758E+02  0.37638180737E+02  0.00000000000E+00 0.  1.
<mgrwt>
<rscale>  0 0.16395425E+04</rscale>
<asrwt>0</asrwt>
<pdfrwt beam="1">  1        3 0.12517711E+00 0.16395425E+04</pdfrwt>
<pdfrwt beam="2">  1       -3 0.12706727E+00 0.16395425E+04</pdfrwt>
<totfact> 0.62772555E-01</totfact>
</mgrwt>
</event>
<event>
12    1  0.1489025E-007  0.3678958E+04  0.7818608E-02  0.8072641E-01
         -2   -1    0    0    0  501 -0.00000000000E+00  0.00000000000E+00  0.14675071407E+04  0.14675071407E+04  0.00000000000E+00 0.  1.
          2   -1    0    0  501    0  0.00000000000E+00 -0.00000000000E+00 -0.23057354954E+04  0.23057354954E+04  0.00000000000E+00 0. -1.
         23    2    1    2    0    0 -0.14177436654E+04  0.81242692874E+03 -0.97114328650E+03  0.19030293249E+04  0.91469738485E+02 0.  0.
        254    2    1    2    0    0  0.14177436654E+04 -0.81242692874E+03  0.13291493182E+03  0.18702133113E+04  0.89999824171E+03 0.  0.
        -24    2    4    4    0    0  0.13100445159E+04 -0.74835203003E+03  0.40171767836E+03  0.15631966356E+04  0.77196074879E+02 0.  0.
         24    2    4    4    0    0  0.10769914954E+03 -0.64074898712E+02 -0.26880274654E+03  0.30701667565E+03  0.79370165193E+02 0.  0.
         11    1    3    3    0    0 -0.10156433595E+04  0.57366435440E+03 -0.64524771680E+03  0.13330291974E+04  0.00000000000E+00 0. -1.
        -11    1    3    3    0    0 -0.40210030593E+03  0.23876257434E+03 -0.32589556970E+03  0.57000012744E+03  0.00000000000E+00 0.  1.
          4    1    6    6  502    0  0.11552769207E+03 -0.41276481122E+02 -0.23933711521E+03  0.26894730013E+03  0.00000000000E+00 0. -1.
          3    1    5    5  503    0  0.63016635631E+03 -0.36719410990E+03  0.15482021706E+03  0.74559402531E+03  0.00000000000E+00 0. -1.
         -4    1    5    5    0  503  0.67987815959E+03 -0.38115792013E+03  0.24689746130E+03  0.81760261029E+03  0.00000000000E+00 0.  1.
         -3    1    6    6    0  502 -0.78285425340E+01 -0.22798417590E+02 -0.29465631330E+02  0.38069375521E+02  0.00000000000E+00 0.  1.
<mgrwt>
<rscale>  0 0.36789582E+04</rscale>
<asrwt>0</asrwt>
<pdfrwt beam="1">  1        2 0.35472854E+00 0.36789582E+04</pdfrwt>
<pdfrwt beam="2">  1       -2 0.22577033E+00 0.36789582E+04</pdfrwt>
<totfact> 0.33117777E-01</totfact>
</mgrwt>
</event>
<event>
12    1  0.1489025E-007  0.1909176E+04  0.7818608E-02  0.8650302E-01
          2   -1    0    0  501    0  0.00000000000E+00  0.00000000000E+00  0.21051959416E+04  0.21051959416E+04  0.00000000000E+00 0. -1.
         -2   -1    0    0    0  501 -0.00000000000E+00 -0.00000000000E+00 -0.43285215275E+03  0.43285215275E+03  0.00000000000E+00 0.  1.
         23    2    1    2    0    0 -0.52733077601E+03  0.36701434661E+03  0.17753947851E+03  0.67256862782E+03  0.89727447069E+02 0.  0.
        254    2    1    2    0    0  0.52733077601E+03 -0.36701434661E+03  0.14948043103E+04  0.18654794665E+04  0.91257681093E+03 0.  0.
        -24    2    4    4    0    0 -0.55245514099E+02 -0.49911603993E+03  0.59723168081E+03  0.78448081419E+03  0.80966530920E+02 0.  0.
         24    2    4    4    0    0  0.58257629011E+03  0.13210169333E+03  0.89757262952E+03  0.10809986523E+04  0.77945300507E+02 0.  0.
         11    1    3    3    0    0 -0.36114784250E+03  0.25822670233E+03  0.16468429477E+03  0.47352899687E+03  0.00000000000E+00 0.  1.
        -11    1    3    3    0    0 -0.16618293351E+03  0.10878764428E+03  0.12855183734E+02  0.19903963094E+03  0.00000000000E+00 0. -1.
          2    1    6    6  502    0  0.51815454730E+02  0.29896460412E+02  0.11909128812E+03  0.13327180722E+03  0.00000000000E+00 0. -1.
          3    1    5    5  503    0  0.37366861722E+01 -0.28851010647E+03  0.31062646399E+03  0.42395854101E+03  0.00000000000E+00 0. -1.
         -4    1    5    5    0  503 -0.58982200271E+02 -0.21060593346E+03  0.28660521681E+03  0.36052227318E+03  0.00000000000E+00 0.  1.
         -1    1    6    6    0  502  0.53076083538E+03  0.10220523291E+03  0.77848134141E+03  0.94772684510E+03  0.00000000000E+00 0.  1.
<mgrwt>
<rscale>  0 0.19091764E+04</rscale>
<asrwt>0</asrwt>
<pdfrwt beam="1">  1        2 0.32387629E+00 0.19091764E+04</pdfrwt>
<pdfrwt beam="2">  1       -2 0.66592640E-01 0.19091764E+04</pdfrwt>
<totfact> 0.11318429E+01</totfact>
</mgrwt>
</event>
<event>
12    1  0.1489025E-007  0.2455453E+04  0.7818608E-02  0.8419030E-01
          4   -1    0    0  501    0  0.00000000000E+00  0.00000000000E+00  0.99312487265E+03  0.99312487265E+03  0.00000000000E+00 0. -1.
         -4   -1    0    0    0  501 -0.00000000000E+00 -0.00000000000E+00 -0.15177464822E+04  0.15177464822E+04  0.00000000000E+00 0.  1.
         23    2    1    2    0    0  0.61488021697E+03 -0.70170826993E+03 -0.74222156695E+03  0.11957962372E+04  0.92539770547E+02 0.  0.
        254    2    1    2    0    0 -0.61488021697E+03  0.70170826993E+03  0.21759995740E+03  0.13150751176E+04  0.90088880906E+03 0.  0.
        -24    2    4    4    0    0 -0.63085331877E+03  0.81122375221E+03  0.38124835463E+03  0.10990087996E+04  0.80063398942E+02 0.  0.
         24    2    4    4    0    0  0.15973101801E+02 -0.10951548227E+03 -0.16364839723E+03  0.21606631800E+03  0.87493285577E+02 0.  0.
         13    1    3    3    0    0  0.58929017875E+03 -0.67359836977E+03 -0.73258479657E+03  0.11565803745E+04  0.00000000000E+00 0.  1.
        -13    1    3    3    0    0  0.25590038218E+02 -0.28109900167E+02 -0.96367703860E+01  0.39215862695E+02  0.00000000000E+00 0. -1.
          4    1    6    6  502    0  0.47254843251E+01  0.14882609314E+02 -0.12605030725E+02  0.20067612257E+02  0.00000000000E+00 0. -1.
          1    1    5    5  503    0 -0.45016468983E+02  0.32647035201E+02  0.30586726262E+02  0.63465417437E+02  0.00000000000E+00 0. -1.
         -2    1    5    5    0  503 -0.58583684979E+03  0.77857671701E+03  0.35066162837E+03  0.10355433822E+04  0.00000000000E+00 0.  1.
         -3    1    6    6    0  502  0.11247617476E+02 -0.12439809159E+03 -0.15104336650E+03  0.19599870574E+03  0.00000000000E+00 0.  1.
<mgrwt>
<rscale>  0 0.24554525E+04</rscale>
<asrwt>0</asrwt>
<pdfrwt beam="1">  1        4 0.15278844E+00 0.24554525E+04</pdfrwt>
<pdfrwt beam="2">  1       -4 0.23349946E+00 0.24554525E+04</pdfrwt>
<totfact> 0.40566258E-02</totfact>
</mgrwt>
</event>
<event>
12    1  0.1489025E-007  0.2016970E+04  0.7818608E-02  0.8598727E-01
         -1   -1    0    0    0  501 -0.00000000000E+00  0.00000000000E+00  0.89249946602E+03  0.89249946602E+03  0.00000000000E+00 0.  1.
          1   -1    0    0  501    0  0.00000000000E+00 -0.00000000000E+00 -0.11395437779E+04  0.11395437779E+04  0.00000000000E+00 0. -1.
         23    2    1    2    0    0  0.72212479744E+02 -0.77543709965E+02  0.69419431636E+03  0.70799820726E+03  0.90155662202E+02 0.  0.
        254    2    1    2    0    0 -0.72212479744E+02  0.77543709965E+02 -0.94123862822E+03  0.13240450366E+04  0.92516886816E+03 0.  0.
        -24    2    4    4    0    0  0.18329481971E+03 -0.34444317121E+03 -0.59337544968E+03  0.71519146110E+03  0.84654076270E+02 0.  0.
         24    2    4    4    0    0 -0.25550729946E+03  0.42198688117E+03 -0.34786317855E+03  0.60885357554E+03  0.79605134909E+02 0.  0.
         13    1    3    3    0    0  0.74048636528E+02 -0.15171362241E+02  0.42472232169E+03  0.43139589862E+03  0.00000000000E+00 0.  1.
        -13    1    3    3    0    0 -0.18361567839E+01 -0.62372347724E+02  0.26947199467E+03  0.27660230864E+03  0.00000000000E+00 0. -1.
          4    1    6    6  502    0 -0.98524759078E+02  0.23802778125E+03 -0.18895485975E+03  0.31948128556E+03  0.00000000000E+00 0. -1.
          1    1    5    5  503    0  0.15333318024E+03 -0.33107106015E+03 -0.52474733407E+03  0.63912352143E+03  0.00000000000E+00 0. -1.
         -2    1    5    5    0  503  0.29961639476E+02 -0.13372111054E+02 -0.68628115602E+02  0.76067939668E+02  0.00000000000E+00 0.  1.
         -3    1    6    6    0  502 -0.15698254038E+03  0.18395909992E+03 -0.15890831880E+03  0.28937228998E+03  0.00000000000E+00 0.  1.
<mgrwt>
<rscale>  0 0.20169702E+04</rscale>
<asrwt>0</asrwt>
<pdfrwt beam="1">  1        1 0.17531443E+00 0.20169702E+04</pdfrwt>
<pdfrwt beam="2">  1       -1 0.13730761E+00 0.20169702E+04</pdfrwt>
<totfact> 0.48373960E+00</totfact>
</mgrwt>
</event>
<event>
12    1  0.1489025E-007  0.1876445E+04  0.7818608E-02  0.8666671E-01
         -2   -1    0    0    0  501 -0.00000000000E+00  0.00000000000E+00  0.91176710081E+03  0.91176710081E+03  0.00000000000E+00 0.  1.
          2   -1    0    0  501    0  0.00000000000E+00 -0.00000000000E+00 -0.96544574955E+03  0.96544574955E+03  0.00000000000E+00 0. -1.
         23    2    1    2    0    0 -0.48623224836E+03  0.50586779503E+03  0.16672519593E+03  0.72753093933E+03  0.95812062558E+02 0.  0.
        254    2    1    2    0    0  0.48623224836E+03 -0.50586779503E+03 -0.22040384466E+03  0.11496819110E+04  0.88366657536E+03 0.  0.
        -24    2    4    4    0    0  0.57644212749E+03 -0.26378187619E+03 -0.46004900484E+03  0.78731212946E+03  0.79679971056E+02 0.  0.
         24    2    4    4    0    0 -0.90209879129E+02 -0.24208591884E+03  0.23964516017E+03  0.36236978157E+03  0.84490481183E+02 0.  0.
         13    1    3    3    0    0 -0.13976662755E+03  0.13952665905E+03  0.91744395844E+02  0.21776003520E+03  0.00000000000E+00 0. -1.
        -13    1    3    3    0    0 -0.34646562082E+03  0.36634113598E+03  0.74980800082E+02  0.50977090413E+03  0.00000000000E+00 0.  1.
          2    1    6    6  502    0  0.77371709425E+00 -0.10219294195E+03  0.66675489241E+02  0.12202301786E+03  0.00000000000E+00 0. -1.
          3    1    5    5  503    0  0.10468129756E+03 -0.29580874042E+02 -0.49513922058E+02  0.11951916434E+03  0.00000000000E+00 0. -1.
         -4    1    5    5    0  503  0.47176082994E+03 -0.23420100214E+03 -0.41053508278E+03  0.66779296511E+03  0.00000000000E+00 0.  1.
         -1    1    6    6    0  502 -0.90983596223E+02 -0.13989297689E+03  0.17296967093E+03  0.24034676371E+03  0.00000000000E+00 0.  1.
<mgrwt>
<rscale>  0 0.18764452E+04</rscale>
<asrwt>0</asrwt>
<pdfrwt beam="1">  1        2 0.14853011E+00 0.18764452E+04</pdfrwt>
<pdfrwt beam="2">  1       -2 0.14027186E+00 0.18764452E+04</pdfrwt>
<totfact> 0.88927103E+00</totfact>
</mgrwt>
</event>
<event>
12    1  0.1489025E-007  0.1705881E+04  0.7818608E-02  0.8758017E-01
          1   -1    0    0  501    0  0.00000000000E+00  0.00000000000E+00  0.41040764845E+03  0.41040764845E+03  0.00000000000E+00 0. -1.
         -1   -1    0    0    0  501 -0.00000000000E+00 -0.00000000000E+00 -0.17726457869E+04  0.17726457869E+04  0.00000000000E+00 0.  1.
         23    2    1    2    0    0 -0.57394045845E+02  0.26260166808E+03  0.20800226017E+03  0.35145750305E+03  0.89463532405E+02 0.  0.
        254    2    1    2    0    0  0.57394045845E+02 -0.26260166808E+03 -0.15702403987E+04  0.18315959323E+04  0.90378926594E+03 0.  0.
        -24    2    4    4    0    0 -0.17177276425E+02 -0.44395705356E+03 -0.29558229919E+03  0.53940248897E+03  0.78697047529E+02 0.  0.
         24    2    4    4    0    0  0.74571322270E+02  0.18135538547E+03 -0.12746580995E+04  0.12921934434E+04  0.80993620767E+02 0.  0.
         13    1    3    3    0    0 -0.42168058075E+02  0.17078944819E+03  0.18561923674E+03  0.25573752517E+03  0.00000000000E+00 0. -1.
        -13    1    3    3    0    0 -0.15225987770E+02  0.91812219898E+02  0.22383023437E+02  0.95719977875E+02  0.00000000000E+00 0.  1.
          4    1    6    6  502    0  0.22599430518E+02  0.13623079248E+03 -0.70542366617E+03  0.71881298811E+03  0.00000000000E+00 0. -1.
          3    1    5    5  503    0  0.10531694772E+02 -0.55199236134E+01 -0.74881787568E+01  0.14052009556E+02  0.00000000000E+00 0. -1.
         -4    1    5    5    0  503 -0.27708971197E+02 -0.43843712994E+03 -0.28809412043E+03  0.52535047942E+03  0.00000000000E+00 0.  1.
         -3    1    6    6    0  502  0.51971891751E+02  0.45124592991E+02 -0.56923443330E+03  0.57338045527E+03  0.00000000000E+00 0.  1.
<mgrwt>
<rscale>  0 0.17058809E+04</rscale>
<asrwt>0</asrwt>
<pdfrwt beam="1">  1        1 0.63139639E-01 0.17058809E+04</pdfrwt>
<pdfrwt beam="2">  1       -1 0.27271473E+00 0.17058809E+04</pdfrwt>
<totfact> 0.27377290E+00</totfact>
</mgrwt>
</event>
<event>
12    1  0.1489025E-007  0.1939601E+04  0.7818608E-02  0.8635392E-01
          2   -1    0    0  501    0  0.00000000000E+00  0.00000000000E+00  0.34430135818E+04  0.34430135818E+04  0.00000000000E+00 0.  1.
         -2   -1    0    0    0  501 -0.00000000000E+00 -0.00000000000E+00 -0.27316564151E+03  0.27316564151E+03  0.00000000000E+00 0. -1.
         23    2    1    2    0    0  0.59162343685E+02 -0.33059623405E+03 -0.30824417149E+02  0.34943210320E+03  0.91425363975E+02 0.  0.
        254    2    1    2    0    0 -0.59162343685E+02  0.33059623405E+03  0.32006723574E+04  0.33667471201E+04  0.98888248956E+03 0.  0.
        -24    2    4    4    0    0  0.31127679941E+03 -0.10299015830E+03  0.20759686809E+04  0.21032333624E+04  0.80276983595E+02 0.  0.
         24    2    4    4    0    0 -0.37043914309E+03  0.43358639235E+03  0.11247036765E+04  0.12635137577E+04  0.79286426962E+02 0.  0.
         13    1    3    3    0    0  0.74568359812E+01 -0.23041904443E+03  0.66421402089E+01  0.23063533655E+03  0.00000000000E+00 0. -1.
        -13    1    3    3    0    0  0.51705507704E+02 -0.10017718962E+03 -0.37466557358E+02  0.11879676665E+03  0.00000000000E+00 0.  1.
          4    1    6    6  502    0 -0.28717069208E+03  0.32287842062E+03  0.77413589408E+03  0.88656858923E+03  0.00000000000E+00 0. -1.
          3    1    5    5  503    0  0.25610453355E+03 -0.67072689921E+02  0.18088840845E+04  0.18281547826E+04  0.00000000000E+00 0. -1.
         -4    1    5    5    0  503  0.55172265862E+02 -0.35917468379E+02  0.26708459638E+03  0.27507857982E+03  0.00000000000E+00 0.  1.
         -3    1    6    6    0  502 -0.83268451008E+02  0.11070797173E+03  0.35056778243E+03  0.37694516844E+03  0.00000000000E+00 0.  1.
<mgrwt>
<rscale>  0 0.19396010E+04</rscale>
<asrwt>0</asrwt>
<pdfrwt beam="1">  1        2 0.52969437E+00 0.19396010E+04</pdfrwt>
<pdfrwt beam="2">  1       -2 0.42025486E-01 0.19396010E+04</pdfrwt>
<totfact> 0.44883038E+00</totfact>
</mgrwt>
</event>
<event>
12    1  0.1489025E-007  0.2054411E+04  0.7818608E-02  0.8581596E-01
          2   -1    0    0  501    0  0.00000000000E+00  0.00000000000E+00  0.30876365087E+04  0.30876365087E+04  0.00000000000E+00 0.  1.
         -2   -1    0    0    0  501 -0.00000000000E+00 -0.00000000000E+00 -0.34173410496E+03  0.34173410496E+03  0.00000000000E+00 0. -1.
         23    2    1    2    0    0 -0.24988177197E+03  0.70157223957E+03  0.17202002197E+04  0.18764854287E+04  0.86395954434E+02 0.  0.
        254    2    1    2    0    0  0.24988177197E+03 -0.70157223957E+03  0.10257021840E+04  0.15528851850E+04  0.89707464576E+03 0.  0.
        -24    2    4    4    0    0  0.36513272926E+03 -0.54771033559E+03  0.11367439561E+04  0.13160021267E+04  0.79788809446E+02 0.  0.
         24    2    4    4    0    0 -0.11525095728E+03 -0.15386190398E+03 -0.11104177205E+03  0.23688305826E+03  0.82625900905E+02 0.  0.
         13    1    3    3    0    0 -0.36879290715E+02  0.14340992175E+03  0.26776639531E+03  0.30598256519E+03  0.00000000000E+00 0. -1.
        -13    1    3    3    0    0 -0.21300248126E+03  0.55816231782E+03  0.14524338244E+04  0.15705028635E+04  0.00000000000E+00 0.  1.
          4    1    6    6  502    0 -0.33043646888E+02 -0.22284113130E+02 -0.62852779774E+02  0.74424029876E+02  0.00000000000E+00 0. -1.
          1    1    5    5  503    0  0.13393761260E+03 -0.19369655803E+03  0.33342040889E+03  0.40819947296E+03  0.00000000000E+00 0. -1.
         -2    1    5    5    0  503  0.23119511665E+03 -0.35401377756E+03  0.80332354720E+03  0.90780265375E+03  0.00000000000E+00 0.  1.
         -3    1    6    6    0  502 -0.82207310394E+02 -0.13157779085E+03 -0.48188992275E+02  0.16245902839E+03  0.00000000000E+00 0.  1.
<mgrwt>
<rscale>  0 0.20544106E+04</rscale>
<asrwt>0</asrwt>
<pdfrwt beam="1">  1        2 0.47502098E+00 0.20544106E+04</pdfrwt>
<pdfrwt beam="2">  1       -2 0.52574480E-01 0.20544106E+04</pdfrwt>
<totfact> 0.48507527E+00</totfact>
</mgrwt>
</event>
<event>
12    1  0.1489025E-007  0.1880643E+04  0.7818608E-02  0.8664552E-01
         -1   -1    0    0    0  501 -0.00000000000E+00  0.00000000000E+00  0.34365395722E+03  0.34365395722E+03  0.00000000000E+00 0. -1.
          1   -1    0    0  501    0  0.00000000000E+00 -0.00000000000E+00 -0.25729508175E+04  0.25729508175E+04  0.00000000000E+00 0.  1.
         23    2    1    2    0    0  0.18509422152E+03  0.66285768111E+03 -0.11481917651E+04  0.13417384347E+04  0.90980885472E+02 0.  0.
        254    2    1    2    0    0 -0.18509422152E+03 -0.66285768111E+03 -0.10811050952E+04  0.15748663400E+04  0.91530081709E+03 0.  0.
        -24    2    4    4    0    0 -0.23592488189E+03 -0.17472728614E+01  0.56640836006E+02  0.25559773178E+03  0.80364254072E+02 0.  0.
         24    2    4    4    0    0  0.50830660371E+02 -0.66111040824E+03 -0.11377459312E+04  0.13192686082E+04  0.79706516385E+02 0.  0.
         13    1    3    3    0    0  0.16890587612E+03  0.65105464836E+03 -0.10972163460E+04  0.12869673889E+04  0.00000000000E+00 0. -1.
        -13    1    3    3    0    0  0.16188345396E+02  0.11803032749E+02 -0.50975419123E+02  0.54771045850E+02  0.00000000000E+00 0.  1.
          4    1    6    6  502    0  0.65137465956E+02 -0.57633952738E+03 -0.10216078498E+04  0.11747734841E+04  0.00000000000E+00 0. -1.
          3    1    5    5  503    0 -0.22180509078E+03  0.13057528802E+02  0.67787509105E+02  0.23229968520E+03  0.00000000000E+00 0. -1.
         -4    1    5    5    0  503 -0.14119791105E+02 -0.14804801664E+02 -0.11146673099E+02  0.23298046578E+02  0.00000000000E+00 0.  1.
         -3    1    6    6    0  502 -0.14306805585E+02 -0.84770880869E+02 -0.11613808139E+03  0.14449512406E+03  0.00000000000E+00 0.  1.
<mgrwt>
<rscale>  0 0.18806432E+04</rscale>
<asrwt>0</asrwt>
<pdfrwt beam="1">  1        1 0.39583860E+00 0.18806432E+04</pdfrwt>
<pdfrwt beam="2">  1       -1 0.52869838E-01 0.18806432E+04</pdfrwt>
<totfact> 0.40775638E+00</totfact>
</mgrwt>
</event>
<event>
12    1  0.1489025E-007  0.1712166E+04  0.7818608E-02  0.8754456E-01
          2   -1    0    0  501    0  0.00000000000E+00  0.00000000000E+00  0.11603397146E+04  0.11603397146E+04  0.00000000000E+00 0. -1.
         -2   -1    0    0    0  501 -0.00000000000E+00 -0.00000000000E+00 -0.63160663157E+03  0.63160663157E+03  0.00000000000E+00 0.  1.
         23    2    1    2    0    0 -0.33472797281E+03 -0.24426954808E+02  0.74717137506E+03  0.82422789742E+03  0.91907950055E+02 0.  0.
        254    2    1    2    0    0  0.33472797281E+03  0.24426954808E+02 -0.21843829204E+03  0.96771844873E+03  0.88097912386E+03 0.  0.
        -24    2    4    4    0    0  0.61564716695E+03  0.80355649068E+02 -0.23828433292E+03  0.66969647645E+03  0.78965072899E+02 0.  0.
         24    2    4    4    0    0 -0.28091919414E+03 -0.55928694259E+02  0.19846040877E+02  0.29802197228E+03  0.79872511818E+02 0.  0.
         11    1    3    3    0    0 -0.27135382585E+03 -0.11165491395E+01  0.66255977798E+03  0.71597458396E+03  0.00000000000E+00 0. -1.
        -11    1    3    3    0    0 -0.63374146954E+02 -0.23310405669E+02  0.84611597080E+02  0.10825331346E+03  0.00000000000E+00 0.  1.
          4    1    6    6  502    0 -0.18634487932E+03 -0.71843329272E+02 -0.17252175244E+01  0.19972194267E+03  0.00000000000E+00 0. -1.
          3    1    5    5  503    0  0.52260060587E+03  0.87415068898E+02 -0.22413154808E+03  0.57531533820E+03  0.00000000000E+00 0. -1.
         -4    1    5    5    0  503  0.93046561087E+02 -0.70594198305E+01 -0.14152784837E+02  0.94381138249E+02  0.00000000000E+00 0.  1.
         -3    1    6    6    0  502 -0.94574314826E+02  0.15914635012E+02  0.21571258401E+02  0.98300029610E+02  0.00000000000E+00 0.  1.
<mgrwt>
<rscale>  0 0.17121662E+04</rscale>
<asrwt>0</asrwt>
<pdfrwt beam="1">  1        2 0.17851380E+00 0.17121662E+04</pdfrwt>
<pdfrwt beam="2">  1       -2 0.97170251E-01 0.17121662E+04</pdfrwt>
<totfact> 0.16818294E+01</totfact>
</mgrwt>
</event>
<event>
12    1  0.1489025E-007  0.1894682E+04  0.7818608E-02  0.8657508E-01
          2   -1    0    0  501    0  0.00000000000E+00  0.00000000000E+00  0.21278192135E+04  0.21278192135E+04  0.00000000000E+00 0.  1.
         -2   -1    0    0    0  501 -0.00000000000E+00 -0.00000000000E+00 -0.42177205704E+03  0.42177205704E+03  0.00000000000E+00 0. -1.
         23    2    1    2    0    0 -0.65404194645E+03  0.93171689382E+02  0.32860434918E+03  0.74428754018E+03  0.97628339911E+02 0.  0.
        254    2    1    2    0    0  0.65404194645E+03 -0.93171689382E+02  0.13774428073E+04  0.18053037304E+04  0.96193608940E+03 0.  0.
        -24    2    4    4    0    0 -0.76482853056E+02 -0.32694132356E+03  0.20276954759E+03  0.40024136272E+03  0.79607808295E+02 0.  0.
         24    2    4    4    0    0  0.73052479951E+03  0.23376963418E+03  0.11746732597E+04  0.14050623677E+04  0.77641904600E+02 0.  0.
         11    1    3    3    0    0 -0.45994914806E+03  0.39517965934E+02  0.18684244824E+03  0.49802107275E+03  0.00000000000E+00 0. -1.
        -11    1    3    3    0    0 -0.19409279839E+03  0.53653723448E+02  0.14176190094E+03  0.24626646744E+03  0.00000000000E+00 0.  1.
          2    1    6    6  502    0  0.73053607555E+03  0.23160825317E+03  0.11604274148E+04  0.13906534887E+04  0.00000000000E+00 0. -1.
          1    1    5    5  503    0 -0.38287393163E+02 -0.68407542935E+02  0.78210215203E+02  0.11073551448E+03  0.00000000000E+00 0. -1.
         -2    1    5    5    0  503 -0.38195459893E+02 -0.25853378062E+03  0.12455933239E+03  0.28950584824E+03  0.00000000000E+00 0.  1.
         -1    1    6    6    0  502 -0.11276046246E-01  0.21613810042E+01  0.14245844979E+02  0.14408879005E+02  0.00000000000E+00 0.  1.
<mgrwt>
<rscale>  0 0.18946817E+04</rscale>
<asrwt>0</asrwt>
<pdfrwt beam="1">  1        2 0.32735680E+00 0.18946817E+04</pdfrwt>
<pdfrwt beam="2">  1       -2 0.64888010E-01 0.18946817E+04</pdfrwt>
<totfact> 0.11639646E+01</totfact>
</mgrwt>
</event>
<event>
12    1  0.1489025E-007  0.1137359E+04  0.7818608E-02  0.9169525E-01
          2   -1    0    0  501    0  0.00000000000E+00  0.00000000000E+00  0.16331028339E+04  0.16331028339E+04  0.00000000000E+00 0. -1.
         -2   -1    0    0    0  501 -0.00000000000E+00 -0.00000000000E+00 -0.19802584040E+03  0.19802584040E+03  0.00000000000E+00 0.  1.
         23    2    1    2    0    0 -0.17835597257E+03 -0.65246531043E+02  0.32745480068E+03  0.38954083867E+03  0.91910041553E+02 0.  0.
        254    2    1    2    0    0  0.17835597257E+03  0.65246531043E+02  0.11076221929E+04  0.14415878357E+04  0.90292890255E+03 0.  0.
        -24    2    4    4    0    0 -0.78730377129E+02 -0.38313199971E+03  0.44725933500E+03  0.59922285134E+03  0.77707858880E+02 0.  0.
         24    2    4    4    0    0  0.25708634969E+03  0.44837853076E+03  0.66036285786E+03  0.84236498433E+03  0.79768193769E+02 0.  0.
         11    1    3    3    0    0 -0.25159225651E+02 -0.47100824701E+02  0.56456308624E+02  0.77709646160E+02  0.00000000000E+00 0.  1.
        -11    1    3    3    0    0 -0.15319674691E+03 -0.18145706342E+02  0.27099849206E+03  0.31183119251E+03  0.00000000000E+00 0. -1.
          4    1    6    6  502    0 -0.26200725724E+01  0.32148866698E+02  0.36697057253E+02  0.48857838893E+02  0.00000000000E+00 0. -1.
          1    1    5    5  503    0  0.11324588628E+02 -0.12281895352E+02  0.13491044021E+02  0.21473228212E+02  0.00000000000E+00 0. -1.
         -2    1    5    5    0  503 -0.90054965757E+02 -0.37085010436E+03  0.43376829098E+03  0.57774962313E+03  0.00000000000E+00 0.  1.
         -3    1    6    6    0  502  0.25970642227E+03  0.41622966406E+03  0.62366580060E+03  0.79350714543E+03  0.00000000000E+00 0.  1.
<mgrwt>
<rscale>  0 0.11373593E+04</rscale>
<asrwt>0</asrwt>
<pdfrwt beam="1">  1        2 0.25124658E+00 0.11373593E+04</pdfrwt>
<pdfrwt beam="2">  1       -2 0.30465515E-01 0.11373593E+04</pdfrwt>
<totfact> 0.10543921E+02</totfact>
</mgrwt>
</event>
<event>
12    1  0.1489025E-007  0.1125866E+04  0.7818608E-02  0.9180342E-01
          2   -1    0    0  501    0  0.00000000000E+00  0.00000000000E+00  0.96571551915E+03  0.96571551915E+03  0.00000000000E+00 0. -1.
         -2   -1    0    0    0  501 -0.00000000000E+00 -0.00000000000E+00 -0.32814365364E+03  0.32814365364E+03  0.00000000000E+00 0.  1.
         23    2    1    2    0    0 -0.76582870086E+02  0.39121853685E+02 -0.80725468001E+02  0.14966485895E+03  0.92127701551E+02 0.  0.
        254    2    1    2    0    0  0.76582870086E+02 -0.39121853685E+02  0.71829733350E+03  0.11441943138E+04  0.88647284961E+03 0.  0.
        -24    2    4    4    0    0  0.35655583697E+03  0.27589344241E+03  0.31994016167E+03  0.55864043125E+03  0.80424921083E+02 0.  0.
         24    2    4    4    0    0 -0.27997296689E+03 -0.31501529610E+03  0.39835717183E+03  0.58555388259E+03  0.81027243015E+02 0.  0.
         11    1    3    3    0    0 -0.18129841527E+02 -0.19381788886E+02  0.86341394161E+01  0.27908659188E+02  0.00000000000E+00 0. -1.
        -11    1    3    3    0    0 -0.58453028559E+02  0.58503642571E+02 -0.89359607417E+02  0.12175619976E+03  0.00000000000E+00 0.  1.
          2    1    6    6  502    0 -0.11311815963E+03 -0.82612945888E+02  0.99401158912E+02  0.17175915480E+03  0.00000000000E+00 0. -1.
          1    1    5    5  503    0  0.17171145764E+03  0.86091225285E+02  0.15210145578E+03  0.24501301313E+03  0.00000000000E+00 0. -1.
         -2    1    5    5    0  503  0.18484437934E+03  0.18980221713E+03  0.16783870589E+03  0.31362741812E+03  0.00000000000E+00 0.  1.
         -1    1    6    6    0  502 -0.16685480726E+03 -0.23240235021E+03  0.29895601292E+03  0.41379472779E+03  0.00000000000E+00 0.  1.
<mgrwt>
<rscale>  0 0.11258657E+04</rscale>
<asrwt>0</asrwt>
<pdfrwt beam="1">  1        2 0.14857162E+00 0.11258657E+04</pdfrwt>
<pdfrwt beam="2">  1       -2 0.50483639E-01 0.11258657E+04</pdfrwt>
<totfact> 0.97506116E+01</totfact>
</mgrwt>
</event>
<event>
12    1  0.1489025E-007  0.2020937E+04  0.7818608E-02  0.8596894E-01
         -1   -1    0    0    0  501 -0.00000000000E+00  0.00000000000E+00  0.12400567950E+04  0.12400567950E+04  0.00000000000E+00 0.  1.
          1   -1    0    0  501    0  0.00000000000E+00 -0.00000000000E+00 -0.82338697916E+03  0.82338697916E+03  0.00000000000E+00 0. -1.
         23    2    1    2    0    0 -0.43274496714E+03  0.17403311935E+03  0.89334752884E+03  0.10117676117E+04  0.89711535232E+02 0.  0.
        254    2    1    2    0    0  0.43274496714E+03 -0.17403311935E+03 -0.47667771299E+03  0.10516761625E+04  0.81316995485E+03 0.  0.
        -24    2    4    4    0    0  0.29181529001E+03 -0.35416422687E+03  0.54350532495E+02  0.46810876078E+03  0.74721940913E+02 0.  0.
         24    2    4    4    0    0  0.14092967713E+03  0.18013110752E+03 -0.53102824548E+03  0.58356740171E+03  0.79066586165E+02 0.  0.
         13    1    3    3    0    0 -0.50278578406E+02  0.53273182337E+02  0.15790582234E+03  0.17406957268E+03  0.00000000000E+00 0. -1.
        -13    1    3    3    0    0 -0.38246638874E+03  0.12075993701E+03  0.73544170650E+03  0.83769803901E+03  0.00000000000E+00 0.  1.
          4    1    6    6  502    0  0.59172622807E+02  0.12018378361E+03 -0.23296183527E+03  0.26873175812E+03  0.00000000000E+00 0. -1.
          3    1    5    5  503    0  0.30863882923E+02 -0.14210816430E+02  0.16804995132E+02  0.37906918024E+02  0.00000000000E+00 0. -1.
         -4    1    5    5    0  503  0.26095140709E+03 -0.33995341044E+03  0.37545537363E+02  0.43020184275E+03  0.00000000000E+00 0.  1.
         -3    1    6    6    0  502  0.81757054324E+02  0.59947323911E+02 -0.29806641022E+03  0.31483564359E+03  0.00000000000E+00 0.  1.
<mgrwt>
<rscale>  0 0.20209370E+04</rscale>
<asrwt>0</asrwt>
<pdfrwt beam="1">  1        1 0.12667492E+00 0.20209370E+04</pdfrwt>
<pdfrwt beam="2">  1       -1 0.19077797E+00 0.20209370E+04</pdfrwt>
<totfact> 0.34092136E+00</totfact>
</mgrwt>
</event>
<event>
12    1  0.1489025E-007  0.2460186E+04  0.7818608E-02  0.8417308E-01
         -2   -1    0    0    0  501 -0.00000000000E+00  0.00000000000E+00  0.84643601699E+03  0.84643601699E+03  0.00000000000E+00 0.  1.
          2   -1    0    0  501    0  0.00000000000E+00 -0.00000000000E+00 -0.17876471456E+04  0.17876471456E+04  0.00000000000E+00 0. -1.
         23    2    1    2    0    0  0.89895615545E+03 -0.55691343544E+03 -0.36984334083E+03  0.11236632969E+04  0.86950353995E+02 0.  0.
        254    2    1    2    0    0 -0.89895615545E+03  0.55691343544E+03 -0.57136778777E+03  0.15104198657E+04  0.91467605070E+03 0.  0.
        -24    2    4    4    0    0 -0.98864132897E+03  0.22416549692E+03 -0.28630544944E+03  0.10564819809E+04  0.80755918227E+02 0.  0.
         24    2    4    4    0    0  0.89685173521E+02  0.33274793852E+03 -0.28506233833E+03  0.45393788473E+03  0.77681693587E+02 0.  0.
         11    1    3    3    0    0  0.68664412135E+03 -0.45290698699E+03 -0.31615156580E+03  0.88122454619E+03  0.00000000000E+00 0.  1.
        -11    1    3    3    0    0  0.21231203410E+03 -0.10400644845E+03 -0.53691775032E+02  0.24243875071E+03  0.00000000000E+00 0. -1.
          2    1    6    6  502    0  0.10091386314E+03  0.28017148612E+03 -0.25666450522E+03  0.39313653818E+03  0.00000000000E+00 0. -1.
          3    1    5    5  503    0 -0.61693218707E+03  0.17926038739E+03 -0.17416983568E+03  0.66563859684E+03  0.00000000000E+00 0. -1.
         -4    1    5    5    0  503 -0.37170914190E+03  0.44905109532E+02 -0.11213561376E+03  0.39084338411E+03  0.00000000000E+00 0.  1.
         -1    1    6    6    0  502 -0.11228689616E+02  0.52576452397E+02 -0.28397833110E+02  0.60801346552E+02  0.00000000000E+00 0.  1.
<mgrwt>
<rscale>  0 0.24601861E+04</rscale>
<asrwt>0</asrwt>
<pdfrwt beam="1">  1        2 0.27502264E+00 0.24601861E+04</pdfrwt>
<pdfrwt beam="2">  1       -2 0.13022093E+00 0.24601861E+04</pdfrwt>
<totfact> 0.33923933E+00</totfact>
</mgrwt>
</event>
<event>
12    1  0.1489025E-007  0.2319662E+04  0.7818608E-02  0.8470209E-01
         -2   -1    0    0    0  501 -0.00000000000E+00  0.00000000000E+00  0.32643993840E+03  0.32643993840E+03  0.00000000000E+00 0.  1.
          2   -1    0    0  501    0  0.00000000000E+00 -0.00000000000E+00 -0.41208423748E+04  0.41208423748E+04  0.00000000000E+00 0. -1.
         23    2    1    2    0    0  0.45520357035E+03  0.56107162429E+03 -0.28884344707E+04  0.29788341438E+04  0.91583330629E+02 0.  0.
        254    2    1    2    0    0 -0.45520357035E+03 -0.56107162429E+03 -0.90596796567E+03  0.14684481694E+04  0.90197029519E+03 0.  0.
        -24    2    4    4    0    0 -0.21595841258E+02  0.22537792612E+03 -0.10335360111E+03  0.26143241431E+03  0.80020937538E+02 0.  0.
         24    2    4    4    0    0 -0.43360772909E+03 -0.78644955041E+03 -0.80261436456E+03  0.12070157551E+04  0.78604432461E+02 0.  0.
         11    1    3    3    0    0  0.16020507829E+03  0.16510365498E+03 -0.77111914903E+03  0.80470468248E+03  0.00000000000E+00 0. -1.
        -11    1    3    3    0    0  0.29499849206E+03  0.39596796931E+03 -0.21173153217E+04  0.21741294613E+04  0.00000000000E+00 0.  1.
          2    1    6    6  502    0 -0.36222517674E+03 -0.70862140532E+03 -0.70417540929E+03  0.10626449933E+04  0.00000000000E+00 0. -1.
          1    1    5    5  503    0 -0.49557797340E+02  0.18117404118E+03 -0.80730962866E+02  0.20444436123E+03  0.00000000000E+00 0. -1.
         -2    1    5    5    0  503  0.27961956082E+02  0.44203884947E+02 -0.22622638239E+02  0.56988053075E+02  0.00000000000E+00 0.  1.
         -1    1    6    6    0  502 -0.71382552355E+02 -0.77828145093E+02 -0.98438955271E+02  0.14437076181E+03  0.00000000000E+00 0.  1.
<mgrwt>
<rscale>  0 0.23196616E+04</rscale>
<asrwt>0</asrwt>
<pdfrwt beam="1">  1        2 0.63397577E+00 0.23196616E+04</pdfrwt>
<pdfrwt beam="2">  1       -2 0.50221528E-01 0.23196616E+04</pdfrwt>
<totfact> 0.92856548E-01</totfact>
</mgrwt>
</event>
<event>
12    1  0.1489025E-007  0.1176157E+04  0.7818608E-02  0.9133986E-01
          2   -1    0    0  501    0  0.00000000000E+00  0.00000000000E+00  0.85478478737E+03  0.85478478737E+03  0.00000000000E+00 0. -1.
         -2   -1    0    0    0  501 -0.00000000000E+00 -0.00000000000E+00 -0.40458880678E+03  0.40458880678E+03  0.00000000000E+00 0.  1.
         23    2    1    2    0    0 -0.81112085375E+02 -0.21232863672E+03  0.35384731491E+02  0.24775796976E+03  0.92028864998E+02 0.  0.
        254    2    1    2    0    0  0.81112085375E+02  0.21232863672E+03  0.41481124910E+03  0.10116156244E+04  0.89422322647E+03 0.  0.
        -24    2    4    4    0    0 -0.39654255158E+03  0.10322844524E+03  0.25606165193E+03  0.48996104270E+03  0.81192035627E+02 0.  0.
         24    2    4    4    0    0  0.47765463695E+03  0.10910019147E+03  0.15874959716E+03  0.52165458169E+03  0.82856888773E+02 0.  0.
         11    1    3    3    0    0 -0.29961354784E+02 -0.14089224157E+03  0.60719099367E+02  0.15631735522E+03  0.00000000000E+00 0. -1.
        -11    1    3    3    0    0 -0.51150730591E+02 -0.71436395143E+02 -0.25334367876E+02  0.91440614536E+02  0.00000000000E+00 0.  1.
          2    1    6    6  502    0  0.21785802312E+03  0.10833813594E+02  0.53242456692E+02  0.22453117590E+03  0.00000000000E+00 0. -1.
          1    1    5    5  503    0 -0.16294553711E+03  0.81838351357E+02  0.12716670694E+03  0.22230639930E+03  0.00000000000E+00 0. -1.
         -2    1    5    5    0  503 -0.23359701447E+03  0.21390093887E+02  0.12889494499E+03  0.26765464339E+03  0.00000000000E+00 0.  1.
         -1    1    6    6    0  502  0.25979661383E+03  0.98266377877E+02  0.10550714047E+03  0.29712340580E+03  0.00000000000E+00 0.  1.
<mgrwt>
<rscale>  0 0.11761571E+04</rscale>
<asrwt>0</asrwt>
<pdfrwt beam="1">  1        2 0.13150535E+00 0.11761571E+04</pdfrwt>
<pdfrwt beam="2">  1       -2 0.62244432E-01 0.11761571E+04</pdfrwt>
<totfact> 0.74584096E+01</totfact>
</mgrwt>
</event>
<event>
12    1  0.1489025E-007  0.3063351E+04  0.7818608E-02  0.8225868E-01
          2   -1    0    0  501    0  0.00000000000E+00  0.00000000000E+00  0.23597624476E+04  0.23597624476E+04  0.00000000000E+00 0. -1.
         -2   -1    0    0    0  501 -0.00000000000E+00 -0.00000000000E+00 -0.99418065498E+03  0.99418065498E+03  0.00000000000E+00 0.  1.
         23    2    1    2    0    0  0.72051578400E+03  0.57133595464E+03  0.17827469218E+04  0.20081234125E+04  0.93836477888E+02 0.  0.
        254    2    1    2    0    0 -0.72051578400E+03 -0.57133595464E+03 -0.41716512921E+03  0.13458196901E+04  0.88973935793E+03 0.  0.
        -24    2    4    4    0    0 -0.71749921621E+03 -0.38368446632E+02 -0.35124908021E+03  0.80377176163E+03  0.79974155136E+02 0.  0.
         24    2    4    4    0    0 -0.30165677878E+01 -0.53296750801E+03 -0.65916048994E+02  0.54204792842E+03  0.73536160604E+02 0.  0.
         11    1    3    3    0    0  0.60346041325E+03  0.43757103686E+03  0.14778830252E+04  0.16552253982E+04  0.00000000000E+00 0. -1.
        -11    1    3    3    0    0  0.11705537075E+03  0.13376491778E+03  0.30486389667E+03  0.35289801437E+03  0.00000000000E+00 0.  1.
          4    1    6    6  502    0  0.85448854672E+01 -0.42193651473E+03 -0.79977660597E+02  0.42953447326E+03  0.00000000000E+00 0. -1.
          1    1    5    5  503    0 -0.33556822611E+03 -0.15018461604E+02 -0.12009500000E+03  0.35672734348E+03  0.00000000000E+00 0. -1.
         -2    1    5    5    0  503 -0.38193099010E+03 -0.23349985028E+02 -0.23115408022E+03  0.44704441815E+03  0.00000000000E+00 0.  1.
         -1    1    6    6    0  502 -0.11561453255E+02 -0.11103099328E+03  0.14061611603E+02  0.11251345516E+03  0.00000000000E+00 0.  1.
<mgrwt>
<rscale>  0 0.30633512E+04</rscale>
<asrwt>0</asrwt>
<pdfrwt beam="1">  1        2 0.36304038E+00 0.30633512E+04</pdfrwt>
<pdfrwt beam="2">  1       -2 0.15295087E+00 0.30633512E+04</pdfrwt>
<totfact> 0.10154092E+00</totfact>
</mgrwt>
</event>
<event>
12    1  0.1489025E-007  0.1599401E+04  0.7818608E-02  0.8820916E-01
         -3   -1    0    0    0  501 -0.00000000000E+00  0.00000000000E+00  0.17693613468E+04  0.17693613468E+04  0.00000000000E+00 0.  1.
          3   -1    0    0  501    0  0.00000000000E+00 -0.00000000000E+00 -0.36144172295E+03  0.36144172295E+03  0.00000000000E+00 0. -1.
         23    2    1    2    0    0 -0.21170950506E+03 -0.42008607031E+03  0.12366713152E+03  0.49421390885E+03  0.87524895195E+02 0.  0.
        254    2    1    2    0    0  0.21170950506E+03  0.42008607031E+03  0.12842524923E+04  0.16365891609E+04  0.89879163132E+03 0.  0.
        -24    2    4    4    0    0  0.33395111755E+03  0.26101433332E+03  0.13449513366E+04  0.14124998997E+04  0.81302139207E+02 0.  0.
         24    2    4    4    0    0 -0.12224161249E+03  0.15907173699E+03 -0.60698844262E+02  0.22408926117E+03  0.79276843679E+02 0.  0.
         11    1    3    3    0    0 -0.67340585175E+02 -0.10443042449E+03 -0.41385257664E+01  0.12432857824E+03  0.00000000000E+00 0.  1.
        -11    1    3    3    0    0 -0.14436891989E+03 -0.31565564582E+03  0.12780565729E+03  0.36988533061E+03  0.00000000000E+00 0. -1.
          2    1    6    6  502    0 -0.86563099712E+01  0.43636429985E+02 -0.41799033109E+02  0.61042844732E+02  0.00000000000E+00 0. -1.
          3    1    5    5  503    0  0.13634416600E+03  0.15800024953E+03  0.65991917297E+03  0.69213230332E+03  0.00000000000E+00 0. -1.
         -4    1    5    5    0  503  0.19760695155E+03  0.10301408379E+03  0.68503216363E+03  0.72036759641E+03  0.00000000000E+00 0.  1.
         -1    1    6    6    0  502 -0.11358530252E+03  0.11543530701E+03 -0.18899811153E+02  0.16304641644E+03  0.00000000000E+00 0.  1.
<mgrwt>
<rscale>  0 0.15994012E+04</rscale>
<asrwt>0</asrwt>
<pdfrwt beam="1">  1        3 0.55606420E-01 0.15994012E+04</pdfrwt>
<pdfrwt beam="2">  1       -3 0.27220943E+00 0.15994012E+04</pdfrwt>
<totfact> 0.43703333E-01</totfact>
</mgrwt>
</event>
<event>
12    1  0.1489025E-007  0.2247968E+04  0.7818608E-02  0.8498724E-01
         -2   -1    0    0    0  501 -0.00000000000E+00  0.00000000000E+00  0.62884533606E+03  0.62884533606E+03  0.00000000000E+00 0. -1.
          2   -1    0    0  501    0  0.00000000000E+00 -0.00000000000E+00 -0.20089832225E+04  0.20089832225E+04  0.00000000000E+00 0.  1.
         23    2    1    2    0    0 -0.42955931263E+03  0.74624518918E+03 -0.10183196346E+04  0.13365686702E+04  0.89654037502E+02 0.  0.
        254    2    1    2    0    0  0.42955931263E+03 -0.74624518918E+03 -0.36181825182E+03  0.13012598884E+04  0.90606940367E+03 0.  0.
        -24    2    4    4    0    0 -0.10862141603E+03 -0.61596378067E+03 -0.38933079111E+03  0.74096181908E+03  0.78968103094E+02 0.  0.
         24    2    4    4    0    0  0.53818072866E+03 -0.13028140851E+03  0.27512539288E+02  0.56029806929E+03  0.81026196531E+02 0.  0.
         11    1    3    3    0    0 -0.12529431821E+03  0.29792389926E+03 -0.40637483414E+03  0.51922810185E+03  0.00000000000E+00 0. -1.
        -11    1    3    3    0    0 -0.30426499441E+03  0.44832128993E+03 -0.61194480045E+03  0.81734056832E+03  0.00000000000E+00 0.  1.
          4    1    6    6  502    0  0.39974052201E+03 -0.10223375359E+03  0.55428788742E+02  0.41631307442E+03  0.00000000000E+00 0. -1.
          1    1    5    5  503    0 -0.28147636942E+01 -0.94746872530E+02 -0.89781113327E+02  0.13055857329E+03  0.00000000000E+00 0. -1.
         -2    1    5    5    0  503 -0.10580665234E+03 -0.52121690814E+03 -0.29954967778E+03  0.61040324579E+03  0.00000000000E+00 0.  1.
         -3    1    6    6    0  502  0.13844020665E+03 -0.28047654921E+02 -0.27916249454E+02  0.14398499487E+03  0.00000000000E+00 0.  1.
<mgrwt>
<rscale>  0 0.22479677E+04</rscale>
<asrwt>0</asrwt>
<pdfrwt beam="1">  1        2 0.30907434E+00 0.22479677E+04</pdfrwt>
<pdfrwt beam="2">  1       -2 0.96745438E-01 0.22479677E+04</pdfrwt>
<totfact> 0.53699119E+00</totfact>
</mgrwt>
</event>
<event>
12    1  0.1489025E-007  0.1395656E+04  0.7818608E-02  0.8956969E-01
         -2   -1    0    0    0  501 -0.00000000000E+00  0.00000000000E+00  0.18554167940E+03  0.18554167940E+03  0.00000000000E+00 0.  1.
          2   -1    0    0  501    0  0.00000000000E+00 -0.00000000000E+00 -0.26245521032E+04  0.26245521032E+04  0.00000000000E+00 0. -1.
         23    2    1    2    0    0 -0.19269709723E+03  0.32417661789E+03 -0.96132472790E+03  0.10370884513E+04  0.95836175157E+02 0.  0.
        254    2    1    2    0    0  0.19269709723E+03 -0.32417661789E+03 -0.14776856959E+04  0.17730053313E+04  0.90430649568E+03 0.  0.
        -24    2    4    4    0    0  0.32806473460E+03 -0.57652342551E+03 -0.11558975991E+04  0.13351306822E+04  0.80429775316E+02 0.  0.
         24    2    4    4    0    0 -0.13536763737E+03  0.25234680762E+03 -0.32178809685E+03  0.43787464913E+03  0.78634092585E+02 0.  0.
         11    1    3    3    0    0 -0.10502777336E+03  0.21830776316E+03 -0.71607991792E+03  0.75594944374E+03  0.00000000000E+00 0. -1.
        -11    1    3    3    0    0 -0.87669323878E+02  0.10586885473E+03 -0.24524480998E+03  0.28113900756E+03  0.00000000000E+00 0.  1.
          2    1    6    6  502    0 -0.95761665577E+02  0.13006929113E+03 -0.13168013678E+03  0.20839379912E+03  0.00000000000E+00 0. -1.
          3    1    5    5  503    0  0.20313251216E+03 -0.27680008805E+03 -0.58084396861E+03  0.67473018467E+03  0.00000000000E+00 0. -1.
         -4    1    5    5    0  503  0.12493222244E+03 -0.29972333746E+03 -0.57505363044E+03  0.66040049751E+03  0.00000000000E+00 0.  1.
         -1    1    6    6    0  502 -0.39605971789E+02  0.12227751649E+03 -0.19010796007E+03  0.22948085002E+03  0.00000000000E+00 0.  1.
<mgrwt>
<rscale>  0 0.13956558E+04</rscale>
<asrwt>0</asrwt>
<pdfrwt beam="1">  1        2 0.40377722E+00 0.13956558E+04</pdfrwt>
<pdfrwt beam="2">  1       -2 0.28544876E-01 0.13956558E+04</pdfrwt>
<totfact> 0.32394897E+01</totfact>
</mgrwt>
</event>
<event>
12    1  0.1489025E-007  0.9958187E+03  0.7818608E-02  0.9313143E-01
          2   -1    0    0  501    0  0.00000000000E+00  0.00000000000E+00  0.13150007340E+04  0.13150007340E+04  0.00000000000E+00 0. -1.
         -2   -1    0    0    0  501 -0.00000000000E+00 -0.00000000000E+00 -0.18852745075E+03  0.18852745075E+03  0.00000000000E+00 0.  1.
         23    2    1    2    0    0 -0.44015956874E+02 -0.10417040843E+02  0.11528781295E+03  0.14705251867E+03  0.79292144839E+02 0.  0.
        254    2    1    2    0    0  0.44015956874E+02  0.10417040843E+02  0.10111854703E+04  0.13564756661E+04  0.90304167020E+03 0.  0.
        -24    2    4    4    0    0  0.14764005686E+02  0.44940476002E+03  0.50967417039E+03  0.68424173671E+03  0.78970754740E+02 0.  0.
         24    2    4    4    0    0  0.29251951187E+02 -0.43898771918E+03  0.50151129991E+03  0.67223392936E+03  0.82577101028E+02 0.  0.
         13    1    3    3    0    0 -0.60316308390E+02 -0.26125715030E+02  0.67731358021E+02  0.94382979943E+02  0.00000000000E+00 0.  1.
        -13    1    3    3    0    0  0.16300351516E+02  0.15708674188E+02  0.47556454931E+02  0.52669538729E+02  0.00000000000E+00 0. -1.
          4    1    6    6  502    0 -0.16030987992E+02 -0.14066590918E+03  0.20544587365E+03  0.24950330174E+03  0.00000000000E+00 0. -1.
          1    1    5    5  503    0  0.43463198500E+02  0.31340120814E+03  0.37578508221E+03  0.49124718310E+03  0.00000000000E+00 0. -1.
         -2    1    5    5    0  503 -0.28699192814E+02  0.13600355188E+03  0.13388908818E+03  0.19299455362E+03  0.00000000000E+00 0.  1.
         -3    1    6    6    0  502  0.45282939179E+02 -0.29832181000E+03  0.29606542625E+03  0.42273062762E+03  0.00000000000E+00 0.  1.
<mgrwt>
<rscale>  0 0.99581873E+03</rscale>
<asrwt>0</asrwt>
<pdfrwt beam="1">  1        2 0.20230780E+00 0.99581873E+03</pdfrwt>
<pdfrwt beam="2">  1       -2 0.29004224E-01 0.99581873E+03</pdfrwt>
<totfact> 0.17643279E+02</totfact>
</mgrwt>
</event>
<event>
12    1  0.1489025E-007  0.2807589E+04  0.7818608E-02  0.8300916E-01
         -1   -1    0    0    0  501 -0.00000000000E+00  0.00000000000E+00  0.94212104368E+03  0.94212104368E+03  0.00000000000E+00 0.  1.
          1   -1    0    0  501    0  0.00000000000E+00 -0.00000000000E+00 -0.20917039551E+04  0.20917039551E+04  0.00000000000E+00 0. -1.
         23    2    1    2    0    0 -0.26468350672E+03  0.10411075924E+04  0.19115566255E+03  0.10952510307E+04  0.95246812745E+02 0.  0.
        254    2    1    2    0    0  0.26468350672E+03 -0.10411075924E+04 -0.13407385740E+04  0.19385739681E+04  0.89806833172E+03 0.  0.
        -24    2    4    4    0    0 -0.11353614122E+03 -0.99493862835E+03 -0.88647759096E+03  0.13404169340E+04  0.89898321747E+02 0.  0.
         24    2    4    4    0    0  0.37821964794E+03 -0.46168964002E+02 -0.45426098304E+03  0.59815703407E+03  0.79101968143E+02 0.  0.
         11    1    3    3    0    0 -0.86064504612E+02  0.31192311045E+03  0.13957235494E+02  0.32387949952E+03  0.00000000000E+00 0.  1.
        -11    1    3    3    0    0 -0.17861900211E+03  0.72918448190E+03  0.17719842706E+03  0.77137153118E+03  0.00000000000E+00 0. -1.
          2    1    6    6  502    0  0.32939426642E+03 -0.57483645813E+02 -0.35953504411E+03  0.49098920582E+03  0.00000000000E+00 0. -1.
          3    1    5    5  503    0 -0.98899424775E+02 -0.95708271232E+03 -0.82898292772E+03  0.12700398060E+04  0.00000000000E+00 0. -1.
         -4    1    5    5    0  503 -0.14636716445E+02 -0.37855916030E+02 -0.57494663245E+02  0.70377128020E+02  0.00000000000E+00 0.  1.
         -1    1    6    6    0  502  0.48825381523E+02  0.11314681810E+02 -0.94725938935E+02  0.10716782825E+03  0.00000000000E+00 0.  1.
<mgrwt>
<rscale>  0 0.28075885E+04</rscale>
<asrwt>0</asrwt>
<pdfrwt beam="1">  1        1 0.32180060E+00 0.28075885E+04</pdfrwt>
<pdfrwt beam="2">  1       -1 0.14494170E+00 0.28075885E+04</pdfrwt>
<totfact> 0.85422060E-01</totfact>
</mgrwt>
</event>
<event>
12    1  0.1489025E-007  0.1266485E+04  0.7818608E-02  0.9056573E-01
          2   -1    0    0  501    0  0.00000000000E+00  0.00000000000E+00  0.48364161131E+03  0.48364161131E+03  0.00000000000E+00 0. -1.
         -2   -1    0    0    0  501 -0.00000000000E+00 -0.00000000000E+00 -0.82911872463E+03  0.82911872463E+03  0.00000000000E+00 0.  1.
         23    2    1    2    0    0 -0.27660502888E+03  0.11910265475E+03 -0.58100092800E+02  0.32002666589E+03  0.91354593367E+02 0.  0.
        254    2    1    2    0    0  0.27660502888E+03 -0.11910265475E+03 -0.28737702052E+03  0.99273367004E+03  0.90124292139E+03 0.  0.
        -24    2    4    4    0    0  0.44149185841E+03 -0.40800869125E+03 -0.21254808404E+03  0.64255316753E+03  0.79446409022E+02 0.  0.
         24    2    4    4    0    0 -0.16488682953E+03  0.28890603650E+03 -0.74828936478E+02  0.35018050251E+03  0.79828880257E+02 0.  0.
         13    1    3    3    0    0 -0.78421377303E+02  0.12595044254E+02  0.19931412387E+02  0.81889002666E+02  0.00000000000E+00 0. -1.
        -13    1    3    3    0    0 -0.19818365157E+03  0.10650761049E+03 -0.78031505186E+02  0.23813766322E+03  0.00000000000E+00 0.  1.
          4    1    6    6  502    0 -0.15500696462E+03  0.25257732863E+03 -0.40263517058E+02  0.29907125710E+03  0.00000000000E+00 0. -1.
          1    1    5    5  503    0  0.36529432173E+03 -0.29257159757E+03 -0.16065144792E+03  0.49482013794E+03  0.00000000000E+00 0. -1.
         -2    1    5    5    0  503  0.76197536674E+02 -0.11543709368E+03 -0.51896636118E+02  0.14773302959E+03  0.00000000000E+00 0.  1.
         -3    1    6    6    0  502 -0.98798649048E+01  0.36328707878E+02 -0.34565419420E+02  0.51109245409E+02  0.00000000000E+00 0.  1.
<mgrwt>
<rscale>  0 0.12664854E+04</rscale>
<asrwt>0</asrwt>
<pdfrwt beam="1">  1        2 0.74406403E-01 0.12664854E+04</pdfrwt>
<pdfrwt beam="2">  1       -2 0.12755673E+00 0.12664854E+04</pdfrwt>
<totfact> 0.28637195E+01</totfact>
</mgrwt>
</event>
<event>
12    1  0.1489025E-007  0.1836014E+04  0.7818608E-02  0.8687378E-01
          2   -1    0    0  501    0  0.00000000000E+00  0.00000000000E+00  0.31802204888E+04  0.31802204888E+04  0.00000000000E+00 0. -1.
         -2   -1    0    0    0  501 -0.00000000000E+00 -0.00000000000E+00 -0.26499333255E+03  0.26499333255E+03  0.00000000000E+00 0.  1.
         23    2    1    2    0    0  0.57932306839E+03  0.37432221079E+03  0.12396371487E+04  0.14213319780E+04  0.88045420920E+02 0.  0.
        254    2    1    2    0    0 -0.57932306839E+03 -0.37432221079E+03  0.16755900076E+04  0.20238818434E+04  0.90153397466E+03 0.  0.
        -24    2    4    4    0    0 -0.55795561317E+03  0.89229584005E+02  0.13091159168E+04  0.14280553832E+04  0.79254709011E+02 0.  0.
         24    2    4    4    0    0 -0.21367455215E+02 -0.46355179480E+03  0.36647409079E+03  0.59582646022E+03  0.73273985002E+02 0.  0.
         11    1    3    3    0    0  0.10695599236E+03  0.45746577045E+02  0.15850294995E+03  0.19661006779E+03  0.00000000000E+00 0.  1.
        -11    1    3    3    0    0  0.47236707603E+03  0.32857563375E+03  0.10811341987E+04  0.12247219102E+04  0.00000000000E+00 0. -1.
          2    1    6    6  502    0 -0.33768995766E+02 -0.31579606804E+03  0.21289552324E+03  0.38235063159E+03  0.00000000000E+00 0. -1.
          1    1    5    5  503    0 -0.48504013404E+03  0.10377157070E+03  0.11251039315E+04  0.12295899020E+04  0.00000000000E+00 0. -1.
         -2    1    5    5    0  503 -0.72915479130E+02 -0.14541986697E+02  0.18401198530E+03  0.19846548115E+03  0.00000000000E+00 0.  1.
         -3    1    6    6    0  502  0.12401540551E+02 -0.14775572675E+03  0.15357856755E+03  0.21347582863E+03  0.00000000000E+00 0.  1.
<mgrwt>
<rscale>  0 0.18360144E+04</rscale>
<asrwt>0</asrwt>
<pdfrwt beam="1">  1        2 0.48926466E+00 0.18360144E+04</pdfrwt>
<pdfrwt beam="2">  1       -2 0.40768207E-01 0.18360144E+04</pdfrwt>
<totfact> 0.71991101E+00</totfact>
</mgrwt>
</event>
<event>
12    1  0.1489025E-007  0.2521863E+04  0.7818608E-02  0.8395238E-01
         -1   -1    0    0    0  501 -0.00000000000E+00  0.00000000000E+00  0.19135522511E+04  0.19135522511E+04  0.00000000000E+00 0.  1.
          1   -1    0    0  501    0  0.00000000000E+00 -0.00000000000E+00 -0.83088834665E+03  0.83088834665E+03  0.00000000000E+00 0. -1.
         23    2    1    2    0    0  0.59298571247E+03 -0.66572650106E+03 -0.22327786380E+03  0.92361983159E+03  0.91633833441E+02 0.  0.
        254    2    1    2    0    0 -0.59298571247E+03  0.66572650106E+03  0.13059417683E+04  0.18208207662E+04  0.90281810519E+03 0.  0.
        -24    2    4    4    0    0 -0.32837059110E+03  0.73195293867E+03  0.46014392600E+03  0.92833009308E+03  0.80510741810E+02 0.  0.
         24    2    4    4    0    0 -0.26461512137E+03 -0.66226437616E+02  0.84579784226E+03  0.89249067311E+03  0.82210145990E+02 0.  0.
         13    1    3    3    0    0  0.43625600514E+03 -0.51265286489E+03 -0.13039486165E+03  0.68566397152E+03  0.00000000000E+00 0.  1.
        -13    1    3    3    0    0  0.15672970733E+03 -0.15307363617E+03 -0.92883002152E+02  0.23795586006E+03  0.00000000000E+00 0. -1.
          4    1    6    6  502    0 -0.14609041313E+03 -0.66566930175E+02  0.57281751990E+03  0.59488946545E+03  0.00000000000E+00 0. -1.
          3    1    5    5  503    0 -0.26788945294E+03  0.58563157725E+03  0.40457708537E+03  0.76053383967E+03  0.00000000000E+00 0. -1.
         -4    1    5    5    0  503 -0.60481138156E+02  0.14632136142E+03  0.55566840631E+02  0.16779625341E+03  0.00000000000E+00 0.  1.
         -3    1    6    6    0  502 -0.11852470824E+03  0.34049255852E+00  0.27298032236E+03  0.29760120765E+03  0.00000000000E+00 0.  1.
<mgrwt>
<rscale>  0 0.25218630E+04</rscale>
<asrwt>0</asrwt>
<pdfrwt beam="1">  1        1 0.12782898E+00 0.25218630E+04</pdfrwt>
<pdfrwt beam="2">  1       -1 0.29439265E+00 0.25218630E+04</pdfrwt>
<totfact> 0.66204655E-01</totfact>
</mgrwt>
</event>
<event>
12    1  0.1489025E-007  0.1302643E+04  0.7818608E-02  0.9027472E-01
          2   -1    0    0  501    0  0.00000000000E+00  0.00000000000E+00  0.91857944393E+03  0.91857944393E+03  0.00000000000E+00 0. -1.
         -2   -1    0    0    0  501 -0.00000000000E+00 -0.00000000000E+00 -0.46182124588E+03  0.46182124588E+03  0.00000000000E+00 0.  1.
         23    2    1    2    0    0  0.11158524155E+03  0.25370076702E+03  0.31635001865E+03  0.43005946760E+03  0.89768959293E+02 0.  0.
        254    2    1    2    0    0 -0.11158524155E+03 -0.25370076702E+03  0.14040817940E+03  0.95034122221E+03  0.89811950011E+03 0.  0.
        -24    2    4    4    0    0  0.45127663245E+01 -0.41271028514E+03 -0.26203104658E+03  0.49528819263E+03  0.79372412519E+02 0.  0.
         24    2    4    4    0    0 -0.11609800788E+03  0.15900951812E+03  0.40243922597E+03  0.45505302958E+03  0.79706680082E+02 0.  0.
         11    1    3    3    0    0  0.37487981168E+02  0.18659367587E+03  0.22431463209E+03  0.29417614243E+03  0.00000000000E+00 0. -1.
        -11    1    3    3    0    0  0.74097260383E+02  0.67107091148E+02  0.92035386565E+02  0.13588332517E+03  0.00000000000E+00 0.  1.
          4    1    6    6  502    0 -0.15491248976E+02  0.45351844885E+02  0.41127193502E+02  0.63152313296E+02  0.00000000000E+00 0. -1.
          3    1    5    5  503    0  0.23888165617E+02 -0.37694418616E+02 -0.32058131840E+02  0.54947588377E+02  0.00000000000E+00 0. -1.
         -4    1    5    5    0  503 -0.19375399292E+02 -0.37501586652E+03 -0.22997291474E+03  0.44034060425E+03  0.00000000000E+00 0.  1.
         -3    1    6    6    0  502 -0.10060675890E+03  0.11365767323E+03  0.36131203247E+03  0.39190071629E+03  0.00000000000E+00 0.  1.
<mgrwt>
<rscale>  0 0.13026427E+04</rscale>
<asrwt>0</asrwt>
<pdfrwt beam="1">  1        2 0.14131991E+00 0.13026427E+04</pdfrwt>
<pdfrwt beam="2">  1       -2 0.71049422E-01 0.13026427E+04</pdfrwt>
<totfact> 0.50249563E+01</totfact>
</mgrwt>
</event>
<event>
12    1  0.1489025E-007  0.2132214E+04  0.7818608E-02  0.8547184E-01
          2   -1    0    0  501    0  0.00000000000E+00  0.00000000000E+00  0.19746503980E+04  0.19746503980E+04  0.00000000000E+00 0. -1.
         -2   -1    0    0    0  501 -0.00000000000E+00 -0.00000000000E+00 -0.57558733423E+03  0.57558733423E+03  0.00000000000E+00 0.  1.
         23    2    1    2    0    0  0.26879763769E+02 -0.45970460522E+02  0.16183936381E+04  0.16217890880E+04  0.90366329178E+02 0.  0.
        254    2    1    2    0    0 -0.26879763769E+02  0.45970460522E+02 -0.21933057432E+03  0.92844864416E+03  0.90059712362E+03 0.  0.
        -24    2    4    4    0    0 -0.38016182699E+02  0.45440851307E+03 -0.21733939692E+03  0.51118215113E+03  0.78348269154E+02 0.  0.
         24    2    4    4    0    0  0.11136418930E+02 -0.40843805255E+03 -0.19911773994E+01  0.41726649303E+03  0.84626820920E+02 0.  0.
         11    1    3    3    0    0 -0.32521678233E+02 -0.62983487208E+01  0.57470181264E+03  0.57565571499E+03  0.00000000000E+00 0. -1.
        -11    1    3    3    0    0  0.59401442002E+02 -0.39672111801E+02  0.10436918254E+04  0.10461333731E+04  0.00000000000E+00 0.  1.
          2    1    6    6  502    0  0.86013545664E+01 -0.33902302323E+02 -0.23446657873E+02  0.42108136608E+02  0.00000000000E+00 0. -1.
          1    1    5    5  503    0 -0.38943713255E+02  0.13098794728E+03 -0.89812449692E+02  0.16352593450E+03  0.00000000000E+00 0. -1.
         -2    1    5    5    0  503  0.92753055592E+00  0.32342056579E+03 -0.12752694723E+03  0.34765621663E+03  0.00000000000E+00 0.  1.
         -1    1    6    6    0  502  0.25350643638E+01 -0.37453575023E+03  0.21455480474E+02  0.37515835642E+03  0.00000000000E+00 0.  1.
<mgrwt>
<rscale>  0 0.21322136E+04</rscale>
<asrwt>0</asrwt>
<pdfrwt beam="1">  1        2 0.30379237E+00 0.21322136E+04</pdfrwt>
<pdfrwt beam="2">  1       -2 0.88551898E-01 0.21322136E+04</pdfrwt>
<totfact> 0.69588358E+00</totfact>
</mgrwt>
</event>
<event>
12    1  0.1489025E-007  0.1561020E+04  0.7818608E-02  0.8844859E-01
          1   -1    0    0  501    0  0.00000000000E+00  0.00000000000E+00  0.25705519067E+04  0.25705519067E+04  0.00000000000E+00 0.  1.
         -1   -1    0    0    0  501 -0.00000000000E+00 -0.00000000000E+00 -0.23699034237E+03  0.23699034237E+03  0.00000000000E+00 0. -1.
         23    2    1    2    0    0 -0.11347651280E+03  0.50484240038E+03  0.76976928008E+03  0.93202121968E+03  0.91520714576E+02 0.  0.
        254    2    1    2    0    0  0.11347651280E+03 -0.50484240038E+03  0.15637922843E+04  0.18755210294E+04  0.89687794891E+03 0.  0.
        -24    2    4    4    0    0 -0.29753880668E+03 -0.14765202493E+03  0.17856537869E+03  0.38501233211E+03  0.77578601824E+02 0.  0.
         24    2    4    4    0    0  0.41101531948E+03 -0.35719037545E+03  0.13852269056E+04  0.14905086973E+04  0.79019235869E+02 0.  0.
         13    1    3    3    0    0 -0.66727432860E+02  0.43920776030E+03  0.66753798499E+03  0.80184971684E+03  0.00000000000E+00 0. -1.
        -13    1    3    3    0    0 -0.46749079937E+02  0.65634640086E+02  0.10223129510E+03  0.13017150284E+03  0.00000000000E+00 0.  1.
          2    1    6    6  502    0  0.31893798711E+03 -0.30239674472E+03  0.11759378704E+04  0.12553864369E+04  0.00000000000E+00 0. -1.
          3    1    5    5  503    0 -0.20250036107E+03 -0.98424426387E+02  0.16041325193E+03  0.27645284469E+03  0.00000000000E+00 0. -1.
         -4    1    5    5    0  503 -0.95038445608E+02 -0.49227598544E+02  0.18152126764E+02  0.10855948742E+03  0.00000000000E+00 0.  1.
         -1    1    6    6    0  502  0.92077332363E+02 -0.54793630734E+02  0.20928903516E+03  0.23512226042E+03  0.00000000000E+00 0.  1.
<mgrwt>
<rscale>  0 0.15610201E+04</rscale>
<asrwt>0</asrwt>
<pdfrwt beam="1">  1        1 0.39546950E+00 0.15610201E+04</pdfrwt>
<pdfrwt beam="2">  1       -1 0.36460055E-01 0.15610201E+04</pdfrwt>
<totfact> 0.84176736E+00</totfact>
</mgrwt>
</event>
<event>
12    1  0.1489025E-007  0.1699748E+04  0.7818608E-02  0.8761508E-01
         -2   -1    0    0    0  501 -0.00000000000E+00  0.00000000000E+00  0.48206032939E+03  0.48206032939E+03  0.00000000000E+00 0.  1.
          2   -1    0    0  501    0  0.00000000000E+00 -0.00000000000E+00 -0.14983310250E+04  0.14983310250E+04  0.00000000000E+00 0. -1.
         23    2    1    2    0    0 -0.25008313925E+03  0.30741288322E+03  0.11632019813E+03  0.42279975246E+03  0.90470906257E+02 0.  0.
        254    2    1    2    0    0  0.25008313925E+03 -0.30741288322E+03 -0.11325908938E+04  0.15575916020E+04  0.99311892971E+03 0.  0.
        -24    2    4    4    0    0  0.10656195510E+03  0.23729358025E+02  0.16177458298E+03  0.21158898322E+03  0.81733404543E+02 0.  0.
         24    2    4    4    0    0  0.14352118415E+03 -0.33114224124E+03 -0.12943654768E+04  0.13460026187E+04  0.78022740406E+02 0.  0.
         13    1    3    3    0    0  0.17623234759E+01  0.36429345944E+02  0.12674220442E+02  0.38611382956E+02  0.00000000000E+00 0. -1.
        -13    1    3    3    0    0 -0.25184546272E+03  0.27098353728E+03  0.10364597769E+03  0.38418836950E+03  0.00000000000E+00 0.  1.
          4    1    6    6  502    0  0.32052679730E+02 -0.10122073657E+03 -0.51462686116E+03  0.52546533474E+03  0.00000000000E+00 0. -1.
          1    1    5    5  503    0 -0.70075618166E+01 -0.93312030273E-01 -0.48616761975E+01  0.85293918422E+01  0.00000000000E+00 0. -1.
         -2    1    5    5    0  503  0.11356951692E+03  0.23822670055E+02  0.16663625917E+03  0.20305959138E+03  0.00000000000E+00 0.  1.
         -3    1    6    6    0  502  0.11146850442E+03 -0.22992150467E+03 -0.77973861560E+03  0.82053728400E+03  0.00000000000E+00 0.  1.
<mgrwt>
<rscale>  0 0.16997482E+04</rscale>
<asrwt>0</asrwt>
<pdfrwt beam="1">  1        2 0.23051246E+00 0.16997482E+04</pdfrwt>
<pdfrwt beam="2">  1       -2 0.74163128E-01 0.16997482E+04</pdfrwt>
<totfact> 0.19815868E+01</totfact>
</mgrwt>
</event>
<event>
12    1  0.1489025E-007  0.1190354E+04  0.7818608E-02  0.9121341E-01
          1   -1    0    0  501    0  0.00000000000E+00  0.00000000000E+00  0.17739509362E+04  0.17739509362E+04  0.00000000000E+00 0. -1.
         -1   -1    0    0    0  501 -0.00000000000E+00 -0.00000000000E+00 -0.19968751872E+03  0.19968751872E+03  0.00000000000E+00 0.  1.
         23    2    1    2    0    0  0.21930534822E+03  0.32271636512E+02  0.48888058561E+03  0.54414882613E+03  0.89204392896E+02 0.  0.
        254    2    1    2    0    0 -0.21930534822E+03 -0.32271636512E+02  0.10853828318E+04  0.14294896288E+04  0.90346467158E+03 0.  0.
        -24    2    4    4    0    0  0.29215303267E+03  0.17251462811E+03  0.58486586952E+03  0.68084112825E+03  0.79761301205E+02 0.  0.
         24    2    4    4    0    0 -0.51145838089E+03 -0.20478626462E+03  0.50051696231E+03  0.74864850051E+03  0.80188890738E+02 0.  0.
         11    1    3    3    0    0  0.16664691144E+03  0.80346484239E+01  0.43129028172E+03  0.46243600181E+03  0.00000000000E+00 0. -1.
        -11    1    3    3    0    0  0.52658436782E+02  0.24236988088E+02  0.57590303893E+02  0.81712824320E+02  0.00000000000E+00 0.  1.
          4    1    6    6  502    0 -0.63803702796E+02 -0.55041718813E+02  0.86734799192E+02  0.12092736949E+03  0.00000000000E+00 0. -1.
          3    1    5    5  503    0  0.28559824417E+02 -0.71172011719E+01  0.54557209209E+02  0.61990379898E+02  0.00000000000E+00 0. -1.
         -4    1    5    5    0  503  0.26359320825E+03  0.17963182928E+03  0.53030866032E+03  0.61885074835E+03  0.00000000000E+00 0.  1.
         -3    1    6    6    0  502 -0.44765467809E+03 -0.14974454581E+03  0.41378216311E+03  0.62772113102E+03  0.00000000000E+00 0.  1.
<mgrwt>
<rscale>  0 0.11903543E+04</rscale>
<asrwt>0</asrwt>
<pdfrwt beam="1">  1        1 0.27291552E+00 0.11903543E+04</pdfrwt>
<pdfrwt beam="2">  1       -1 0.30721158E-01 0.11903543E+04</pdfrwt>
<totfact> 0.41157641E+01</totfact>
</mgrwt>
</event>
<event>
12    1  0.1489025E-007  0.1088937E+04  0.7818608E-02  0.9216043E-01
          1   -1    0    0  501    0  0.00000000000E+00  0.00000000000E+00  0.67142024362E+03  0.67142024362E+03  0.00000000000E+00 0. -1.
         -1   -1    0    0    0  501 -0.00000000000E+00 -0.00000000000E+00 -0.44152041056E+03  0.44152041056E+03  0.00000000000E+00 0.  1.
         23    2    1    2    0    0 -0.84157112495E+02 -0.59660323905E+02 -0.39397357438E+02  0.14358841092E+03  0.91780750409E+02 0.  0.
        254    2    1    2    0    0  0.84157112495E+02  0.59660323905E+02  0.26929719049E+03  0.96935224326E+03  0.92546259831E+03 0.  0.
        -24    2    4    4    0    0 -0.50108632978E+02  0.47383505469E+03  0.88535128651E+02  0.49115160952E+03  0.79755252980E+02 0.  0.
         24    2    4    4    0    0  0.13426574547E+03 -0.41417473079E+03  0.18076206184E+03  0.47820063373E+03  0.80205517712E+02 0.  0.
         11    1    3    3    0    0 -0.37370555254E+02  0.21962918445E+02 -0.18964345557E+02  0.47313577217E+02  0.00000000000E+00 0.  1.
        -11    1    3    3    0    0 -0.46786557241E+02 -0.81623242350E+02 -0.20433011881E+02  0.96274833704E+02  0.00000000000E+00 0. -1.
          2    1    6    6  502    0  0.10386652890E+03 -0.38456841434E+03  0.17601309140E+03  0.43550169860E+03  0.00000000000E+00 0. -1.
          3    1    5    5  503    0 -0.38489754037E+02  0.14210798454E+03  0.56430050413E+02  0.15767209970E+03  0.00000000000E+00 0. -1.
         -2    1    5    5    0  503 -0.11618878941E+02  0.33172707015E+03  0.32105078238E+02  0.33347950982E+03  0.00000000000E+00 0.  1.
         -1    1    6    6    0  502  0.30399216569E+02 -0.29606316444E+02  0.47489704380E+01  0.42698935134E+02  0.00000000000E+00 0.  1.
<mgrwt>
<rscale>  0 0.10889366E+04</rscale>
<asrwt>0</asrwt>
<pdfrwt beam="1">  1        1 0.10329542E+00 0.10889366E+04</pdfrwt>
<pdfrwt beam="2">  1       -1 0.67926217E-01 0.10889366E+04</pdfrwt>
<totfact> 0.63518576E+01</totfact>
</mgrwt>
</event>
<event>
12    1  0.1489025E-007  0.1060321E+04  0.7818608E-02  0.9244753E-01
         -2   -1    0    0    0  501 -0.00000000000E+00  0.00000000000E+00  0.34221524008E+03  0.34221524008E+03  0.00000000000E+00 0.  1.
          2   -1    0    0  501    0  0.00000000000E+00 -0.00000000000E+00 -0.82132521567E+03  0.82132521567E+03  0.00000000000E+00 0. -1.
         23    2    1    2    0    0  0.76359310813E+02  0.95871191413E+02 -0.10290211734E+03  0.18323416927E+03  0.89240603681E+02 0.  0.
        254    2    1    2    0    0 -0.76359310813E+02 -0.95871191413E+02 -0.37620785824E+03  0.98030628647E+03  0.89690915538E+03 0.  0.
        -24    2    4    4    0    0  0.15112866958E+03  0.14824550500E+03  0.20563714629E+03  0.30487504332E+03  0.76456206957E+02 0.  0.
         24    2    4    4    0    0 -0.22748798040E+03 -0.24411669642E+03 -0.58184500453E+03  0.67543124315E+03  0.79498504624E+02 0.  0.
         13    1    3    3    0    0 -0.10489222296E+02 -0.28793857055E+01  0.60591017846E+01  0.12450998388E+02  0.00000000000E+00 0. -1.
        -13    1    3    3    0    0  0.86848533110E+02  0.98750577119E+02 -0.10896121913E+03  0.17078317089E+03  0.00000000000E+00 0.  1.
          4    1    6    6  502    0 -0.56467644129E+02 -0.65592287180E+02 -0.22714810027E+03  0.24307859311E+03  0.00000000000E+00 0. -1.
          3    1    5    5  503    0  0.13430114026E+03  0.10060522972E+03  0.18641755841E+03  0.25081809067E+03  0.00000000000E+00 0. -1.
         -4    1    5    5    0  503  0.16827529324E+02  0.47640275280E+02  0.19219587878E+02  0.54056952653E+02  0.00000000000E+00 0.  1.
         -3    1    6    6    0  502 -0.17102033627E+03 -0.17852440924E+03 -0.35469690426E+03  0.43235265005E+03  0.00000000000E+00 0.  1.
<mgrwt>
<rscale>  0 0.10603207E+04</rscale>
<asrwt>0</asrwt>
<pdfrwt beam="1">  1        2 0.12635772E+00 0.10603207E+04</pdfrwt>
<pdfrwt beam="2">  1       -2 0.52648499E-01 0.10603207E+04</pdfrwt>
<totfact> 0.11264147E+02</totfact>
</mgrwt>
</event>
<event>
12    1  0.1489025E-007  0.2437005E+04  0.7818608E-02  0.8425778E-01
         -2   -1    0    0    0  501 -0.00000000000E+00  0.00000000000E+00  0.81429899134E+03  0.81429899134E+03  0.00000000000E+00 0.  1.
          2   -1    0    0  501    0  0.00000000000E+00 -0.00000000000E+00 -0.18233461265E+04  0.18233461265E+04  0.00000000000E+00 0. -1.
         23    2    1    2    0    0 -0.10232846836E+04 -0.11357277696E+03 -0.65852659039E+03  0.12255195326E+04  0.90722296942E+02 0.  0.
        254    2    1    2    0    0  0.10232846836E+04  0.11357277696E+03 -0.35052054482E+03  0.14121255853E+04  0.90067957507E+03 0.  0.
        -24    2    4    4    0    0  0.83958285721E+03  0.19089159052E+01 -0.62817980859E+03  0.10516038004E+04  0.79734954263E+02 0.  0.
         24    2    4    4    0    0  0.18370182638E+03  0.11166386106E+03  0.27765926377E+03  0.36052178493E+03  0.81646259986E+02 0.  0.
         11    1    3    3    0    0 -0.65666354520E+03 -0.34528038754E+02 -0.44433487164E+03  0.79361998161E+03  0.00000000000E+00 0.  1.
        -11    1    3    3    0    0 -0.36662113839E+03 -0.79044738206E+02 -0.21419171875E+03  0.43189955098E+03  0.00000000000E+00 0. -1.
          2    1    6    6  502    0  0.32953387353E+02  0.13521107875E+02  0.82213806745E+01  0.36555946116E+02  0.00000000000E+00 0. -1.
          3    1    5    5  503    0  0.26103604780E+03  0.83132701918E+01 -0.15134561878E+03  0.30185166065E+03  0.00000000000E+00 0. -1.
         -4    1    5    5    0  503  0.57854680942E+03 -0.64043542866E+01 -0.47683418980E+03  0.74975213971E+03  0.00000000000E+00 0.  1.
         -1    1    6    6    0  502  0.15074843903E+03  0.98142753180E+02  0.26943788310E+03  0.32396583881E+03  0.00000000000E+00 0.  1.
<mgrwt>
<rscale>  0 0.24370055E+04</rscale>
<asrwt>0</asrwt>
<pdfrwt beam="1">  1        2 0.28051479E+00 0.24370055E+04</pdfrwt>
<pdfrwt beam="2">  1       -2 0.12527677E+00 0.24370055E+04</pdfrwt>
<totfact> 0.35804575E+00</totfact>
</mgrwt>
</event>
<event>
12    1  0.1489025E-007  0.1605047E+04  0.7818608E-02  0.8817454E-01
         -1   -1    0    0    0  501 -0.00000000000E+00  0.00000000000E+00  0.68060683186E+03  0.68060683186E+03  0.00000000000E+00 0.  1.
          1   -1    0    0  501    0  0.00000000000E+00 -0.00000000000E+00 -0.94627862010E+03  0.94627862010E+03  0.00000000000E+00 0. -1.
         23    2    1    2    0    0  0.38499118449E+03  0.16038110740E+03  0.27153611703E+03  0.50569610542E+03  0.89757319729E+02 0.  0.
        254    2    1    2    0    0 -0.38499118449E+03 -0.16038110740E+03 -0.53720790526E+03  0.11211893465E+04  0.89136575297E+03 0.  0.
        -24    2    4    4    0    0 -0.54191870997E+03  0.39022008929E+02 -0.31974446299E+02  0.55045860912E+03  0.82363279062E+02 0.  0.
         24    2    4    4    0    0  0.15692752548E+03 -0.19940311633E+03 -0.50523345897E+03  0.57073073742E+03  0.78005612144E+02 0.  0.
         13    1    3    3    0    0  0.34995572069E+03  0.11670510762E+03  0.25035185896E+03  0.44583084446E+03  0.00000000000E+00 0.  1.
        -13    1    3    3    0    0  0.35035463806E+02  0.43675999777E+02  0.21184258062E+02  0.59865260963E+02  0.00000000000E+00 0. -1.
          4    1    6    6  502    0  0.14105920748E+03 -0.12685118489E+03 -0.33464047694E+03  0.38467281153E+03  0.00000000000E+00 0. -1.
          3    1    5    5  503    0 -0.51351081076E+03  0.17672974359E+02 -0.33352136990E+02  0.51489615636E+03  0.00000000000E+00 0. -1.
         -4    1    5    5    0  503 -0.28407899211E+02  0.21349034570E+02  0.13776906914E+01  0.35562452760E+02  0.00000000000E+00 0.  1.
         -3    1    6    6    0  502  0.15868318000E+02 -0.72551931439E+02 -0.17059298203E+03  0.18605792590E+03  0.00000000000E+00 0.  1.
<mgrwt>
<rscale>  0 0.16050467E+04</rscale>
<asrwt>0</asrwt>
<pdfrwt beam="1">  1        1 0.14558133E+00 0.16050467E+04</pdfrwt>
<pdfrwt beam="2">  1       -1 0.10470874E+00 0.16050467E+04</pdfrwt>
<totfact> 0.13719836E+01</totfact>
</mgrwt>
</event>
<event>
12    1  0.1489025E-007  0.3740127E+04  0.7818608E-02  0.8059127E-01
         -1   -1    0    0    0  501 -0.00000000000E+00  0.00000000000E+00  0.15876002979E+04  0.15876002979E+04  0.00000000000E+00 0.  1.
          1   -1    0    0  501    0  0.00000000000E+00 -0.00000000000E+00 -0.22027824131E+04  0.22027824131E+04  0.00000000000E+00 0. -1.
         23    2    1    2    0    0  0.57816034716E+03 -0.15101526270E+04  0.39275952406E+03  0.16675454737E+04  0.10778459720E+03 0.  0.
        254    2    1    2    0    0 -0.57816034716E+03  0.15101526270E+04 -0.10079416393E+04  0.21228372372E+04  0.93576772958E+03 0.  0.
        -24    2    4    4    0    0 -0.52057735741E+01  0.19784790905E+02  0.13458994348E+03  0.15796437644E+03  0.80123363065E+02 0.  0.
         24    2    4    4    0    0 -0.57295457358E+03  0.14903678361E+04 -0.11425315827E+04  0.19648728608E+04  0.76640141192E+02 0.  0.
         13    1    3    3    0    0  0.46733751992E+03 -0.11761129183E+04  0.26411504935E+03  0.12928274105E+04  0.00000000000E+00 0. -1.
        -13    1    3    3    0    0  0.11082282723E+03 -0.33403970872E+03  0.12864447471E+03  0.37471806323E+03  0.00000000000E+00 0.  1.
          2    1    6    6  502    0 -0.35190174243E+03  0.89023636298E+03 -0.63987236781E+03  0.11514305300E+04  0.00000000000E+00 0. -1.
          1    1    5    5  503    0 -0.28421284167E+02  0.28013693692E+02  0.12552931916E+03  0.13171995444E+03  0.00000000000E+00 0. -1.
         -2    1    5    5    0  503  0.23215510592E+02 -0.82289027869E+01  0.90606243147E+01  0.26244422000E+02  0.00000000000E+00 0.  1.
         -3    1    6    6    0  502 -0.22105283116E+03  0.60013147308E+03 -0.50265921492E+03  0.81344233077E+03  0.00000000000E+00 0.  1.
<mgrwt>
<rscale>  0 0.37401273E+04</rscale>
<asrwt>0</asrwt>
<pdfrwt beam="1">  1        1 0.33888960E+00 0.37401273E+04</pdfrwt>
<pdfrwt beam="2">  1       -1 0.24424620E+00 0.37401273E+04</pdfrwt>
<totfact> 0.13188882E-01</totfact>
</mgrwt>
</event>
<event>
12    1  0.1489025E-007  0.2350752E+04  0.7818608E-02  0.8458175E-01
          2   -1    0    0  501    0  0.00000000000E+00  0.00000000000E+00  0.21373245867E+04  0.21373245867E+04  0.00000000000E+00 0.  1.
         -2   -1    0    0    0  501 -0.00000000000E+00 -0.00000000000E+00 -0.64637305785E+03  0.64637305785E+03  0.00000000000E+00 0. -1.
         23    2    1    2    0    0 -0.90780234798E+03  0.16729939490E+03  0.17477919254E+03  0.94399780464E+03  0.92140645149E+02 0.  0.
        254    2    1    2    0    0  0.90780234798E+03 -0.16729939490E+03  0.13161723363E+04  0.18396998399E+04  0.89447844670E+03 0.  0.
        -24    2    4    4    0    0  0.20194222232E+03 -0.23636985870E+03 -0.20677786954E+02  0.32419864076E+03  0.89586921693E+02 0.  0.
         24    2    4    4    0    0  0.70586012566E+03  0.69070463802E+02  0.13368501233E+04  0.15155011992E+04  0.81033243954E+02 0.  0.
         13    1    3    3    0    0 -0.11994942456E+03  0.42263407886E+02 -0.84804442477E+00  0.12718010567E+03  0.00000000000E+00 0.  1.
        -13    1    3    3    0    0 -0.78785292342E+03  0.12503598701E+03  0.17562723696E+03  0.81681769897E+03  0.00000000000E+00 0. -1.
          2    1    6    6  502    0  0.29512648677E+01  0.10877058489E+01 -0.46584241624E+00  0.31796348045E+01  0.00000000000E+00 0. -1.
          1    1    5    5  503    0  0.42317557248E+02 -0.33413070199E+02 -0.37130674302E+02  0.65466754048E+02  0.00000000000E+00 0. -1.
         -2    1    5    5    0  503  0.15962466508E+03 -0.20295678850E+03  0.16452887347E+02  0.25873188671E+03  0.00000000000E+00 0.  1.
         -1    1    6    6    0  502  0.70290886079E+03  0.67982757953E+02  0.13373159657E+04  0.15123215644E+04  0.00000000000E+00 0.  1.
<mgrwt>
<rscale>  0 0.23507522E+04</rscale>
<asrwt>0</asrwt>
<pdfrwt beam="1">  1        2 0.32881916E+00 0.23507522E+04</pdfrwt>
<pdfrwt beam="2">  1       -2 0.99442010E-01 0.23507522E+04</pdfrwt>
<totfact> 0.42314717E+00</totfact>
</mgrwt>
</event>
<event>
12    1  0.1489025E-007  0.1029225E+04  0.7818608E-02  0.9277060E-01
         -2   -1    0    0    0  501 -0.00000000000E+00  0.00000000000E+00  0.25141620237E+03  0.25141620237E+03  0.00000000000E+00 0. -1.
          2   -1    0    0  501    0  0.00000000000E+00 -0.00000000000E+00 -0.10533370144E+04  0.10533370144E+04  0.00000000000E+00 0.  1.
         23    2    1    2    0    0  0.21114338584E+02 -0.77344047732E+00  0.12142960219E+02  0.90479730303E+02  0.87136195744E+02 0.  0.
        254    2    1    2    0    0 -0.21114338584E+02  0.77344047732E+00 -0.81406377228E+03  0.12142734865E+04  0.90072962712E+03 0.  0.
        -24    2    4    4    0    0 -0.13163011460E+03  0.32762833438E+02  0.16337391428E+03  0.22685251277E+03  0.79819398376E+02 0.  0.
         24    2    4    4    0    0  0.11051577602E+03 -0.31989392961E+02 -0.97743768656E+03  0.98742097373E+03  0.79866702934E+02 0.  0.
         13    1    3    3    0    0 -0.22457330657E+02  0.10408314126E+02 -0.22696263495E+02  0.33582511517E+02  0.00000000000E+00 0.  1.
        -13    1    3    3    0    0  0.43571669241E+02 -0.11181754603E+02  0.34839223714E+02  0.56897218785E+02  0.00000000000E+00 0. -1.
          4    1    6    6  502    0 -0.12201788853E+02 -0.86643108496E+01 -0.90189191506E+02  0.91422339711E+02  0.00000000000E+00 0. -1.
          1    1    5    5  503    0 -0.77153876114E+01 -0.11159334983E+02  0.54476099619E+02  0.56140033781E+02  0.00000000000E+00 0. -1.
         -2    1    5    5    0  503 -0.12391472699E+03  0.43922168421E+02  0.10889781466E+03  0.17071247899E+03  0.00000000000E+00 0.  1.
         -3    1    6    6    0  502  0.12271756487E+03 -0.23325082111E+02 -0.88724849506E+03  0.89599863402E+03  0.00000000000E+00 0.  1.
<mgrwt>
<rscale>  0 0.10292249E+04</rscale>
<asrwt>0</asrwt>
<pdfrwt beam="1">  1        2 0.16205184E+00 0.10292249E+04</pdfrwt>
<pdfrwt beam="2">  1       -2 0.38679417E-01 0.10292249E+04</pdfrwt>
<totfact> 0.14651478E+02</totfact>
</mgrwt>
</event>
<event>
12    1  0.1489025E-007  0.1787947E+04  0.7818608E-02  0.8712735E-01
          1   -1    0    0  501    0  0.00000000000E+00  0.00000000000E+00  0.15548162497E+04  0.15548162497E+04  0.00000000000E+00 0.  1.
         -1   -1    0    0    0  501 -0.00000000000E+00 -0.00000000000E+00 -0.51400857431E+03  0.51400857431E+03  0.00000000000E+00 0. -1.
         23    2    1    2    0    0 -0.12482134799E+03 -0.61269069477E+03  0.63837308467E+03  0.89857478093E+03  0.94584276260E+02 0.  0.
        254    2    1    2    0    0  0.12482134799E+03  0.61269069477E+03  0.40243459073E+03  0.11702500431E+04  0.90363781859E+03 0.  0.
        -24    2    4    4    0    0 -0.11116928268E+03  0.16163768194E+03 -0.25689403630E+03  0.33322715853E+03  0.80996565739E+02 0.  0.
         24    2    4    4    0    0  0.23599063067E+03  0.45105301283E+03  0.65932862703E+03  0.83702288457E+03  0.82174647679E+02 0.  0.
         11    1    3    3    0    0 -0.99161596452E+02 -0.35741814019E+03  0.32149257804E+03  0.49085458833E+03  0.00000000000E+00 0. -1.
        -11    1    3    3    0    0 -0.25659751537E+02 -0.25527255458E+03  0.31688050663E+03  0.40772019260E+03  0.00000000000E+00 0.  1.
          4    1    6    6  502    0  0.10045769660E+02  0.40946355354E+01  0.26630959277E+01  0.11170300271E+02  0.00000000000E+00 0. -1.
          3    1    5    5  503    0 -0.40706596499E+02  0.73984827027E+02 -0.51081795145E+02  0.98692104162E+02  0.00000000000E+00 0. -1.
         -4    1    5    5    0  503 -0.70462686184E+02  0.87652854911E+02 -0.20581224116E+03  0.23453505437E+03  0.00000000000E+00 0.  1.
         -3    1    6    6    0  502  0.22594486101E+03  0.44695837730E+03  0.65666553110E+03  0.82585258430E+03  0.00000000000E+00 0.  1.
<mgrwt>
<rscale>  0 0.17879473E+04</rscale>
<asrwt>0</asrwt>
<pdfrwt beam="1">  1        1 0.23920250E+00 0.17879473E+04</pdfrwt>
<pdfrwt beam="2">  1       -1 0.79078243E-01 0.17879473E+04</pdfrwt>
<totfact> 0.90528454E+00</totfact>
</mgrwt>
</event>
<event>
12    1  0.1489025E-007  0.1354767E+04  0.7818608E-02  0.8987227E-01
         -1   -1    0    0    0  501 -0.00000000000E+00  0.00000000000E+00  0.32412130724E+03  0.32412130724E+03  0.00000000000E+00 0.  1.
          1   -1    0    0  501    0  0.00000000000E+00 -0.00000000000E+00 -0.14156690563E+04  0.14156690563E+04  0.00000000000E+00 0. -1.
         23    2    1    2    0    0 -0.80092428858E+02 -0.20477396146E+03  0.71291646673E+02  0.24685349631E+03  0.86642814481E+02 0.  0.
        254    2    1    2    0    0  0.80092428858E+02  0.20477396146E+03 -0.11628393957E+04  0.14929368673E+04  0.91011969370E+03 0.  0.
        -24    2    4    4    0    0 -0.73127194798E+01  0.38931986177E+03 -0.10344403662E+03  0.41115987358E+03  0.82026473134E+02 0.  0.
         24    2    4    4    0    0  0.87405148337E+02 -0.18454590031E+03 -0.10593953591E+04  0.10817769937E+04  0.78905562852E+02 0.  0.
         13    1    3    3    0    0  0.16704664053E+02 -0.35502944321E+02  0.24724997801E+02  0.46377045753E+02  0.00000000000E+00 0. -1.
        -13    1    3    3    0    0 -0.96797092911E+02 -0.16927101714E+03  0.46566648872E+02  0.20047645055E+03  0.00000000000E+00 0.  1.
          2    1    6    6  502    0  0.26049952092E+02 -0.41638457296E+02 -0.12111698733E+03  0.13069692326E+03  0.00000000000E+00 0. -1.
          1    1    5    5  503    0  0.16389096206E+02  0.15199346166E+03 -0.44911836029E+01  0.15294046420E+03  0.00000000000E+00 0. -1.
         -2    1    5    5    0  503 -0.23701815686E+02  0.23732640011E+03 -0.98952853020E+02  0.25821940937E+03  0.00000000000E+00 0.  1.
         -1    1    6    6    0  502  0.61355196245E+02 -0.14290744301E+03 -0.93827837180E+03  0.95108007042E+03  0.00000000000E+00 0.  1.
<mgrwt>
<rscale>  0 0.13547671E+04</rscale>
<asrwt>0</asrwt>
<pdfrwt beam="1">  1        1 0.21779524E+00 0.13547671E+04</pdfrwt>
<pdfrwt beam="2">  1       -1 0.49864817E-01 0.13547671E+04</pdfrwt>
<totfact> 0.29567200E+01</totfact>
</mgrwt>
</event>
<event>
12    1  0.1489025E-007  0.2213045E+04  0.7818608E-02  0.8513018E-01
          2   -1    0    0  501    0  0.00000000000E+00  0.00000000000E+00  0.89799527422E+03  0.89799527422E+03  0.00000000000E+00 0. -1.
         -2   -1    0    0    0  501 -0.00000000000E+00 -0.00000000000E+00 -0.13634728225E+04  0.13634728225E+04  0.00000000000E+00 0.  1.
         23    2    1    2    0    0  0.22641009036E+03  0.72791369778E+03 -0.72492253782E+03  0.10558508624E+04  0.90490205779E+02 0.  0.
        254    2    1    2    0    0 -0.22641009036E+03 -0.72791369778E+03  0.25944498955E+03  0.12056172343E+04  0.89726324601E+03 0.  0.
        -24    2    4    4    0    0  0.66369605478E+02  0.99260883229E+02 -0.17294081892E+03  0.22419598803E+03  0.78087558099E+02 0.  0.
         24    2    4    4    0    0 -0.29277969584E+03 -0.82717458101E+03  0.43238580847E+03  0.98142124628E+03  0.79324885946E+02 0.  0.
         13    1    3    3    0    0 -0.45082640785E+01  0.28988423696E+02 -0.45482195634E+02  0.54122853520E+02  0.00000000000E+00 0. -1.
        -13    1    3    3    0    0  0.23091835444E+03  0.69892527408E+03 -0.67944034219E+03  0.10017280089E+04  0.00000000000E+00 0.  1.
          2    1    6    6  502    0 -0.11074917738E+02 -0.81540290683E+02  0.23444561011E+02  0.85563545092E+02  0.00000000000E+00 0. -1.
          1    1    5    5  503    0  0.70703389394E+02  0.45499403060E+02 -0.76374521232E+02  0.11358799428E+03  0.00000000000E+00 0. -1.
         -2    1    5    5    0  503 -0.43337839159E+01  0.53761480169E+02 -0.96566297688E+02  0.11060799375E+03  0.00000000000E+00 0.  1.
         -1    1    6    6    0  502 -0.28170477810E+03 -0.74563429032E+03  0.40894124745E+03  0.89585770119E+03  0.00000000000E+00 0.  1.
<mgrwt>
<rscale>  0 0.22130451E+04</rscale>
<asrwt>0</asrwt>
<pdfrwt beam="1">  1        2 0.13815312E+00 0.22130451E+04</pdfrwt>
<pdfrwt beam="2">  1       -2 0.20976505E+00 0.22130451E+04</pdfrwt>
<totfact> 0.30849914E+00</totfact>
</mgrwt>
</event>
<event>
12    1  0.1489025E-007  0.2028369E+04  0.7818608E-02  0.8593471E-01
          2   -1    0    0  501    0  0.00000000000E+00  0.00000000000E+00  0.21014273800E+04  0.21014273800E+04  0.00000000000E+00 0. -1.
         -2   -1    0    0    0  501 -0.00000000000E+00 -0.00000000000E+00 -0.48946249645E+03  0.48946249645E+03  0.00000000000E+00 0.  1.
         23    2    1    2    0    0 -0.52458883093E+03  0.61723780638E+03  0.58836165881E+03  0.10053519639E+04  0.91581540727E+02 0.  0.
        254    2    1    2    0    0  0.52458883093E+03 -0.61723780638E+03  0.10236032247E+04  0.15855379126E+04  0.89999497737E+03 0.  0.
        -24    2    4    4    0    0 -0.24612551493E+03 -0.12899944873E+03  0.18273594788E+03  0.34214036102E+03  0.80305498690E+02 0.  0.
         24    2    4    4    0    0  0.77071434586E+03 -0.48823835765E+03  0.84086727686E+03  0.12433975515E+04  0.81255135632E+02 0.  0.
         11    1    3    3    0    0 -0.52831140429E+03  0.60942139450E+03  0.58161006973E+03  0.99437299299E+03  0.00000000000E+00 0.  1.
        -11    1    3    3    0    0  0.37225733632E+01  0.78164118811E+01  0.67515890867E+01  0.10978970914E+02  0.00000000000E+00 0. -1.
          4    1    6    6  502    0  0.54773135243E+03 -0.36025449951E+03  0.55542478271E+03  0.85923781812E+03  0.00000000000E+00 0. -1.
          3    1    5    5  503    0 -0.18606339166E+02  0.39968379852E+00  0.39744498502E+02  0.43885997374E+02  0.00000000000E+00 0. -1.
         -4    1    5    5    0  503 -0.22751917577E+03 -0.12939913252E+03  0.14299144938E+03  0.29825436365E+03  0.00000000000E+00 0.  1.
         -3    1    6    6    0  502  0.22298299343E+03 -0.12798385815E+03  0.28544249415E+03  0.38415973341E+03  0.00000000000E+00 0.  1.
<mgrwt>
<rscale>  0 0.20283687E+04</rscale>
<asrwt>0</asrwt>
<pdfrwt beam="1">  1        2 0.32329651E+00 0.20283687E+04</pdfrwt>
<pdfrwt beam="2">  1       -2 0.75301924E-01 0.20283687E+04</pdfrwt>
<totfact> 0.86034380E+00</totfact>
</mgrwt>
</event>
<event>
12    1  0.1489025E-007  0.1496003E+04  0.7818608E-02  0.8887115E-01
         -1   -1    0    0    0  501 -0.00000000000E+00  0.00000000000E+00  0.93916785966E+03  0.93916785966E+03  0.00000000000E+00 0.  1.
          1   -1    0    0  501    0  0.00000000000E+00 -0.00000000000E+00 -0.59574672083E+03  0.59574672083E+03  0.00000000000E+00 0. -1.
         23    2    1    2    0    0 -0.45311284297E+03 -0.97009409995E+02  0.21486841796E+03  0.51828117796E+03  0.87891229940E+02 0.  0.
        254    2    1    2    0    0  0.45311284297E+03  0.97009409995E+02  0.12855272087E+03  0.10166334025E+04  0.89570955058E+03 0.  0.
        -24    2    4    4    0    0 -0.85127817799E+02 -0.29859738468E+03  0.12435977768E+03  0.34345749979E+03  0.78042016619E+02 0.  0.
         24    2    4    4    0    0  0.53824066077E+03  0.39560679468E+03  0.41929431916E+01  0.67317590274E+03  0.83309485364E+02 0.  0.
         13    1    3    3    0    0 -0.19099189713E+03 -0.47958885086E+02  0.13896922472E+03  0.24101951135E+03  0.00000000000E+00 0. -1.
        -13    1    3    3    0    0 -0.26212094584E+03 -0.49050524909E+02  0.75899193237E+02  0.27726166662E+03  0.00000000000E+00 0.  1.
          2    1    6    6  502    0  0.48161903670E+03  0.36364553404E+03 -0.19958972771E+02  0.60381564366E+03  0.00000000000E+00 0. -1.
          3    1    5    5  503    0 -0.79937179377E+02 -0.26484745315E+03  0.13481140070E+03  0.30774703873E+03  0.00000000000E+00 0. -1.
         -4    1    5    5    0  503 -0.51906384220E+01 -0.33749931529E+02 -0.10451623024E+02  0.35710461062E+02  0.00000000000E+00 0.  1.
         -1    1    6    6    0  502  0.56621624075E+02  0.31961260632E+02  0.24151915963E+02  0.69360259073E+02  0.00000000000E+00 0.  1.
<mgrwt>
<rscale>  0 0.14960029E+04</rscale>
<asrwt>0</asrwt>
<pdfrwt beam="1">  1        1 0.91653342E-01 0.14960029E+04</pdfrwt>
<pdfrwt beam="2">  1       -1 0.14448736E+00 0.14960029E+04</pdfrwt>
<totfact> 0.12916120E+01</totfact>
</mgrwt>
</event>
<event>
12    1  0.1489025E-007  0.1470082E+04  0.7818608E-02  0.8904595E-01
          1   -1    0    0  501    0  0.00000000000E+00  0.00000000000E+00  0.55885797297E+03  0.55885797297E+03  0.00000000000E+00 0. -1.
         -1   -1    0    0    0  501 -0.00000000000E+00 -0.00000000000E+00 -0.96676700752E+03  0.96676700752E+03  0.00000000000E+00 0.  1.
         23    2    1    2    0    0  0.13124232634E+03 -0.33231614953E+03  0.16046026597E+03  0.40228270414E+03  0.91789463610E+02 0.  0.
        254    2    1    2    0    0 -0.13124232634E+03  0.33231614953E+03 -0.56836930053E+03  0.11233422764E+04  0.90066399761E+03 0.  0.
        -24    2    4    4    0    0 -0.26070187302E+03 -0.17205265019E+03  0.32438348141E+02  0.32438184921E+03  0.81263501242E+02 0.  0.
         24    2    4    4    0    0  0.12945954668E+03  0.50436879972E+03 -0.60080764867E+03  0.79896042715E+03  0.78868707906E+02 0.  0.
         11    1    3    3    0    0  0.10329362942E+03 -0.20525303792E+03  0.58825487911E+02  0.23718942110E+03  0.00000000000E+00 0.  1.
        -11    1    3    3    0    0  0.27948696915E+02 -0.12706311161E+03  0.10163477806E+03  0.16509328303E+03  0.00000000000E+00 0. -1.
          4    1    6    6  502    0  0.34809577584E+02  0.74300966481E+02 -0.60569140945E+02  0.10198510257E+03  0.00000000000E+00 0. -1.
          1    1    5    5  503    0 -0.50990644824E+02 -0.74072987352E+02  0.22493102548E+02  0.92697319148E+02  0.00000000000E+00 0. -1.
         -2    1    5    5    0  503 -0.20971122819E+03 -0.97979662836E+02  0.99452455925E+01  0.23168453006E+03  0.00000000000E+00 0.  1.
         -3    1    6    6    0  502  0.94649969092E+02  0.43006783324E+03 -0.54023850773E+03  0.69697532457E+03  0.00000000000E+00 0.  1.
<mgrwt>
<rscale>  0 0.14700822E+04</rscale>
<asrwt>0</asrwt>
<pdfrwt beam="1">  1        1 0.85978151E-01 0.14700822E+04</pdfrwt>
<pdfrwt beam="2">  1       -1 0.14873338E+00 0.14700822E+04</pdfrwt>
<totfact> 0.13127482E+01</totfact>
</mgrwt>
</event>
<event>
12    1  0.1489025E-007  0.1361036E+04  0.7818608E-02  0.8982516E-01
         -1   -1    0    0    0  501 -0.00000000000E+00  0.00000000000E+00  0.47903638439E+03  0.47903638439E+03  0.00000000000E+00 0.  1.
          1   -1    0    0  501    0  0.00000000000E+00 -0.00000000000E+00 -0.96674168902E+03  0.96674168902E+03  0.00000000000E+00 0. -1.
         23    2    1    2    0    0  0.36917417500E+03 -0.45199859995E+02 -0.20537815927E+03  0.43466083548E+03  0.91745598066E+02 0.  0.
        254    2    1    2    0    0 -0.36917417500E+03  0.45199859995E+02 -0.28232714536E+03  0.10111172379E+04  0.89683713849E+03 0.  0.
        -24    2    4    4    0    0 -0.17376602903E+03 -0.39716942060E+03  0.90236793261E+01  0.44088356829E+03  0.79741535568E+02 0.  0.
         24    2    4    4    0    0 -0.19540814598E+03  0.44236928059E+03 -0.29135082469E+03  0.57023366963E+03  0.80038809363E+02 0.  0.
         11    1    3    3    0    0  0.26669816667E+03 -0.26099547715E+02 -0.19179954362E+03  0.32953932001E+03  0.00000000000E+00 0. -1.
        -11    1    3    3    0    0  0.10247600833E+03 -0.19100312281E+02 -0.13578615646E+02  0.10512151548E+03  0.00000000000E+00 0.  1.
          4    1    6    6  502    0 -0.50352224426E+02  0.61154469524E+02 -0.72326356289E+02  0.10726750422E+03  0.00000000000E+00 0. -1.
          1    1    5    5  503    0 -0.23741527977E+02 -0.21709076862E+02 -0.15714683009E+02  0.35803567294E+02  0.00000000000E+00 0. -1.
         -2    1    5    5    0  503 -0.15002450105E+03 -0.37546034374E+03  0.24738362335E+02  0.40508000099E+03  0.00000000000E+00 0.  1.
         -3    1    6    6    0  502 -0.14505592155E+03  0.38121481107E+03 -0.21902446840E+03  0.46296616541E+03  0.00000000000E+00 0.  1.
<mgrwt>
<rscale>  0 0.13610356E+04</rscale>
<asrwt>0</asrwt>
<pdfrwt beam="1">  1        1 0.14872949E+00 0.13610356E+04</pdfrwt>
<pdfrwt beam="2">  1       -1 0.73697905E-01 0.13610356E+04</pdfrwt>
<totfact> 0.29159110E+01</totfact>
</mgrwt>
</event>
<event>
12    1  0.1489025E-007  0.1263502E+04  0.7818608E-02  0.9059020E-01
         -1   -1    0    0    0  501 -0.00000000000E+00  0.00000000000E+00  0.24135155440E+04  0.24135155440E+04  0.00000000000E+00 0.  1.
          1   -1    0    0  501    0  0.00000000000E+00 -0.00000000000E+00 -0.16536421748E+03  0.16536421748E+03  0.00000000000E+00 0. -1.
         23    2    1    2    0    0 -0.24910779831E+03 -0.26363448967E+02  0.24301546159E+03  0.36292763076E+03  0.99550107859E+02 0.  0.
        254    2    1    2    0    0  0.24910779831E+03  0.26363448967E+02  0.20051358649E+04  0.22159521307E+04  0.90946373331E+03 0.  0.
        -24    2    4    4    0    0 -0.32974333212E+03  0.96444879549E+02  0.82120523059E+03  0.89363575304E+03  0.78578295323E+02 0.  0.
         24    2    4    4    0    0  0.57885113043E+03 -0.70081430581E+02  0.11839306343E+04  0.13223163777E+04  0.82757583655E+02 0.  0.
         11    1    3    3    0    0 -0.19527981115E+03  0.10609160697E+02  0.13833405111E+03  0.23954763332E+03  0.00000000000E+00 0. -1.
        -11    1    3    3    0    0 -0.53827987166E+02 -0.36972609665E+02  0.10468141049E+03  0.12337999744E+03  0.00000000000E+00 0.  1.
          2    1    6    6  502    0  0.36345782652E+03 -0.31410756303E+02  0.65186750848E+03  0.74700701194E+03  0.00000000000E+00 0. -1.
          1    1    5    5  503    0 -0.10619323236E+03 -0.90957224151E-01  0.30302141026E+03  0.32109030809E+03  0.00000000000E+00 0. -1.
         -2    1    5    5    0  503 -0.22355009976E+03  0.96535836773E+02  0.51818382033E+03  0.57254544495E+03  0.00000000000E+00 0.  1.
         -1    1    6    6    0  502  0.21539330391E+03 -0.38670674278E+02  0.53206312585E+03  0.57530936574E+03  0.00000000000E+00 0.  1.
<mgrwt>
<rscale>  0 0.12635017E+04</rscale>
<asrwt>0</asrwt>
<pdfrwt beam="1">  1        1 0.25440651E-01 0.12635017E+04</pdfrwt>
<pdfrwt beam="2">  1       -1 0.37131006E+00 0.12635017E+04</pdfrwt>
<totfact> 0.21293142E+00</totfact>
</mgrwt>
</event>
<event>
12    1  0.1489025E-007  0.1782757E+04  0.7818608E-02  0.8715523E-01
         -1   -1    0    0    0  501 -0.00000000000E+00  0.00000000000E+00  0.58005354427E+03  0.58005354427E+03  0.00000000000E+00 0.  1.
          1   -1    0    0  501    0  0.00000000000E+00 -0.00000000000E+00 -0.13697976858E+04  0.13697976858E+04  0.00000000000E+00 0. -1.
         23    2    1    2    0    0  0.38052174741E+03 -0.52305483422E+03 -0.16350641718E+03  0.67301160850E+03  0.88470994539E+02 0.  0.
        254    2    1    2    0    0 -0.38052174741E+03  0.52305483422E+03 -0.62623772434E+03  0.12768396215E+04  0.90540740659E+03 0.  0.
        -24    2    4    4    0    0 -0.35017822116E+03 -0.18248615737E+03 -0.23224192064E+03  0.46442983678E+03  0.76372635058E+02 0.  0.
         24    2    4    4    0    0 -0.30343526251E+02  0.70554099159E+03 -0.39399580370E+03  0.81240978476E+03  0.77898296830E+02 0.  0.
         13    1    3    3    0    0  0.25329863866E+03 -0.34575241987E+03 -0.64711973223E+02  0.43346577221E+03  0.00000000000E+00 0.  1.
        -13    1    3    3    0    0  0.12722310875E+03 -0.17730241434E+03 -0.98794443955E+02  0.23954583630E+03  0.00000000000E+00 0. -1.
          2    1    6    6  502    0 -0.33063871387E+02  0.45332987399E+03 -0.21302222430E+03  0.50197575866E+03  0.00000000000E+00 0. -1.
          3    1    5    5  503    0 -0.34677470689E+03 -0.18490262864E+03 -0.21761563512E+03  0.44921959448E+03  0.00000000000E+00 0. -1.
         -4    1    5    5    0  503 -0.34035142681E+01  0.24164712705E+01 -0.14626285518E+02  0.15210242301E+02  0.00000000000E+00 0.  1.
         -1    1    6    6    0  502  0.27203451358E+01  0.25221111760E+03 -0.18097357940E+03  0.31043402610E+03  0.00000000000E+00 0.  1.
<mgrwt>
<rscale>  0 0.17827574E+04</rscale>
<asrwt>0</asrwt>
<pdfrwt beam="1">  1        1 0.21073810E+00 0.17827574E+04</pdfrwt>
<pdfrwt beam="2">  1       -1 0.89239008E-01 0.17827574E+04</pdfrwt>
<totfact> 0.93849780E+00</totfact>
</mgrwt>
</event>
<event>
12    1  0.1627954E-007  0.1671536E+04  0.7818608E-02  0.8777767E-01
          2   -1    0    0  501    0  0.00000000000E+00  0.00000000000E+00  0.11695564849E+04  0.11695564849E+04  0.00000000000E+00 0. -1.
         -2   -1    0    0    0  501 -0.00000000000E+00 -0.00000000000E+00 -0.59724189437E+03  0.59724189437E+03  0.00000000000E+00 0.  1.
         23    2    1    2    0    0  0.20148181008E+03  0.43688497717E+03  0.55720459488E+03  0.74153960356E+03  0.89110156665E+02 0.  0.
        254    2    1    2    0    0 -0.20148181008E+03 -0.43688497717E+03  0.15109995656E+02  0.10252587757E+04  0.90524242175E+03 0.  0.
        -24    2    4    4    0    0 -0.36591448977E+03 -0.44957012738E+03 -0.30205260190E+03  0.65901155797E+03  0.83986582121E+02 0.  0.
         24    2    4    4    0    0  0.16443267969E+03  0.12685150209E+02  0.31716259755E+03  0.36624721774E+03  0.79661107384E+02 0.  0.
         11    1    3    3    0    0  0.20880681584E+03  0.43307111875E+03  0.54444892572E+03  0.72634393572E+03  0.00000000000E+00 0.  1.
        -11    1    3    3    0    0 -0.73250057559E+01  0.38138584132E+01  0.12755669161E+02  0.15195667838E+02  0.00000000000E+00 0. -1.
          4    1    6    6  502    0  0.12920626166E+02 -0.17679723341E+02  0.81887914133E+02  0.84765238624E+02  0.00000000000E+00 0. -1.
          3    1    5    5  503    0 -0.54259837562E+02 -0.72072031179E+02 -0.83463041263E+02  0.12290071972E+03  0.00000000000E+00 0. -1.
         -2    1    5    5    0  503 -0.31165465221E+03 -0.37749809620E+03 -0.21858956063E+03  0.53611083825E+03  0.00000000000E+00 0.  1.
         -3    1    6    6    0  502  0.15151205352E+03  0.30364873550E+02  0.23527468342E+03  0.28148197911E+03  0.00000000000E+00 0.  1.
<mgrwt>
<rscale>  0 0.16715360E+04</rscale>
<asrwt>0</asrwt>
<pdfrwt beam="1">  1        2 0.17993177E+00 0.16715360E+04</pdfrwt>
<pdfrwt beam="2">  1       -2 0.91883368E-01 0.16715360E+04</pdfrwt>
<totfact> 0.18982107E+01</totfact>
</mgrwt>
</event>
<event>
12    1  0.1489025E-007  0.1879945E+04  0.7818608E-02  0.8664904E-01
         -1   -1    0    0    0  501 -0.00000000000E+00  0.00000000000E+00  0.63096327593E+03  0.63096327593E+03  0.00000000000E+00 0.  1.
          1   -1    0    0  501    0  0.00000000000E+00 -0.00000000000E+00 -0.14003167206E+04  0.14003167206E+04  0.00000000000E+00 0. -1.
         23    2    1    2    0    0  0.71255553811E+03 -0.11652463152E+03 -0.27327229303E+03  0.77734099060E+03  0.90927910412E+02 0.  0.
        254    2    1    2    0    0 -0.71255553811E+03  0.11652463152E+03 -0.49608115161E+03  0.12539390059E+04  0.89719180608E+03 0.  0.
        -24    2    4    4    0    0 -0.44332336383E+03  0.26519718930E+03 -0.70148904451E+03  0.87491300680E+03  0.80751072834E+02 0.  0.
         24    2    4    4    0    0 -0.26923217428E+03 -0.14867255778E+03  0.20540789290E+03  0.37902599910E+03  0.82938606344E+02 0.  0.
         11    1    3    3    0    0  0.22926469904E+02 -0.14211197513E+02 -0.26405229360E+02  0.37746752106E+02  0.00000000000E+00 0. -1.
        -11    1    3    3    0    0  0.68962906821E+03 -0.10231343400E+03 -0.24686706367E+03  0.73959423850E+03  0.00000000000E+00 0.  1.
          2    1    6    6  502    0 -0.13734667549E+03 -0.10907386406E+03  0.79985413107E+02  0.19276639593E+03  0.00000000000E+00 0. -1.
          3    1    5    5  503    0 -0.77668836851E+01  0.82072381983E+01 -0.15695561649E+01  0.11408187743E+02  0.00000000000E+00 0. -1.
         -4    1    5    5    0  503 -0.43555648015E+03  0.25698995110E+03 -0.69991948835E+03  0.86350481906E+03  0.00000000000E+00 0.  1.
         -1    1    6    6    0  502 -0.13188549878E+03 -0.39598693721E+02  0.12542247979E+03  0.18625960317E+03  0.00000000000E+00 0.  1.
<mgrwt>
<rscale>  0 0.18799451E+04</rscale>
<asrwt>0</asrwt>
<pdfrwt beam="1">  1        1 0.21543334E+00 0.18799451E+04</pdfrwt>
<pdfrwt beam="2">  1       -1 0.97071274E-01 0.18799451E+04</pdfrwt>
<totfact> 0.73398336E+00</totfact>
</mgrwt>
</event>
<event>
12    1  0.1489025E-007  0.1257247E+04  0.7818608E-02  0.9064173E-01
          1   -1    0    0  501    0  0.00000000000E+00  0.00000000000E+00  0.17534290145E+04  0.17534290145E+04  0.00000000000E+00 0. -1.
         -1   -1    0    0    0  501 -0.00000000000E+00 -0.00000000000E+00 -0.22536840840E+03  0.22536840840E+03  0.00000000000E+00 0.  1.
         23    2    1    2    0    0 -0.21793218710E+03 -0.11276982187E+03  0.57866795791E+03  0.63553196620E+03  0.93982996602E+02 0.  0.
        254    2    1    2    0    0  0.21793218710E+03  0.11276982187E+03  0.94939264816E+03  0.13432654567E+04  0.91804368948E+03 0.  0.
        -24    2    4    4    0    0  0.49992462190E+03  0.24669308380E+03  0.35430371679E+03  0.66634354553E+03  0.87752445887E+02 0.  0.
         24    2    4    4    0    0 -0.28199243480E+03 -0.13392326192E+03  0.59508893137E+03  0.67692191114E+03  0.81469406360E+02 0.  0.
         11    1    3    3    0    0 -0.10960470820E+02 -0.11726543815E+02  0.13206583631E+03  0.13303769718E+03  0.00000000000E+00 0.  1.
        -11    1    3    3    0    0 -0.20697171628E+03 -0.10104327806E+03  0.44660212160E+03  0.50249426902E+03  0.00000000000E+00 0. -1.
          2    1    6    6  502    0 -0.17456469356E+03 -0.12391153495E+03  0.37470529731E+03  0.43154485347E+03  0.00000000000E+00 0. -1.
          1    1    5    5  503    0  0.36809953050E+03  0.18489719796E+03  0.21420315423E+03  0.46429218113E+03  0.00000000000E+00 0. -1.
         -2    1    5    5    0  503  0.13182509140E+03  0.61795885838E+02  0.14010056256E+03  0.20205136440E+03  0.00000000000E+00 0.  1.
         -1    1    6    6    0  502 -0.10742774123E+03 -0.10011726973E+02  0.22038363406E+03  0.24537705766E+03  0.00000000000E+00 0.  1.
<mgrwt>
<rscale>  0 0.12572470E+04</rscale>
<asrwt>0</asrwt>
<pdfrwt beam="1">  1        1 0.26975830E+00 0.12572470E+04</pdfrwt>
<pdfrwt beam="2">  1       -1 0.34672064E-01 0.12572470E+04</pdfrwt>
<totfact> 0.34103150E+01</totfact>
</mgrwt>
</event>
<event>
12    1  0.1489025E-007  0.1766796E+04  0.7818608E-02  0.8724159E-01
          1   -1    0    0  501    0  0.00000000000E+00  0.00000000000E+00  0.12634531371E+04  0.12634531371E+04  0.00000000000E+00 0. -1.
         -1   -1    0    0    0  501 -0.00000000000E+00 -0.00000000000E+00 -0.61766613120E+03  0.61766613120E+03  0.00000000000E+00 0.  1.
         23    2    1    2    0    0 -0.58902213287E+03  0.25693052057E+03  0.12276774603E+03  0.66047680054E+03  0.90539047839E+02 0.  0.
        254    2    1    2    0    0  0.58902213287E+03 -0.25693052057E+03  0.52301925987E+03  0.12206424678E+04  0.89635847879E+03 0.  0.
        -24    2    4    4    0    0  0.35668502229E+03 -0.58645376522E+03  0.30201071229E+03  0.75413134165E+03  0.79695584840E+02 0.  0.
         24    2    4    4    0    0  0.23233711058E+03  0.32952324465E+03  0.22100854758E+03  0.46651112611E+03  0.78878076581E+02 0.  0.
         13    1    3    3    0    0 -0.85071067911E+02  0.40928157030E+02 -0.13865381474E+02  0.95417238678E+02  0.00000000000E+00 0. -1.
        -13    1    3    3    0    0 -0.50395106496E+03  0.21600236354E+03  0.13663312750E+03  0.56505956187E+03  0.00000000000E+00 0.  1.
          4    1    6    6  502    0  0.15200568310E+03  0.19122087355E+03  0.92001829214E+02  0.26102775093E+03  0.00000000000E+00 0. -1.
          1    1    5    5  503    0  0.16291923803E+03 -0.22855909432E+03  0.16001939575E+03  0.32309154234E+03  0.00000000000E+00 0. -1.
         -2    1    5    5    0  503  0.19376578426E+03 -0.35789467091E+03  0.14199131654E+03  0.43103979931E+03  0.00000000000E+00 0.  1.
         -3    1    6    6    0  502  0.80331427477E+02  0.13830237110E+03  0.12900671837E+03  0.20548337519E+03  0.00000000000E+00 0.  1.
<mgrwt>
<rscale>  0 0.17667962E+04</rscale>
<asrwt>0</asrwt>
<pdfrwt beam="1">  1        1 0.19437740E+00 0.17667962E+04</pdfrwt>
<pdfrwt beam="2">  1       -1 0.95025559E-01 0.17667962E+04</pdfrwt>
<totfact> 0.97313425E+00</totfact>
</mgrwt>
</event>
<event>
12    1  0.1489025E-007  0.1784671E+04  0.7818608E-02  0.8714494E-01
         -2   -1    0    0    0  501 -0.00000000000E+00  0.00000000000E+00  0.23215369487E+04  0.23215369487E+04  0.00000000000E+00 0.  1.
          2   -1    0    0  501    0  0.00000000000E+00 -0.00000000000E+00 -0.34298941637E+03  0.34298941637E+03  0.00000000000E+00 0. -1.
         23    2    1    2    0    0  0.43380545247E+03  0.47209966877E+03  0.51288411632E+03  0.82606590307E+03  0.90936745046E+02 0.  0.
        254    2    1    2    0    0 -0.43380545247E+03 -0.47209966877E+03  0.14656634161E+04  0.18384604620E+04  0.90592624065E+03 0.  0.
        -24    2    4    4    0    0 -0.65418640507E+03 -0.25943155220E+03  0.64165899303E+03  0.95569353952E+03  0.79745189678E+02 0.  0.
         24    2    4    4    0    0  0.22038095260E+03 -0.21266811657E+03  0.82400442302E+03  0.88276692252E+03  0.80614255988E+02 0.  0.
         11    1    3    3    0    0  0.24311822753E+03  0.28244009492E+03  0.24200057636E+03  0.44434576484E+03  0.00000000000E+00 0.  1.
        -11    1    3    3    0    0  0.19068722494E+03  0.18965957385E+03  0.27088353996E+03  0.38172013823E+03  0.00000000000E+00 0. -1.
          2    1    6    6  502    0  0.88233364904E+02 -0.65233898433E+02  0.20024099115E+03  0.22833537335E+03  0.00000000000E+00 0. -1.
          1    1    5    5  503    0 -0.31132926067E+02  0.38940335065E+01  0.21681486113E+02  0.38138031183E+02  0.00000000000E+00 0. -1.
         -2    1    5    5    0  503 -0.62305347901E+03 -0.26332558570E+03  0.61997750692E+03  0.91755550833E+03  0.00000000000E+00 0.  1.
         -1    1    6    6    0  502  0.13214758770E+03 -0.14743421813E+03  0.62376343187E+03  0.65443154917E+03  0.00000000000E+00 0.  1.
<mgrwt>
<rscale>  0 0.17846710E+04</rscale>
<asrwt>0</asrwt>
<pdfrwt beam="1">  1        2 0.52767604E-01 0.17846710E+04</pdfrwt>
<pdfrwt beam="2">  1       -2 0.35715952E+00 0.17846710E+04</pdfrwt>
<totfact> 0.12576412E+00</totfact>
</mgrwt>
</event>
<event>
12    1  0.1489025E-007  0.1559806E+04  0.7818608E-02  0.8845628E-01
          2   -1    0    0  501    0  0.00000000000E+00  0.00000000000E+00  0.25847194316E+04  0.25847194316E+04  0.00000000000E+00 0. -1.
         -2   -1    0    0    0  501 -0.00000000000E+00 -0.00000000000E+00 -0.23532491056E+03  0.23532491056E+03  0.00000000000E+00 0.  1.
         23    2    1    2    0    0  0.50524314493E+03  0.30037873699E+02  0.91871663737E+03  0.10532869609E+04  0.95917948142E+02 0.  0.
        254    2    1    2    0    0 -0.50524314493E+03 -0.30037873699E+02  0.14306778836E+04  0.17667573813E+04  0.90466542334E+03 0.  0.
        -24    2    4    4    0    0  0.21083064793E+03 -0.13000221204E+03  0.16764218673E+03  0.30916068416E+03  0.78270611442E+02 0.  0.
         24    2    4    4    0    0 -0.71607379287E+03  0.99964338337E+02  0.12630356969E+04  0.14575966971E+04  0.81082760201E+02 0.  0.
         11    1    3    3    0    0  0.45227773377E+03  0.48877130907E+02  0.85367061493E+03  0.96731465469E+03  0.00000000000E+00 0. -1.
        -11    1    3    3    0    0  0.52965411167E+02 -0.18839257208E+02  0.65046022432E+02  0.85972306160E+02  0.00000000000E+00 0.  1.
          2    1    6    6  502    0 -0.85869820977E+01  0.10748073156E+02  0.16245138651E+02  0.21287598923E+02  0.00000000000E+00 0. -1.
          3    1    5    5  503    0  0.49696103893E+02 -0.18223138272E+02  0.28548325877E+01  0.53008825489E+02  0.00000000000E+00 0. -1.
         -4    1    5    5    0  503  0.16113454404E+03 -0.11177907376E+03  0.16478735414E+03  0.25615185867E+03  0.00000000000E+00 0.  1.
         -1    1    6    6    0  502 -0.70748681077E+03  0.89216265181E+02  0.12467905583E+04  0.14363090982E+04  0.00000000000E+00 0.  1.
<mgrwt>
<rscale>  0 0.15598062E+04</rscale>
<asrwt>0</asrwt>
<pdfrwt beam="1">  1        2 0.39764912E+00 0.15598062E+04</pdfrwt>
<pdfrwt beam="2">  1       -2 0.36203834E-01 0.15598062E+04</pdfrwt>
<totfact> 0.21515611E+01</totfact>
</mgrwt>
</event>
<event>
12    1  0.1489025E-007  0.1558204E+04  0.7818608E-02  0.8846645E-01
          2   -1    0    0  501    0  0.00000000000E+00  0.00000000000E+00  0.12809966724E+04  0.12809966724E+04  0.00000000000E+00 0. -1.
         -2   -1    0    0    0  501 -0.00000000000E+00 -0.00000000000E+00 -0.47384965367E+03  0.47384965367E+03  0.00000000000E+00 0.  1.
         23    2    1    2    0    0  0.48674557434E+03 -0.81100840312E+02  0.91434353798E+02  0.50985228382E+03  0.89947261354E+02 0.  0.
        254    2    1    2    0    0 -0.48674557434E+03  0.81100840312E+02  0.71571266490E+03  0.12449940422E+04  0.89121655394E+03 0.  0.
        -24    2    4    4    0    0 -0.53969549028E+03 -0.15857168195E+03  0.99035076883E+02  0.57649323653E+03  0.78232376694E+02 0.  0.
         24    2    4    4    0    0  0.52949915938E+02  0.23967252226E+03  0.61667758802E+03  0.66850080569E+03  0.79721189940E+02 0.  0.
         11    1    3    3    0    0  0.36875726527E+03 -0.53712116312E+02  0.10706135868E+03  0.38772289931E+03  0.00000000000E+00 0.  1.
        -11    1    3    3    0    0  0.11798830907E+03 -0.27388723999E+02 -0.15627004879E+02  0.12212938451E+03  0.00000000000E+00 0. -1.
          2    1    6    6  502    0  0.64680568541E+02  0.10962748896E+03  0.29078773751E+03  0.31742600802E+03  0.00000000000E+00 0. -1.
          3    1    5    5  503    0 -0.52982617182E+03 -0.14181787486E+03  0.95765470283E+02  0.55677563459E+03  0.00000000000E+00 0. -1.
         -4    1    5    5    0  503 -0.98693184631E+01 -0.16753807089E+02  0.32696066000E+01  0.19717601939E+02  0.00000000000E+00 0.  1.
         -1    1    6    6    0  502 -0.11730652603E+02  0.13004503330E+03  0.32588985051E+03  0.35107479767E+03  0.00000000000E+00 0.  1.
<mgrwt>
<rscale>  0 0.15582039E+04</rscale>
<asrwt>0</asrwt>
<pdfrwt beam="1">  1        2 0.19707641E+00 0.15582039E+04</pdfrwt>
<pdfrwt beam="2">  1       -2 0.72899947E-01 0.15582039E+04</pdfrwt>
<totfact> 0.27743531E+01</totfact>
</mgrwt>
</event>
<event>
12    1  0.1489025E-007  0.1714559E+04  0.7818608E-02  0.8753104E-01
          1   -1    0    0  501    0  0.00000000000E+00  0.00000000000E+00  0.53451943767E+03  0.53451943767E+03  0.00000000000E+00 0. -1.
         -1   -1    0    0    0  501 -0.00000000000E+00 -0.00000000000E+00 -0.13749330073E+04  0.13749330073E+04  0.00000000000E+00 0.  1.
         23    2    1    2    0    0  0.60727506303E+03  0.14103035094E+03 -0.34072473561E+03  0.71642687953E+03  0.92203938076E+02 0.  0.
        254    2    1    2    0    0 -0.60727506303E+03 -0.14103035094E+03 -0.49968883398E+03  0.11930255654E+04  0.88597319757E+03 0.  0.
        -24    2    4    4    0    0 -0.15293554423E+03  0.35763261099E+03 -0.25306678416E+03  0.47042901642E+03  0.77267697721E+02 0.  0.
         24    2    4    4    0    0 -0.45433951880E+03 -0.49866296193E+03 -0.24662204982E+03  0.72259654897E+03  0.78956881787E+02 0.  0.
         11    1    3    3    0    0  0.49038435832E+03  0.14727736856E+03 -0.26017718356E+03  0.57433405699E+03  0.00000000000E+00 0. -1.
        -11    1    3    3    0    0  0.11689070471E+03 -0.62470176199E+01 -0.80547552049E+02  0.14209282254E+03  0.00000000000E+00 0.  1.
          4    1    6    6  502    0 -0.30865662397E+02 -0.47371641364E+02 -0.43204934574E+02  0.71157767617E+02  0.00000000000E+00 0. -1.
          3    1    5    5  503    0 -0.69491030488E+02  0.15234217473E+03 -0.64427605255E+02  0.17941030584E+03  0.00000000000E+00 0. -1.
         -4    1    5    5    0  503 -0.83444513739E+02  0.20529043626E+03 -0.18863917890E+03  0.29101871059E+03  0.00000000000E+00 0.  1.
         -3    1    6    6    0  502 -0.42347385641E+03 -0.45129132057E+03 -0.20341711525E+03  0.65143878136E+03  0.00000000000E+00 0.  1.
<mgrwt>
<rscale>  0 0.17145593E+04</rscale>
<asrwt>0</asrwt>
<pdfrwt beam="1">  1        1 0.82233759E-01 0.17145593E+04</pdfrwt>
<pdfrwt beam="2">  1       -1 0.21152816E+00 0.17145593E+04</pdfrwt>
<totfact> 0.48172162E+00</totfact>
</mgrwt>
</event>
<event>
12    1  0.1489025E-007  0.2037222E+04  0.7818608E-02  0.8589413E-01
          2   -1    0    0  501    0  0.00000000000E+00  0.00000000000E+00  0.87670538448E+03  0.87670538448E+03  0.00000000000E+00 0. -1.
         -2   -1    0    0    0  501 -0.00000000000E+00 -0.00000000000E+00 -0.11834861968E+04  0.11834861968E+04  0.00000000000E+00 0.  1.
         23    2    1    2    0    0 -0.54967414065E+03  0.44627382079E+03 -0.53254066402E+03  0.89066782410E+03  0.91584005306E+02 0.  0.
        254    2    1    2    0    0  0.54967414065E+03 -0.44627382079E+03  0.22575985166E+03  0.11695237572E+04  0.90305942443E+03 0.  0.
        -24    2    4    4    0    0  0.33465446542E+03 -0.48916334695E+03 -0.24287418154E+03  0.64578988344E+03  0.82354807231E+02 0.  0.
         24    2    4    4    0    0  0.21501967523E+03  0.42889526156E+02  0.46863403320E+03  0.52373387378E+03  0.81279402566E+02 0.  0.
         11    1    3    3    0    0 -0.30641360412E+03  0.26737530993E+03 -0.25147223098E+03  0.47813924343E+03  0.00000000000E+00 0. -1.
        -11    1    3    3    0    0 -0.24326053653E+03  0.17889851086E+03 -0.28106843303E+03  0.41252858067E+03  0.00000000000E+00 0.  1.
          2    1    6    6  502    0  0.41902589709E+02  0.25825717146E+02  0.18113333705E+03  0.18770210569E+03  0.00000000000E+00 0. -1.
          3    1    5    5  503    0  0.20898853502E+03 -0.33464329496E+03 -0.12272744507E+03  0.41318805453E+03  0.00000000000E+00 0. -1.
         -4    1    5    5    0  503  0.12566593040E+03 -0.15452005199E+03 -0.12014673647E+03  0.23260182891E+03  0.00000000000E+00 0.  1.
         -1    1    6    6    0  502  0.17311708553E+03  0.17063809010E+02  0.28750069615E+03  0.33603176809E+03  0.00000000000E+00 0.  1.
<mgrwt>
<rscale>  0 0.20372223E+04</rscale>
<asrwt>0</asrwt>
<pdfrwt beam="1">  1        2 0.13487775E+00 0.20372223E+04</pdfrwt>
<pdfrwt beam="2">  1       -2 0.18207480E+00 0.20372223E+04</pdfrwt>
<totfact> 0.49409419E+00</totfact>
</mgrwt>
</event>
<event>
12    1  0.1489025E-007  0.2396306E+04  0.7818608E-02  0.8440888E-01
         -2   -1    0    0    0  501 -0.00000000000E+00  0.00000000000E+00  0.17275602443E+04  0.17275602443E+04  0.00000000000E+00 0.  1.
          2   -1    0    0  501    0  0.00000000000E+00 -0.00000000000E+00 -0.83098131305E+03  0.83098131305E+03  0.00000000000E+00 0. -1.
         23    2    1    2    0    0 -0.38350066680E+03 -0.84225764290E+03  0.87050131213E+03  0.12737840896E+04  0.91009197627E+02 0.  0.
        254    2    1    2    0    0  0.38350066680E+03  0.84225764290E+03  0.26077619064E+02  0.12847574677E+04  0.89075867110E+03 0.  0.
        -24    2    4    4    0    0 -0.13603648690E+03  0.32707289228E+03  0.32807541149E+03  0.48916975617E+03  0.78555535123E+02 0.  0.
         24    2    4    4    0    0  0.51953715369E+03  0.51518475062E+03 -0.30199779243E+03  0.79558771153E+03  0.80143363860E+02 0.  0.
         11    1    3    3    0    0 -0.29011913810E+03 -0.62845478993E+03  0.70299514316E+03  0.98657321502E+03  0.00000000000E+00 0.  1.
        -11    1    3    3    0    0 -0.93381528695E+02 -0.21380285297E+03  0.16750616897E+03  0.28721087459E+03  0.00000000000E+00 0. -1.
          4    1    6    6  502    0  0.29961068986E+03  0.30892055110E+03 -0.13560994941E+03  0.45120785759E+03  0.00000000000E+00 0. -1.
          3    1    5    5  503    0 -0.92614399808E+02  0.12552464955E+03  0.12662380759E+03  0.20091653328E+03  0.00000000000E+00 0. -1.
         -4    1    5    5    0  503 -0.43422087088E+02  0.20154824272E+03  0.20145160390E+03  0.28825322289E+03  0.00000000000E+00 0.  1.
         -3    1    6    6    0  502  0.21992646383E+03  0.20626419952E+03 -0.16638784302E+03  0.34437985394E+03  0.00000000000E+00 0.  1.
<mgrwt>
<rscale>  0 0.23963057E+04</rscale>
<asrwt>0</asrwt>
<pdfrwt beam="1">  1        2 0.12784328E+00 0.23963057E+04</pdfrwt>
<pdfrwt beam="2">  1       -2 0.26577850E+00 0.23963057E+04</pdfrwt>
<totfact> 0.15142305E+00</totfact>
</mgrwt>
</event>
<event>
12    1  0.1489025E-007  0.2459575E+04  0.7818608E-02  0.8417530E-01
         -1   -1    0    0    0  501 -0.00000000000E+00  0.00000000000E+00  0.12835554317E+04  0.12835554317E+04  0.00000000000E+00 0.  1.
          1   -1    0    0  501    0  0.00000000000E+00 -0.00000000000E+00 -0.11782720034E+04  0.11782720034E+04  0.00000000000E+00 0. -1.
         23    2    1    2    0    0  0.78411740322E+03  0.67105932414E+03  0.31818707721E+03  0.10838342278E+04  0.91065354555E+02 0.  0.
        254    2    1    2    0    0 -0.78411740322E+03 -0.67105932414E+03 -0.21290364889E+03  0.13779932072E+04  0.88790573645E+03 0.  0.
        -24    2    4    4    0    0 -0.27806601979E+02 -0.11140080517E+03 -0.39259116463E+03  0.41679855548E+03  0.80061643760E+02 0.  0.
         24    2    4    4    0    0 -0.75631080124E+03 -0.55965851897E+03  0.17968751574E+03  0.96119465171E+03  0.79899119138E+02 0.  0.
         13    1    3    3    0    0  0.20615752004E+03  0.20071036754E+03  0.50943803342E+02  0.29220000994E+03  0.00000000000E+00 0. -1.
        -13    1    3    3    0    0  0.57795988318E+03  0.47034895660E+03  0.26724327387E+03  0.79163421791E+03  0.00000000000E+00 0.  1.
          2    1    6    6  502    0 -0.19555798916E+03 -0.11862550330E+03  0.71421315490E+02  0.23961623790E+03  0.00000000000E+00 0. -1.
          1    1    5    5  503    0 -0.86219222564E+01 -0.87420278134E+02 -0.16301115128E+03  0.18517364288E+03  0.00000000000E+00 0. -1.
         -2    1    5    5    0  503 -0.19184679723E+02 -0.23980527032E+02 -0.22958001334E+03  0.23162491261E+03  0.00000000000E+00 0.  1.
         -1    1    6    6    0  502 -0.56075281208E+03 -0.44103301568E+03  0.10826620025E+03  0.72157841382E+03  0.00000000000E+00 0.  1.
<mgrwt>
<rscale>  0 0.24595751E+04</rscale>
<asrwt>0</asrwt>
<pdfrwt beam="1">  1        1 0.18127262E+00 0.24595751E+04</pdfrwt>
<pdfrwt beam="2">  1       -1 0.19747007E+00 0.24595751E+04</pdfrwt>
<totfact> 0.15486627E+00</totfact>
</mgrwt>
</event>
<event>
12    1  0.1489025E-007  0.2411655E+04  0.7818608E-02  0.8435153E-01
          1   -1    0    0  501    0  0.00000000000E+00  0.00000000000E+00  0.20526264317E+04  0.20526264317E+04  0.00000000000E+00 0. -1.
         -1   -1    0    0    0  501 -0.00000000000E+00 -0.00000000000E+00 -0.70837039057E+03  0.70837039057E+03  0.00000000000E+00 0.  1.
         23    2    1    2    0    0 -0.56360814655E+03 -0.36749554393E+02 -0.41521932303E+03  0.70687942488E+03  0.90921738347E+02 0.  0.
        254    2    1    2    0    0  0.56360814655E+03  0.36749554393E+02  0.17594753641E+04  0.20541173973E+04  0.89701730894E+03 0.  0.
        -24    2    4    4    0    0  0.75360706764E+03 -0.12396287127E+03  0.10734957747E+04  0.13199454459E+04  0.81070314526E+02 0.  0.
         24    2    4    4    0    0 -0.18999892109E+03  0.16071242566E+03  0.68597958941E+03  0.73417195148E+03  0.80699339992E+02 0.  0.
         11    1    3    3    0    0 -0.51416756993E+03 -0.82437446978E+01 -0.38433485828E+03  0.64198873244E+03  0.00000000000E+00 0.  1.
        -11    1    3    3    0    0 -0.49440576623E+02 -0.28505809696E+02 -0.30884464752E+02  0.64890692447E+02  0.00000000000E+00 0. -1.
          4    1    6    6  502    0 -0.34750232197E+02 -0.42705512117E+01  0.97155982921E+02  0.10327197714E+03  0.00000000000E+00 0. -1.
          1    1    5    5  503    0  0.15155142742E+03 -0.57038738660E+02  0.21087388908E+03  0.26587412427E+03  0.00000000000E+00 0. -1.
         -2    1    5    5    0  503  0.60205564022E+03 -0.66924132611E+02  0.86262188563E+03  0.10540713216E+04  0.00000000000E+00 0.  1.
         -3    1    6    6    0  502 -0.15524868889E+03  0.16498297688E+03  0.58882360649E+03  0.63089997434E+03  0.00000000000E+00 0.  1.
<mgrwt>
<rscale>  0 0.24116549E+04</rscale>
<asrwt>0</asrwt>
<pdfrwt beam="1">  1        1 0.31578868E+00 0.24116549E+04</pdfrwt>
<pdfrwt beam="2">  1       -1 0.10898006E+00 0.24116549E+04</pdfrwt>
<totfact> 0.19164946E+00</totfact>
</mgrwt>
</event>
<event>
12    1  0.1489025E-007  0.2821633E+04  0.7818608E-02  0.8296583E-01
         -2   -1    0    0    0  501 -0.00000000000E+00  0.00000000000E+00  0.71050647892E+03  0.71050647892E+03  0.00000000000E+00 0. -1.
          2   -1    0    0  501    0  0.00000000000E+00 -0.00000000000E+00 -0.28013871679E+04  0.28013871679E+04  0.00000000000E+00 0.  1.
         23    2    1    2    0    0 -0.98834462521E+03  0.43999192682E+03 -0.11931523262E+03  0.10921029452E+04  0.89636623945E+02 0.  0.
        254    2    1    2    0    0  0.98834462521E+03 -0.43999192682E+03 -0.19715654564E+04  0.24197907016E+04  0.89325175456E+03 0.  0.
        -24    2    4    4    0    0  0.69673890498E+03  0.15657740608E+03 -0.12066276516E+04  0.14039253508E+04  0.71375873392E+02 0.  0.
         24    2    4    4    0    0  0.29160572023E+03 -0.59656933290E+03 -0.76493780484E+03  0.10158653508E+04  0.76965581498E+02 0.  0.
         11    1    3    3    0    0 -0.45239349151E+03  0.22061058650E+03 -0.96870929842E+02  0.51255524491E+03  0.00000000000E+00 0.  1.
        -11    1    3    3    0    0 -0.53595113370E+03  0.21938134032E+03 -0.22444302773E+02  0.57954770030E+03  0.00000000000E+00 0. -1.
          2    1    6    6  502    0  0.16887089131E+03 -0.38968544684E+03 -0.53517038839E+03  0.68321260968E+03  0.00000000000E+00 0. -1.
          1    1    5    5  503    0  0.54148871994E+03  0.15119354581E+03 -0.93427201086E+03  0.10903823698E+04  0.00000000000E+00 0. -1.
         -2    1    5    5    0  503  0.15525018505E+03  0.53838602639E+01 -0.27235564070E+03  0.31354298099E+03  0.00000000000E+00 0.  1.
         -1    1    6    6    0  502  0.12273482892E+03 -0.20688388606E+03 -0.22976741645E+03  0.33265274116E+03  0.00000000000E+00 0.  1.
<mgrwt>
<rscale>  0 0.28216334E+04</rscale>
<asrwt>0</asrwt>
<pdfrwt beam="1">  1        2 0.43098264E+00 0.28216334E+04</pdfrwt>
<pdfrwt beam="2">  1       -2 0.10930869E+00 0.28216334E+04</pdfrwt>
<totfact> 0.13368847E+00</totfact>
</mgrwt>
</event>
<event>
12    1  0.1489025E-007  0.1371726E+04  0.7818608E-02  0.8974543E-01
         -1   -1    0    0    0  501 -0.00000000000E+00  0.00000000000E+00  0.18786792629E+03  0.18786792629E+03  0.00000000000E+00 0.  1.
          1   -1    0    0  501    0  0.00000000000E+00 -0.00000000000E+00 -0.25039290215E+04  0.25039290215E+04  0.00000000000E+00 0. -1.
         23    2    1    2    0    0 -0.31213099445E+03  0.11606319865E+03 -0.78313114281E+03  0.85585344928E+03  0.91073135606E+02 0.  0.
        254    2    1    2    0    0  0.31213099445E+03 -0.11606319865E+03 -0.15329299524E+04  0.18359434985E+04  0.95389615104E+03 0.  0.
        -24    2    4    4    0    0  0.39942822544E+02  0.36671307057E+03 -0.30119229324E+03  0.48299766379E+03  0.80598018084E+02 0.  0.
         24    2    4    4    0    0  0.27218817191E+03 -0.48277626922E+03 -0.12317376592E+04  0.13529458347E+04  0.78265213437E+02 0.  0.
         13    1    3    3    0    0 -0.33689313861E+02  0.42806540949E+02 -0.88561365777E+02  0.10397348376E+03  0.00000000000E+00 0.  1.
        -13    1    3    3    0    0 -0.27844168059E+03  0.73256657705E+02 -0.69456977704E+03  0.75187996553E+03  0.00000000000E+00 0. -1.
          4    1    6    6  502    0  0.12950790219E+03 -0.30785175533E+03 -0.73471877316E+03  0.80706671076E+03  0.00000000000E+00 0. -1.
          1    1    5    5  503    0  0.58994127908E+02  0.32616616231E+03 -0.25136256528E+03  0.41599015828E+03  0.00000000000E+00 0. -1.
         -2    1    5    5    0  503 -0.19051305364E+02  0.40546908256E+02 -0.49829727966E+02  0.67007505508E+02  0.00000000000E+00 0.  1.
         -3    1    6    6    0  502  0.14268026972E+03 -0.17492451390E+03 -0.49701888600E+03  0.54587912396E+03  0.00000000000E+00 0.  1.
<mgrwt>
<rscale>  0 0.13717259E+04</rscale>
<asrwt>0</asrwt>
<pdfrwt beam="1">  1        1 0.38521986E+00 0.13717259E+04</pdfrwt>
<pdfrwt beam="2">  1       -1 0.28902757E-01 0.13717259E+04</pdfrwt>
<totfact> 0.14385354E+01</totfact>
</mgrwt>
</event>
<event>
12    1  0.1489025E-007  0.1547913E+04  0.7818608E-02  0.8853202E-01
         -3   -1    0    0    0  501 -0.00000000000E+00  0.00000000000E+00  0.18142421647E+04  0.18142421647E+04  0.00000000000E+00 0.  1.
          3   -1    0    0  501    0  0.00000000000E+00 -0.00000000000E+00 -0.33017017559E+03  0.33017017559E+03  0.00000000000E+00 0. -1.
         23    2    1    2    0    0 -0.10004408156E+03 -0.38314766452E+03  0.93539183505E+03  0.10198011186E+04  0.90694460993E+02 0.  0.
        254    2    1    2    0    0  0.10004408156E+03  0.38314766452E+03  0.54868015403E+03  0.11246112217E+04  0.89827030311E+03 0.  0.
        -24    2    4    4    0    0 -0.27783004496E+03 -0.14350511058E+03  0.12633102869E+03  0.34652201613E+03  0.79591005827E+02 0.  0.
         24    2    4    4    0    0  0.37787412651E+03  0.52665277510E+03  0.42234912534E+03  0.77808920556E+03  0.83018233731E+02 0.  0.
         11    1    3    3    0    0 -0.22693010574E+02 -0.73129364053E+02  0.10418291084E+03  0.12929406609E+03  0.00000000000E+00 0. -1.
        -11    1    3    3    0    0 -0.77351070982E+02 -0.31001830047E+03  0.83120892420E+03  0.89050705246E+03  0.00000000000E+00 0.  1.
          4    1    6    6  502    0  0.12716957435E+03  0.22226876772E+03  0.20352511542E+03  0.32710545448E+03  0.00000000000E+00 0. -1.
          1    1    5    5  503    0 -0.29683396920E+01  0.24077682651E+01  0.15845590076E+02  0.16300034153E+02  0.00000000000E+00 0. -1.
         -2    1    5    5    0  503 -0.27486170526E+03 -0.14591287885E+03  0.11048543862E+03  0.33022198198E+03  0.00000000000E+00 0.  1.
         -3    1    6    6    0  502  0.25070455217E+03  0.30438400738E+03  0.21882400992E+03  0.45098375109E+03  0.00000000000E+00 0.  1.
<mgrwt>
<rscale>  0 0.15479130E+04</rscale>
<asrwt>0</asrwt>
<pdfrwt beam="1">  1        3 0.50795413E-01 0.15479130E+04</pdfrwt>
<pdfrwt beam="2">  1       -3 0.27911417E+00 0.15479130E+04</pdfrwt>
<totfact> 0.48387629E-01</totfact>
</mgrwt>
</event>
<event>
12    1  0.1489025E-007  0.1657211E+04  0.7818608E-02  0.8786152E-01
         -2   -1    0    0    0  501 -0.00000000000E+00  0.00000000000E+00  0.26432942748E+03  0.26432942748E+03  0.00000000000E+00 0.  1.
          2   -1    0    0  501    0  0.00000000000E+00 -0.00000000000E+00 -0.25974667957E+04  0.25974667957E+04  0.00000000000E+00 0. -1.
         23    2    1    2    0    0  0.10395388195E+03 -0.50108113131E+03 -0.13291126231E+04  0.14271974446E+04  0.91997126076E+02 0.  0.
        254    2    1    2    0    0 -0.10395388195E+03  0.50108113131E+03 -0.10040247451E+04  0.14345987786E+04  0.88776081068E+03 0.  0.
        -24    2    4    4    0    0 -0.97468737527E+01  0.33891159089E+03 -0.11383290896E+04  0.11911056032E+04  0.89349726292E+02 0.  0.
         24    2    4    4    0    0 -0.94207008200E+02  0.16216954042E+03  0.13430434453E+03  0.24349317542E+03  0.77957355537E+02 0.  0.
         11    1    3    3    0    0  0.90951477427E+02 -0.49761606486E+03 -0.12817744461E+04  0.13779839077E+04  0.00000000000E+00 0. -1.
        -11    1    3    3    0    0  0.13002404526E+02 -0.34650664543E+01 -0.47338177031E+02  0.49213536894E+02  0.00000000000E+00 0.  1.
          4    1    6    6  502    0  0.10434605521E+02  0.22649026257E+01  0.14266882640E+02  0.17820064998E+02  0.00000000000E+00 0. -1.
          3    1    5    5  503    0  0.30971134817E+02  0.18151240502E+03 -0.69229854951E+03  0.71636809395E+03  0.00000000000E+00 0. -1.
         -4    1    5    5    0  503 -0.40718008569E+02  0.15739918587E+03 -0.44603054012E+03  0.47473750921E+03  0.00000000000E+00 0.  1.
         -3    1    6    6    0  502 -0.10464161372E+03  0.15990463779E+03  0.12003746189E+03  0.22567311042E+03  0.00000000000E+00 0.  1.
<mgrwt>
<rscale>  0 0.16572108E+04</rscale>
<asrwt>0</asrwt>
<pdfrwt beam="1">  1        2 0.39961029E+00 0.16572108E+04</pdfrwt>
<pdfrwt beam="2">  1       -2 0.40666065E-01 0.16572108E+04</pdfrwt>
<totfact> 0.16732195E+01</totfact>
</mgrwt>
</event>
<event>
12    1  0.1489025E-007  0.1896430E+04  0.7818608E-02  0.8656636E-01
         -2   -1    0    0    0  501 -0.00000000000E+00  0.00000000000E+00  0.54003823680E+03  0.54003823680E+03  0.00000000000E+00 0. -1.
          2   -1    0    0  501    0  0.00000000000E+00 -0.00000000000E+00 -0.16649029565E+04  0.16649029565E+04  0.00000000000E+00 0.  1.
         23    2    1    2    0    0 -0.38159804677E+03  0.59220544029E+03 -0.32690064499E+03  0.78182857441E+03  0.89819459278E+02 0.  0.
        254    2    1    2    0    0  0.38159804677E+03 -0.59220544029E+03 -0.79796407470E+03  0.14231126189E+04  0.94455201482E+03 0.  0.
        -24    2    4    4    0    0  0.48582412452E+03 -0.77397800334E+03 -0.48281774647E+03  0.10365463840E+04  0.79046823796E+02 0.  0.
         24    2    4    4    0    0 -0.10422607774E+03  0.18177256305E+03 -0.31514632823E+03  0.38656623484E+03  0.78815644127E+02 0.  0.
         11    1    3    3    0    0 -0.35965407448E+03  0.50887330683E+03 -0.27405026532E+03  0.68073977672E+03  0.00000000000E+00 0. -1.
        -11    1    3    3    0    0 -0.21943972296E+02  0.83332133458E+02 -0.52850379673E+02  0.10108879769E+03  0.00000000000E+00 0.  1.
          2    1    6    6  502    0 -0.47608047448E+02  0.55662804792E+02 -0.17502559553E+03  0.18973358456E+03  0.00000000000E+00 0. -1.
          1    1    5    5  503    0  0.63542711386E+02 -0.15457930888E+03 -0.75607212856E+02  0.18343633648E+03  0.00000000000E+00 0. -1.
         -2    1    5    5    0  503  0.42228141313E+03 -0.61939869446E+03 -0.40721053361E+03  0.85311004757E+03  0.00000000000E+00 0.  1.
         -1    1    6    6    0  502 -0.56618030296E+02  0.12610975826E+03 -0.14012073270E+03  0.19683265028E+03  0.00000000000E+00 0.  1.
<mgrwt>
<rscale>  0 0.18964295E+04</rscale>
<asrwt>0</asrwt>
<pdfrwt beam="1">  1        2 0.25613892E+00 0.18964295E+04</pdfrwt>
<pdfrwt beam="2">  1       -2 0.83082806E-01 0.18964295E+04</pdfrwt>
<totfact> 0.12195846E+01</totfact>
</mgrwt>
</event>
<event>
12    1  0.1489025E-007  0.1799153E+04  0.7818608E-02  0.8706750E-01
         -1   -1    0    0    0  501 -0.00000000000E+00  0.00000000000E+00  0.77513014534E+03  0.77513014534E+03  0.00000000000E+00 0.  1.
          1   -1    0    0  501    0  0.00000000000E+00 -0.00000000000E+00 -0.10440021607E+04  0.10440021607E+04  0.00000000000E+00 0. -1.
         23    2    1    2    0    0  0.26764638340E+03  0.24482148726E+03 -0.66695031243E+03  0.76701607489E+03  0.10917322347E+03 0.  0.
        254    2    1    2    0    0 -0.26764638340E+03 -0.24482148726E+03  0.39807829711E+03  0.10521162311E+04  0.90383078391E+03 0.  0.
        -24    2    4    4    0    0 -0.47277179706E+03 -0.34962313208E+03  0.51050891811E+03  0.78341220164E+03  0.85824330101E+02 0.  0.
         24    2    4    4    0    0  0.20512541366E+03  0.10480164482E+03 -0.11243062100E+03  0.26870402946E+03  0.80631202536E+02 0.  0.
         13    1    3    3    0    0  0.54726802202E+02  0.71751592081E+02 -0.86605713441E+02  0.12507543102E+03  0.00000000000E+00 0.  1.
        -13    1    3    3    0    0  0.21291958120E+03  0.17306989518E+03 -0.58034459899E+03  0.64194064387E+03  0.00000000000E+00 0. -1.
          2    1    6    6  502    0  0.19525458038E+03  0.74345024828E+02 -0.81729029027E+02  0.22434608991E+03  0.00000000000E+00 0. -1.
          1    1    5    5  503    0 -0.21590343098E+03 -0.13102170878E+03  0.17207541863E+03  0.30559929545E+03  0.00000000000E+00 0. -1.
         -2    1    5    5    0  503 -0.25686836608E+03 -0.21860142330E+03  0.33843349948E+03  0.47781290620E+03  0.00000000000E+00 0.  1.
         -1    1    6    6    0  502  0.98708332872E+01  0.30456619991E+02 -0.30701591971E+02  0.44357939544E+02  0.00000000000E+00 0.  1.
<mgrwt>
<rscale>  0 0.17991526E+04</rscale>
<asrwt>0</asrwt>
<pdfrwt beam="1">  1        1 0.16061572E+00 0.17991526E+04</pdfrwt>
<pdfrwt beam="2">  1       -1 0.11925079E+00 0.17991526E+04</pdfrwt>
<totfact> 0.82990929E+00</totfact>
</mgrwt>
</event>
<event>
12    1  0.1489025E-007  0.1505933E+04  0.7818608E-02  0.8880517E-01
          1   -1    0    0  501    0  0.00000000000E+00  0.00000000000E+00  0.18277391202E+04  0.18277391202E+04  0.00000000000E+00 0. -1.
         -1   -1    0    0    0  501 -0.00000000000E+00 -0.00000000000E+00 -0.31019679481E+03  0.31019679481E+03  0.00000000000E+00 0.  1.
         23    2    1    2    0    0 -0.18748025899E+03 -0.42951761943E+03  0.43157864133E+03  0.64096392413E+03  0.70287946920E+02 0.  0.
        254    2    1    2    0    0  0.18748025899E+03  0.42951761943E+03  0.10859636840E+04  0.14969719909E+04  0.91759129541E+03 0.  0.
        -24    2    4    4    0    0 -0.56419963321E+02 -0.17796084249E+03  0.70805326859E+03  0.73682427735E+03  0.81959202106E+02 0.  0.
         24    2    4    4    0    0  0.24390022231E+03  0.60747846191E+03  0.37791041546E+03  0.76014771350E+03  0.80565899142E+02 0.  0.
         11    1    3    3    0    0 -0.21970805533E+02 -0.13520955495E+02  0.29685652094E+02  0.39329002956E+02  0.00000000000E+00 0. -1.
        -11    1    3    3    0    0 -0.16550945346E+03 -0.41599666393E+03  0.40189298923E+03  0.60163492118E+03  0.00000000000E+00 0.  1.
          4    1    6    6  502    0  0.13985779608E+03  0.28371618680E+03  0.14500021811E+03  0.34796571818E+03  0.00000000000E+00 0. -1.
          3    1    5    5  503    0 -0.13797639051E+02 -0.33957893918E+02  0.29592458664E+03  0.29818597281E+03  0.00000000000E+00 0. -1.
         -4    1    5    5    0  503 -0.42622324270E+02 -0.14400294857E+03  0.41212868195E+03  0.43863830454E+03  0.00000000000E+00 0.  1.
         -1    1    6    6    0  502  0.10404242624E+03  0.32376227511E+03  0.23291019735E+03  0.41218199532E+03  0.00000000000E+00 0.  1.
<mgrwt>
<rscale>  0 0.15059334E+04</rscale>
<asrwt>0</asrwt>
<pdfrwt beam="1">  1        1 0.28119063E+00 0.15059334E+04</pdfrwt>
<pdfrwt beam="2">  1       -1 0.47722585E-01 0.15059334E+04</pdfrwt>
<totfact> 0.16544281E+01</totfact>
</mgrwt>
</event>
<event>
12    1  0.1489025E-007  0.1585032E+04  0.7818608E-02  0.8829796E-01
         -1   -1    0    0    0  501 -0.00000000000E+00  0.00000000000E+00  0.92040027546E+03  0.92040027546E+03  0.00000000000E+00 0.  1.
          1   -1    0    0  501    0  0.00000000000E+00 -0.00000000000E+00 -0.68240091300E+03  0.68240091300E+03  0.00000000000E+00 0. -1.
         23    2    1    2    0    0 -0.21495159526E+03 -0.21940758065E+03 -0.36150353610E+03  0.48273363507E+03  0.89459941103E+02 0.  0.
        254    2    1    2    0    0  0.21495159526E+03  0.21940758065E+03  0.59950289857E+03  0.11200675534E+04  0.89487637359E+03 0.  0.
        -24    2    4    4    0    0  0.35939540834E+03 -0.17255759777E+03  0.27299919093E+02  0.40713208229E+03  0.77910607512E+02 0.  0.
         24    2    4    4    0    0 -0.14444381308E+03  0.39196517842E+03  0.57220297948E+03  0.71293547110E+03  0.79749733517E+02 0.  0.
         11    1    3    3    0    0 -0.43887376618E+02 -0.34542901165E+02 -0.22054729020E+02  0.60047688710E+02  0.00000000000E+00 0.  1.
        -11    1    3    3    0    0 -0.17106421864E+03 -0.18486467949E+03 -0.33944880708E+03  0.42268594636E+03  0.00000000000E+00 0. -1.
          2    1    6    6  502    0 -0.50783949473E+02  0.18416506175E+03  0.20071935809E+03  0.27709933274E+03  0.00000000000E+00 0. -1.
          1    1    5    5  503    0  0.54831981099E+02  0.25480168703E+01  0.26393918858E+01  0.54954571518E+02  0.00000000000E+00 0. -1.
         -2    1    5    5    0  503  0.30456342724E+03 -0.17510561464E+03  0.24660527207E+02  0.35217751077E+03  0.00000000000E+00 0.  1.
         -1    1    6    6    0  502 -0.93659863609E+02  0.20780011667E+03  0.37148362139E+03  0.43583613836E+03  0.00000000000E+00 0.  1.
<mgrwt>
<rscale>  0 0.15850325E+04</rscale>
<asrwt>0</asrwt>
<pdfrwt beam="1">  1        1 0.10498476E+00 0.15850325E+04</pdfrwt>
<pdfrwt beam="2">  1       -1 0.14160004E+00 0.15850325E+04</pdfrwt>
<totfact> 0.11069222E+01</totfact>
</mgrwt>
</event>
<event>
12    1  0.1489025E-007  0.2418746E+04  0.7818608E-02  0.8432518E-01
         -2   -1    0    0    0  501 -0.00000000000E+00  0.00000000000E+00  0.70876807072E+03  0.70876807072E+03  0.00000000000E+00 0.  1.
          2   -1    0    0  501    0  0.00000000000E+00 -0.00000000000E+00 -0.20635568125E+04  0.20635568125E+04  0.00000000000E+00 0. -1.
         23    2    1    2    0    0  0.29984378425E+03  0.98941521978E+03 -0.47940443310E+03  0.11432200213E+04  0.90965018193E+02 0.  0.
        254    2    1    2    0    0 -0.29984378425E+03 -0.98941521978E+03 -0.87538430872E+03  0.16291048620E+04  0.90489567973E+03 0.  0.
        -24    2    4    4    0    0 -0.36993755660E+02 -0.15302775726E+03  0.18167841195E+03  0.25352863432E+03  0.80521367361E+02 0.  0.
         24    2    4    4    0    0 -0.26285002859E+03 -0.83638746252E+03 -0.10570627207E+04  0.13755762276E+04  0.78703478935E+02 0.  0.
         11    1    3    3    0    0  0.75980212165E+02  0.32842358551E+03 -0.11673602591E+03  0.35673848111E+03  0.00000000000E+00 0.  1.
        -11    1    3    3    0    0  0.22386357208E+03  0.66099163427E+03 -0.36266840719E+03  0.78648154019E+03  0.00000000000E+00 0. -1.
          2    1    6    6  502    0 -0.11035692952E+03 -0.25273521917E+03 -0.29857593599E+03  0.40644966780E+03  0.00000000000E+00 0. -1.
          3    1    5    5  503    0  0.95549240592E-01 -0.62255048365E+02  0.12655642752E+03  0.14103981538E+03  0.00000000000E+00 0. -1.
         -4    1    5    5    0  503 -0.37089304900E+02 -0.90772708898E+02  0.55121984430E+02  0.11248881894E+03  0.00000000000E+00 0.  1.
         -1    1    6    6    0  502 -0.15249309907E+03 -0.58365224335E+03 -0.75848678469E+03  0.96912655983E+03  0.00000000000E+00 0.  1.
<mgrwt>
<rscale>  0 0.24187461E+04</rscale>
<asrwt>0</asrwt>
<pdfrwt beam="1">  1        2 0.31747027E+00 0.24187461E+04</pdfrwt>
<pdfrwt beam="2">  1       -2 0.10904124E+00 0.24187461E+04</pdfrwt>
<totfact> 0.37101672E+00</totfact>
</mgrwt>
</event>
<event>
12    1  0.1489025E-007  0.1129470E+04  0.7818608E-02  0.9176935E-01
          2   -1    0    0  501    0  0.00000000000E+00  0.00000000000E+00  0.15997948134E+04  0.15997948134E+04  0.00000000000E+00 0. -1.
         -2   -1    0    0    0  501 -0.00000000000E+00 -0.00000000000E+00 -0.19935392774E+03  0.19935392774E+03  0.00000000000E+00 0.  1.
         23    2    1    2    0    0 -0.15845572233E+02 -0.49388631780E+02  0.56114093680E+03  0.57085816055E+03  0.91156839622E+02 0.  0.
        254    2    1    2    0    0  0.15845572233E+02  0.49388631780E+02  0.83929994888E+03  0.12282905806E+04  0.89531169272E+03 0.  0.
        -24    2    4    4    0    0 -0.18027226349E+03  0.24662997951E+03  0.88050831145E+03  0.93555898906E+03  0.81555500757E+02 0.  0.
         24    2    4    4    0    0  0.19611783572E+03 -0.19724134773E+03 -0.41208362575E+02  0.29273159155E+03  0.81408235491E+02 0.  0.
         11    1    3    3    0    0  0.14994032344E+02  0.34976871319E+01  0.36634273905E+03  0.36666613870E+03  0.00000000000E+00 0.  1.
        -11    1    3    3    0    0 -0.30839604577E+02 -0.52886318912E+02  0.19479819775E+03  0.20419202185E+03  0.00000000000E+00 0. -1.
          2    1    6    6  502    0  0.76117188555E+02 -0.13392181717E+03 -0.18206882988E+02  0.15511405512E+03  0.00000000000E+00 0. -1.
          1    1    5    5  503    0 -0.12324727250E+03  0.17365253342E+03  0.49093865848E+03  0.53513162767E+03  0.00000000000E+00 0. -1.
         -2    1    5    5    0  503 -0.57024990983E+02  0.72977446084E+02  0.38956965297E+03  0.40042736139E+03  0.00000000000E+00 0.  1.
         -1    1    6    6    0  502  0.12000064716E+03 -0.63319530552E+02 -0.23001479588E+02  0.13761753643E+03  0.00000000000E+00 0.  1.
<mgrwt>
<rscale>  0 0.11294696E+04</rscale>
<asrwt>0</asrwt>
<pdfrwt beam="1">  1        2 0.24612227E+00 0.11294696E+04</pdfrwt>
<pdfrwt beam="2">  1       -2 0.30669836E-01 0.11294696E+04</pdfrwt>
<totfact> 0.10873073E+02</totfact>
</mgrwt>
</event>
<event>
12    1  0.1489025E-007  0.1806756E+04  0.7818608E-02  0.8702715E-01
         -1   -1    0    0    0  501 -0.00000000000E+00  0.00000000000E+00  0.12287485541E+04  0.12287485541E+04  0.00000000000E+00 0.  1.
          1   -1    0    0  501    0  0.00000000000E+00 -0.00000000000E+00 -0.66416516257E+03  0.66416516257E+03  0.00000000000E+00 0. -1.
         23    2    1    2    0    0  0.54632033048E+03 -0.20361480502E+03 -0.13868475650E+03  0.60654816691E+03  0.93500399843E+02 0.  0.
        254    2    1    2    0    0 -0.54632033048E+03  0.20361480502E+03  0.70326814804E+03  0.12863655498E+04  0.90566293246E+03 0.  0.
        -24    2    4    4    0    0 -0.76698520216E+03  0.29220773728E+03  0.50879800247E+03  0.96910960761E+03  0.81525224310E+02 0.  0.
         24    2    4    4    0    0  0.22066487167E+03 -0.88592932263E+02  0.19447014557E+03  0.31725594215E+03  0.79315837452E+02 0.  0.
         13    1    3    3    0    0  0.19963563221E+03 -0.77307604818E+02 -0.51249418187E+01  0.21414274781E+03  0.00000000000E+00 0.  1.
        -13    1    3    3    0    0  0.34668469827E+03 -0.12630720020E+03 -0.13355981468E+03  0.39240541910E+03  0.00000000000E+00 0. -1.
          2    1    6    6  502    0  0.14634965986E+03 -0.18248607516E+02  0.10182813448E+03  0.17922110252E+03  0.00000000000E+00 0. -1.
          1    1    5    5  503    0 -0.59315221113E+03  0.22630442054E+03  0.43236994073E+03  0.76810611375E+03  0.00000000000E+00 0. -1.
         -2    1    5    5    0  503 -0.17383299102E+03  0.65903316748E+02  0.76428061739E+02  0.20100349387E+03  0.00000000000E+00 0.  1.
         -1    1    6    6    0  502  0.74315211811E+02 -0.70344324747E+02  0.92642011090E+02  0.13803483962E+03  0.00000000000E+00 0.  1.
<mgrwt>
<rscale>  0 0.18067562E+04</rscale>
<asrwt>0</asrwt>
<pdfrwt beam="1">  1        1 0.10217926E+00 0.18067562E+04</pdfrwt>
<pdfrwt beam="2">  1       -1 0.18903824E+00 0.18067562E+04</pdfrwt>
<totfact> 0.49911778E+00</totfact>
</mgrwt>
</event>
<event>
12    1  0.1489025E-007  0.2335021E+04  0.7818608E-02  0.8464239E-01
          2   -1    0    0  501    0  0.00000000000E+00  0.00000000000E+00  0.10317788149E+04  0.10317788149E+04  0.00000000000E+00 0. -1.
         -2   -1    0    0    0  501 -0.00000000000E+00 -0.00000000000E+00 -0.13210982591E+04  0.13210982591E+04  0.00000000000E+00 0.  1.
         23    2    1    2    0    0  0.61787210314E+03  0.29313133898E+03 -0.84806985596E+03  0.10932203206E+04  0.90643648486E+02 0.  0.
        254    2    1    2    0    0 -0.61787210314E+03 -0.29313133898E+03  0.55875041182E+03  0.12596567534E+04  0.89824339465E+03 0.  0.
        -24    2    4    4    0    0 -0.71769516983E+03 -0.24033823045E+03  0.83963957275E+02  0.76523911156E+03  0.75446205566E+02 0.  0.
         24    2    4    4    0    0  0.99823066688E+02 -0.52793108531E+02  0.47478645455E+03  0.49441764187E+03  0.79214078425E+02 0.  0.
         13    1    3    3    0    0  0.42860896192E+03  0.24055713624E+03 -0.64183339628E+03  0.80840799515E+03  0.00000000000E+00 0.  1.
        -13    1    3    3    0    0  0.18926314122E+03  0.52574202741E+02 -0.20623645968E+03  0.28481232543E+03  0.00000000000E+00 0. -1.
          4    1    6    6  502    0  0.28289632953E+02 -0.58562307780E+02  0.25750561577E+03  0.26559177204E+03  0.00000000000E+00 0. -1.
          1    1    5    5  503    0 -0.62371021565E+03 -0.18694388465E+03  0.55641669806E+02  0.65349708839E+03  0.00000000000E+00 0. -1.
         -2    1    5    5    0  503 -0.93984954177E+02 -0.53394345806E+02  0.28322287470E+02  0.11174202317E+03  0.00000000000E+00 0.  1.
         -3    1    6    6    0  502  0.71533433736E+02  0.57691992483E+01  0.21728083878E+03  0.22882586983E+03  0.00000000000E+00 0.  1.
<mgrwt>
<rscale>  0 0.23350214E+04</rscale>
<asrwt>0</asrwt>
<pdfrwt beam="1">  1        2 0.15873520E+00 0.23350214E+04</pdfrwt>
<pdfrwt beam="2">  1       -2 0.20324589E+00 0.23350214E+04</pdfrwt>
<totfact> 0.27516075E+00</totfact>
</mgrwt>
</event>
<event>
12    1  0.1489025E-007  0.1962294E+04  0.7818608E-02  0.8624455E-01
         -2   -1    0    0    0  501 -0.00000000000E+00  0.00000000000E+00  0.10682761773E+04  0.10682761773E+04  0.00000000000E+00 0.  1.
          2   -1    0    0  501    0  0.00000000000E+00 -0.00000000000E+00 -0.90112406931E+03  0.90112406931E+03  0.00000000000E+00 0. -1.
         23    2    1    2    0    0  0.15814820357E+03 -0.59527688108E+03  0.52197533886E+03  0.81247363176E+03  0.91047946024E+02 0.  0.
        254    2    1    2    0    0 -0.15814820357E+03  0.59527688108E+03 -0.35482323089E+03  0.11569266148E+04  0.91280570085E+03 0.  0.
        -24    2    4    4    0    0 -0.52662473279E+03  0.36649043046E+03 -0.29816479580E+03  0.71199954765E+03  0.79951645287E+02 0.  0.
         24    2    4    4    0    0  0.36847652922E+03  0.22878645062E+03 -0.56658435082E+02  0.44492706719E+03  0.81435399443E+02 0.  0.
         11    1    3    3    0    0  0.25192180873E+01  0.14784540258E+01  0.11596962659E+02  0.11959173425E+02  0.00000000000E+00 0. -1.
        -11    1    3    3    0    0  0.15562898549E+03 -0.59675533511E+03  0.51037837620E+03  0.80051445833E+03  0.00000000000E+00 0.  1.
          4    1    6    6  502    0  0.41767430054E+02  0.60986710754E+02 -0.13131174661E+02  0.75075461037E+02  0.00000000000E+00 0. -1.
          1    1    5    5  503    0 -0.32079534264E+03  0.17827723610E+03 -0.18515892029E+03  0.41106720926E+03  0.00000000000E+00 0. -1.
         -2    1    5    5    0  503 -0.20582939016E+03  0.18821319437E+03 -0.11300587551E+03  0.30093233839E+03  0.00000000000E+00 0.  1.
         -3    1    6    6    0  502  0.32670909917E+03  0.16779973986E+03 -0.43527260422E+02  0.36985160615E+03  0.00000000000E+00 0.  1.
<mgrwt>
<rscale>  0 0.19622939E+04</rscale>
<asrwt>0</asrwt>
<pdfrwt beam="1">  1        2 0.13863447E+00 0.19622939E+04</pdfrwt>
<pdfrwt beam="2">  1       -2 0.16435018E+00 0.19622939E+04</pdfrwt>
<totfact> 0.63820826E+00</totfact>
</mgrwt>
</event>
<event>
12    1  0.1489025E-007  0.1649470E+04  0.7818608E-02  0.8790720E-01
          1   -1    0    0  501    0  0.00000000000E+00  0.00000000000E+00  0.90384485979E+03  0.90384485979E+03  0.00000000000E+00 0.  1.
         -1   -1    0    0    0  501 -0.00000000000E+00 -0.00000000000E+00 -0.75254912757E+03  0.75254912757E+03  0.00000000000E+00 0. -1.
         23    2    1    2    0    0 -0.17497242151E+03 -0.10495231722E+03  0.58707860391E+03  0.62811251378E+03  0.90739768680E+02 0.  0.
        254    2    1    2    0    0  0.17497242151E+03  0.10495231722E+03 -0.43578287169E+03  0.10282814736E+04  0.90874954772E+03 0.  0.
        -24    2    4    4    0    0  0.19394764614E+03  0.43761592375E+03 -0.16192686787E+02  0.48531831234E+03  0.78410936922E+02 0.  0.
         24    2    4    4    0    0 -0.18975224629E+02 -0.33266360652E+03 -0.41959018490E+03  0.54296316124E+03  0.87908685256E+02 0.  0.
         13    1    3    3    0    0 -0.18466826837E+03 -0.10132025820E+03  0.57402373870E+03  0.61145025690E+03  0.00000000000E+00 0.  1.
        -13    1    3    3    0    0  0.96958468539E+01 -0.36320590196E+01  0.13054865203E+02  0.16662256882E+02  0.00000000000E+00 0. -1.
          2    1    6    6  502    0  0.32827194537E+02 -0.11713863646E+03 -0.12666823051E+03  0.17562438747E+03  0.00000000000E+00 0. -1.
          3    1    5    5  503    0  0.71796911766E+02  0.81789726739E+02 -0.47587575451E+01  0.10893576875E+03  0.00000000000E+00 0. -1.
         -4    1    5    5    0  503  0.12215073438E+03  0.35582619701E+03 -0.11433929242E+02  0.37638254359E+03  0.00000000000E+00 0.  1.
         -1    1    6    6    0  502 -0.51802419166E+02 -0.21552497007E+03 -0.29292195439E+03  0.36733877378E+03  0.00000000000E+00 0.  1.
<mgrwt>
<rscale>  0 0.16494698E+04</rscale>
<asrwt>0</asrwt>
<pdfrwt beam="1">  1        1 0.13905306E+00 0.16494698E+04</pdfrwt>
<pdfrwt beam="2">  1       -1 0.11577679E+00 0.16494698E+04</pdfrwt>
<totfact> 0.11662043E+01</totfact>
</mgrwt>
</event>
<event>
12    1  0.1489025E-007  0.1737061E+04  0.7818608E-02  0.8740505E-01
          1   -1    0    0  501    0  0.00000000000E+00  0.00000000000E+00  0.16817275219E+04  0.16817275219E+04  0.00000000000E+00 0. -1.
         -1   -1    0    0    0  501 -0.00000000000E+00 -0.00000000000E+00 -0.44855383595E+03  0.44855383595E+03  0.00000000000E+00 0.  1.
         23    2    1    2    0    0 -0.67982227057E+02  0.60352571770E+03  0.67590912983E+03  0.91337824716E+03  0.92421834456E+02 0.  0.
        254    2    1    2    0    0  0.67982227057E+02 -0.60352571770E+03  0.55726455608E+03  0.12169031107E+04  0.89523433811E+03 0.  0.
        -24    2    4    4    0    0  0.20908792324E+03  0.14835601347E+03  0.30627344619E+03  0.40768655707E+03  0.81716819577E+02 0.  0.
         24    2    4    4    0    0 -0.14110569618E+03 -0.75188173117E+03  0.25099110990E+03  0.80921655358E+03  0.81227693400E+02 0.  0.
         11    1    3    3    0    0 -0.61957449926E+02  0.41235574595E+03  0.52053057548E+03  0.66695432140E+03  0.00000000000E+00 0.  1.
        -11    1    3    3    0    0 -0.60247771311E+01  0.19116997175E+03  0.15537855434E+03  0.24642392576E+03  0.00000000000E+00 0. -1.
          4    1    6    6  502    0 -0.12393105510E+03 -0.69000058134E+03  0.25208311940E+03  0.74498698496E+03  0.00000000000E+00 0. -1.
          3    1    5    5  503    0  0.95860667111E+02  0.11519975006E+03  0.15185193916E+03  0.21335243458E+03  0.00000000000E+00 0. -1.
         -4    1    5    5    0  503  0.11322725613E+03  0.33156263404E+02  0.15442150702E+03  0.19433412249E+03  0.00000000000E+00 0.  1.
         -3    1    6    6    0  502 -0.17174641086E+02 -0.61881149827E+02 -0.10920095022E+01  0.64229568620E+02  0.00000000000E+00 0.  1.
<mgrwt>
<rscale>  0 0.17370611E+04</rscale>
<asrwt>0</asrwt>
<pdfrwt beam="1">  1        1 0.25872731E+00 0.17370611E+04</pdfrwt>
<pdfrwt beam="2">  1       -1 0.69008283E-01 0.17370611E+04</pdfrwt>
<totfact> 0.98855067E+00</totfact>
</mgrwt>
</event>
<event>
12    1  0.1489025E-007  0.1781601E+04  0.7818608E-02  0.8716146E-01
         -2   -1    0    0    0  501 -0.00000000000E+00  0.00000000000E+00  0.32213894136E+03  0.32213894136E+03  0.00000000000E+00 0.  1.
          2   -1    0    0  501    0  0.00000000000E+00 -0.00000000000E+00 -0.24633012905E+04  0.24633012905E+04  0.00000000000E+00 0. -1.
         23    2    1    2    0    0  0.44888906332E+02  0.50021470413E+02 -0.18415813132E+04  0.18449882870E+04  0.89682130347E+02 0.  0.
        254    2    1    2    0    0 -0.44888906332E+02 -0.50021470413E+02 -0.29958103587E+03  0.94045194482E+03  0.88892288870E+03 0.  0.
        -24    2    4    4    0    0 -0.18669494462E+03  0.91617900527E+02  0.25886639095E+03  0.34159990714E+03  0.80186321494E+02 0.  0.
         24    2    4    4    0    0  0.14180603828E+03 -0.14163937094E+03 -0.55844742682E+03  0.59885203768E+03  0.81176170251E+02 0.  0.
         11    1    3    3    0    0  0.63649123267E+02  0.50373326002E+02 -0.17248226892E+04  0.17267315923E+04  0.00000000000E+00 0. -1.
        -11    1    3    3    0    0 -0.18760216935E+02 -0.35185558894E+00 -0.11675862407E+03  0.11825669468E+03  0.00000000000E+00 0.  1.
          4    1    6    6  502    0  0.56585829683E+02 -0.43611732685E+02 -0.31413538217E+03  0.32215675948E+03  0.00000000000E+00 0. -1.
          3    1    5    5  503    0 -0.16371222204E+03  0.84989824933E+02  0.25864121774E+03  0.31767946346E+03  0.00000000000E+00 0. -1.
         -2    1    5    5    0  503 -0.22982722578E+02  0.66280755938E+01  0.22517320705E+00  0.23920443686E+02  0.00000000000E+00 0.  1.
         -3    1    6    6    0  502  0.85220208601E+02 -0.98027638255E+02 -0.24431204465E+03  0.27669527820E+03  0.00000000000E+00 0.  1.
<mgrwt>
<rscale>  0 0.17816007E+04</rscale>
<asrwt>0</asrwt>
<pdfrwt beam="1">  1        2 0.37896944E+00 0.17816007E+04</pdfrwt>
<pdfrwt beam="2">  1       -2 0.49559836E-01 0.17816007E+04</pdfrwt>
<totfact> 0.13332304E+01</totfact>
</mgrwt>
</event>
<event>
12    1  0.1489025E-007  0.1824956E+04  0.7818608E-02  0.8693140E-01
          2   -1    0    0  501    0  0.00000000000E+00  0.00000000000E+00  0.14957626132E+04  0.14957626132E+04  0.00000000000E+00 0. -1.
         -2   -1    0    0    0  501 -0.00000000000E+00 -0.00000000000E+00 -0.55664987262E+03  0.55664987262E+03  0.00000000000E+00 0.  1.
         23    2    1    2    0    0 -0.16157628515E+03  0.18338045162E+03  0.10788831692E+04  0.11097368655E+04  0.88270787444E+02 0.  0.
        254    2    1    2    0    0  0.16157628515E+03 -0.18338045162E+03 -0.13977042862E+03  0.94267562031E+03  0.89964785692E+03 0.  0.
        -24    2    4    4    0    0 -0.35492314931E+03  0.32050615893E+02 -0.85508155062E+02  0.37489009671E+03  0.78950972989E+02 0.  0.
         24    2    4    4    0    0  0.51649943446E+03 -0.21543106751E+03 -0.54262273561E+02  0.56778552360E+03  0.79080944799E+02 0.  0.
         13    1    3    3    0    0 -0.14640496092E+03  0.14541780344E+03  0.73450495445E+03  0.76294054699E+03  0.00000000000E+00 0. -1.
        -13    1    3    3    0    0 -0.15171324233E+02  0.37962648177E+02  0.34437821477E+03  0.34679631853E+03  0.00000000000E+00 0.  1.
          4    1    6    6  502    0  0.44791213510E+03 -0.19537959437E+03 -0.21414391424E+02  0.48913908331E+03  0.00000000000E+00 0. -1.
          3    1    5    5  503    0 -0.27878331352E+03  0.31234007486E+02 -0.33144993747E+02  0.28247883059E+03  0.00000000000E+00 0. -1.
         -4    1    5    5    0  503 -0.76139835787E+02  0.81660840663E+00 -0.52363161316E+02  0.92411266120E+02  0.00000000000E+00 0.  1.
         -3    1    6    6    0  502  0.68587299365E+02 -0.20051473144E+02 -0.32847882137E+02  0.78646440290E+02  0.00000000000E+00 0.  1.
<mgrwt>
<rscale>  0 0.18249560E+04</rscale>
<asrwt>0</asrwt>
<pdfrwt beam="1">  1        2 0.23011732E+00 0.18249560E+04</pdfrwt>
<pdfrwt beam="2">  1       -2 0.85638442E-01 0.18249560E+04</pdfrwt>
<totfact> 0.14245469E+01</totfact>
</mgrwt>
</event>
<event>
12    1  0.1489025E-007  0.2179167E+04  0.7818608E-02  0.8527150E-01
          2   -1    0    0  501    0  0.00000000000E+00  0.00000000000E+00  0.66089712568E+03  0.66089712568E+03  0.00000000000E+00 0. -1.
         -2   -1    0    0    0  501 -0.00000000000E+00 -0.00000000000E+00 -0.17963336901E+04  0.17963336901E+04  0.00000000000E+00 0.  1.
         23    2    1    2    0    0  0.49238571821E+03 -0.61509486722E+03  0.19066236330E+02  0.79335538501E+03  0.90905744465E+02 0.  0.
        254    2    1    2    0    0 -0.49238571821E+03  0.61509486722E+03 -0.11545028008E+04  0.16638754308E+04  0.90267344095E+03 0.  0.
        -24    2    4    4    0    0  0.17655381565E+03 -0.97138151976E+02 -0.18910492884E+03  0.28798287385E+03  0.81033271757E+02 0.  0.
         24    2    4    4    0    0 -0.66893953387E+03  0.71223301920E+03 -0.96539787195E+03  0.13758925569E+04  0.79569488398E+02 0.  0.
         11    1    3    3    0    0  0.34019417826E+03 -0.37217192504E+03  0.40791989586E+02  0.50587350902E+03  0.00000000000E+00 0. -1.
        -11    1    3    3    0    0  0.15219153996E+03 -0.24292294218E+03 -0.21725753256E+02  0.28748187600E+03  0.00000000000E+00 0.  1.
          2    1    6    6  502    0 -0.34253344099E+03  0.38872822805E+03 -0.56218010348E+03  0.76451635838E+03  0.00000000000E+00 0. -1.
          3    1    5    5  503    0  0.15873820288E+02  0.11021037398E+02 -0.36863080587E+02  0.41621246332E+02  0.00000000000E+00 0. -1.
         -4    1    5    5    0  503  0.16067999536E+03 -0.10815918937E+03 -0.15224184825E+03  0.24636162752E+03  0.00000000000E+00 0.  1.
         -1    1    6    6    0  502 -0.32640609288E+03  0.32350479115E+03 -0.40321776847E+03  0.61137619857E+03  0.00000000000E+00 0.  1.
<mgrwt>
<rscale>  0 0.21791666E+04</rscale>
<asrwt>0</asrwt>
<pdfrwt beam="1">  1        2 0.10167648E+00 0.21791666E+04</pdfrwt>
<pdfrwt beam="2">  1       -2 0.27635903E+00 0.21791666E+04</pdfrwt>
<totfact> 0.17876404E+00</totfact>
</mgrwt>
</event>
<event>
12    1  0.1489025E-007  0.1846059E+04  0.7818608E-02  0.8682182E-01
         -1   -1    0    0    0  501 -0.00000000000E+00  0.00000000000E+00  0.28403513877E+03  0.28403513877E+03  0.00000000000E+00 0.  1.
          1   -1    0    0  501    0  0.00000000000E+00 -0.00000000000E+00 -0.29995694082E+04  0.29995694082E+04  0.00000000000E+00 0. -1.
         23    2    1    2    0    0  0.35898636585E+03  0.58793882646E+02 -0.20015623889E+04  0.20364854810E+04  0.93237256297E+02 0.  0.
        254    2    1    2    0    0 -0.35898636585E+03 -0.58793882646E+02 -0.71397188052E+03  0.12471190660E+04  0.95562659399E+03 0.  0.
        -24    2    4    4    0    0 -0.41683027218E+03  0.11397179962E+03 -0.88301275369E+03  0.98596557753E+03  0.75362789185E+02 0.  0.
         24    2    4    4    0    0  0.57843906331E+02 -0.17276568226E+03  0.16904087317E+03  0.26115348848E+03  0.80202426862E+02 0.  0.
         13    1    3    3    0    0  0.25204991837E+03  0.66620719412E+01 -0.12058108714E+04  0.12318901745E+04  0.00000000000E+00 0. -1.
        -13    1    3    3    0    0  0.10693644748E+03  0.52131810705E+02 -0.79575151756E+03  0.80459530647E+03  0.00000000000E+00 0.  1.
          2    1    6    6  502    0  0.38303497507E+02 -0.64147478186E+02  0.23140833154E+02  0.78214800632E+02  0.00000000000E+00 0. -1.
          1    1    5    5  503    0 -0.27280729077E+01  0.10959197235E+02 -0.32508341619E+02  0.34414221779E+02  0.00000000000E+00 0. -1.
         -2    1    5    5    0  503 -0.41410219927E+03  0.10301260238E+03 -0.85050441207E+03  0.95155135575E+03  0.00000000000E+00 0.  1.
         -1    1    6    6    0  502  0.19540408825E+02 -0.10861820408E+03  0.14590004002E+03  0.18293868785E+03  0.00000000000E+00 0.  1.
<mgrwt>
<rscale>  0 0.18460586E+04</rscale>
<asrwt>0</asrwt>
<pdfrwt beam="1">  1        1 0.46147224E+00 0.18460586E+04</pdfrwt>
<pdfrwt beam="2">  1       -1 0.43697712E-01 0.18460586E+04</pdfrwt>
<totfact> 0.29166708E+00</totfact>
</mgrwt>
</event>
<event>
12    1  0.1489025E-007  0.2029762E+04  0.7818608E-02  0.8592831E-01
          1   -1    0    0  501    0  0.00000000000E+00  0.00000000000E+00  0.41549538521E+04  0.41549538521E+04  0.00000000000E+00 0. -1.
         -1   -1    0    0    0  501 -0.00000000000E+00 -0.00000000000E+00 -0.24789288178E+03  0.24789288178E+03  0.00000000000E+00 0.  1.
         23    2    1    2    0    0  0.61715866581E+03 -0.35746122303E+03  0.23648293434E+04  0.24717282745E+04  0.91430272104E+02 0.  0.
        254    2    1    2    0    0 -0.61715866581E+03  0.35746122303E+03  0.15422316268E+04  0.19311184593E+04  0.91764740961E+03 0.  0.
        -24    2    4    4    0    0  0.21295267258E+03 -0.35920803249E+02  0.41715813346E+03  0.47644341442E+03  0.79613277558E+02 0.  0.
         24    2    4    4    0    0 -0.83011133840E+03  0.39338202628E+03  0.11250734934E+04  0.14546750449E+04  0.80342193383E+02 0.  0.
         11    1    3    3    0    0  0.40168738053E+03 -0.20756357618E+03  0.13604862356E+04  0.14336520453E+04  0.00000000000E+00 0.  1.
        -11    1    3    3    0    0  0.21547128528E+03 -0.14989764685E+03  0.10043431078E+04  0.10380762292E+04  0.00000000000E+00 0. -1.
          2    1    6    6  502    0 -0.21899781672E+03  0.14381959850E+03  0.31771928656E+03  0.41181265849E+03  0.00000000000E+00 0. -1.
          1    1    5    5  503    0  0.93378191932E+02 -0.48939734783E+02  0.14879930621E+03  0.18236177751E+03  0.00000000000E+00 0. -1.
         -2    1    5    5    0  503  0.11957448065E+03  0.13018931534E+02  0.26835882725E+03  0.29408163691E+03  0.00000000000E+00 0.  1.
         -1    1    6    6    0  502 -0.61111352167E+03  0.24956242778E+03  0.80735420683E+03  0.10428623864E+04  0.00000000000E+00 0.  1.
<mgrwt>
<rscale>  0 0.20297620E+04</rscale>
<asrwt>0</asrwt>
<pdfrwt beam="1">  1        1 0.63922362E+00 0.20297620E+04</pdfrwt>
<pdfrwt beam="2">  1       -1 0.38137369E-01 0.20297620E+04</pdfrwt>
<totfact> 0.43201144E-01</totfact>
</mgrwt>
</event>
<event>
12    1  0.1489025E-007  0.3140956E+04  0.7818608E-02  0.8204587E-01
          2   -1    0    0  501    0  0.00000000000E+00  0.00000000000E+00  0.99224910822E+03  0.99224910822E+03  0.00000000000E+00 0. -1.
         -2   -1    0    0    0  501 -0.00000000000E+00 -0.00000000000E+00 -0.24856679217E+04  0.24856679217E+04  0.00000000000E+00 0.  1.
         23    2    1    2    0    0  0.12847752556E+04 -0.57744952730E+03 -0.10189366122E+04  0.17411010061E+04  0.95422638745E+02 0.  0.
        254    2    1    2    0    0 -0.12847752556E+04  0.57744952730E+03 -0.47448220126E+03  0.17368160238E+04  0.89849937520E+03 0.  0.
        -24    2    4    4    0    0 -0.13780650772E+03 -0.13653101158E+03 -0.30850406862E+03  0.37295611737E+03  0.79310493871E+02 0.  0.
         24    2    4    4    0    0 -0.11469687478E+04  0.71398053889E+03 -0.16597813264E+03  0.13638599064E+04  0.85203200272E+02 0.  0.
         11    1    3    3    0    0  0.50674972118E+03 -0.25143448359E+03 -0.46054942521E+03  0.72946579941E+03  0.00000000000E+00 0. -1.
        -11    1    3    3    0    0  0.77802553438E+03 -0.32601504372E+03 -0.55838718701E+03  0.10116352067E+04  0.00000000000E+00 0.  1.
          4    1    6    6  502    0 -0.36658178619E+03  0.20530761158E+03 -0.17105716522E+02  0.42050686900E+03  0.00000000000E+00 0. -1.
          3    1    5    5  503    0 -0.16751455434E+02  0.86753934128E+01 -0.43663471841E+02  0.47564403531E+02  0.00000000000E+00 0. -1.
         -4    1    5    5    0  503 -0.12105505228E+03 -0.14520640500E+03 -0.26484059678E+03  0.32539171384E+03  0.00000000000E+00 0.  1.
         -3    1    6    6    0  502 -0.78038696165E+03  0.50867292730E+03 -0.14887241612E+03  0.94335303740E+03  0.00000000000E+00 0.  1.
<mgrwt>
<rscale>  0 0.31409564E+04</rscale>
<asrwt>0</asrwt>
<pdfrwt beam="1">  1        2 0.15265371E+00 0.31409564E+04</pdfrwt>
<pdfrwt beam="2">  1       -2 0.38241045E+00 0.31409564E+04</pdfrwt>
<totfact> 0.20812607E-01</totfact>
</mgrwt>
</event>
<event>
12    1  0.1489025E-007  0.2178656E+04  0.7818608E-02  0.8527365E-01
         -1   -1    0    0    0  501 -0.00000000000E+00  0.00000000000E+00  0.11079195844E+04  0.11079195844E+04  0.00000000000E+00 0.  1.
          1   -1    0    0  501    0  0.00000000000E+00 -0.00000000000E+00 -0.10710486222E+04  0.10710486222E+04  0.00000000000E+00 0. -1.
         23    2    1    2    0    0  0.57292975019E+03 -0.20623377484E+03  0.63585808895E+03  0.88499124789E+03  0.90072920570E+02 0.  0.
        254    2    1    2    0    0 -0.57292975019E+03  0.20623377484E+03 -0.59898712669E+03  0.12939769587E+04  0.97201333485E+03 0.  0.
        -24    2    4    4    0    0  0.13262359285E+03 -0.24666711149E+03 -0.24046532486E+03  0.37825190140E+03  0.82566622667E+02 0.  0.
         24    2    4    4    0    0 -0.70555334305E+03  0.45290088632E+03 -0.35852180183E+03  0.91572505729E+03  0.84200744926E+02 0.  0.
         13    1    3    3    0    0  0.18145474559E+02  0.37713560840E-01  0.28468383573E+01  0.18367475546E+02  0.00000000000E+00 0. -1.
        -13    1    3    3    0    0  0.55478427563E+03 -0.20627148840E+03  0.63301125059E+03  0.86662377235E+03  0.00000000000E+00 0.  1.
          2    1    6    6  502    0 -0.22038698365E+03  0.17017082073E+03 -0.85061091101E+02  0.29114243939E+03  0.00000000000E+00 0. -1.
          3    1    5    5  503    0  0.33537992504E+02 -0.63236660277E+02 -0.18923385393E+02  0.74038953659E+02  0.00000000000E+00 0. -1.
         -4    1    5    5    0  503  0.99085600350E+02 -0.18343045121E+03 -0.22154193947E+03  0.30421294774E+03  0.00000000000E+00 0.  1.
         -1    1    6    6    0  502 -0.48516635939E+03  0.28273006559E+03 -0.27346071073E+03  0.62458261791E+03  0.00000000000E+00 0.  1.
<mgrwt>
<rscale>  0 0.21786562E+04</rscale>
<asrwt>0</asrwt>
<pdfrwt beam="1">  1        1 0.16477671E+00 0.21786562E+04</pdfrwt>
<pdfrwt beam="2">  1       -1 0.17044917E+00 0.21786562E+04</pdfrwt>
<totfact> 0.29747536E+00</totfact>
</mgrwt>
</event>
<event>
12    1  0.1489025E-007  0.1160892E+04  0.7818608E-02  0.9147794E-01
         -2   -1    0    0    0  501 -0.00000000000E+00  0.00000000000E+00  0.20431806210E+03  0.20431806210E+03  0.00000000000E+00 0.  1.
          2   -1    0    0  501    0  0.00000000000E+00 -0.00000000000E+00 -0.16489859958E+04  0.16489859958E+04  0.00000000000E+00 0. -1.
         23    2    1    2    0    0 -0.11838645496E+03 -0.95659399980E+02 -0.53248026575E+03  0.56097378659E+03  0.89388379010E+02 0.  0.
        254    2    1    2    0    0  0.11838645496E+03  0.95659399980E+02 -0.91218766800E+03  0.12923302714E+04  0.90269879534E+03 0.  0.
        -24    2    4    4    0    0 -0.31165015727E+02  0.46826064274E+03 -0.65237817884E+03  0.80757165716E+03  0.79595260352E+02 0.  0.
         24    2    4    4    0    0  0.14955147069E+03 -0.37260124276E+03 -0.25980948916E+03  0.48475861421E+03  0.79326003946E+02 0.  0.
         11    1    3    3    0    0 -0.10616204481E+03 -0.33398559973E+02 -0.29953613254E+03  0.31954301473E+03  0.00000000000E+00 0.  1.
        -11    1    3    3    0    0 -0.12224410151E+02 -0.62260840007E+02 -0.23294413321E+03  0.24143077185E+03  0.00000000000E+00 0. -1.
          4    1    6    6  502    0 -0.19589171423E+00 -0.62415580936E+02 -0.21921160093E+02  0.66153460809E+02  0.00000000000E+00 0. -1.
          3    1    5    5  503    0 -0.57552020203E+02  0.28099807088E+03 -0.39914641208E+03  0.49151806594E+03  0.00000000000E+00 0. -1.
         -4    1    5    5    0  503  0.26387004477E+02  0.18726257186E+03 -0.25323176676E+03  0.31605359122E+03  0.00000000000E+00 0.  1.
         -3    1    6    6    0  502  0.14974736240E+03 -0.31018566182E+03 -0.23788832907E+03  0.41860515340E+03  0.00000000000E+00 0.  1.
<mgrwt>
<rscale>  0 0.11608921E+04</rscale>
<asrwt>0</asrwt>
<pdfrwt beam="1">  1        2 0.25369016E+00 0.11608921E+04</pdfrwt>
<pdfrwt beam="2">  1       -2 0.31433548E-01 0.11608921E+04</pdfrwt>
<totfact> 0.97278723E+01</totfact>
</mgrwt>
</event>
<event>
12    1  0.1489025E-007  0.3102445E+04  0.7818608E-02  0.8215067E-01
         -1   -1    0    0    0  501 -0.00000000000E+00  0.00000000000E+00  0.18669386642E+04  0.18669386642E+04  0.00000000000E+00 0.  1.
          1   -1    0    0  501    0  0.00000000000E+00 -0.00000000000E+00 -0.12888965565E+04  0.12888965565E+04  0.00000000000E+00 0. -1.
         23    2    1    2    0    0  0.20916355704E+03 -0.13746241380E+04 -0.28603779954E+02  0.13936962501E+04  0.90720157232E+02 0.  0.
        254    2    1    2    0    0 -0.20916355704E+03  0.13746241380E+04  0.60664588762E+03  0.17621389707E+04  0.89653421831E+03 0.  0.
        -24    2    4    4    0    0 -0.13762726041E+03  0.87077030608E+03  0.81920981517E+03  0.12060530748E+04  0.79228210020E+02 0.  0.
         24    2    4    4    0    0 -0.71536296634E+02  0.50385383191E+03 -0.21256392755E+03  0.55608589584E+03  0.71147555021E+02 0.  0.
         11    1    3    3    0    0  0.11126610702E+03 -0.73383894765E+03  0.29999859740E+02  0.74283224165E+03  0.00000000000E+00 0. -1.
        -11    1    3    3    0    0  0.97897450027E+02 -0.64078519035E+03 -0.58603639694E+02  0.65086400843E+03  0.00000000000E+00 0.  1.
          4    1    6    6  502    0 -0.55789216847E+02  0.32198662298E+03 -0.10051686503E+03  0.34189393421E+03  0.00000000000E+00 0. -1.
          3    1    5    5  503    0 -0.14813700302E+02  0.78729677779E+02  0.45986593964E+02  0.92371936778E+02  0.00000000000E+00 0. -1.
         -4    1    5    5    0  503 -0.12281356011E+03  0.79204062830E+03  0.77322322120E+03  0.11136811380E+04  0.00000000000E+00 0.  1.
         -1    1    6    6    0  502 -0.15747079787E+02  0.18186720893E+03 -0.11204706251E+03  0.21419196162E+03  0.00000000000E+00 0.  1.
<mgrwt>
<rscale>  0 0.31024447E+04</rscale>
<asrwt>0</asrwt>
<pdfrwt beam="1">  1        1 0.19829178E+00 0.31024447E+04</pdfrwt>
<pdfrwt beam="2">  1       -1 0.28722133E+00 0.31024447E+04</pdfrwt>
<totfact> 0.31057932E-01</totfact>
</mgrwt>
</event>
<event>
12    1  0.1489025E-007  0.1394370E+04  0.7818608E-02  0.8957904E-01
          1   -1    0    0  501    0  0.00000000000E+00  0.00000000000E+00  0.12514936488E+04  0.12514936488E+04  0.00000000000E+00 0. -1.
         -1   -1    0    0    0  501 -0.00000000000E+00 -0.00000000000E+00 -0.38838925787E+03  0.38838925787E+03  0.00000000000E+00 0.  1.
         23    2    1    2    0    0 -0.23896957488E+03  0.31832046293E+03  0.13406129448E+03  0.42963766617E+03  0.90452853343E+02 0.  0.
        254    2    1    2    0    0  0.23896957488E+03 -0.31832046293E+03  0.72904309645E+03  0.12102452405E+04  0.88020186936E+03 0.  0.
        -24    2    4    4    0    0  0.44864058023E+02 -0.58726500889E+03  0.60420391310E+03  0.84749153112E+03  0.79287781809E+02 0.  0.
         24    2    4    4    0    0  0.19410551686E+03  0.26894454595E+03  0.12483918335E+03  0.36275370939E+03  0.77442310796E+02 0.  0.
         13    1    3    3    0    0 -0.24095288339E+02  0.24814523289E+02  0.42011500965E+02  0.54417917082E+02  0.00000000000E+00 0. -1.
        -13    1    3    3    0    0 -0.21487428654E+03  0.29350593965E+03  0.92049793516E+02  0.37521974909E+03  0.00000000000E+00 0.  1.
          2    1    6    6  502    0  0.44063589034E+02  0.93562566599E+02  0.71892153167E+02  0.12595251262E+03  0.00000000000E+00 0. -1.
          1    1    5    5  503    0  0.14542232713E+02 -0.28245137147E+02  0.53305078324E+02  0.62053973925E+02  0.00000000000E+00 0. -1.
         -2    1    5    5    0  503  0.30321825310E+02 -0.55901987174E+03  0.55089883478E+03  0.78543755719E+03  0.00000000000E+00 0.  1.
         -1    1    6    6    0  502  0.15004192782E+03  0.17538197935E+03  0.52947030186E+02  0.23680119677E+03  0.00000000000E+00 0.  1.
<mgrwt>
<rscale>  0 0.13943697E+04</rscale>
<asrwt>0</asrwt>
<pdfrwt beam="1">  1        1 0.19253748E+00 0.13943697E+04</pdfrwt>
<pdfrwt beam="2">  1       -1 0.59752194E-01 0.13943697E+04</pdfrwt>
<totfact> 0.27152343E+01</totfact>
</mgrwt>
</event>
<event>
12    1  0.1489025E-007  0.1696102E+04  0.7818608E-02  0.8763591E-01
          1   -1    0    0  501    0  0.00000000000E+00  0.00000000000E+00  0.10442728522E+04  0.10442728522E+04  0.00000000000E+00 0. -1.
         -1   -1    0    0    0  501 -0.00000000000E+00 -0.00000000000E+00 -0.68869952208E+03  0.68869952208E+03  0.00000000000E+00 0.  1.
         23    2    1    2    0    0 -0.21641064695E+03  0.46459512988E+03  0.44501918198E+03  0.68497993885E+03  0.92050211707E+02 0.  0.
        254    2    1    2    0    0  0.21641064695E+03 -0.46459512988E+03 -0.89445851821E+02  0.10479924355E+04  0.90972819103E+03 0.  0.
        -24    2    4    4    0    0  0.49098844483E+03 -0.45673478682E+03  0.13000602820E+03  0.68748621817E+03  0.77842240150E+02 0.  0.
         24    2    4    4    0    0 -0.27457779788E+03 -0.78603430598E+01 -0.21945188002E+03  0.36050621729E+03  0.79692239145E+02 0.  0.
         13    1    3    3    0    0 -0.19060120904E+03  0.35718973760E+03  0.30642157909E+03  0.50774749007E+03  0.00000000000E+00 0. -1.
        -13    1    3    3    0    0 -0.25809437908E+02  0.10740539228E+03  0.13859760288E+03  0.17723244878E+03  0.00000000000E+00 0.  1.
          2    1    6    6  502    0 -0.24388551703E+02  0.23149121263E+02 -0.20779670484E+02  0.39528192153E+02  0.00000000000E+00 0. -1.
          1    1    5    5  503    0  0.11208357224E+03 -0.11659865474E+03  0.64463962204E+02  0.17410794318E+03  0.00000000000E+00 0. -1.
         -2    1    5    5    0  503  0.37890487259E+03 -0.34013613208E+03  0.65542065995E+02  0.51337827499E+03  0.00000000000E+00 0.  1.
         -1    1    6    6    0  502 -0.25018924618E+03 -0.31009464323E+02 -0.19867220954E+03  0.32097802514E+03  0.00000000000E+00 0.  1.
<mgrwt>
<rscale>  0 0.16961017E+04</rscale>
<asrwt>0</asrwt>
<pdfrwt beam="1">  1        1 0.16065736E+00 0.16961017E+04</pdfrwt>
<pdfrwt beam="2">  1       -1 0.10595377E+00 0.16961017E+04</pdfrwt>
<totfact> 0.11095255E+01</totfact>
</mgrwt>
</event>
<event>
12    1  0.1489025E-007  0.2115160E+04  0.7818608E-02  0.8554595E-01
          1   -1    0    0  501    0  0.00000000000E+00  0.00000000000E+00  0.19831264826E+04  0.19831264826E+04  0.00000000000E+00 0. -1.
         -1   -1    0    0    0  501 -0.00000000000E+00 -0.00000000000E+00 -0.56399577250E+03  0.56399577250E+03  0.00000000000E+00 0.  1.
         23    2    1    2    0    0  0.75634288519E+03  0.36875902986E+03  0.33094758054E+03  0.90876412643E+03  0.91039301099E+02 0.  0.
        254    2    1    2    0    0 -0.75634288519E+03 -0.36875902986E+03  0.10881831296E+04  0.16383581287E+04  0.88996463540E+03 0.  0.
        -24    2    4    4    0    0 -0.15709999836E+03 -0.21308925741E+03 -0.10179826556E+03  0.29452012370E+03  0.79320711575E+02 0.  0.
         24    2    4    4    0    0 -0.59924288682E+03 -0.15566977244E+03  0.11899813952E+04  0.13438380050E+04  0.80744952662E+02 0.  0.
         11    1    3    3    0    0  0.30249023527E+03  0.13465083838E+03  0.84426576193E+02  0.34170021580E+03  0.00000000000E+00 0.  1.
        -11    1    3    3    0    0  0.45385264992E+03  0.23410819148E+03  0.24652100434E+03  0.56706391063E+03  0.00000000000E+00 0. -1.
          4    1    6    6  502    0 -0.56125393961E+03 -0.12391170189E+03  0.11016536128E+04  0.12425782781E+04  0.00000000000E+00 0. -1.
          1    1    5    5  503    0 -0.25899269519E+02 -0.92083940051E+02 -0.17961399312E+02  0.97328495531E+02  0.00000000000E+00 0. -1.
         -2    1    5    5    0  503 -0.13120072885E+03 -0.12100531736E+03 -0.83836866249E+02  0.19719162817E+03  0.00000000000E+00 0.  1.
         -3    1    6    6    0  502 -0.37988947213E+02 -0.31758070554E+02  0.88327782389E+02  0.10125972693E+03  0.00000000000E+00 0.  1.
<mgrwt>
<rscale>  0 0.21151595E+04</rscale>
<asrwt>0</asrwt>
<pdfrwt beam="1">  1        1 0.30509638E+00 0.21151595E+04</pdfrwt>
<pdfrwt beam="2">  1       -1 0.86768581E-01 0.21151595E+04</pdfrwt>
<totfact> 0.36780991E+00</totfact>
</mgrwt>
</event>
<event>
12    1  0.1489025E-007  0.1427817E+04  0.7818608E-02  0.8933926E-01
          2   -1    0    0  501    0  0.00000000000E+00  0.00000000000E+00  0.11610942599E+04  0.11610942599E+04  0.00000000000E+00 0. -1.
         -2   -1    0    0    0  501 -0.00000000000E+00 -0.00000000000E+00 -0.43895259064E+03  0.43895259064E+03  0.00000000000E+00 0.  1.
         23    2    1    2    0    0 -0.71244380398E+02  0.27818821136E+03 -0.14385564889E+03  0.33314596698E+03  0.88472283359E+02 0.  0.
        254    2    1    2    0    0  0.71244380398E+02 -0.27818821136E+03  0.86599731811E+03  0.12669008835E+04  0.87898922121E+03 0.  0.
        -24    2    4    4    0    0  0.24729794247E+03  0.21030837266E+03  0.12206477554E+03  0.35618276549E+03  0.81120090253E+02 0.  0.
         24    2    4    4    0    0 -0.17605356208E+03 -0.48849658402E+03  0.74393254258E+03  0.91071811803E+03  0.79674922610E+02 0.  0.
         11    1    3    3    0    0 -0.35161622194E+02  0.21101724907E+03 -0.14220504985E+03  0.25687914529E+03  0.00000000000E+00 0.  1.
        -11    1    3    3    0    0 -0.36082758204E+02  0.67170962288E+02 -0.16505990366E+01  0.76266821695E+02  0.00000000000E+00 0. -1.
          2    1    6    6  502    0 -0.25926720176E+02 -0.16098739321E+03  0.19614954199E+03  0.25507602477E+03  0.00000000000E+00 0. -1.
          1    1    5    5  503    0  0.80626437263E+02  0.24364588710E+02  0.21064961852E+02  0.86821588251E+02  0.00000000000E+00 0. -1.
         -2    1    5    5    0  503  0.16667150521E+03  0.18594378395E+03  0.10099981369E+03  0.26936117724E+03  0.00000000000E+00 0.  1.
         -1    1    6    6    0  502 -0.15012684190E+03 -0.32750919081E+03  0.54778300059E+03  0.65564209326E+03  0.00000000000E+00 0.  1.
<mgrwt>
<rscale>  0 0.14278170E+04</rscale>
<asrwt>0</asrwt>
<pdfrwt beam="1">  1        2 0.17862988E+00 0.14278170E+04</pdfrwt>
<pdfrwt beam="2">  1       -2 0.67531168E-01 0.14278170E+04</pdfrwt>
<totfact> 0.39035888E+01</totfact>
</mgrwt>
</event>
<event>
12    1  0.1489025E-007  0.1686919E+04  0.7818608E-02  0.8768860E-01
          2   -1    0    0  501    0  0.00000000000E+00  0.00000000000E+00  0.78261208269E+03  0.78261208269E+03  0.00000000000E+00 0. -1.
         -2   -1    0    0    0  501 -0.00000000000E+00 -0.00000000000E+00 -0.90903794441E+03  0.90903794441E+03  0.00000000000E+00 0.  1.
         23    2    1    2    0    0 -0.30814851083E+03  0.15982340498E+03  0.44751977043E+03  0.57276254493E+03  0.85346133146E+02 0.  0.
        254    2    1    2    0    0  0.30814851083E+03 -0.15982340498E+03 -0.57394563215E+03  0.11188874822E+04  0.89554261964E+03 0.  0.
        -24    2    4    4    0    0  0.12176402349E+03  0.35632465861E+03 -0.35144525477E+03  0.52130372780E+03  0.80312326393E+02 0.  0.
         24    2    4    4    0    0  0.18638448735E+03 -0.51614806359E+03 -0.22250037737E+03  0.59758375437E+03  0.80323874925E+02 0.  0.
         11    1    3    3    0    0 -0.24417152454E+03  0.16156314139E+03  0.38029094136E+03  0.47994122779E+03  0.00000000000E+00 0. -1.
        -11    1    3    3    0    0 -0.63976986293E+02 -0.17397364072E+01  0.67228829065E+02  0.92821317139E+02  0.00000000000E+00 0.  1.
          2    1    6    6  502    0  0.18538664779E+02 -0.15780491112E+03 -0.61326147563E+02  0.17031432248E+03  0.00000000000E+00 0. -1.
          3    1    5    5  503    0  0.10697816154E+03  0.19044881927E+03 -0.20369669723E+03  0.29867611935E+03  0.00000000000E+00 0. -1.
         -4    1    5    5    0  503  0.14785861951E+02  0.16587583934E+03 -0.14774855754E+03  0.22262760846E+03  0.00000000000E+00 0.  1.
         -1    1    6    6    0  502  0.16784582257E+03 -0.35834315247E+03 -0.16117422981E+03  0.42726943190E+03  0.00000000000E+00 0.  1.
<mgrwt>
<rscale>  0 0.16869192E+04</rscale>
<asrwt>0</asrwt>
<pdfrwt beam="1">  1        2 0.12040186E+00 0.16869192E+04</pdfrwt>
<pdfrwt beam="2">  1       -2 0.13985199E+00 0.16869192E+04</pdfrwt>
<totfact> 0.12162570E+01</totfact>
</mgrwt>
</event>
<event>
12    1  0.1489025E-007  0.2857555E+04  0.7818608E-02  0.8285619E-01
          1   -1    0    0  501    0  0.00000000000E+00  0.00000000000E+00  0.25514524642E+04  0.25514524642E+04  0.00000000000E+00 0. -1.
         -1   -1    0    0    0  501 -0.00000000000E+00 -0.00000000000E+00 -0.80009507187E+03  0.80009507187E+03  0.00000000000E+00 0.  1.
         23    2    1    2    0    0  0.13139143002E+03 -0.21892971102E+03  0.22640615717E+04  0.22802042200E+04  0.90346877458E+02 0.  0.
        254    2    1    2    0    0 -0.13139143002E+03  0.21892971102E+03 -0.51270417943E+03  0.10713433160E+04  0.90538223909E+03 0.  0.
        -24    2    4    4    0    0 -0.47722118270E+03  0.30741258564E+03 -0.33595736926E+03  0.66447492297E+03  0.80106268577E+02 0.  0.
         24    2    4    4    0    0  0.34582975268E+03 -0.88482874626E+02 -0.17674681017E+03  0.40686839303E+03  0.82915724683E+02 0.  0.
         11    1    3    3    0    0  0.13129149578E+03 -0.22092458952E+03  0.20387276407E+04  0.20548614368E+04  0.00000000000E+00 0. -1.
        -11    1    3    3    0    0  0.99934236722E-01  0.19948785053E+01  0.22533393098E+03  0.22534278329E+03  0.00000000000E+00 0.  1.
          4    1    6    6  502    0  0.20816007019E+03 -0.24447043193E+02 -0.68879275858E+02  0.22061873761E+03  0.00000000000E+00 0. -1.
          3    1    5    5  503    0 -0.63336680670E+02  0.11479782252E+02 -0.42087927037E+02  0.76907178606E+02  0.00000000000E+00 0. -1.
         -4    1    5    5    0  503 -0.41388450203E+03  0.29593280339E+03 -0.29386944223E+03  0.58756774436E+03  0.00000000000E+00 0.  1.
         -3    1    6    6    0  502  0.13766968248E+03 -0.64035831433E+02 -0.10786753431E+03  0.18624965541E+03  0.00000000000E+00 0.  1.
<mgrwt>
<rscale>  0 0.28575546E+04</rscale>
<asrwt>0</asrwt>
<pdfrwt beam="1">  1        1 0.39253115E+00 0.28575546E+04</pdfrwt>
<pdfrwt beam="2">  1       -1 0.12309155E+00 0.28575546E+04</pdfrwt>
<totfact> 0.62461076E-01</totfact>
</mgrwt>
</event>
<event>
12    1  0.1489025E-007  0.1603356E+04  0.7818608E-02  0.8818489E-01
          1   -1    0    0  501    0  0.00000000000E+00  0.00000000000E+00  0.10705256510E+04  0.10705256510E+04  0.00000000000E+00 0. -1.
         -1   -1    0    0    0  501 -0.00000000000E+00 -0.00000000000E+00 -0.60034745822E+03  0.60034745822E+03  0.00000000000E+00 0.  1.
         23    2    1    2    0    0  0.48725042002E+03  0.16134029407E+03  0.23832389881E+03  0.57324648819E+03  0.91485480728E+02 0.  0.
        254    2    1    2    0    0 -0.48725042002E+03 -0.16134029407E+03  0.23185429396E+03  0.10976266210E+04  0.94211683098E+03 0.  0.
        -24    2    4    4    0    0  0.20448087341E+03 -0.27517146317E+03  0.16731395754E+03  0.38920559025E+03  0.77170391722E+02 0.  0.
         24    2    4    4    0    0 -0.69173129343E+03  0.11383116909E+03  0.64540336416E+02  0.70842103076E+03  0.79026479294E+02 0.  0.
         11    1    3    3    0    0  0.15009838581E+03  0.57248738367E+02  0.29811734242E+02  0.16338813594E+03  0.00000000000E+00 0.  1.
        -11    1    3    3    0    0  0.33715203421E+03  0.10409155571E+03  0.20851216457E+03  0.40985835226E+03  0.00000000000E+00 0. -1.
          4    1    6    6  502    0 -0.31756272110E+03  0.82994810471E+02  0.48235342901E+01  0.32826435518E+03  0.00000000000E+00 0. -1.
          1    1    5    5  503    0  0.36653208488E+02 -0.10899180024E+03  0.61513092471E+02  0.13040909001E+03  0.00000000000E+00 0. -1.
         -2    1    5    5    0  503  0.16782766493E+03 -0.16617966292E+03  0.10580086507E+03  0.25879650023E+03  0.00000000000E+00 0.  1.
         -3    1    6    6    0  502 -0.37416857233E+03  0.30836358623E+02  0.59716802126E+02  0.38015667558E+03  0.00000000000E+00 0.  1.
<mgrwt>
<rscale>  0 0.16033557E+04</rscale>
<asrwt>0</asrwt>
<pdfrwt beam="1">  1        1 0.16469625E+00 0.16033557E+04</pdfrwt>
<pdfrwt beam="2">  1       -1 0.92361148E-01 0.16033557E+04</pdfrwt>
<totfact> 0.14605703E+01</totfact>
</mgrwt>
</event>
<event>
12    1  0.1489025E-007  0.1985486E+04  0.7818608E-02  0.8613437E-01
         -1   -1    0    0    0  501 -0.00000000000E+00  0.00000000000E+00  0.79769256086E+03  0.79769256086E+03  0.00000000000E+00 0.  1.
          1   -1    0    0  501    0  0.00000000000E+00 -0.00000000000E+00 -0.12354866536E+04  0.12354866536E+04  0.00000000000E+00 0. -1.
         23    2    1    2    0    0 -0.23573315523E+03  0.30600577985E+03 -0.87159731011E+03  0.95695877269E+03  0.82937107870E+02 0.  0.
        254    2    1    2    0    0  0.23573315523E+03 -0.30600577985E+03  0.43380321733E+03  0.10762204418E+04  0.90601078924E+03 0.  0.
        -24    2    4    4    0    0  0.22199758131E+03 -0.21518766459E+03 -0.23487370427E+03  0.39650503270E+03  0.80386111364E+02 0.  0.
         24    2    4    4    0    0  0.13735573924E+02 -0.90818115263E+02  0.66867692160E+03  0.67971540911E+03  0.80297047556E+02 0.  0.
         13    1    3    3    0    0 -0.37279415253E+02  0.63517083039E+02 -0.10024851983E+03  0.12439429395E+03  0.00000000000E+00 0.  1.
        -13    1    3    3    0    0 -0.19845373998E+03  0.24248869681E+03 -0.77134879028E+03  0.83256447874E+03  0.00000000000E+00 0. -1.
          2    1    6    6  502    0 -0.25746530472E+02 -0.68009896388E+02  0.32561195584E+03  0.33363359487E+03  0.00000000000E+00 0. -1.
          1    1    5    5  503    0  0.46810982085E+02 -0.87303699535E+01 -0.24086398091E+02  0.53363301775E+02  0.00000000000E+00 0. -1.
         -2    1    5    5    0  503  0.17518659922E+03 -0.20645729463E+03 -0.21078730618E+03  0.34314173092E+03  0.00000000000E+00 0.  1.
         -1    1    6    6    0  502  0.39482104396E+02 -0.22808218876E+02  0.34306496576E+03  0.34608181424E+03  0.00000000000E+00 0.  1.
<mgrwt>
<rscale>  0 0.19854858E+04</rscale>
<asrwt>0</asrwt>
<pdfrwt beam="1">  1        1 0.19007487E+00 0.19854858E+04</pdfrwt>
<pdfrwt beam="2">  1       -1 0.12272193E+00 0.19854858E+04</pdfrwt>
<totfact> 0.54781273E+00</totfact>
</mgrwt>
</event>
<event>
12    1  0.1489025E-007  0.1493531E+04  0.7818608E-02  0.8888766E-01
          1   -1    0    0  501    0  0.00000000000E+00  0.00000000000E+00  0.15184431207E+04  0.15184431207E+04  0.00000000000E+00 0. -1.
         -1   -1    0    0    0  501 -0.00000000000E+00 -0.00000000000E+00 -0.36725695128E+03  0.36725695128E+03  0.00000000000E+00 0.  1.
         23    2    1    2    0    0 -0.28804717476E+03  0.24343967340E+03  0.20012700888E+02  0.38884406896E+03  0.92548108018E+02 0.  0.
        254    2    1    2    0    0  0.28804717476E+03 -0.24343967340E+03  0.11311734685E+04  0.14968560030E+04  0.90487039312E+03 0.  0.
        -24    2    4    4    0    0 -0.26738522032E+02  0.31433383863E+03  0.47420756505E+03  0.57636790793E+03  0.88354059751E+02 0.  0.
         24    2    4    4    0    0  0.31478569680E+03 -0.55777351202E+03  0.65696590348E+03  0.92048809507E+03  0.74113488762E+02 0.  0.
         11    1    3    3    0    0 -0.68803221033E+02  0.26480651978E+02  0.31530478332E+02  0.80182786292E+02  0.00000000000E+00 0. -1.
        -11    1    3    3    0    0 -0.21924395373E+03  0.21695902142E+03 -0.11517777444E+02  0.30866128267E+03  0.00000000000E+00 0.  1.
          4    1    6    6  502    0  0.84049341391E+01 -0.45574438965E+01  0.14783300442E+01  0.96746406896E+01  0.00000000000E+00 0. -1.
          3    1    5    5  503    0  0.40677556186E+01  0.14049529486E+03  0.13992833724E+03  0.19833157609E+03  0.00000000000E+00 0. -1.
         -4    1    5    5    0  503 -0.30806277651E+02  0.17383854377E+03  0.33427922781E+03  0.37803633183E+03  0.00000000000E+00 0.  1.
         -3    1    6    6    0  502  0.30638076266E+03 -0.55321606813E+03  0.65548757343E+03  0.91081345438E+03  0.00000000000E+00 0.  1.
<mgrwt>
<rscale>  0 0.14935311E+04</rscale>
<asrwt>0</asrwt>
<pdfrwt beam="1">  1        1 0.23360663E+00 0.14935311E+04</pdfrwt>
<pdfrwt beam="2">  1       -1 0.56501070E-01 0.14935311E+04</pdfrwt>
<totfact> 0.19488739E+01</totfact>
</mgrwt>
</event>
<event>
12    1  0.1489025E-007  0.1882896E+04  0.7818608E-02  0.8663417E-01
         -1   -1    0    0    0  501 -0.00000000000E+00  0.00000000000E+00  0.10860798789E+04  0.10860798789E+04  0.00000000000E+00 0.  1.
          1   -1    0    0  501    0  0.00000000000E+00 -0.00000000000E+00 -0.81607630412E+03  0.81607630412E+03  0.00000000000E+00 0. -1.
         23    2    1    2    0    0 -0.10674741256E+03  0.44979901150E+03  0.66103021089E+03  0.81181251670E+03  0.91457431228E+02 0.  0.
        254    2    1    2    0    0  0.10674741256E+03 -0.44979901150E+03 -0.39102663617E+03  0.10903436663E+04  0.90677081975E+03 0.  0.
        -24    2    4    4    0    0  0.33369171517E+03  0.12227145537E+03 -0.15443919726E+02  0.36465703221E+03  0.80223231738E+02 0.  0.
         24    2    4    4    0    0 -0.22694430261E+03 -0.57207046687E+03 -0.37558271644E+03  0.72568663406E+03  0.82403752423E+02 0.  0.
         13    1    3    3    0    0 -0.30992693761E+02  0.23614688968E+03  0.27183703329E+03  0.36141565163E+03  0.00000000000E+00 0. -1.
        -13    1    3    3    0    0 -0.75754718797E+02  0.21365212182E+03  0.38919317760E+03  0.45039686507E+03  0.00000000000E+00 0.  1.
          4    1    6    6  502    0 -0.22413232327E+03 -0.57383246390E+03 -0.37680501284E+03  0.72215027013E+03  0.00000000000E+00 0. -1.
          1    1    5    5  503    0  0.22313084470E+03  0.11732049388E+03  0.48463494576E+01  0.25214075285E+03  0.00000000000E+00 0. -1.
         -2    1    5    5    0  503  0.11056087047E+03  0.49509614909E+01 -0.20290269183E+02  0.11251627936E+03  0.00000000000E+00 0.  1.
         -3    1    6    6    0  502 -0.28119793441E+01  0.17619970258E+01  0.12222963966E+01  0.35363639281E+01  0.00000000000E+00 0.  1.
<mgrwt>
<rscale>  0 0.18828957E+04</rscale>
<asrwt>0</asrwt>
<pdfrwt beam="1">  1        1 0.12555020E+00 0.18828957E+04</pdfrwt>
<pdfrwt beam="2">  1       -1 0.16708921E+00 0.18828957E+04</pdfrwt>
<totfact> 0.51868261E+00</totfact>
</mgrwt>
</event>
<event>
12    1  0.1489025E-007  0.2881648E+04  0.7818608E-02  0.8278359E-01
         -2   -1    0    0    0  501 -0.00000000000E+00  0.00000000000E+00  0.15207017447E+04  0.15207017447E+04  0.00000000000E+00 0.  1.
          2   -1    0    0  501    0  0.00000000000E+00 -0.00000000000E+00 -0.13651419444E+04  0.13651419444E+04  0.00000000000E+00 0. -1.
         23    2    1    2    0    0  0.60586245488E+03 -0.46177144751E+03  0.11206328916E+04  0.13581158341E+04  0.91424051117E+02 0.  0.
        254    2    1    2    0    0 -0.60586245488E+03  0.46177144751E+03 -0.96507309133E+03  0.15277278550E+04  0.90679884396E+03 0.  0.
        -24    2    4    4    0    0 -0.50513221829E+03  0.68958359413E+03 -0.49880179563E+03  0.99320207562E+03  0.83444834770E+02 0.  0.
         24    2    4    4    0    0 -0.10073023660E+03 -0.22781214662E+03 -0.46627129570E+03  0.53452577939E+03  0.79145012033E+02 0.  0.
         11    1    3    3    0    0  0.41988135885E+03 -0.37083410805E+03  0.82301618621E+03  0.99557718634E+03  0.00000000000E+00 0.  1.
        -11    1    3    3    0    0  0.18598109603E+03 -0.90937339458E+02  0.29761670542E+03  0.36253864778E+03  0.00000000000E+00 0. -1.
          4    1    6    6  502    0 -0.62010291313E+02 -0.17893622580E+03 -0.27945038124E+03  0.33757364338E+03  0.00000000000E+00 0. -1.
          1    1    5    5  503    0 -0.42615989759E+03  0.52508120036E+03 -0.39986498068E+03  0.78563001983E+03  0.00000000000E+00 0. -1.
         -2    1    5    5    0  503 -0.78972320695E+02  0.16450239377E+03 -0.98936814947E+02  0.20757205579E+03  0.00000000000E+00 0.  1.
         -3    1    6    6    0  502 -0.38719945282E+02 -0.48875920820E+02 -0.18682091446E+03  0.19695213601E+03  0.00000000000E+00 0.  1.
<mgrwt>
<rscale>  0 0.28816480E+04</rscale>
<asrwt>0</asrwt>
<pdfrwt beam="1">  1        2 0.21002184E+00 0.28816480E+04</pdfrwt>
<pdfrwt beam="2">  1       -2 0.23395411E+00 0.28816480E+04</pdfrwt>
<totfact> 0.10579854E+00</totfact>
</mgrwt>
</event>
<event>
12    1  0.1489025E-007  0.1501455E+04  0.7818608E-02  0.8883486E-01
          3   -1    0    0  501    0  0.00000000000E+00  0.00000000000E+00  0.27756530236E+04  0.27756530236E+04  0.00000000000E+00 0. -1.
         -3   -1    0    0    0  501 -0.00000000000E+00 -0.00000000000E+00 -0.20304837704E+03  0.20304837704E+03  0.00000000000E+00 0.  1.
         23    2    1    2    0    0 -0.32485697734E+02  0.77221456281E+02 -0.99050565812E+02  0.15828922841E+03  0.90697251207E+02 0.  0.
        254    2    1    2    0    0  0.32485697734E+02 -0.77221456281E+02  0.26716552123E+04  0.28204121722E+04  0.89998042953E+03 0.  0.
        -24    2    4    4    0    0 -0.36072050772E+03 -0.14292665812E+03  0.19618885704E+04  0.20015393661E+04  0.81275809396E+02 0.  0.
         24    2    4    4    0    0  0.39320620545E+03  0.65705201839E+02  0.70976664190E+03  0.81887280603E+03  0.88632347038E+02 0.  0.
         13    1    3    3    0    0 -0.34216493630E+02  0.57452184962E+02 -0.10678905289E+02  0.67716770532E+02  0.00000000000E+00 0. -1.
        -13    1    3    3    0    0  0.17307958954E+01  0.19769271320E+02 -0.88371660523E+02  0.90572457881E+02  0.00000000000E+00 0.  1.
          4    1    6    6  502    0  0.73571980524E+02 -0.80275484764E+01  0.81243497214E+02  0.10989897039E+03  0.00000000000E+00 0. -1.
          1    1    5    5  503    0 -0.34010142761E+02 -0.31151217660E+02  0.35395396251E+03  0.35694606841E+03  0.00000000000E+00 0. -1.
         -2    1    5    5    0  503 -0.32671036496E+03 -0.11177544046E+03  0.16079346079E+04  0.16445932977E+04  0.00000000000E+00 0.  1.
         -3    1    6    6    0  502  0.31963422493E+03  0.73732750315E+02  0.62852314469E+03  0.70897383564E+03  0.00000000000E+00 0.  1.
<mgrwt>
<rscale>  0 0.15014551E+04</rscale>
<asrwt>0</asrwt>
<pdfrwt beam="1">  1        3 0.42702351E+00 0.15014551E+04</pdfrwt>
<pdfrwt beam="2">  1       -3 0.31238214E-01 0.15014551E+04</pdfrwt>
<totfact> 0.20621395E-01</totfact>
</mgrwt>
</event>
<event>
12    1  0.1489025E-007  0.1892909E+04  0.7818608E-02  0.8658394E-01
         -2   -1    0    0    0  501 -0.00000000000E+00  0.00000000000E+00  0.36288509344E+03  0.36288509344E+03  0.00000000000E+00 0.  1.
          2   -1    0    0  501    0  0.00000000000E+00 -0.00000000000E+00 -0.24684840597E+04  0.24684840597E+04  0.00000000000E+00 0. -1.
         23    2    1    2    0    0 -0.67342506231E+03  0.67252668159E+02 -0.42616882490E+03  0.80484584584E+03  0.90181662975E+02 0.  0.
        254    2    1    2    0    0  0.67342506231E+03 -0.67252668159E+02 -0.16794301414E+04  0.20265233073E+04  0.91010267519E+03 0.  0.
        -24    2    4    4    0    0  0.68554491706E+03  0.29643029169E+02 -0.53125021708E+03  0.87145526015E+03  0.79730388218E+02 0.  0.
         24    2    4    4    0    0 -0.12119854756E+02 -0.96895697328E+02 -0.11481799243E+04  0.11550680472E+04  0.79557450752E+02 0.  0.
         11    1    3    3    0    0 -0.32190514241E+03  0.47547983056E+02 -0.25477095589E+03  0.41326985296E+03  0.00000000000E+00 0. -1.
        -11    1    3    3    0    0 -0.35151991990E+03  0.19704685103E+02 -0.17139786901E+03  0.39157599288E+03  0.00000000000E+00 0.  1.
          2    1    6    6  502    0 -0.48697815700E+01 -0.10791960535E+03 -0.10933022738E+04  0.10986265143E+04  0.00000000000E+00 0. -1.
          1    1    5    5  503    0  0.59079756239E+03  0.42131032994E+02 -0.42791984577E+03  0.73070662928E+03  0.00000000000E+00 0. -1.
         -4    1    5    5    0  503  0.94747354669E+02 -0.12488003825E+02 -0.10333037131E+03  0.14074863087E+03  0.00000000000E+00 0.  1.
         -1    1    6    6    0  502 -0.72500731858E+01  0.11023908021E+02 -0.54877650485E+02  0.56441532864E+02  0.00000000000E+00 0.  1.
<mgrwt>
<rscale>  0 0.18929089E+04</rscale>
<asrwt>0</asrwt>
<pdfrwt beam="1">  1        2 0.37976677E+00 0.18929089E+04</pdfrwt>
<pdfrwt beam="2">  1       -2 0.55828477E-01 0.18929089E+04</pdfrwt>
<totfact> 0.10260286E+01</totfact>
</mgrwt>
</event>
<event>
12    1  0.1489025E-007  0.2233186E+04  0.7818608E-02  0.8504741E-01
          2   -1    0    0  501    0  0.00000000000E+00  0.00000000000E+00  0.17292744292E+04  0.17292744292E+04  0.00000000000E+00 0. -1.
         -2   -1    0    0    0  501 -0.00000000000E+00 -0.00000000000E+00 -0.72098429240E+03  0.72098429240E+03  0.00000000000E+00 0.  1.
         23    2    1    2    0    0  0.93152584631E+03 -0.84522701754E+02  0.33003077997E+03  0.99631539487E+03  0.94018938881E+02 0.  0.
        254    2    1    2    0    0 -0.93152584631E+03  0.84522701754E+02  0.67825935687E+03  0.14539433268E+04  0.88262730121E+03 0.  0.
        -24    2    4    4    0    0 -0.43842120119E+03  0.47545806484E+03  0.33931090095E+03  0.73446879471E+03  0.77711014859E+02 0.  0.
         24    2    4    4    0    0 -0.49310464512E+03 -0.39093536309E+03  0.33894845592E+03  0.71947453206E+03  0.82309764704E+02 0.  0.
         13    1    3    3    0    0  0.82693703142E+01 -0.80844990708E+01 -0.28479987519E+01  0.11910193429E+02  0.00000000000E+00 0.  1.
        -13    1    3    3    0    0  0.92325647599E+03 -0.76438202683E+02  0.33287877872E+03  0.98440520144E+03  0.00000000000E+00 0. -1.
          2    1    6    6  502    0 -0.13368752144E+03 -0.10317753901E+03  0.50907528331E+02  0.17637895108E+03  0.00000000000E+00 0. -1.
          1    1    5    5  503    0 -0.14143229650E+03  0.19768410516E+03  0.10165650847E+03  0.26346943967E+03  0.00000000000E+00 0. -1.
         -2    1    5    5    0  503 -0.29698890469E+03  0.27777395968E+03  0.23765439249E+03  0.47099935505E+03  0.00000000000E+00 0.  1.
         -1    1    6    6    0  502 -0.35941712368E+03 -0.28775782407E+03  0.28804092759E+03  0.54309558097E+03  0.00000000000E+00 0.  1.
<mgrwt>
<rscale>  0 0.22331858E+04</rscale>
<asrwt>0</asrwt>
<pdfrwt beam="1">  1        2 0.26604222E+00 0.22331858E+04</pdfrwt>
<pdfrwt beam="2">  1       -2 0.11092066E+00 0.22331858E+04</pdfrwt>
<totfact> 0.55444394E+00</totfact>
</mgrwt>
</event>
<event>
12    1  0.1489025E-007  0.3003597E+04  0.7818608E-02  0.8242705E-01
          2   -1    0    0  501    0  0.00000000000E+00  0.00000000000E+00  0.34820977108E+04  0.34820977108E+04  0.00000000000E+00 0.  1.
         -2   -1    0    0    0  501 -0.00000000000E+00 -0.00000000000E+00 -0.64771247914E+03  0.64771247914E+03  0.00000000000E+00 0. -1.
         23    2    1    2    0    0 -0.68361736221E+02  0.11998521789E+03 -0.57612213817E+03  0.59942627809E+03  0.91243439712E+02 0.  0.
        254    2    1    2    0    0  0.68361736221E+02 -0.11998521789E+03  0.34105073698E+04  0.35303839118E+04  0.90165418308E+03 0.  0.
        -24    2    4    4    0    0 -0.40040081622E+02  0.36792115234E+03  0.10574361944E+04  0.11231748851E+04  0.79883257414E+02 0.  0.
         24    2    4    4    0    0  0.10840181784E+03 -0.48790637023E+03  0.23530711754E+04  0.24072090267E+04  0.88925595777E+02 0.  0.
         11    1    3    3    0    0 -0.32407675484E+02  0.43685588903E+02 -0.40510217838E+03  0.40873764573E+03  0.00000000000E+00 0. -1.
        -11    1    3    3    0    0 -0.35954060737E+02  0.76299628986E+02 -0.17101995978E+03  0.19068863236E+03  0.00000000000E+00 0.  1.
          2    1    6    6  502    0  0.85682274925E+02 -0.22589740940E+03  0.99543251632E+03  0.10243324589E+04  0.00000000000E+00 0. -1.
          3    1    5    5  503    0 -0.50940235493E+02  0.25735636554E+03  0.65228740627E+03  0.70306903421E+03  0.00000000000E+00 0. -1.
         -4    1    5    5    0  503  0.10900153871E+02  0.11056478680E+03  0.40514878811E+03  0.42010585088E+03  0.00000000000E+00 0.  1.
         -3    1    6    6    0  502  0.22719542918E+02 -0.26200896083E+03  0.13576386591E+04  0.13828765678E+04  0.00000000000E+00 0.  1.
<mgrwt>
<rscale>  0 0.30035966E+04</rscale>
<asrwt>0</asrwt>
<pdfrwt beam="1">  1        2 0.53570733E+00 0.30035966E+04</pdfrwt>
<pdfrwt beam="2">  1       -2 0.99648076E-01 0.30035966E+04</pdfrwt>
<totfact> 0.59595538E-01</totfact>
</mgrwt>
</event>
<event>
12    1  0.1489025E-007  0.1751511E+04  0.7818608E-02  0.8732519E-01
         -1   -1    0    0    0  501 -0.00000000000E+00  0.00000000000E+00  0.11750539228E+04  0.11750539228E+04  0.00000000000E+00 0.  1.
          1   -1    0    0  501    0  0.00000000000E+00 -0.00000000000E+00 -0.65269182093E+03  0.65269182093E+03  0.00000000000E+00 0. -1.
         23    2    1    2    0    0  0.52780023247E+03  0.26177098843E+03  0.14914110965E+03  0.61561507901E+03  0.98192255994E+02 0.  0.
        254    2    1    2    0    0 -0.52780023247E+03 -0.26177098843E+03  0.37322099219E+03  0.12121306647E+04  0.99139785329E+03 0.  0.
        -24    2    4    4    0    0  0.68079843413E+02 -0.45590497887E+03  0.34260557540E+03  0.57958517623E+03  0.77821471226E+02 0.  0.
         24    2    4    4    0    0 -0.59588007588E+03  0.19413399044E+03  0.30615416791E+02  0.63254548846E+03  0.80096317936E+02 0.  0.
         13    1    3    3    0    0  0.14835965600E+03  0.78732275943E+02  0.88945825689E+02  0.19005451510E+03  0.00000000000E+00 0.  1.
        -13    1    3    3    0    0  0.37944057647E+03  0.18303871248E+03  0.60195283961E+02  0.42556056391E+03  0.00000000000E+00 0. -1.
          4    1    6    6  502    0 -0.34818807954E+03  0.73319269544E+02  0.28334448136E+02  0.35695026960E+03  0.00000000000E+00 0. -1.
          3    1    5    5  503    0  0.72252451299E+02 -0.30898269251E+03  0.20185395682E+03  0.37607943426E+03  0.00000000000E+00 0. -1.
         -4    1    5    5    0  503 -0.41726078856E+01 -0.14692228635E+03  0.14075161857E+03  0.20350574197E+03  0.00000000000E+00 0.  1.
         -3    1    6    6    0  502 -0.24769199635E+03  0.12081472089E+03  0.22809686559E+01  0.27559521886E+03  0.00000000000E+00 0.  1.
<mgrwt>
<rscale>  0 0.17515114E+04</rscale>
<asrwt>0</asrwt>
<pdfrwt beam="1">  1        1 0.10041413E+00 0.17515114E+04</pdfrwt>
<pdfrwt beam="2">  1       -1 0.18077753E+00 0.17515114E+04</pdfrwt>
<totfact> 0.58918280E+00</totfact>
</mgrwt>
</event>
<event>
12    1  0.1489025E-007  0.1210821E+04  0.7818608E-02  0.9103437E-01
          1   -1    0    0  501    0  0.00000000000E+00  0.00000000000E+00  0.27620455292E+03  0.27620455292E+03  0.00000000000E+00 0. -1.
         -1   -1    0    0    0  501 -0.00000000000E+00 -0.00000000000E+00 -0.13269944667E+04  0.13269944667E+04  0.00000000000E+00 0.  1.
         23    2    1    2    0    0  0.22078074946E+03 -0.83672227389E+02 -0.88094204000E+02  0.26838503878E+03  0.92329623061E+02 0.  0.
        254    2    1    2    0    0 -0.22078074946E+03  0.83672227389E+02 -0.96269570979E+03  0.13348139808E+04  0.89397995104E+03 0.  0.
        -24    2    4    4    0    0  0.50235272216E+02 -0.36172882049E+03 -0.54978103085E+03  0.66491601856E+03  0.80515884760E+02 0.  0.
         24    2    4    4    0    0 -0.27101602167E+03  0.44540104788E+03 -0.41291467893E+03  0.66989796229E+03  0.80205799939E+02 0.  0.
         11    1    3    3    0    0  0.20853423198E+03 -0.99668390431E+02 -0.70509603512E+02  0.24164419742E+03  0.00000000000E+00 0. -1.
        -11    1    3    3    0    0  0.12246517480E+02  0.15996163042E+02 -0.17584600488E+02  0.26740841362E+02  0.00000000000E+00 0.  1.
          4    1    6    6  502    0 -0.77591157103E+02  0.18412661129E+03 -0.12528376782E+03  0.23583684853E+03  0.00000000000E+00 0. -1.
          1    1    5    5  503    0 -0.87317327830E+01 -0.46623313819E+02 -0.11770065077E+03  0.12689925036E+03  0.00000000000E+00 0. -1.
         -2    1    5    5    0  503  0.58967004999E+02 -0.31510550667E+03 -0.43208038008E+03  0.53801676820E+03  0.00000000000E+00 0.  1.
         -3    1    6    6    0  502 -0.19342486457E+03  0.26127443659E+03 -0.28763091111E+03  0.43406111376E+03  0.00000000000E+00 0.  1.
<mgrwt>
<rscale>  0 0.12108211E+04</rscale>
<asrwt>0</asrwt>
<pdfrwt beam="1">  1        1 0.42493008E-01 0.12108211E+04</pdfrwt>
<pdfrwt beam="2">  1       -1 0.20415299E+00 0.12108211E+04</pdfrwt>
<totfact> 0.13615929E+01</totfact>
</mgrwt>
</event>
<event>
12    1  0.1489025E-007  0.1847031E+04  0.7818608E-02  0.8681681E-01
         -1   -1    0    0    0  501 -0.00000000000E+00  0.00000000000E+00  0.31570545669E+03  0.31570545669E+03  0.00000000000E+00 0.  1.
          1   -1    0    0  501    0  0.00000000000E+00 -0.00000000000E+00 -0.27015093091E+04  0.27015093091E+04  0.00000000000E+00 0. -1.
         23    2    1    2    0    0 -0.56968883165E+03 -0.30042560229E+03 -0.45833871536E+03  0.79653158300E+03  0.97914642979E+02 0.  0.
        254    2    1    2    0    0  0.56968883165E+03  0.30042560229E+03 -0.19274651371E+04  0.22206831828E+04  0.89527148753E+03 0.  0.
        -24    2    4    4    0    0  0.58396346946E+03  0.40631973020E+03 -0.19581910369E+04  0.20849258714E+04  0.79339116750E+02 0.  0.
         24    2    4    4    0    0 -0.14274637817E+02 -0.10589412792E+03  0.30725899840E+02  0.13575731139E+03  0.77901444556E+02 0.  0.
         11    1    3    3    0    0 -0.24520937344E+03 -0.81376722230E+02 -0.15518680468E+03  0.30138472439E+03  0.00000000000E+00 0.  1.
        -11    1    3    3    0    0 -0.32447945820E+03 -0.21904888006E+03 -0.30315191068E+03  0.49514685861E+03  0.00000000000E+00 0. -1.
          2    1    6    6  502    0 -0.36970569535E+02 -0.50994162298E+02  0.41435772847E+02  0.75393307871E+02  0.00000000000E+00 0. -1.
          3    1    5    5  503    0  0.52013696298E+03  0.37599459232E+03 -0.18173973687E+04  0.19273939892E+04  0.00000000000E+00 0. -1.
         -4    1    5    5    0  503  0.63826506486E+02  0.30325137889E+02 -0.14079366821E+03  0.15753188225E+03  0.00000000000E+00 0.  1.
         -1    1    6    6    0  502  0.22695931718E+02 -0.54899965620E+02 -0.10709873008E+02  0.60364003524E+02  0.00000000000E+00 0.  1.
<mgrwt>
<rscale>  0 0.18470314E+04</rscale>
<asrwt>0</asrwt>
<pdfrwt beam="1">  1        1 0.41561683E+00 0.18470314E+04</pdfrwt>
<pdfrwt beam="2">  1       -1 0.48570068E-01 0.18470314E+04</pdfrwt>
<totfact> 0.39085396E+00</totfact>
</mgrwt>
</event>
<event>
12    1  0.1489025E-007  0.2196459E+04  0.7818608E-02  0.8519903E-01
          1   -1    0    0  501    0  0.00000000000E+00  0.00000000000E+00  0.19371286356E+04  0.19371286356E+04  0.00000000000E+00 0. -1.
         -1   -1    0    0    0  501 -0.00000000000E+00 -0.00000000000E+00 -0.62262688505E+03  0.62262688505E+03  0.00000000000E+00 0.  1.
         23    2    1    2    0    0 -0.59631282532E+03 -0.94172581857E+02 -0.24877708627E+03  0.65945894660E+03  0.92404560455E+02 0.  0.
        254    2    1    2    0    0  0.59631282532E+03  0.94172581857E+02  0.15632788368E+04  0.19002965741E+04  0.89600719133E+03 0.  0.
        -24    2    4    4    0    0 -0.10688655765E+03 -0.24857911134E+03  0.54680195991E+03  0.61520800767E+03  0.79197212938E+02 0.  0.
         24    2    4    4    0    0  0.70319938296E+03  0.34275169320E+03  0.10164768769E+04  0.12850885664E+04  0.79115654451E+02 0.  0.
         13    1    3    3    0    0 -0.36568364021E+03 -0.63528052981E+02 -0.10408268584E+03  0.38547833107E+03  0.00000000000E+00 0. -1.
        -13    1    3    3    0    0 -0.23062918511E+03 -0.30644528875E+02 -0.14469440043E+03  0.27398061554E+03  0.00000000000E+00 0.  1.
          4    1    6    6  502    0  0.63451208322E+03  0.29648138875E+03  0.87059145104E+03  0.11173344496E+04  0.00000000000E+00 0. -1.
          1    1    5    5  503    0 -0.41770697262E+02 -0.93734281419E+02  0.29657127441E+03  0.31382387970E+03  0.00000000000E+00 0. -1.
         -4    1    5    5    0  503 -0.65115860385E+02 -0.15484482992E+03  0.25023068550E+03  0.30138412797E+03  0.00000000000E+00 0.  1.
         -3    1    6    6    0  502  0.68687299742E+02  0.46270304450E+02  0.14588542587E+03  0.16775411679E+03  0.00000000000E+00 0.  1.
<mgrwt>
<rscale>  0 0.21964593E+04</rscale>
<asrwt>0</asrwt>
<pdfrwt beam="1">  1        1 0.29801979E+00 0.21964593E+04</pdfrwt>
<pdfrwt beam="2">  1       -1 0.95788753E-01 0.21964593E+04</pdfrwt>
<totfact> 0.31507873E+00</totfact>
</mgrwt>
</event>
<event>
12    1  0.1489025E-007  0.2408945E+04  0.7818608E-02  0.8436162E-01
         -2   -1    0    0    0  501 -0.00000000000E+00  0.00000000000E+00  0.68343138094E+03  0.68343138094E+03  0.00000000000E+00 0.  1.
          2   -1    0    0  501    0  0.00000000000E+00 -0.00000000000E+00 -0.21227497137E+04  0.21227497137E+04  0.00000000000E+00 0. -1.
         23    2    1    2    0    0 -0.14168354876E+03 -0.42785869121E+03  0.46291352062E+03  0.65264467873E+03  0.92297678611E+02 0.  0.
        254    2    1    2    0    0  0.14168354876E+03  0.42785869121E+03 -0.19022318533E+04  0.21535364159E+04  0.90338019847E+03 0.  0.
        -24    2    4    4    0    0  0.85411420990E+02  0.69469985647E+03 -0.15352312841E+04  0.16891454281E+04  0.79838463148E+02 0.  0.
         24    2    4    4    0    0  0.56272127765E+02 -0.26684116526E+03 -0.36700056926E+03  0.46439098778E+03  0.81233071182E+02 0.  0.
         11    1    3    3    0    0 -0.12881703040E+03 -0.26546424938E+03  0.26788891327E+03  0.39853427063E+03  0.00000000000E+00 0. -1.
        -11    1    3    3    0    0 -0.12866518360E+02 -0.16239444183E+03  0.19502460735E+03  0.25411040810E+03  0.00000000000E+00 0.  1.
          4    1    6    6  502    0  0.41974622658E+02 -0.46192649745E+02 -0.97875989962E+02  0.11608332890E+03  0.00000000000E+00 0. -1.
          1    1    5    5  503    0 -0.73424172637E+01  0.19981754779E+03 -0.47828541431E+03  0.51839936442E+03  0.00000000000E+00 0. -1.
         -2    1    5    5    0  503  0.92753838254E+02  0.49488230868E+03 -0.10569458698E+04  0.11707460637E+04  0.00000000000E+00 0.  1.
         -3    1    6    6    0  502  0.14297505107E+02 -0.22064851552E+03 -0.26912457930E+03  0.34830765888E+03  0.00000000000E+00 0.  1.
<mgrwt>
<rscale>  0 0.24089448E+04</rscale>
<asrwt>0</asrwt>
<pdfrwt beam="1">  1        2 0.32657687E+00 0.24089448E+04</pdfrwt>
<pdfrwt beam="2">  1       -2 0.10514329E+00 0.24089448E+04</pdfrwt>
<totfact> 0.37563459E+00</totfact>
</mgrwt>
</event>
<event>
12    1  0.1489025E-007  0.2057145E+04  0.7818608E-02  0.8580360E-01
         -1   -1    0    0    0  501 -0.00000000000E+00  0.00000000000E+00  0.20762744382E+04  0.20762744382E+04  0.00000000000E+00 0.  1.
          1   -1    0    0  501    0  0.00000000000E+00 -0.00000000000E+00 -0.50954799772E+03  0.50954799772E+03  0.00000000000E+00 0. -1.
         23    2    1    2    0    0  0.99201796246E+02  0.52391225611E+03  0.14287802672E+04  0.15276470185E+04  0.89259804970E+02 0.  0.
        254    2    1    2    0    0 -0.99201796246E+02 -0.52391225611E+03  0.13794617330E+03  0.10581754174E+04  0.90353805610E+03 0.  0.
        -24    2    4    4    0    0 -0.44915965330E+03 -0.84859007127E+02 -0.33110283550E+02  0.46585749626E+03  0.83555195575E+02 0.  0.
         24    2    4    4    0    0  0.34995785705E+03 -0.43905324898E+03  0.17105645685E+03  0.59231792115E+03  0.79636368132E+02 0.  0.
         13    1    3    3    0    0  0.28408184128E+01  0.34169615310E+02  0.44826814028E+02  0.56436478589E+02  0.00000000000E+00 0. -1.
        -13    1    3    3    0    0  0.96360977833E+02  0.48974264080E+03  0.13839534532E+04  0.14712105399E+04  0.00000000000E+00 0.  1.
          4    1    6    6  502    0  0.31635830726E+03 -0.38168946809E+03  0.12446396007E+03  0.51113668033E+03  0.00000000000E+00 0. -1.
          3    1    5    5  503    0 -0.33094129847E+03 -0.95555033020E+02 -0.81301084539E+01  0.34455624509E+03  0.00000000000E+00 0. -1.
         -4    1    5    5    0  503 -0.11821835483E+03  0.10696025893E+02 -0.24980175096E+02  0.12130125117E+03  0.00000000000E+00 0.  1.
         -3    1    6    6    0  502  0.33599549794E+02 -0.57363780895E+02  0.46592496782E+02  0.81181240822E+02  0.00000000000E+00 0.  1.
<mgrwt>
<rscale>  0 0.20571451E+04</rscale>
<asrwt>0</asrwt>
<pdfrwt beam="1">  1        1 0.78392001E-01 0.20571451E+04</pdfrwt>
<pdfrwt beam="2">  1       -1 0.31942683E+00 0.20571451E+04</pdfrwt>
<totfact> 0.98478091E-01</totfact>
</mgrwt>
</event>
<event>
12    1  0.1489025E-007  0.2191776E+04  0.7818608E-02  0.8521859E-01
         -1   -1    0    0    0  501 -0.00000000000E+00  0.00000000000E+00  0.69875114985E+03  0.69875114985E+03  0.00000000000E+00 0.  1.
          1   -1    0    0  501    0  0.00000000000E+00 -0.00000000000E+00 -0.17187379782E+04  0.17187379782E+04  0.00000000000E+00 0. -1.
         23    2    1    2    0    0  0.17775619383E+03  0.85313193542E+03 -0.55176438259E+03  0.10360280910E+04  0.97359682652E+02 0.  0.
        254    2    1    2    0    0 -0.17775619383E+03 -0.85313193542E+03 -0.46822244576E+03  0.13814610370E+04  0.96424632457E+03 0.  0.
        -24    2    4    4    0    0  0.19512974507E+03  0.86074277325E+02 -0.26208471999E+03  0.34697066424E+03  0.78840616227E+02 0.  0.
         24    2    4    4    0    0 -0.37288593890E+03 -0.93920621274E+03 -0.20613772577E+03  0.10344903728E+04  0.80779551373E+02 0.  0.
         13    1    3    3    0    0  0.23138581787E+02  0.14143318063E+03 -0.50729058132E+02  0.15202689199E+03  0.00000000000E+00 0. -1.
        -13    1    3    3    0    0  0.15461761205E+03  0.71169875479E+03 -0.50103532446E+03  0.88400119903E+03  0.00000000000E+00 0.  1.
          4    1    6    6  502    0 -0.70227567866E+02 -0.17749587843E+03 -0.70157411921E+01  0.19101287593E+03  0.00000000000E+00 0. -1.
          3    1    5    5  503    0  0.76946416321E+02  0.63436092292E+02 -0.76059966274E+02  0.12541932570E+03  0.00000000000E+00 0. -1.
         -4    1    5    5    0  503  0.11818332875E+03  0.22638185033E+02 -0.18602475371E+03  0.22155133854E+03  0.00000000000E+00 0.  1.
         -3    1    6    6    0  502 -0.30265837104E+03 -0.76171033431E+03 -0.19912198458E+03  0.84347749686E+03  0.00000000000E+00 0.  1.
<mgrwt>
<rscale>  0 0.21917757E+04</rscale>
<asrwt>0</asrwt>
<pdfrwt beam="1">  1        1 0.26442123E+00 0.21917757E+04</pdfrwt>
<pdfrwt beam="2">  1       -1 0.10750018E+00 0.21917757E+04</pdfrwt>
<totfact> 0.34015317E+00</totfact>
</mgrwt>
</event>
<event>
12    1  0.1489025E-007  0.1371981E+04  0.7818608E-02  0.8974354E-01
          2   -1    0    0  501    0  0.00000000000E+00  0.00000000000E+00  0.17760424363E+04  0.17760424363E+04  0.00000000000E+00 0. -1.
         -2   -1    0    0    0  501 -0.00000000000E+00 -0.00000000000E+00 -0.26496150113E+03  0.26496150113E+03  0.00000000000E+00 0.  1.
         23    2    1    2    0    0  0.29475224106E+03 -0.10751391567E+03  0.74523513540E+03  0.81354983411E+03  0.89720676971E+02 0.  0.
        254    2    1    2    0    0 -0.29475224106E+03  0.10751391567E+03  0.76584579976E+03  0.12274541033E+04  0.90646878657E+03 0.  0.
        -24    2    4    4    0    0 -0.47077851844E+03  0.19206630093E+03  0.93826683587E+02  0.52312139115E+03  0.79565482157E+02 0.  0.
         24    2    4    4    0    0  0.17602627737E+03 -0.84552385262E+02  0.67201911617E+03  0.70433271215E+03  0.79627386811E+02 0.  0.
         13    1    3    3    0    0  0.25355950210E+02 -0.37858298896E+02  0.73693773321E+02  0.86642640961E+02  0.00000000000E+00 0.  1.
        -13    1    3    3    0    0  0.26939629085E+03 -0.69655616773E+02  0.67154136208E+03  0.72690719315E+03  0.00000000000E+00 0. -1.
          2    1    6    6  502    0  0.13962531060E+03 -0.29236961811E+02  0.41131738634E+03  0.43535275306E+03  0.00000000000E+00 0. -1.
          1    1    5    5  503    0 -0.22029037057E+03  0.53428141739E+02  0.62385923705E+02  0.23510511941E+03  0.00000000000E+00 0. -1.
         -2    1    5    5    0  503 -0.25048814787E+03  0.13863815919E+03  0.31440759882E+02  0.28801627175E+03  0.00000000000E+00 0.  1.
         -1    1    6    6    0  502  0.36400966770E+02 -0.55315423451E+02  0.26070172983E+03  0.26897995909E+03  0.00000000000E+00 0.  1.
<mgrwt>
<rscale>  0 0.13719809E+04</rscale>
<asrwt>0</asrwt>
<pdfrwt beam="1">  1        2 0.27323729E+00 0.13719809E+04</pdfrwt>
<pdfrwt beam="2">  1       -2 0.40763309E-01 0.13719809E+04</pdfrwt>
<totfact> 0.49448384E+01</totfact>
</mgrwt>
</event>
<event>
12    1  0.1489025E-007  0.2381057E+04  0.7818608E-02  0.8446630E-01
         -2   -1    0    0    0  501 -0.00000000000E+00  0.00000000000E+00  0.12179700514E+04  0.12179700514E+04  0.00000000000E+00 0.  1.
          2   -1    0    0  501    0  0.00000000000E+00 -0.00000000000E+00 -0.11637055377E+04  0.11637055377E+04  0.00000000000E+00 0. -1.
         23    2    1    2    0    0 -0.90222115198E+02 -0.28162856107E+03  0.99919815845E+03  0.10460912439E+04  0.91952456578E+02 0.  0.
        254    2    1    2    0    0  0.90222115198E+02  0.28162856107E+03 -0.94493364475E+03  0.13355843453E+04  0.89634327904E+03 0.  0.
        -24    2    4    4    0    0  0.36904496667E+03  0.44015618127E+03 -0.76186641066E+03  0.95767470271E+03  0.82272457018E+02 0.  0.
         24    2    4    4    0    0 -0.27882285147E+03 -0.15852762020E+03 -0.18306723408E+03  0.37790964255E+03  0.80180402032E+02 0.  0.
         13    1    3    3    0    0 -0.57411521113E+02 -0.26672686265E+03  0.85605469094E+03  0.89848146108E+03  0.00000000000E+00 0. -1.
        -13    1    3    3    0    0 -0.32810594085E+02 -0.14901698419E+02  0.14314346751E+03  0.14760978284E+03  0.00000000000E+00 0.  1.
          2    1    6    6  502    0 -0.69063396054E+02 -0.80568140733E+02 -0.70615933332E+02  0.12746602691E+03  0.00000000000E+00 0. -1.
          3    1    5    5  503    0  0.10751153317E+03  0.19019083958E+03 -0.28453593996E+03  0.35873665321E+03  0.00000000000E+00 0. -1.
         -4    1    5    5    0  503  0.26153343350E+03  0.24996534169E+03 -0.47733047071E+03  0.59893804951E+03  0.00000000000E+00 0.  1.
         -1    1    6    6    0  502 -0.20975945542E+03 -0.77959479472E+02 -0.11245130075E+03  0.25044361565E+03  0.00000000000E+00 0.  1.
<mgrwt>
<rscale>  0 0.23810573E+04</rscale>
<asrwt>0</asrwt>
<pdfrwt beam="1">  1        2 0.17903162E+00 0.23810573E+04</pdfrwt>
<pdfrwt beam="2">  1       -2 0.18738001E+00 0.23810573E+04</pdfrwt>
<totfact> 0.28957300E+00</totfact>
</mgrwt>
</event>
<event>
12    1  0.1489025E-007  0.1145163E+04  0.7818608E-02  0.9162258E-01
          1   -1    0    0  501    0  0.00000000000E+00  0.00000000000E+00  0.14285882362E+04  0.14285882362E+04  0.00000000000E+00 0. -1.
         -1   -1    0    0    0  501 -0.00000000000E+00 -0.00000000000E+00 -0.22949192985E+03  0.22949192985E+03  0.00000000000E+00 0.  1.
         23    2    1    2    0    0 -0.15631122738E+03 -0.37456308408E+02  0.67043307740E+02  0.19668719159E+03  0.91404985530E+02 0.  0.
        254    2    1    2    0    0  0.15631122738E+03  0.37456308408E+02  0.11320529986E+04  0.14613929745E+04  0.91010398269E+03 0.  0.
        -24    2    4    4    0    0  0.37669709334E+03 -0.19758135935E+03  0.20919763459E+03  0.48066277546E+03  0.79586177805E+02 0.  0.
         24    2    4    4    0    0 -0.22038586596E+03  0.23503766776E+03  0.92285536403E+03  0.98073019901E+03  0.79731205674E+02 0.  0.
         13    1    3    3    0    0 -0.92705487711E+02  0.26211294721E+01  0.77401312106E+02  0.12079793412E+03  0.00000000000E+00 0. -1.
        -13    1    3    3    0    0 -0.63605739668E+02 -0.40077437880E+02 -0.10358004366E+02  0.75889257476E+02  0.00000000000E+00 0.  1.
          4    1    6    6  502    0 -0.22656879614E+03  0.22095387385E+03  0.87580711055E+03  0.93123151184E+03  0.00000000000E+00 0. -1.
          1    1    5    5  503    0  0.32909894258E+03 -0.14095293946E+03  0.18388319465E+03  0.40247593025E+03  0.00000000000E+00 0. -1.
         -2    1    5    5    0  503  0.47598150755E+02 -0.56628419888E+02  0.25314439941E+02  0.78186845209E+02  0.00000000000E+00 0.  1.
         -3    1    6    6    0  502  0.61829301783E+01  0.14083793910E+02  0.47048253476E+02  0.49498687171E+02  0.00000000000E+00 0.  1.
<mgrwt>
<rscale>  0 0.11451628E+04</rscale>
<asrwt>0</asrwt>
<pdfrwt beam="1">  1        1 0.21978280E+00 0.11451628E+04</pdfrwt>
<pdfrwt beam="2">  1       -1 0.35306452E-01 0.11451628E+04</pdfrwt>
<totfact> 0.55654504E+01</totfact>
</mgrwt>
</event>
<event>
12    1  0.1489025E-007  0.1670663E+04  0.7818608E-02  0.8778276E-01
          1   -1    0    0  501    0  0.00000000000E+00  0.00000000000E+00  0.40985612551E+04  0.40985612551E+04  0.00000000000E+00 0. -1.
         -1   -1    0    0    0  501 -0.00000000000E+00 -0.00000000000E+00 -0.17024964728E+03  0.17024964728E+03  0.00000000000E+00 0.  1.
         23    2    1    2    0    0 -0.26062973782E+03  0.47924580630E+03  0.84747294768E+03  0.10127823283E+04  0.99565276852E+02 0.  0.
        254    2    1    2    0    0  0.26062973782E+03 -0.47924580630E+03  0.30808386601E+04  0.32560285741E+04  0.90141600959E+03 0.  0.
        -24    2    4    4    0    0  0.38258635382E+03 -0.17458034774E+02  0.52584417664E+03  0.65553459855E+03  0.80848071616E+02 0.  0.
         24    2    4    4    0    0 -0.12195661600E+03 -0.46178777152E+03  0.25549944835E+04  0.26004939755E+04  0.80316523423E+02 0.  0.
         11    1    3    3    0    0 -0.63150596224E+02  0.16135687242E+03  0.34706081408E+03  0.38791139033E+03  0.00000000000E+00 0. -1.
        -11    1    3    3    0    0 -0.19747914160E+03  0.31788893387E+03  0.50041213360E+03  0.62487093796E+03  0.00000000000E+00 0.  1.
          2    1    6    6  502    0 -0.12040894812E+03 -0.38373002169E+03  0.20001072441E+04  0.20401411795E+04  0.00000000000E+00 0. -1.
          1    1    5    5  503    0  0.26813895693E+03  0.46301670351E+01  0.41864145152E+03  0.49717260946E+03  0.00000000000E+00 0. -1.
         -2    1    5    5    0  503  0.11444739690E+03 -0.22088201810E+02  0.10720272512E+03  0.15836198909E+03  0.00000000000E+00 0.  1.
         -1    1    6    6    0  502 -0.15476678811E+01 -0.78057749831E+02  0.55488723938E+03  0.56035279602E+03  0.00000000000E+00 0.  1.
<mgrwt>
<rscale>  0 0.16706629E+04</rscale>
<asrwt>0</asrwt>
<pdfrwt beam="1">  1        1 0.63054781E+00 0.16706629E+04</pdfrwt>
<pdfrwt beam="2">  1       -1 0.26192256E-01 0.16706629E+04</pdfrwt>
<totfact> 0.98191689E-01</totfact>
</mgrwt>
</event>
<event>
12    1  0.1489025E-007  0.1531618E+04  0.7818608E-02  0.8863695E-01
          1   -1    0    0  501    0  0.00000000000E+00  0.00000000000E+00  0.29074098255E+04  0.29074098255E+04  0.00000000000E+00 0. -1.
         -1   -1    0    0    0  501 -0.00000000000E+00 -0.00000000000E+00 -0.20171333524E+03  0.20171333524E+03  0.00000000000E+00 0.  1.
         23    2    1    2    0    0  0.44667261700E+03 -0.21527400258E+03  0.70715820124E+03  0.86872724615E+03  0.93568069683E+02 0.  0.
        254    2    1    2    0    0 -0.44667261700E+03  0.21527400258E+03  0.19985382890E+04  0.22403959146E+04  0.88281325232E+03 0.  0.
        -24    2    4    4    0    0 -0.25902768888E+03  0.20999819880E+03  0.13941077940E+03  0.37007894695E+03  0.79551709337E+02 0.  0.
         24    2    4    4    0    0 -0.18764492811E+03  0.52758037862E+01  0.18591275096E+04  0.18703169676E+04  0.80573005794E+02 0.  0.
         13    1    3    3    0    0 -0.79172150585E+00 -0.16726774710E+01 -0.24386293595E+01  0.30613046268E+01  0.00000000000E+00 0.  1.
        -13    1    3    3    0    0  0.44746433850E+03 -0.21360132511E+03  0.70959683060E+03  0.86566594152E+03  0.00000000000E+00 0. -1.
          2    1    6    6  502    0 -0.16604916666E+03  0.19196024800E+02  0.13147276404E+04  0.13253111263E+04  0.00000000000E+00 0. -1.
          3    1    5    5  503    0 -0.28318047941E+01  0.27514797062E+02  0.17540291473E+02  0.32752786152E+02  0.00000000000E+00 0. -1.
         -4    1    5    5    0  503 -0.25619588409E+03  0.18248340173E+03  0.12187048792E+03  0.33732616080E+03  0.00000000000E+00 0.  1.
         -1    1    6    6    0  502 -0.21595761455E+02 -0.13920221014E+02  0.54439986918E+03  0.54500584128E+03  0.00000000000E+00 0.  1.
<mgrwt>
<rscale>  0 0.15316179E+04</rscale>
<asrwt>0</asrwt>
<pdfrwt beam="1">  1        1 0.44729379E+00 0.15316179E+04</pdfrwt>
<pdfrwt beam="2">  1       -1 0.31032823E-01 0.15316179E+04</pdfrwt>
<totfact> 0.65054422E+00</totfact>
</mgrwt>
</event>
<event>
12    1  0.1489025E-007  0.1563121E+04  0.7818608E-02  0.8843530E-01
          1   -1    0    0  501    0  0.00000000000E+00  0.00000000000E+00  0.60212999248E+03  0.60212999248E+03  0.00000000000E+00 0. -1.
         -1   -1    0    0    0  501 -0.00000000000E+00 -0.00000000000E+00 -0.10144596147E+04  0.10144596147E+04  0.00000000000E+00 0.  1.
         23    2    1    2    0    0 -0.20645182272E+03 -0.31203478602E+03 -0.51819343295E+03  0.64550706350E+03  0.90370749068E+02 0.  0.
        254    2    1    2    0    0  0.20645182272E+03  0.31203478602E+03  0.10586381077E+03  0.97108254364E+03  0.88983487083E+03 0.  0.
        -24    2    4    4    0    0 -0.30098829776E+03  0.26340336494E+03  0.18757331681E+03  0.44896546387E+03  0.80068411539E+02 0.  0.
         24    2    4    4    0    0  0.50744012048E+03  0.48631421080E+02 -0.81709506041E+02  0.52211707976E+03  0.77905780369E+02 0.  0.
         11    1    3    3    0    0 -0.19962177096E+03 -0.28437270433E+03 -0.50757312637E+03  0.61509931313E+03  0.00000000000E+00 0.  1.
        -11    1    3    3    0    0 -0.68300517634E+01 -0.27662081690E+02 -0.10620306584E+02  0.30407750368E+02  0.00000000000E+00 0. -1.
          2    1    6    6  502    0  0.58614628312E+02  0.86597984779E+01 -0.35694023845E+02  0.69171743509E+02  0.00000000000E+00 0. -1.
          3    1    5    5  503    0 -0.15322606133E+03  0.18634681393E+03  0.11184943795E+03  0.26592039730E+03  0.00000000000E+00 0. -1.
         -4    1    5    5    0  503 -0.14776223642E+03  0.77056551010E+02  0.75723878862E+02  0.18304506657E+03  0.00000000000E+00 0.  1.
         -1    1    6    6    0  502  0.44882549217E+03  0.39971622602E+02 -0.46015482196E+02  0.45294533626E+03  0.00000000000E+00 0.  1.
<mgrwt>
<rscale>  0 0.15631207E+04</rscale>
<asrwt>0</asrwt>
<pdfrwt beam="1">  1        1 0.92635384E-01 0.15631207E+04</pdfrwt>
<pdfrwt beam="2">  1       -1 0.15607071E+00 0.15631207E+04</pdfrwt>
<totfact> 0.10268625E+01</totfact>
</mgrwt>
</event>
<event>
12    1  0.1489025E-007  0.1193667E+04  0.7818608E-02  0.9118418E-01
         -2   -1    0    0    0  501 -0.00000000000E+00  0.00000000000E+00  0.62063169439E+03  0.62063169439E+03  0.00000000000E+00 0.  1.
          2   -1    0    0  501    0  0.00000000000E+00 -0.00000000000E+00 -0.57394774435E+03  0.57394774435E+03  0.00000000000E+00 0. -1.
         23    2    1    2    0    0  0.18309237298E+03  0.95865345361E+02 -0.10573133076E+03  0.26334588296E+03  0.12433405923E+03 0.  0.
        254    2    1    2    0    0 -0.18309237298E+03 -0.95865345361E+02  0.15241528080E+03  0.93123355578E+03  0.89512710612E+03 0.  0.
        -24    2    4    4    0    0 -0.14724774941E+03  0.40252455386E+02  0.51026347881E+03  0.53857582426E+03  0.79955867861E+02 0.  0.
         24    2    4    4    0    0 -0.35844623572E+02 -0.13611780075E+03 -0.35784819801E+03  0.39265773152E+03  0.79447269203E+02 0.  0.
         11    1    3    3    0    0  0.11381913152E+03  0.66744722899E+00 -0.15205859484E+02  0.11483230533E+03  0.00000000000E+00 0.  1.
        -11    1    3    3    0    0  0.69273241464E+02  0.95197898132E+02 -0.90525471275E+02  0.14851357763E+03  0.00000000000E+00 0. -1.
          2    1    6    6  502    0 -0.13879680259E+02 -0.12888612424E+03 -0.33861423802E+03  0.36257948196E+03  0.00000000000E+00 0. -1.
          3    1    5    5  503    0 -0.75128700677E+02 -0.18411055466E+02  0.27308022646E+03  0.28382406296E+03  0.00000000000E+00 0. -1.
         -4    1    5    5    0  503 -0.72119048731E+02  0.58663510852E+02  0.23718325234E+03  0.25475176130E+03  0.00000000000E+00 0.  1.
         -1    1    6    6    0  502 -0.21964943313E+02 -0.72316765038E+01 -0.19233959988E+02  0.30078249561E+02  0.00000000000E+00 0.  1.
<mgrwt>
<rscale>  0 0.11936669E+04</rscale>
<asrwt>0</asrwt>
<pdfrwt beam="1">  1        2 0.88299653E-01 0.11936669E+04</pdfrwt>
<pdfrwt beam="2">  1       -2 0.95481800E-01 0.11936669E+04</pdfrwt>
<totfact> 0.47587687E+01</totfact>
</mgrwt>
</event>
<event>
12    1  0.1489025E-007  0.1545953E+04  0.7818608E-02  0.8854457E-01
          1   -1    0    0  501    0  0.00000000000E+00  0.00000000000E+00  0.99394563945E+03  0.99394563945E+03  0.00000000000E+00 0. -1.
         -1   -1    0    0    0  501 -0.00000000000E+00 -0.00000000000E+00 -0.60113220716E+03  0.60113220716E+03  0.00000000000E+00 0.  1.
         23    2    1    2    0    0 -0.21507101239E+03  0.38592912434E+03 -0.12537837987E+03  0.46829672787E+03  0.91571053322E+02 0.  0.
        254    2    1    2    0    0  0.21507101239E+03 -0.38592912434E+03  0.51819181217E+03  0.11267811187E+04  0.89772830298E+03 0.  0.
        -24    2    4    4    0    0  0.21101088985E+03  0.25555913002E+03  0.93295208549E+02  0.35314204293E+03  0.78544522260E+02 0.  0.
         24    2    4    4    0    0  0.40601225427E+01 -0.64148825436E+03  0.42489660362E+03  0.77363907581E+03  0.80353162836E+02 0.  0.
         11    1    3    3    0    0 -0.19101443115E+03  0.29975376718E+03 -0.13059686945E+03  0.37867449895E+03  0.00000000000E+00 0.  1.
        -11    1    3    3    0    0 -0.24056581244E+02  0.86175357158E+02  0.52184895732E+01  0.89622228916E+02  0.00000000000E+00 0. -1.
          4    1    6    6  502    0 -0.22587161799E+02 -0.55084068868E+03  0.37537283683E+03  0.66696357533E+03  0.00000000000E+00 0. -1.
          1    1    5    5  503    0  0.17626414671E+03  0.20225489609E+03  0.10562814483E+03  0.28832862742E+03  0.00000000000E+00 0. -1.
         -2    1    5    5    0  503  0.34746743137E+02  0.53304233922E+02 -0.12332936281E+02  0.64813415509E+02  0.00000000000E+00 0.  1.
         -1    1    6    6    0  502  0.26647284342E+02 -0.90647565678E+02  0.49523766790E+02  0.10667550048E+03  0.00000000000E+00 0.  1.
<mgrwt>
<rscale>  0 0.15459531E+04</rscale>
<asrwt>0</asrwt>
<pdfrwt beam="1">  1        1 0.15291471E+00 0.15459531E+04</pdfrwt>
<pdfrwt beam="2">  1       -1 0.92481878E-01 0.15459531E+04</pdfrwt>
<totfact> 0.16769153E+01</totfact>
</mgrwt>
</event>
<event>
12    1  0.1489025E-007  0.1214224E+04  0.7818608E-02  0.9100496E-01
          4   -1    0    0  501    0  0.00000000000E+00  0.00000000000E+00  0.12398995237E+04  0.12398995237E+04  0.00000000000E+00 0. -1.
         -4   -1    0    0    0  501 -0.00000000000E+00 -0.00000000000E+00 -0.29727017260E+03  0.29727017260E+03  0.00000000000E+00 0.  1.
         23    2    1    2    0    0  0.63670394598E+02 -0.16742049080E+03 -0.32372201750E+02  0.20407122981E+03  0.92268995350E+02 0.  0.
        254    2    1    2    0    0 -0.63670394598E+02  0.16742049080E+03  0.97500155288E+03  0.13330984665E+04  0.89131361114E+03 0.  0.
        -24    2    4    4    0    0 -0.18464061160E+03  0.30701827464E+03  0.10543674917E+04  0.11166056605E+04  0.82249724709E+02 0.  0.
         24    2    4    4    0    0  0.12097021700E+03 -0.13959778384E+03 -0.79365938799E+02  0.21649280597E+03  0.80304720541E+02 0.  0.
         11    1    3    3    0    0  0.63281217039E+02 -0.43518877118E+02 -0.21159995407E+02  0.79662729687E+02  0.00000000000E+00 0.  1.
        -11    1    3    3    0    0  0.38917755897E+00 -0.12390161368E+03 -0.11212206343E+02  0.12440850013E+03  0.00000000000E+00 0. -1.
          4    1    6    6  502    0  0.10014308836E+03 -0.14634768274E+03 -0.59835256007E+02  0.18715378770E+03  0.00000000000E+00 0. -1.
          3    1    5    5  503    0 -0.13434019110E+03  0.26517399554E+03  0.78480329783E+03  0.83921436543E+03  0.00000000000E+00 0. -1.
         -4    1    5    5    0  503 -0.50300420497E+02  0.41844279099E+02  0.26956419385E+03  0.27739129510E+03  0.00000000000E+00 0.  1.
         -3    1    6    6    0  502  0.20827128645E+02  0.67498988999E+01 -0.19530682792E+02  0.29339018271E+02  0.00000000000E+00 0.  1.
<mgrwt>
<rscale>  0 0.12142243E+04</rscale>
<asrwt>0</asrwt>
<pdfrwt beam="1">  1        4 0.19075377E+00 0.12142243E+04</pdfrwt>
<pdfrwt beam="2">  1       -4 0.45733873E-01 0.12142243E+04</pdfrwt>
<totfact> 0.13868373E+00</totfact>
</mgrwt>
</event>
<event>
12    1  0.1489025E-007  0.1668041E+04  0.7818608E-02  0.8779805E-01
         -2   -1    0    0    0  501 -0.00000000000E+00  0.00000000000E+00  0.93421376298E+03  0.93421376298E+03  0.00000000000E+00 0.  1.
          2   -1    0    0  501    0  0.00000000000E+00 -0.00000000000E+00 -0.74457284599E+03  0.74457284599E+03  0.00000000000E+00 0. -1.
         23    2    1    2    0    0  0.17227827269E+03  0.81178569820E+02  0.62868164457E+03  0.66306778880E+03  0.90269146927E+02 0.  0.
        254    2    1    2    0    0 -0.17227827269E+03 -0.81178569820E+02 -0.43904072758E+03  0.10157188202E+04  0.89591193638E+03 0.  0.
        -24    2    4    4    0    0 -0.22971883925E+02  0.18201882781E+03  0.21338259064E+03  0.29206186522E+03  0.78162919609E+02 0.  0.
         24    2    4    4    0    0 -0.14930638877E+03 -0.26319739763E+03 -0.65242331822E+03  0.72365695495E+03  0.80361274555E+02 0.  0.
         11    1    3    3    0    0  0.34817901105E+02  0.61981543254E+02  0.18527217646E+03  0.19844338566E+03  0.00000000000E+00 0. -1.
        -11    1    3    3    0    0  0.13746037159E+03  0.19197026566E+02  0.44340946811E+03  0.46462440314E+03  0.00000000000E+00 0.  1.
          2    1    6    6  502    0 -0.31770728097E+02 -0.43135993670E+02 -0.19949774991E+03  0.20656583777E+03  0.00000000000E+00 0. -1.
          3    1    5    5  503    0 -0.21822533738E+02  0.28397397084E+02  0.83620659856E+02  0.90967301239E+02  0.00000000000E+00 0. -1.
         -4    1    5    5    0  503 -0.11493501869E+01  0.15362143072E+03  0.12976193079E+03  0.20109456398E+03  0.00000000000E+00 0.  1.
         -1    1    6    6    0  502 -0.11753566067E+03 -0.22006140396E+03 -0.45292556831E+03  0.51709111718E+03  0.00000000000E+00 0.  1.
<mgrwt>
<rscale>  0 0.16680410E+04</rscale>
<asrwt>0</asrwt>
<pdfrwt beam="1">  1        2 0.11454967E+00 0.16680410E+04</pdfrwt>
<pdfrwt beam="2">  1       -2 0.14372519E+00 0.16680410E+04</pdfrwt>
<totfact> 0.12105011E+01</totfact>
</mgrwt>
</event>
<event>
12    1  0.1489025E-007  0.3592483E+04  0.7818608E-02  0.8092216E-01
          2   -1    0    0  501    0  0.00000000000E+00  0.00000000000E+00  0.20175900238E+04  0.20175900238E+04  0.00000000000E+00 0. -1.
         -2   -1    0    0    0  501 -0.00000000000E+00 -0.00000000000E+00 -0.15991774118E+04  0.15991774118E+04  0.00000000000E+00 0.  1.
         23    2    1    2    0    0  0.15161373758E+03  0.15888666397E+04  0.73661835597E+03  0.17602118898E+04  0.90859068648E+02 0.  0.
        254    2    1    2    0    0 -0.15161373758E+03 -0.15888666397E+04 -0.31820574395E+03  0.18565555458E+04  0.89334185787E+03 0.  0.
        -24    2    4    4    0    0 -0.75257477534E+02 -0.58065180451E+03  0.30568400677E+03  0.66577095682E+03  0.83594550909E+02 0.  0.
         24    2    4    4    0    0 -0.76356260046E+02 -0.10082148352E+04 -0.62388975072E+03  0.11907845890E+04  0.80013023812E+02 0.  0.
         11    1    3    3    0    0  0.13610088884E+03  0.12509019874E+04  0.54342456378E+03  0.13706164637E+04  0.00000000000E+00 0. -1.
        -11    1    3    3    0    0  0.15512848743E+02  0.33796465235E+03  0.19319379219E+03  0.38959542612E+03  0.00000000000E+00 0.  1.
          2    1    6    6  502    0 -0.86909351248E+02 -0.79199526143E+03 -0.46815780182E+03  0.92411117127E+03  0.00000000000E+00 0. -1.
          1    1    5    5  503    0 -0.41606567171E+02 -0.21319009109E+03  0.71254199712E+02  0.22860070504E+03  0.00000000000E+00 0. -1.
         -4    1    5    5    0  503 -0.33650910364E+02 -0.36746171343E+03  0.23442980706E+03  0.43717025178E+03  0.00000000000E+00 0.  1.
         -3    1    6    6    0  502  0.10553091202E+02 -0.21621957379E+03 -0.15573194891E+03  0.26667341775E+03  0.00000000000E+00 0.  1.
<mgrwt>
<rscale>  0 0.35924835E+04</rscale>
<asrwt>0</asrwt>
<pdfrwt beam="1">  1        2 0.31039846E+00 0.35924835E+04</pdfrwt>
<pdfrwt beam="2">  1       -2 0.24602730E+00 0.35924835E+04</pdfrwt>
<totfact> 0.36221291E-01</totfact>
</mgrwt>
</event>
<event>
12    1  0.1489025E-007  0.3377360E+04  0.7818608E-02  0.8143485E-01
         -2   -1    0    0    0  501 -0.00000000000E+00  0.00000000000E+00  0.10290091316E+04  0.10290091316E+04  0.00000000000E+00 0.  1.
          2   -1    0    0  501    0  0.00000000000E+00 -0.00000000000E+00 -0.27712488839E+04  0.27712488839E+04  0.00000000000E+00 0. -1.
         23    2    1    2    0    0  0.31457997514E+03  0.15285574592E+04 -0.93625518853E+03  0.18221901719E+04  0.91404473069E+02 0.  0.
        254    2    1    2    0    0 -0.31457997514E+03 -0.15285574592E+04 -0.80598456379E+03  0.19780678436E+04  0.90977624185E+03 0.  0.
        -24    2    4    4    0    0 -0.56404634955E+03 -0.56220667673E+03 -0.43219235423E+03  0.90955942538E+03  0.79268439124E+02 0.  0.
         24    2    4    4    0    0  0.24946637441E+03 -0.96635078245E+03 -0.37379220956E+03  0.10685084183E+04  0.76956593466E+02 0.  0.
         11    1    3    3    0    0  0.93943380773E+02  0.33830642377E+03 -0.24579667701E+03  0.42859374889E+03  0.00000000000E+00 0.  1.
        -11    1    3    3    0    0  0.22063659437E+03  0.11902510354E+04 -0.69045851151E+03  0.13935964230E+04  0.00000000000E+00 0. -1.
          2    1    6    6  502    0  0.90809859915E+02 -0.23075206379E+03 -0.78121172142E+02  0.25999204437E+03  0.00000000000E+00 0. -1.
          1    1    5    5  503    0 -0.86527390338E+02 -0.56319322370E+02 -0.38253908493E+02  0.11010093944E+03  0.00000000000E+00 0. -1.
         -2    1    5    5    0  503 -0.47751895921E+03 -0.50588735436E+03 -0.39393844574E+03  0.79945848594E+03  0.00000000000E+00 0.  1.
         -1    1    6    6    0  502  0.15865651450E+03 -0.73559871866E+03 -0.29567103741E+03  0.80851637389E+03  0.00000000000E+00 0.  1.
<mgrwt>
<rscale>  0 0.33773602E+04</rscale>
<asrwt>0</asrwt>
<pdfrwt beam="1">  1        2 0.42634598E+00 0.33773602E+04</pdfrwt>
<pdfrwt beam="2">  1       -2 0.15830910E+00 0.33773602E+04</pdfrwt>
<totfact> 0.51770352E-01</totfact>
</mgrwt>
</event>
<event>
12    1  0.1489025E-007  0.2465698E+04  0.7818608E-02  0.8415309E-01
         -2   -1    0    0    0  501 -0.00000000000E+00  0.00000000000E+00  0.21064128732E+04  0.21064128732E+04  0.00000000000E+00 0. -1.
          2   -1    0    0  501    0  0.00000000000E+00 -0.00000000000E+00 -0.72156644702E+03  0.72156644702E+03  0.00000000000E+00 0.  1.
         23    2    1    2    0    0 -0.46566242589E+03 -0.93919545352E+03  0.81534216350E+03  0.13311283008E+04  0.90499253404E+02 0.  0.
        254    2    1    2    0    0  0.46566242589E+03  0.93919545352E+03  0.56950426270E+03  0.14968510194E+04  0.90404550454E+03 0.  0.
        -24    2    4    4    0    0  0.14463019663E+03 -0.40327581033E+02 -0.15817098859E+03  0.23252742724E+03  0.80664336701E+02 0.  0.
         24    2    4    4    0    0  0.32103222926E+03  0.97952303456E+03  0.72767525129E+03  0.12643235922E+04  0.80472398586E+02 0.  0.
         13    1    3    3    0    0 -0.16673148036E+03 -0.33749582517E+03  0.34856951764E+03  0.51303365112E+03  0.00000000000E+00 0. -1.
        -13    1    3    3    0    0 -0.29893094553E+03 -0.60169962835E+03  0.46677264586E+03  0.81809464970E+03  0.00000000000E+00 0.  1.
          2    1    6    6  502    0  0.35242377888E+01  0.78119774759E+02  0.57963038480E+02  0.97338755336E+02  0.00000000000E+00 0. -1.
          1    1    5    5  503    0  0.10157757847E+03 -0.37310430662E+01 -0.56716450532E+02  0.11639880107E+03  0.00000000000E+00 0. -1.
         -2    1    5    5    0  503  0.43052618160E+02 -0.36596537966E+02 -0.10145453806E+03  0.11612862617E+03  0.00000000000E+00 0.  1.
         -1    1    6    6    0  502  0.31750799147E+03  0.90140325980E+03  0.66971221281E+03  0.11669848368E+04  0.00000000000E+00 0.  1.
<mgrwt>
<rscale>  0 0.24656982E+04</rscale>
<asrwt>0</asrwt>
<pdfrwt beam="1">  1        2 0.11101022E+00 0.24656982E+04</pdfrwt>
<pdfrwt beam="2">  1       -2 0.32406352E+00 0.24656982E+04</pdfrwt>
<totfact> 0.79699403E-01</totfact>
</mgrwt>
</event>
<event>
12    1  0.1489025E-007  0.1755303E+04  0.7818608E-02  0.8730437E-01
          2   -1    0    0  501    0  0.00000000000E+00  0.00000000000E+00  0.12534120479E+04  0.12534120479E+04  0.00000000000E+00 0. -1.
         -2   -1    0    0    0  501 -0.00000000000E+00 -0.00000000000E+00 -0.61454039848E+03  0.61454039848E+03  0.00000000000E+00 0.  1.
         23    2    1    2    0    0 -0.44589352371E+03 -0.37091606939E+03  0.52518794488E+03  0.78649399891E+03  0.79691077602E+02 0.  0.
        254    2    1    2    0    0  0.44589352371E+03  0.37091606939E+03  0.11368370456E+03  0.10814584475E+04  0.90566474147E+03 0.  0.
        -24    2    4    4    0    0  0.21308531032E+03  0.40011788687E+03 -0.33493887969E+03  0.56920623016E+03  0.79448136920E+02 0.  0.
         24    2    4    4    0    0  0.23280821339E+03 -0.29201817477E+02  0.44862258425E+03  0.51225221733E+03  0.78023718841E+02 0.  0.
         11    1    3    3    0    0 -0.36739738450E+03 -0.27579503506E+03  0.38158935745E+03  0.59720530576E+03  0.00000000000E+00 0.  1.
        -11    1    3    3    0    0 -0.78496139205E+02 -0.95121034329E+02  0.14359858743E+03  0.18928869315E+03  0.00000000000E+00 0. -1.
          2    1    6    6  502    0  0.35758299383E+02  0.21056298894E+02  0.10587367222E+03  0.11371569007E+03  0.00000000000E+00 0. -1.
          1    1    5    5  503    0  0.25714206572E+02  0.29062338407E+02 -0.63145114556E+01  0.39315556568E+02  0.00000000000E+00 0. -1.
         -2    1    5    5    0  503  0.18737110375E+03  0.37105554846E+03 -0.32862436823E+03  0.52989067359E+03  0.00000000000E+00 0.  1.
         -1    1    6    6    0  502  0.19704991400E+03 -0.50258116371E+02  0.34274891202E+03  0.39853652726E+03  0.00000000000E+00 0.  1.
<mgrwt>
<rscale>  0 0.17553032E+04</rscale>
<asrwt>0</asrwt>
<pdfrwt beam="1">  1        2 0.19283262E+00 0.17553032E+04</pdfrwt>
<pdfrwt beam="2">  1       -2 0.94544677E-01 0.17553032E+04</pdfrwt>
<totfact> 0.15724061E+01</totfact>
</mgrwt>
</event>
<event>
12    1  0.1489025E-007  0.1351705E+04  0.7818608E-02  0.8989538E-01
          2   -1    0    0  501    0  0.00000000000E+00  0.00000000000E+00  0.12341729382E+04  0.12341729382E+04  0.00000000000E+00 0.  1.
         -2   -1    0    0    0  501 -0.00000000000E+00 -0.00000000000E+00 -0.37010759640E+03  0.37010759640E+03  0.00000000000E+00 0. -1.
         23    2    1    2    0    0  0.23015849917E+03 -0.28605257359E+03  0.17112143945E+03  0.41532867365E+03  0.91740669938E+02 0.  0.
        254    2    1    2    0    0 -0.23015849917E+03  0.28605257359E+03  0.69294390234E+03  0.11889518609E+04  0.89366451550E+03 0.  0.
        -24    2    4    4    0    0  0.16039622749E+03 -0.78443132745E+02 -0.10720328441E+03  0.22350937717E+03  0.81139525655E+02 0.  0.
         24    2    4    4    0    0 -0.39055472667E+03  0.36449570633E+03  0.80014718675E+03  0.96544248378E+03  0.80334018721E+02 0.  0.
         13    1    3    3    0    0  0.16097015626E+03 -0.19286078791E+03  0.68455619923E+02  0.26037059477E+03  0.00000000000E+00 0. -1.
        -13    1    3    3    0    0  0.69188342918E+02 -0.93191785671E+02  0.10266581953E+03  0.15495807889E+03  0.00000000000E+00 0.  1.
          4    1    6    6  502    0 -0.39212741929E+03  0.35094875268E+03  0.77398355186E+03  0.93593775355E+03  0.00000000000E+00 0. -1.
          1    1    5    5  503    0  0.16374756519E+03 -0.78686463879E+02 -0.84154400329E+02  0.20021685193E+03  0.00000000000E+00 0. -1.
         -4    1    5    5    0  503 -0.33513376939E+01  0.24333113392E+00 -0.23048884081E+02  0.23292525234E+02  0.00000000000E+00 0.  1.
         -3    1    6    6    0  502  0.15726926222E+01  0.13546953654E+02  0.26163634887E+02  0.29504730228E+02  0.00000000000E+00 0.  1.
<mgrwt>
<rscale>  0 0.13517053E+04</rscale>
<asrwt>0</asrwt>
<pdfrwt beam="1">  1        2 0.18987276E+00 0.13517053E+04</pdfrwt>
<pdfrwt beam="2">  1       -2 0.56939631E-01 0.13517053E+04</pdfrwt>
<totfact> 0.51041288E+01</totfact>
</mgrwt>
</event>
<event>
12    1  0.1489025E-007  0.1519696E+04  0.7818608E-02  0.8871460E-01
          1   -1    0    0  501    0  0.00000000000E+00  0.00000000000E+00  0.41221127906E+03  0.41221127906E+03  0.00000000000E+00 0.  1.
         -1   -1    0    0    0  501 -0.00000000000E+00 -0.00000000000E+00 -0.14006632365E+04  0.14006632365E+04  0.00000000000E+00 0. -1.
         23    2    1    2    0    0 -0.16534603782E+03 -0.40203960929E+03 -0.81187430368E+02  0.45180397560E+03  0.92521748045E+02 0.  0.
        254    2    1    2    0    0  0.16534603782E+03  0.40203960929E+03 -0.90726452708E+03  0.13610705400E+04  0.91673820309E+03 0.  0.
        -24    2    4    4    0    0  0.15268510805E+03  0.36290755774E+03  0.45185710002E+02  0.40465823906E+03  0.81804060767E+02 0.  0.
         24    2    4    4    0    0  0.12660929766E+02  0.39132051545E+02 -0.95245023708E+03  0.95641230091E+03  0.76625182630E+02 0.  0.
         13    1    3    3    0    0 -0.95138733605E+02 -0.13181665258E+03 -0.53958555210E+02  0.17128495033E+03  0.00000000000E+00 0. -1.
        -13    1    3    3    0    0 -0.70207304214E+02 -0.27022295671E+03 -0.27228875158E+02  0.28051902527E+03  0.00000000000E+00 0.  1.
          2    1    6    6  502    0 -0.50106707434E+01  0.10488285403E+02 -0.80835988034E+03  0.80844344706E+03  0.00000000000E+00 0. -1.
          1    1    5    5  503    0  0.11793515111E+03  0.34069507178E+03  0.45682619622E+02  0.36341262160E+03  0.00000000000E+00 0. -1.
         -2    1    5    5    0  503  0.34749956943E+02  0.22212485968E+02 -0.49690961945E+00  0.41245617459E+02  0.00000000000E+00 0.  1.
         -1    1    6    6    0  502  0.17671600509E+02  0.28643766142E+02 -0.14409035674E+03  0.14796885385E+03  0.00000000000E+00 0.  1.
<mgrwt>
<rscale>  0 0.15196963E+04</rscale>
<asrwt>0</asrwt>
<pdfrwt beam="1">  1        1 0.63417121E-01 0.15196963E+04</pdfrwt>
<pdfrwt beam="2">  1       -1 0.21548665E+00 0.15196963E+04</pdfrwt>
<totfact> 0.65685466E+00</totfact>
</mgrwt>
</event>
<event>
12    1  0.1489025E-007  0.2124074E+04  0.7818608E-02  0.8550712E-01
          2   -1    0    0  501    0  0.00000000000E+00  0.00000000000E+00  0.13773374876E+04  0.13773374876E+04  0.00000000000E+00 0.  1.
         -2   -1    0    0    0  501 -0.00000000000E+00 -0.00000000000E+00 -0.81891540387E+03  0.81891540387E+03  0.00000000000E+00 0. -1.
         23    2    1    2    0    0 -0.24649942136E+03  0.48557954304E+03 -0.47480950530E+03  0.72884196217E+03  0.96005636048E+02 0.  0.
        254    2    1    2    0    0  0.24649942136E+03 -0.48557954304E+03  0.10332315890E+04  0.14674109293E+04  0.88835683233E+03 0.  0.
        -24    2    4    4    0    0 -0.30505355289E+03 -0.19789398576E+03  0.59753945449E+03  0.70424593382E+03  0.81787749052E+02 0.  0.
         24    2    4    4    0    0  0.55155297425E+03 -0.28768555727E+03  0.43569213456E+03  0.76316499550E+03  0.74963397578E+02 0.  0.
         13    1    3    3    0    0 -0.22313144864E+03  0.43402673582E+03 -0.45926949267E+03  0.67014574361E+03  0.00000000000E+00 0. -1.
        -13    1    3    3    0    0 -0.23367972727E+02  0.51552807216E+02 -0.15540012627E+02  0.58696218564E+02  0.00000000000E+00 0.  1.
          2    1    6    6  502    0  0.53505917549E+03 -0.28813506920E+03  0.43358875552E+03  0.74653154542E+03  0.00000000000E+00 0. -1.
          3    1    5    5  503    0 -0.25329127340E+03 -0.13815320690E+03  0.51257695784E+03  0.58819887408E+03  0.00000000000E+00 0. -1.
         -4    1    5    5    0  503 -0.51762279489E+02 -0.59740778867E+02  0.84962496647E+02  0.11604705974E+03  0.00000000000E+00 0.  1.
         -1    1    6    6    0  502  0.16493798760E+02  0.44951192933E+00  0.21033790348E+01  0.16633450089E+02  0.00000000000E+00 0.  1.
<mgrwt>
<rscale>  0 0.21240743E+04</rscale>
<asrwt>0</asrwt>
<pdfrwt beam="1">  1        2 0.21189807E+00 0.21240743E+04</pdfrwt>
<pdfrwt beam="2">  1       -2 0.12598699E+00 0.21240743E+04</pdfrwt>
<totfact> 0.64480242E+00</totfact>
</mgrwt>
</event>
<event>
12    1  0.1489025E-007  0.1444267E+04  0.7818608E-02  0.8922385E-01
         -1   -1    0    0    0  501 -0.00000000000E+00  0.00000000000E+00  0.66899299240E+03  0.66899299240E+03  0.00000000000E+00 0.  1.
          1   -1    0    0  501    0  0.00000000000E+00 -0.00000000000E+00 -0.77949517493E+03  0.77949517493E+03  0.00000000000E+00 0. -1.
         23    2    1    2    0    0  0.35447003856E+02 -0.30134586349E+02 -0.45031444707E+03  0.46017446957E+03  0.82540037710E+02 0.  0.
        254    2    1    2    0    0 -0.35447003856E+02  0.30134586349E+02  0.33981226454E+03  0.98831369776E+03  0.92689104358E+03 0.  0.
        -24    2    4    4    0    0 -0.44643951356E+03 -0.39550601808E+02  0.33293345895E+03  0.56386314750E+03  0.78895320769E+02 0.  0.
         24    2    4    4    0    0  0.41099250971E+03  0.69685188158E+02  0.68788055880E+01  0.42445055026E+03  0.79624639196E+02 0.  0.
         11    1    3    3    0    0  0.33349282898E+02 -0.62862804782E+01 -0.42082275759E+03  0.42218892134E+03  0.00000000000E+00 0. -1.
        -11    1    3    3    0    0  0.20977209584E+01 -0.23848305871E+02 -0.29491689478E+02  0.37985548231E+02  0.00000000000E+00 0.  1.
          2    1    6    6  502    0  0.15059766361E+03 -0.10097369830E+02  0.17195721856E+02  0.15191216545E+03  0.00000000000E+00 0. -1.
          1    1    5    5  503    0 -0.99503513355E+02  0.15410838962E+02  0.47896971818E+02  0.11150140374E+03  0.00000000000E+00 0. -1.
         -2    1    5    5    0  503 -0.34693600021E+03 -0.54961440770E+02  0.28503648713E+03  0.45236174375E+03  0.00000000000E+00 0.  1.
         -1    1    6    6    0  502  0.26039484610E+03  0.79782557988E+02 -0.10316916268E+02  0.27253838481E+03  0.00000000000E+00 0.  1.
<mgrwt>
<rscale>  0 0.14442670E+04</rscale>
<asrwt>0</asrwt>
<pdfrwt beam="1">  1        1 0.11992233E+00 0.14442670E+04</pdfrwt>
<pdfrwt beam="2">  1       -1 0.10292200E+00 0.14442670E+04</pdfrwt>
<totfact> 0.19980703E+01</totfact>
</mgrwt>
</event>
<event>
12    1  0.1489025E-007  0.1453147E+04  0.7818608E-02  0.8916222E-01
          1   -1    0    0  501    0  0.00000000000E+00  0.00000000000E+00  0.10622014530E+04  0.10622014530E+04  0.00000000000E+00 0. -1.
         -1   -1    0    0    0  501 -0.00000000000E+00 -0.00000000000E+00 -0.49699537790E+03  0.49699537790E+03  0.00000000000E+00 0.  1.
         23    2    1    2    0    0 -0.19487022870E+03 -0.11136505397E+03 -0.23268774639E+03  0.33653220964E+03  0.93454585367E+02 0.  0.
        254    2    1    2    0    0  0.19487022870E+03  0.11136505397E+03  0.79789382151E+03  0.12226646213E+04  0.89883126584E+03 0.  0.
        -24    2    4    4    0    0 -0.28897272017E+03  0.37181867321E+02  0.22713196423E+02  0.30236932236E+03  0.77611813237E+02 0.  0.
         24    2    4    4    0    0  0.48384294887E+03  0.74183186652E+02  0.77518062509E+03  0.92029529892E+03  0.80195332445E+02 0.  0.
         13    1    3    3    0    0 -0.17176776831E+03 -0.61802350338E+02 -0.14472144306E+03  0.23295491586E+03  0.00000000000E+00 0.  1.
        -13    1    3    3    0    0 -0.23102460391E+02 -0.49562703635E+02 -0.87966303325E+02  0.10357729379E+03  0.00000000000E+00 0. -1.
          2    1    6    6  502    0  0.45571627542E+03  0.49320914056E+02  0.71134303031E+03  0.84623801795E+03  0.00000000000E+00 0. -1.
          3    1    5    5  503    0 -0.28180847520E+03  0.21520265153E+02  0.13772192082E+02  0.28296432952E+03  0.00000000000E+00 0. -1.
         -4    1    5    5    0  503 -0.71642449682E+01  0.15661602168E+02  0.89410043411E+01  0.19404992839E+02  0.00000000000E+00 0.  1.
         -1    1    6    6    0  502  0.28126673450E+02  0.24862272596E+02  0.63837594774E+02  0.74057280969E+02  0.00000000000E+00 0.  1.
<mgrwt>
<rscale>  0 0.14531472E+04</rscale>
<asrwt>0</asrwt>
<pdfrwt beam="1">  1        1 0.16341561E+00 0.14531472E+04</pdfrwt>
<pdfrwt beam="2">  1       -1 0.76460828E-01 0.14531472E+04</pdfrwt>
<totfact> 0.22584061E+01</totfact>
</mgrwt>
</event>
<event>
12    1  0.1489025E-007  0.1196364E+04  0.7818608E-02  0.9116045E-01
          1   -1    0    0  501    0  0.00000000000E+00  0.00000000000E+00  0.43861285173E+03  0.43861285173E+03  0.00000000000E+00 0. -1.
         -1   -1    0    0    0  501 -0.00000000000E+00 -0.00000000000E+00 -0.81580281077E+03  0.81580281077E+03  0.00000000000E+00 0.  1.
         23    2    1    2    0    0 -0.21342160967E+03  0.10420834804E+03 -0.79381228612E+01  0.25355905069E+03  0.88436503313E+02 0.  0.
        254    2    1    2    0    0  0.21342160967E+03 -0.10420834804E+03 -0.36925183618E+03  0.10008566118E+04  0.89942141157E+03 0.  0.
        -24    2    4    4    0    0 -0.16632580832E+03  0.10540544763E+03  0.19181238214E+03  0.28629747773E+03  0.79997955656E+02 0.  0.
         24    2    4    4    0    0  0.37974741799E+03 -0.20961379567E+03 -0.56106421831E+03  0.71455913407E+03  0.87496595416E+02 0.  0.
         11    1    3    3    0    0 -0.96580243203E+02  0.66090678928E+02  0.36939154548E+02  0.12272009761E+03  0.00000000000E+00 0. -1.
        -11    1    3    3    0    0 -0.11684136647E+03  0.38117669113E+02 -0.44877277409E+02  0.13083895309E+03  0.00000000000E+00 0.  1.
          4    1    6    6  502    0  0.31041922947E+03 -0.16504391193E+03 -0.39253986155E+03  0.52696027725E+03  0.00000000000E+00 0. -1.
          1    1    5    5  503    0 -0.93462177691E+02  0.94100205478E+02  0.88782214268E+02  0.15960046648E+03  0.00000000000E+00 0. -1.
         -2    1    5    5    0  503 -0.72863630630E+02  0.11305242152E+02  0.10303016787E+03  0.12669701125E+03  0.00000000000E+00 0.  1.
         -3    1    6    6    0  502  0.69328188524E+02 -0.44569883737E+02 -0.16852435676E+03  0.18759885683E+03  0.00000000000E+00 0.  1.
<mgrwt>
<rscale>  0 0.11963638E+04</rscale>
<asrwt>0</asrwt>
<pdfrwt beam="1">  1        1 0.67478901E-01 0.11963638E+04</pdfrwt>
<pdfrwt beam="2">  1       -1 0.12550812E+00 0.11963638E+04</pdfrwt>
<totfact> 0.29083958E+01</totfact>
</mgrwt>
</event>
<event>
12    1  0.1489025E-007  0.1723365E+04  0.7818608E-02  0.8748149E-01
         -2   -1    0    0    0  501 -0.00000000000E+00  0.00000000000E+00  0.10228421357E+04  0.10228421357E+04  0.00000000000E+00 0.  1.
          2   -1    0    0  501    0  0.00000000000E+00 -0.00000000000E+00 -0.72591566686E+03  0.72591566686E+03  0.00000000000E+00 0. -1.
         23    2    1    2    0    0 -0.47818330219E+03  0.33312213262E+03 -0.12397059992E+03  0.60264922166E+03  0.90486181175E+02 0.  0.
        254    2    1    2    0    0  0.47818330219E+03 -0.33312213262E+03  0.42089706881E+03  0.11461085809E+04  0.89262585165E+03 0.  0.
        -24    2    4    4    0    0  0.22219739060E+03  0.21788083993E+03 -0.10602446706E+03  0.33792987271E+03  0.78177173492E+02 0.  0.
         24    2    4    4    0    0  0.25598591160E+03 -0.55100297255E+03  0.52692153587E+03  0.80817870823E+03  0.79833932534E+02 0.  0.
         11    1    3    3    0    0 -0.41537966772E+03  0.30602768336E+03 -0.82040415144E+02  0.52242113381E+03  0.00000000000E+00 0. -1.
        -11    1    3    3    0    0 -0.62803634478E+02  0.27094449259E+02 -0.41930184780E+02  0.80228087850E+02  0.00000000000E+00 0.  1.
          2    1    6    6  502    0  0.61048466991E+02 -0.11012292929E+03  0.15270717383E+03  0.19792285320E+03  0.00000000000E+00 0. -1.
          1    1    5    5  503    0  0.18291465525E+02 -0.47177225105E+01 -0.82904059919E+01  0.20629237704E+02  0.00000000000E+00 0. -1.
         -2    1    5    5    0  503  0.20390592507E+03  0.22259856244E+03 -0.97734061071E+02  0.31730063500E+03  0.00000000000E+00 0.  1.
         -1    1    6    6    0  502  0.19493744461E+03 -0.44088004325E+03  0.37421436204E+03  0.61025585504E+03  0.00000000000E+00 0.  1.
<mgrwt>
<rscale>  0 0.17233655E+04</rscale>
<asrwt>0</asrwt>
<pdfrwt beam="1">  1        2 0.11167933E+00 0.17233655E+04</pdfrwt>
<pdfrwt beam="2">  1       -2 0.15736033E+00 0.17233655E+04</pdfrwt>
<totfact> 0.97854138E+00</totfact>
</mgrwt>
</event>
<event>
12    1  0.1489025E-007  0.3682658E+04  0.7818608E-02  0.8071816E-01
          2   -1    0    0  501    0  0.00000000000E+00  0.00000000000E+00  0.96277053138E+03  0.96277053138E+03  0.00000000000E+00 0. -1.
         -2   -1    0    0    0  501 -0.00000000000E+00 -0.00000000000E+00 -0.35216000768E+04  0.35216000768E+04  0.00000000000E+00 0.  1.
         23    2    1    2    0    0  0.99566142019E+03  0.54201420835E+03 -0.27997398702E+04  0.30219503841E+04  0.92302313101E+02 0.  0.
        254    2    1    2    0    0 -0.99566142019E+03 -0.54201420835E+03  0.24091032481E+03  0.14624202241E+04  0.89191594985E+03 0.  0.
        -24    2    4    4    0    0 -0.88224291862E+03 -0.72123758686E+03  0.37149293307E+03  0.12011164314E+04  0.78341931678E+02 0.  0.
         24    2    4    4    0    0 -0.11341850157E+03  0.17922337850E+03 -0.13058260826E+03  0.26130379274E+03  0.79013154729E+02 0.  0.
         13    1    3    3    0    0  0.12449125648E+03  0.10015408652E+03 -0.43401921949E+03  0.46249496957E+03  0.00000000000E+00 0. -1.
        -13    1    3    3    0    0  0.87117016372E+03  0.44186012184E+03 -0.23657206507E+04  0.25594554145E+04  0.00000000000E+00 0.  1.
          4    1    6    6  502    0  0.66646318281E+01  0.15675469528E+02  0.44178260723E+01  0.17597012517E+02  0.00000000000E+00 0. -1.
          1    1    5    5  503    0 -0.69359784966E+02 -0.43490482185E+02  0.88049582594E+01  0.82339110399E+02  0.00000000000E+00 0. -1.
         -2    1    5    5    0  503 -0.81288313365E+03 -0.67774710467E+03  0.36268797481E+03  0.11187773210E+04  0.00000000000E+00 0.  1.
         -3    1    6    6    0  502 -0.12008313340E+03  0.16354790898E+03 -0.13500043433E+03  0.24370678023E+03  0.00000000000E+00 0.  1.
<mgrwt>
<rscale>  0 0.36826582E+04</rscale>
<asrwt>0</asrwt>
<pdfrwt beam="1">  1        2 0.14811855E+00 0.36826582E+04</pdfrwt>
<pdfrwt beam="2">  1       -2 0.54178462E+00 0.36826582E+04</pdfrwt>
<totfact> 0.20295283E-02</totfact>
</mgrwt>
</event>
<event>
12    1  0.1489025E-007  0.1331464E+04  0.7818608E-02  0.9004979E-01
         -2   -1    0    0    0  501 -0.00000000000E+00  0.00000000000E+00  0.63413326392E+03  0.63413326392E+03  0.00000000000E+00 0.  1.
          2   -1    0    0  501    0  0.00000000000E+00 -0.00000000000E+00 -0.69890575317E+03  0.69890575317E+03  0.00000000000E+00 0. -1.
         23    2    1    2    0    0 -0.49095244838E+01  0.13754385708E+03  0.30480384771E+03  0.34734592584E+03  0.93815726660E+02 0.  0.
        254    2    1    2    0    0  0.49095244838E+01 -0.13754385708E+03 -0.36957633696E+03  0.98569309125E+03  0.90336138131E+03 0.  0.
        -24    2    4    4    0    0  0.26043536070E+03  0.32338662343E+02 -0.55470232581E+03  0.61858224836E+03  0.77954868605E+02 0.  0.
         24    2    4    4    0    0 -0.25552583621E+03 -0.16988251942E+03  0.18512598885E+03  0.36711084289E+03  0.79656863100E+02 0.  0.
         13    1    3    3    0    0  0.18239983709E+02  0.11410348974E+03  0.15147467375E+03  0.19051740121E+03  0.00000000000E+00 0. -1.
        -13    1    3    3    0    0 -0.23149508193E+02  0.23440367341E+02  0.15332917396E+03  0.15682852463E+03  0.00000000000E+00 0.  1.
          2    1    6    6  502    0 -0.87428449657E+02 -0.74507230554E+02  0.11210348104E+03  0.16050623563E+03  0.00000000000E+00 0. -1.
          1    1    5    5  503    0  0.69277625216E+02 -0.10537389967E+02 -0.21854593683E+03  0.22950545189E+03  0.00000000000E+00 0. -1.
         -2    1    5    5    0  503  0.19115773548E+03  0.42876052310E+02 -0.33615638898E+03  0.38907679647E+03  0.00000000000E+00 0.  1.
         -1    1    6    6    0  502 -0.16809738656E+03 -0.95375288867E+02  0.73022507816E+02  0.20660460726E+03  0.00000000000E+00 0.  1.
<mgrwt>
<rscale>  0 0.13314644E+04</rscale>
<asrwt>0</asrwt>
<pdfrwt beam="1">  1        2 0.10752396E+00 0.13314644E+04</pdfrwt>
<pdfrwt beam="2">  1       -2 0.97558963E-01 0.13314644E+04</pdfrwt>
<totfact> 0.35169804E+01</totfact>
</mgrwt>
</event>
<event>
12    1  0.1489025E-007  0.3626738E+04  0.7818608E-02  0.8084394E-01
         -2   -1    0    0    0  501 -0.00000000000E+00  0.00000000000E+00  0.12912136741E+04  0.12912136741E+04  0.00000000000E+00 0.  1.
          2   -1    0    0  501    0  0.00000000000E+00 -0.00000000000E+00 -0.25466793945E+04  0.25466793945E+04  0.00000000000E+00 0. -1.
         23    2    1    2    0    0 -0.13319573306E+04 -0.10412724408E+04 -0.72376957620E+03  0.18426371428E+04  0.11450159021E+03 0.  0.
        254    2    1    2    0    0  0.13319573306E+04  0.10412724408E+04 -0.53169614413E+03  0.19952559259E+04  0.91650793430E+03 0.  0.
        -24    2    4    4    0    0  0.13517809103E+04  0.84780463564E+03 -0.68254676972E+03  0.17373657319E+04  0.80531136543E+02 0.  0.
         24    2    4    4    0    0 -0.19823579750E+02  0.19346780512E+03  0.15085062559E+03  0.25789019392E+03  0.76997889222E+02 0.  0.
         13    1    3    3    0    0 -0.31212477756E+03 -0.29249762776E+03 -0.14855649122E+03  0.45281979870E+03  0.00000000000E+00 0.  1.
        -13    1    3    3    0    0 -0.10198325530E+04 -0.74877481301E+03 -0.57521308498E+03  0.13898173441E+04  0.00000000000E+00 0. -1.
          4    1    6    6  502    0  0.23646665397E+02  0.60206850623E+02  0.24472646496E+02  0.69158803292E+02  0.00000000000E+00 0. -1.
          3    1    5    5  503    0  0.55946767045E+03  0.34838817301E+03 -0.23901292711E+03  0.70107458427E+03  0.00000000000E+00 0. -1.
         -4    1    5    5    0  503  0.79231323986E+03  0.49941646262E+03 -0.44353384261E+03  0.10362911477E+04  0.00000000000E+00 0.  1.
         -3    1    6    6    0  502 -0.43470245146E+02  0.13326095450E+03  0.12637797909E+03  0.18873139063E+03  0.00000000000E+00 0.  1.
<mgrwt>
<rscale>  0 0.36267381E+04</rscale>
<asrwt>0</asrwt>
<pdfrwt beam="1">  1        2 0.39179683E+00 0.36267381E+04</pdfrwt>
<pdfrwt beam="2">  1       -2 0.19864826E+00 0.36267381E+04</pdfrwt>
<totfact> 0.36098080E-01</totfact>
</mgrwt>
</event>
<event>
12    1  0.1489025E-007  0.1961139E+04  0.7818608E-02  0.8625008E-01
          1   -1    0    0  501    0  0.00000000000E+00  0.00000000000E+00  0.68191721755E+03  0.68191721755E+03  0.00000000000E+00 0. -1.
         -1   -1    0    0    0  501 -0.00000000000E+00 -0.00000000000E+00 -0.14100198957E+04  0.14100198957E+04  0.00000000000E+00 0.  1.
         23    2    1    2    0    0 -0.43511498593E+03  0.26096126509E+03 -0.90547355241E+03  0.10418949368E+04  0.90757216315E+02 0.  0.
        254    2    1    2    0    0  0.43511498593E+03 -0.26096126509E+03  0.17737087431E+03  0.10500421764E+04  0.90205449523E+03 0.  0.
        -24    2    4    4    0    0  0.50183871838E+03  0.92433015030E+02 -0.16794630777E+03  0.54471283206E+03  0.90111850414E+02 0.  0.
         24    2    4    4    0    0 -0.66723732446E+02 -0.35339428012E+03  0.34531718208E+03  0.50532934436E+03  0.82305627648E+02 0.  0.
         11    1    3    3    0    0 -0.24471050035E+02  0.14671166060E+02 -0.10800700606E+03  0.11171207975E+03  0.00000000000E+00 0. -1.
        -11    1    3    3    0    0 -0.41064393590E+03  0.24629009903E+03 -0.79746654635E+03  0.93018285703E+03  0.00000000000E+00 0.  1.
          4    1    6    6  502    0 -0.38536803473E+02 -0.13459572024E+03  0.18787232413E+03  0.23430130879E+03  0.00000000000E+00 0. -1.
          1    1    5    5  503    0  0.13855693763E+03 -0.70063615368E+01 -0.70728438957E+02  0.15572291465E+03  0.00000000000E+00 0. -1.
         -2    1    5    5    0  503  0.36328178075E+03  0.99439376567E+02 -0.97217868818E+02  0.38898991742E+03  0.00000000000E+00 0.  1.
         -1    1    6    6    0  502 -0.28186928973E+02 -0.21879855988E+03  0.15744485795E+03  0.27102803557E+03  0.00000000000E+00 0.  1.
<mgrwt>
<rscale>  0 0.19611393E+04</rscale>
<asrwt>0</asrwt>
<pdfrwt beam="1">  1        1 0.10491034E+00 0.19611393E+04</pdfrwt>
<pdfrwt beam="2">  1       -1 0.21692613E+00 0.19611393E+04</pdfrwt>
<totfact> 0.30445289E+00</totfact>
</mgrwt>
</event>
<event>
12    1  0.1489025E-007  0.3213575E+04  0.7818608E-02  0.8185241E-01
          2   -1    0    0  501    0  0.00000000000E+00  0.00000000000E+00  0.20567841648E+04  0.20567841648E+04  0.00000000000E+00 0.  1.
         -2   -1    0    0    0  501 -0.00000000000E+00 -0.00000000000E+00 -0.12552444273E+04  0.12552444273E+04  0.00000000000E+00 0. -1.
         23    2    1    2    0    0 -0.13614438760E+04  0.18319394975E+03  0.91838057404E+03  0.16550685298E+04  0.93485339712E+02 0.  0.
        254    2    1    2    0    0  0.13614438760E+04 -0.18319394975E+03 -0.11684083652E+03  0.16569600623E+04  0.91911665004E+03 0.  0.
        -24    2    4    4    0    0  0.79280827521E+03  0.23633756548E+03  0.23409473865E+03  0.86331434541E+03  0.78172285608E+02 0.  0.
         24    2    4    4    0    0  0.56863560079E+03 -0.41953151523E+03 -0.35093557517E+03  0.79364571692E+03  0.85817290300E+02 0.  0.
         13    1    3    3    0    0 -0.43657526815E+03  0.62719756641E+02  0.24334131014E+03  0.50373279212E+03  0.00000000000E+00 0. -1.
        -13    1    3    3    0    0 -0.92486860784E+03  0.12047419311E+03  0.67503926390E+03  0.11513357376E+04  0.00000000000E+00 0.  1.
          2    1    6    6  502    0  0.31370834537E+03 -0.23368017892E+03 -0.14646438811E+03  0.41769746104E+03  0.00000000000E+00 0. -1.
          3    1    5    5  503    0  0.13222490357E+03  0.68017005184E+02  0.54458791870E+02  0.15835244908E+03  0.00000000000E+00 0. -1.
         -4    1    5    5    0  503  0.66058337164E+03  0.16832056030E+03  0.17963594678E+03  0.70496189633E+03  0.00000000000E+00 0.  1.
         -1    1    6    6    0  502  0.25492725541E+03 -0.18585133632E+03 -0.20447118706E+03  0.37594825588E+03  0.00000000000E+00 0.  1.
<mgrwt>
<rscale>  0 0.32135755E+04</rscale>
<asrwt>0</asrwt>
<pdfrwt beam="1">  1        2 0.31642833E+00 0.32135755E+04</pdfrwt>
<pdfrwt beam="2">  1       -2 0.19311453E+00 0.32135755E+04</pdfrwt>
<totfact> 0.77192145E-01</totfact>
</mgrwt>
</event>
<event>
12    1  0.1489025E-007  0.1619303E+04  0.7818608E-02  0.8808776E-01
          1   -1    0    0  501    0  0.00000000000E+00  0.00000000000E+00  0.12568531252E+04  0.12568531252E+04  0.00000000000E+00 0. -1.
         -1   -1    0    0    0  501 -0.00000000000E+00 -0.00000000000E+00 -0.52156887202E+03  0.52156887202E+03  0.00000000000E+00 0.  1.
         23    2    1    2    0    0 -0.24013688060E+03 -0.42877459180E+03 -0.11554818560E+02  0.50177259378E+03  0.10064218814E+03 0.  0.
        254    2    1    2    0    0  0.24013688060E+03  0.42877459180E+03  0.74683907177E+03  0.12766494035E+04  0.91134610782E+03 0.  0.
        -24    2    4    4    0    0 -0.98231449328E+02  0.62290285290E+03  0.48832404158E+03  0.80136356092E+03  0.77883280657E+02 0.  0.
         24    2    4    4    0    0  0.33836832993E+03 -0.19412826110E+03  0.25851503019E+03  0.47528584254E+03  0.82992185356E+02 0.  0.
         13    1    3    3    0    0  0.81271245894E+01 -0.35571583493E+02 -0.38273706780E+01  0.36688369718E+02  0.00000000000E+00 0. -1.
        -13    1    3    3    0    0 -0.24826400519E+03 -0.39320300831E+03 -0.77274478824E+01  0.46508422406E+03  0.00000000000E+00 0.  1.
          2    1    6    6  502    0  0.53765286648E+02 -0.60248410989E+02  0.79845858399E+02  0.11356028434E+03  0.00000000000E+00 0. -1.
          1    1    5    5  503    0 -0.40093404623E+02  0.10145088639E+03  0.10651903212E+03  0.15246661158E+03  0.00000000000E+00 0. -1.
         -2    1    5    5    0  503 -0.58138044705E+02  0.52145196650E+03  0.38180500946E+03  0.64889694934E+03  0.00000000000E+00 0.  1.
         -1    1    6    6    0  502  0.28460304328E+03 -0.13387985011E+03  0.17866917179E+03  0.36172555821E+03  0.00000000000E+00 0.  1.
<mgrwt>
<rscale>  0 0.16193029E+04</rscale>
<asrwt>0</asrwt>
<pdfrwt beam="1">  1        1 0.19336202E+00 0.16193029E+04</pdfrwt>
<pdfrwt beam="2">  1       -1 0.80241365E-01 0.16193029E+04</pdfrwt>
<totfact> 0.14426473E+01</totfact>
</mgrwt>
</event>
<event>
12    1  0.1489025E-007  0.3321859E+04  0.7818608E-02  0.8157355E-01
         -2   -1    0    0    0  501 -0.00000000000E+00  0.00000000000E+00  0.95779431114E+03  0.95779431114E+03  0.00000000000E+00 0. -1.
          2   -1    0    0  501    0  0.00000000000E+00 -0.00000000000E+00 -0.28802504716E+04  0.28802504716E+04  0.00000000000E+00 0.  1.
         23    2    1    2    0    0  0.40383542573E+03  0.10848025696E+04  0.27644794972E+03  0.11937036471E+04  0.92872288054E+02 0.  0.
        254    2    1    2    0    0 -0.40383542573E+03 -0.10848025696E+04 -0.21989041102E+04  0.26443411357E+04  0.90414660867E+03 0.  0.
        -24    2    4    4    0    0 -0.41166362780E+03 -0.13044618772E+03 -0.11123691502E+04  0.11959577919E+04  0.80416187504E+02 0.  0.
         24    2    4    4    0    0  0.78282020678E+01 -0.95435638193E+03 -0.10865349599E+04  0.14483833438E+04  0.79991918268E+02 0.  0.
         11    1    3    3    0    0  0.38030906204E+03  0.10477703003E+04  0.28118572748E+03  0.11495751381E+04  0.00000000000E+00 0. -1.
        -11    1    3    3    0    0  0.23526363697E+02  0.37032269330E+02 -0.47377777593E+01  0.44128508910E+02  0.00000000000E+00 0.  1.
          2    1    6    6  502    0  0.27620026917E+01 -0.20056957676E+02 -0.44079038845E+02  0.48506410665E+02  0.00000000000E+00 0. -1.
          1    1    5    5  503    0 -0.10468611689E+03 -0.66259941206E+02 -0.26880823862E+03  0.29598552673E+03  0.00000000000E+00 0. -1.
         -2    1    5    5    0  503 -0.30697751091E+03 -0.64186246513E+02 -0.84356091161E+03  0.89997226515E+03  0.00000000000E+00 0.  1.
         -1    1    6    6    0  502  0.50661993761E+01 -0.93429942425E+03 -0.10424559211E+04  0.13998769331E+04  0.00000000000E+00 0.  1.
<mgrwt>
<rscale>  0 0.33218594E+04</rscale>
<asrwt>0</asrwt>
<pdfrwt beam="1">  1        2 0.44311545E+00 0.33218594E+04</pdfrwt>
<pdfrwt beam="2">  1       -2 0.14735297E+00 0.33218594E+04</pdfrwt>
<totfact> 0.54068770E-01</totfact>
</mgrwt>
</event>
<event>
12    1  0.1489025E-007  0.1958587E+04  0.7818608E-02  0.8626231E-01
          3   -1    0    0  501    0  0.00000000000E+00  0.00000000000E+00  0.81578795261E+03  0.81578795261E+03  0.00000000000E+00 0. -1.
         -3   -1    0    0    0  501 -0.00000000000E+00 -0.00000000000E+00 -0.11755695148E+04  0.11755695148E+04  0.00000000000E+00 0.  1.
         23    2    1    2    0    0  0.87748131831E+02  0.19249921604E+03 -0.89580295414E+03  0.92486562882E+03  0.90320628373E+02 0.  0.
        254    2    1    2    0    0 -0.87748131831E+02 -0.19249921604E+03  0.53602139192E+03  0.10664918386E+04  0.89740193136E+03 0.  0.
        -24    2    4    4    0    0  0.28368350264E+03  0.99448417808E+02 -0.44069277663E+02  0.31407772446E+03  0.79601496788E+02 0.  0.
         24    2    4    4    0    0 -0.37143163447E+03 -0.29194763385E+03  0.58009066958E+03  0.75241411415E+03  0.80168162281E+02 0.  0.
         11    1    3    3    0    0  0.48159773472E+02  0.33498313341E+02 -0.35399045336E+03  0.35881853610E+03  0.00000000000E+00 0.  1.
        -11    1    3    3    0    0  0.39588358359E+02  0.15900090270E+03 -0.54181250079E+03  0.56604709273E+03  0.00000000000E+00 0. -1.
          4    1    6    6  502    0 -0.22810241025E+03 -0.21850976411E+03  0.41789680316E+03  0.52384631780E+03  0.00000000000E+00 0. -1.
          1    1    5    5  503    0  0.23813598750E+03  0.10061632297E+03 -0.60743323998E+02  0.26556005799E+03  0.00000000000E+00 0. -1.
         -2    1    5    5    0  503  0.45547515145E+02 -0.11679051617E+01  0.16674046334E+02  0.48517666468E+02  0.00000000000E+00 0.  1.
         -3    1    6    6    0  502 -0.14332922422E+03 -0.73437869736E+02  0.16219386642E+03  0.22856779636E+03  0.00000000000E+00 0.  1.
<mgrwt>
<rscale>  0 0.19585867E+04</rscale>
<asrwt>0</asrwt>
<pdfrwt beam="1">  1        3 0.12550584E+00 0.19585867E+04</pdfrwt>
<pdfrwt beam="2">  1       -3 0.18085685E+00 0.19585867E+04</pdfrwt>
<totfact> 0.24113409E-01</totfact>
</mgrwt>
</event>
<event>
12    1  0.1489025E-007  0.1677915E+04  0.7818608E-02  0.8774062E-01
          2   -1    0    0  501    0  0.00000000000E+00  0.00000000000E+00  0.75577575793E+03  0.75577575793E+03  0.00000000000E+00 0. -1.
         -2   -1    0    0    0  501 -0.00000000000E+00 -0.00000000000E+00 -0.93129388953E+03  0.93129388953E+03  0.00000000000E+00 0.  1.
         23    2    1    2    0    0 -0.45949451759E+03  0.18517653748E+03 -0.38782496686E+03  0.63581677713E+03  0.91810715245E+02 0.  0.
        254    2    1    2    0    0  0.45949451759E+03 -0.18517653748E+03  0.21230683526E+03  0.10512528703E+04  0.90257013209E+03 0.  0.
        -24    2    4    4    0    0 -0.18330257645E+03  0.18008441837E+03  0.14163711755E+03  0.30418578306E+03  0.80235187247E+02 0.  0.
         24    2    4    4    0    0  0.64279709404E+03 -0.36526095585E+03  0.70669717707E+02  0.74706708727E+03  0.80692960657E+02 0.  0.
         11    1    3    3    0    0 -0.14545857268E+03  0.16041782132E+02 -0.96681227526E+02  0.17539325784E+03  0.00000000000E+00 0. -1.
        -11    1    3    3    0    0 -0.31403594491E+03  0.16913475535E+03 -0.29114373934E+03  0.46042351929E+03  0.00000000000E+00 0.  1.
          2    1    6    6  502    0  0.61602911643E+03 -0.36356687330E+03  0.58766670528E+02  0.71772297247E+03  0.00000000000E+00 0. -1.
          1    1    5    5  503    0 -0.11351923863E+03  0.16028034650E+03  0.97547007200E+02  0.21929848524E+03  0.00000000000E+00 0. -1.
         -2    1    5    5    0  503 -0.69783337824E+02  0.19804071867E+02  0.44090110355E+02  0.84887297822E+02  0.00000000000E+00 0.  1.
         -1    1    6    6    0  502  0.26767977610E+02 -0.16940825584E+01  0.11903047179E+02  0.29344114796E+02  0.00000000000E+00 0.  1.
<mgrwt>
<rscale>  0 0.16779146E+04</rscale>
<asrwt>0</asrwt>
<pdfrwt beam="1">  1        2 0.11627319E+00 0.16779146E+04</pdfrwt>
<pdfrwt beam="2">  1       -2 0.14327598E+00 0.16779146E+04</pdfrwt>
<totfact> 0.11961151E+01</totfact>
</mgrwt>
</event>
<event>
12    1  0.1489025E-007  0.2071562E+04  0.7818608E-02  0.8573875E-01
         -1   -1    0    0    0  501 -0.00000000000E+00  0.00000000000E+00  0.40952115436E+03  0.40952115436E+03  0.00000000000E+00 0.  1.
          1   -1    0    0  501    0  0.00000000000E+00 -0.00000000000E+00 -0.26197492238E+04  0.26197492238E+04  0.00000000000E+00 0. -1.
         23    2    1    2    0    0  0.47538876763E+03 -0.68539645588E+03 -0.10000272359E+04  0.13056834588E+04  0.94826367504E+02 0.  0.
        254    2    1    2    0    0 -0.47538876763E+03  0.68539645588E+03 -0.12102008335E+04  0.17235869193E+04  0.90022387708E+03 0.  0.
        -24    2    4    4    0    0 -0.59763639282E+03  0.56481131769E+03 -0.45101345232E+03  0.94111292717E+03  0.78098174716E+02 0.  0.
         24    2    4    4    0    0  0.12224762519E+03  0.12058513819E+03 -0.75918738117E+03  0.78247399213E+03  0.80092516543E+02 0.  0.
         11    1    3    3    0    0  0.33723722518E+03 -0.54914657010E+03 -0.74065766662E+03  0.98176610281E+03  0.00000000000E+00 0.  1.
        -11    1    3    3    0    0  0.13815154245E+03 -0.13624988578E+03 -0.25936956931E+03  0.32391735604E+03  0.00000000000E+00 0. -1.
          4    1    6    6  502    0  0.92360591189E+02  0.98462771197E+02 -0.41785122403E+03  0.43911848235E+03  0.00000000000E+00 0. -1.
          1    1    5    5  503    0 -0.21827320361E+03  0.16511675866E+03 -0.12554814688E+03  0.30111305616E+03  0.00000000000E+00 0. -1.
         -2    1    5    5    0  503 -0.37936318922E+03  0.39969455903E+03 -0.32546530544E+03  0.63999987101E+03  0.00000000000E+00 0.  1.
         -3    1    6    6    0  502  0.29887034006E+02  0.22122366995E+02 -0.34133615714E+03  0.34335550978E+03  0.00000000000E+00 0.  1.
<mgrwt>
<rscale>  0 0.20715624E+04</rscale>
<asrwt>0</asrwt>
<pdfrwt beam="1">  1        1 0.40303834E+00 0.20715624E+04</pdfrwt>
<pdfrwt beam="2">  1       -1 0.63003254E-01 0.20715624E+04</pdfrwt>
<totfact> 0.26343034E+00</totfact>
</mgrwt>
</event>
<event>
12    1  0.1489025E-007  0.2839067E+04  0.7818608E-02  0.8291241E-01
          2   -1    0    0  501    0  0.00000000000E+00  0.00000000000E+00  0.10233948464E+04  0.10233948464E+04  0.00000000000E+00 0.  1.
         -2   -1    0    0    0  501 -0.00000000000E+00 -0.00000000000E+00 -0.19690107508E+04  0.19690107508E+04  0.00000000000E+00 0. -1.
         23    2    1    2    0    0  0.12598489451E+04 -0.99558230804E+02 -0.25060419836E+03  0.12913771051E+04  0.87870117893E+02 0.  0.
        254    2    1    2    0    0 -0.12598489451E+04  0.99558230804E+02 -0.69501170603E+03  0.17010284920E+04  0.90184558175E+03 0.  0.
        -24    2    4    4    0    0 -0.11863960529E+04 -0.20333619633E+03 -0.66681395332E+03  0.13784124886E+04  0.80615986768E+02 0.  0.
         24    2    4    4    0    0 -0.73452892174E+02  0.30289442713E+03 -0.28197752713E+02  0.32261600338E+03  0.78393947618E+02 0.  0.
         13    1    3    3    0    0  0.96005317657E+03 -0.38177740165E+02 -0.18941243478E+03  0.97930419796E+03  0.00000000000E+00 0.  1.
        -13    1    3    3    0    0  0.29979576855E+03 -0.61380490638E+02 -0.61191763583E+02  0.31207290719E+03  0.00000000000E+00 0. -1.
          2    1    6    6  502    0 -0.10291575125E+02  0.27909955615E+02  0.20733260924E+02  0.36259484960E+02  0.00000000000E+00 0. -1.
          3    1    5    5  503    0 -0.25826865665E+03 -0.75551757154E+02 -0.13384094964E+03  0.30053979241E+03  0.00000000000E+00 0. -1.
         -4    1    5    5    0  503 -0.92812739630E+03 -0.12778443918E+03 -0.53297300367E+03  0.10778726962E+04  0.00000000000E+00 0.  1.
         -1    1    6    6    0  502 -0.63161317049E+02  0.27498447152E+03 -0.48931013637E+02  0.28635651842E+03  0.00000000000E+00 0.  1.
<mgrwt>
<rscale>  0 0.28390671E+04</rscale>
<asrwt>0</asrwt>
<pdfrwt beam="1">  1        2 0.15744536E+00 0.28390671E+04</pdfrwt>
<pdfrwt beam="2">  1       -2 0.30292473E+00 0.28390671E+04</pdfrwt>
<totfact> 0.64373193E-01</totfact>
</mgrwt>
</event>
<event>
12    1  0.1489025E-007  0.2702851E+04  0.7818608E-02  0.8334081E-01
          1   -1    0    0  501    0  0.00000000000E+00  0.00000000000E+00  0.10011504166E+04  0.10011504166E+04  0.00000000000E+00 0. -1.
         -1   -1    0    0    0  501 -0.00000000000E+00 -0.00000000000E+00 -0.18242516375E+04  0.18242516375E+04  0.00000000000E+00 0.  1.
         23    2    1    2    0    0 -0.20743814730E+03 -0.11000936564E+04 -0.84310733279E+03  0.14043531018E+04  0.90227613398E+02 0.  0.
        254    2    1    2    0    0  0.20743814730E+03  0.11000936564E+04  0.20006111857E+02  0.14210489523E+04  0.87506756465E+03 0.  0.
        -24    2    4    4    0    0  0.17962332808E+02  0.83488083397E+03  0.38685458347E+03  0.92386750964E+03  0.80783997763E+02 0.  0.
         24    2    4    4    0    0  0.18947581449E+03  0.26521282239E+03 -0.36684847161E+03  0.49718144269E+03  0.79828944587E+02 0.  0.
         11    1    3    3    0    0 -0.13385463008E+03 -0.89142994530E+03 -0.69219915378E+03  0.11365316000E+04  0.00000000000E+00 0. -1.
        -11    1    3    3    0    0 -0.73583517224E+02 -0.20866371106E+03 -0.15090817901E+03  0.26782150178E+03  0.00000000000E+00 0.  1.
          2    1    6    6  502    0  0.11532781238E+03  0.16803592768E+03 -0.16966489047E+03  0.26518437427E+03  0.00000000000E+00 0. -1.
          1    1    5    5  503    0 -0.27940455492E+01  0.38964285612E+03  0.22319560167E+03  0.44904970618E+03  0.00000000000E+00 0. -1.
         -2    1    5    5    0  503  0.20756378357E+02  0.44523797785E+03  0.16365898180E+03  0.47481780346E+03  0.00000000000E+00 0.  1.
         -1    1    6    6    0  502  0.74148002110E+02  0.97176894713E+02 -0.19718358114E+03  0.23199706842E+03  0.00000000000E+00 0.  1.
<mgrwt>
<rscale>  0 0.27028506E+04</rscale>
<asrwt>0</asrwt>
<pdfrwt beam="1">  1        1 0.15402314E+00 0.27028506E+04</pdfrwt>
<pdfrwt beam="2">  1       -1 0.28065410E+00 0.27028506E+04</pdfrwt>
<totfact> 0.58092894E-01</totfact>
</mgrwt>
</event>
<event>
12    1  0.1489025E-007  0.3471773E+04  0.7818608E-02  0.8120512E-01
          2   -1    0    0  501    0  0.00000000000E+00  0.00000000000E+00  0.11525768436E+04  0.11525768436E+04  0.00000000000E+00 0. -1.
         -2   -1    0    0    0  501 -0.00000000000E+00 -0.00000000000E+00 -0.26144039320E+04  0.26144039320E+04  0.00000000000E+00 0.  1.
         23    2    1    2    0    0 -0.70751355700E+03 -0.13729137345E+04 -0.16898431762E+03  0.15563745972E+04  0.90986984740E+02 0.  0.
        254    2    1    2    0    0  0.70751355700E+03  0.13729137345E+04 -0.12928427707E+04  0.22106061783E+04  0.91097183821E+03 0.  0.
        -24    2    4    4    0    0  0.78589153181E+03  0.90687226205E+03 -0.54280990669E+03  0.13195361835E+04  0.80562680069E+02 0.  0.
         24    2    4    4    0    0 -0.78377974808E+02  0.46604147250E+03 -0.75003286406E+03  0.89106999481E+03  0.90103703911E+02 0.  0.
         11    1    3    3    0    0 -0.70286896086E+03 -0.13395969357E+04 -0.15816945863E+03  0.15210398759E+04  0.00000000000E+00 0.  1.
        -11    1    3    3    0    0 -0.46445961389E+01 -0.33316798836E+02 -0.10814858992E+02  0.35334721352E+02  0.00000000000E+00 0. -1.
          2    1    6    6  502    0  0.20309293657E+02  0.82874530243E+02 -0.12618630153E+03  0.15232740353E+03  0.00000000000E+00 0. -1.
          3    1    5    5  503    0  0.21277017794E+03  0.25454467442E+03 -0.11157027494E+03  0.35001723693E+03  0.00000000000E+00 0. -1.
         -4    1    5    5    0  503  0.57312135386E+03  0.65232758763E+03 -0.43123963175E+03  0.96951894661E+03  0.00000000000E+00 0.  1.
         -1    1    6    6    0  502 -0.98687268464E+02  0.38316694226E+03 -0.62384656253E+03  0.73874259128E+03  0.00000000000E+00 0.  1.
<mgrwt>
<rscale>  0 0.34717727E+04</rscale>
<asrwt>0</asrwt>
<pdfrwt beam="1">  1        2 0.17731951E+00 0.34717727E+04</pdfrwt>
<pdfrwt beam="2">  1       -2 0.40221599E+00 0.34717727E+04</pdfrwt>
<totfact> 0.11949523E-01</totfact>
</mgrwt>
</event>
<event>
12    1  0.1489025E-007  0.1208724E+04  0.7818608E-02  0.9105254E-01
          1   -1    0    0  501    0  0.00000000000E+00  0.00000000000E+00  0.15651390411E+04  0.15651390411E+04  0.00000000000E+00 0. -1.
         -1   -1    0    0    0  501 -0.00000000000E+00 -0.00000000000E+00 -0.23336810785E+03  0.23336810785E+03  0.00000000000E+00 0.  1.
         23    2    1    2    0    0  0.25059722615E+02 -0.21710349522E+03  0.10449038913E+03  0.25892222665E+03  0.91436101725E+02 0.  0.
        254    2    1    2    0    0 -0.25059722615E+02  0.21710349522E+03  0.12272805441E+04  0.15395849223E+04  0.90351661950E+03 0.  0.
        -24    2    4    4    0    0 -0.32328285651E+03  0.18706242833E+03  0.13511888562E+03  0.40462091133E+03  0.77180381150E+02 0.  0.
         24    2    4    4    0    0  0.29822313389E+03  0.30041066889E+02  0.10921616585E+04  0.11349640110E+04  0.74072360765E+02 0.  0.
         11    1    3    3    0    0 -0.54034881148E+01 -0.14003558170E+02 -0.15081149946E+02  0.21277650456E+02  0.00000000000E+00 0.  1.
        -11    1    3    3    0    0  0.30463210730E+02 -0.20309993705E+03  0.11957153908E+03  0.23764457619E+03  0.00000000000E+00 0. -1.
          4    1    6    6  502    0  0.24900990158E+03 -0.64321646190E+00  0.92933058267E+03  0.96211313092E+03  0.00000000000E+00 0. -1.
          1    1    5    5  503    0 -0.16077953550E+03  0.12751693658E+03  0.47492285387E+02  0.21063272615E+03  0.00000000000E+00 0. -1.
         -2    1    5    5    0  503 -0.16250332100E+03  0.59545491744E+02  0.87626600233E+02  0.19398818519E+03  0.00000000000E+00 0.  1.
         -3    1    6    6    0  502  0.49213232308E+02  0.30684283351E+02  0.16283107585E+03  0.17285088007E+03  0.00000000000E+00 0.  1.
<mgrwt>
<rscale>  0 0.12087242E+04</rscale>
<asrwt>0</asrwt>
<pdfrwt beam="1">  1        1 0.24079062E+00 0.12087242E+04</pdfrwt>
<pdfrwt beam="2">  1       -1 0.35902787E-01 0.12087242E+04</pdfrwt>
<totfact> 0.43231844E+01</totfact>
</mgrwt>
</event>
<event>
12    1  0.1489025E-007  0.2173537E+04  0.7818608E-02  0.8529524E-01
          1   -1    0    0  501    0  0.00000000000E+00  0.00000000000E+00  0.84676954737E+03  0.84676954737E+03  0.00000000000E+00 0. -1.
         -1   -1    0    0    0  501 -0.00000000000E+00 -0.00000000000E+00 -0.13947901898E+04  0.13947901898E+04  0.00000000000E+00 0.  1.
         23    2    1    2    0    0  0.16124822273E+03  0.88294692335E+03 -0.33815597623E+03  0.96348503094E+03  0.91420357681E+02 0.  0.
        254    2    1    2    0    0 -0.16124822273E+03 -0.88294692335E+03 -0.20986466616E+03  0.12780747062E+04  0.88534485810E+03 0.  0.
        -24    2    4    4    0    0 -0.21338619977E+03 -0.49804807656E+02  0.23324136368E+03  0.32970036798E+03  0.79288144140E+02 0.  0.
         24    2    4    4    0    0  0.52137977036E+02 -0.83314211569E+03 -0.44310602983E+03  0.94837433822E+03  0.78909936889E+02 0.  0.
         13    1    3    3    0    0  0.12107645595E+03  0.79383905715E+03 -0.28413311672E+03  0.85180489835E+03  0.00000000000E+00 0. -1.
        -13    1    3    3    0    0  0.40171766779E+02  0.89107866200E+02 -0.54022859511E+02  0.11168013259E+03  0.00000000000E+00 0.  1.
          4    1    6    6  502    0 -0.14640276739E+02 -0.32013709761E+03 -0.18825502014E+03  0.37167465824E+03  0.00000000000E+00 0. -1.
          3    1    5    5  503    0 -0.37510487236E+00 -0.12162392382E+01  0.33963253159E+02  0.33987093237E+02  0.00000000000E+00 0. -1.
         -4    1    5    5    0  503 -0.21301109489E+03 -0.48588568417E+02  0.19927811052E+03  0.29571327474E+03  0.00000000000E+00 0.  1.
         -3    1    6    6    0  502  0.66778253775E+02 -0.51300501808E+03 -0.25485100970E+03  0.57669967998E+03  0.00000000000E+00 0.  1.
<mgrwt>
<rscale>  0 0.21735371E+04</rscale>
<asrwt>0</asrwt>
<pdfrwt beam="1">  1        1 0.13027224E+00 0.21735371E+04</pdfrwt>
<pdfrwt beam="2">  1       -1 0.21458310E+00 0.21735371E+04</pdfrwt>
<totfact> 0.22041241E+00</totfact>
</mgrwt>
</event>
<event>
12    1  0.1489025E-007  0.1043895E+04  0.7818608E-02  0.9261670E-01
         -2   -1    0    0    0  501 -0.00000000000E+00  0.00000000000E+00  0.31312812589E+03  0.31312812589E+03  0.00000000000E+00 0.  1.
          2   -1    0    0  501    0  0.00000000000E+00 -0.00000000000E+00 -0.87002449691E+03  0.87002449691E+03  0.00000000000E+00 0. -1.
         23    2    1    2    0    0 -0.65708805658E+02  0.53109514496E+02 -0.48109669485E+02  0.13335838470E+03  0.91277876844E+02 0.  0.
        254    2    1    2    0    0  0.65708805658E+02 -0.53109514496E+02 -0.50878670154E+03  0.10497942381E+04  0.91436631992E+03 0.  0.
        -24    2    4    4    0    0 -0.86643245653E+02 -0.45747017520E+03 -0.20794452924E+03  0.51720201396E+03  0.86434847063E+02 0.  0.
         24    2    4    4    0    0  0.15235205131E+03  0.40436066071E+03 -0.30084217230E+03  0.53259222414E+03  0.80185866020E+02 0.  0.
         13    1    3    3    0    0 -0.62161997162E+02  0.45795898416E+02  0.71165178408E+01  0.77537236403E+02  0.00000000000E+00 0.  1.
        -13    1    3    3    0    0 -0.35468084963E+01  0.73136160796E+01 -0.55226187326E+02  0.55821148298E+02  0.00000000000E+00 0. -1.
          2    1    6    6  502    0  0.60317187627E+02  0.19482481039E+03 -0.18820721110E+03  0.27751905192E+03  0.00000000000E+00 0. -1.
          3    1    5    5  503    0 -0.21609586179E+02 -0.13959680074E+03 -0.21202094200E+02  0.14284176487E+03  0.00000000000E+00 0. -1.
         -4    1    5    5    0  503 -0.65033659475E+02 -0.31787337446E+03 -0.18674243504E+03  0.37436024909E+03  0.00000000000E+00 0.  1.
         -1    1    6    6    0  502  0.92034863684E+02  0.20953585031E+03 -0.11263496120E+03  0.25507317222E+03  0.00000000000E+00 0.  1.
<mgrwt>
<rscale>  0 0.10438949E+04</rscale>
<asrwt>0</asrwt>
<pdfrwt beam="1">  1        2 0.13384992E+00 0.10438949E+04</pdfrwt>
<pdfrwt beam="2">  1       -2 0.48173558E-01 0.10438949E+04</pdfrwt>
<totfact> 0.12495843E+02</totfact>
</mgrwt>
</event>
<event>
12    1  0.1489025E-007  0.1790893E+04  0.7818608E-02  0.8711158E-01
         -2   -1    0    0    0  501 -0.00000000000E+00  0.00000000000E+00  0.13831232075E+04  0.13831232075E+04  0.00000000000E+00 0.  1.
          2   -1    0    0  501    0  0.00000000000E+00 -0.00000000000E+00 -0.57971996968E+03  0.57971996968E+03  0.00000000000E+00 0. -1.
         23    2    1    2    0    0 -0.26595418974E+03 -0.21684594401E+03 -0.32325336049E+03  0.47873865352E+03  0.83331679647E+02 0.  0.
        254    2    1    2    0    0  0.26595418974E+03  0.21684594401E+03  0.11266565983E+04  0.14841045237E+04  0.90302677266E+03 0.  0.
        -24    2    4    4    0    0 -0.25686236735E+03  0.30926357035E+03  0.34350062680E+03  0.53484766118E+03  0.80293887444E+02 0.  0.
         24    2    4    4    0    0  0.52281655710E+03 -0.92417626337E+02  0.78315597155E+03  0.94925686250E+03  0.76662541035E+02 0.  0.
         13    1    3    3    0    0 -0.26148990143E+03 -0.19595928321E+03 -0.27928468221E+03  0.42985688658E+03  0.00000000000E+00 0. -1.
        -13    1    3    3    0    0 -0.44642883177E+01 -0.20886660797E+02 -0.43968678284E+02  0.48881766943E+02  0.00000000000E+00 0.  1.
          2    1    6    6  502    0  0.68077822693E+02  0.88273392090E+01  0.75770447455E+02  0.10224320304E+03  0.00000000000E+00 0. -1.
          3    1    5    5  503    0 -0.74572362135E+02  0.14621588163E+03  0.11762320641E+03  0.20192904675E+03  0.00000000000E+00 0. -1.
         -4    1    5    5    0  503 -0.18229000522E+03  0.16304768872E+03  0.22587742039E+03  0.33291861444E+03  0.00000000000E+00 0.  1.
         -1    1    6    6    0  502  0.45473873440E+03 -0.10124496555E+03  0.70738552410E+03  0.84701365946E+03  0.00000000000E+00 0.  1.
<mgrwt>
<rscale>  0 0.17908927E+04</rscale>
<asrwt>0</asrwt>
<pdfrwt beam="1">  1        2 0.89187688E-01 0.17908927E+04</pdfrwt>
<pdfrwt beam="2">  1       -2 0.21278818E+00 0.17908927E+04</pdfrwt>
<totfact> 0.53625042E+00</totfact>
</mgrwt>
</event>
<event>
12    1  0.1489025E-007  0.1747105E+04  0.7818608E-02  0.8734946E-01
         -2   -1    0    0    0  501 -0.00000000000E+00  0.00000000000E+00  0.32201538414E+03  0.32201538414E+03  0.00000000000E+00 0.  1.
          2   -1    0    0  501    0  0.00000000000E+00 -0.00000000000E+00 -0.23697425796E+04  0.23697425796E+04  0.00000000000E+00 0. -1.
         23    2    1    2    0    0  0.40346958769E+03  0.15843213966E+03 -0.47995989870E+02  0.44574981031E+03  0.92199931013E+02 0.  0.
        254    2    1    2    0    0 -0.40346958769E+03 -0.15843213966E+03 -0.19997312056E+04  0.22460081535E+04  0.92614214873E+03 0.  0.
        -24    2    4    4    0    0 -0.45502141561E+03  0.29197749576E+03 -0.12751075363E+04  0.13874932956E+04  0.83325083513E+02 0.  0.
         24    2    4    4    0    0  0.51551827927E+02 -0.45040963542E+03 -0.72462366929E+03  0.85851485783E+03  0.80261250746E+02 0.  0.
         11    1    3    3    0    0  0.81663676143E+02 -0.32751754122E+01  0.41977864487E+01  0.81837058758E+02  0.00000000000E+00 0.  1.
        -11    1    3    3    0    0  0.32180591154E+03  0.16170731507E+03 -0.52193776319E+02  0.36391275155E+03  0.00000000000E+00 0. -1.
          4    1    6    6  502    0  0.42321023927E+02 -0.19322447421E+03 -0.38005006097E+03  0.42844464677E+03  0.00000000000E+00 0. -1.
          1    1    5    5  503    0 -0.36380432226E+03  0.21873205964E+03 -0.91083211165E+03  0.10048942404E+04  0.00000000000E+00 0. -1.
         -2    1    5    5    0  503 -0.91217093351E+02  0.73245436128E+02 -0.36427542466E+03  0.38259905520E+03  0.00000000000E+00 0.  1.
         -3    1    6    6    0  502  0.92308040004E+01 -0.25718516122E+03 -0.34457360832E+03  0.43007021106E+03  0.00000000000E+00 0.  1.
<mgrwt>
<rscale>  0 0.17471045E+04</rscale>
<asrwt>0</asrwt>
<pdfrwt beam="1">  1        2 0.36457577E+00 0.17471045E+04</pdfrwt>
<pdfrwt beam="2">  1       -2 0.49540830E-01 0.17471045E+04</pdfrwt>
<totfact> 0.15138860E+01</totfact>
</mgrwt>
</event>
<event>
12    1  0.1489025E-007  0.2073209E+04  0.7818608E-02  0.8573138E-01
         -2   -1    0    0    0  501 -0.00000000000E+00  0.00000000000E+00  0.40116547622E+03  0.40116547622E+03  0.00000000000E+00 0.  1.
          2   -1    0    0  501    0  0.00000000000E+00 -0.00000000000E+00 -0.26785667563E+04  0.26785667563E+04  0.00000000000E+00 0. -1.
         23    2    1    2    0    0  0.28058720142E+03 -0.72888558429E+03 -0.46942475972E+03  0.91563998657E+03  0.89630393189E+02 0.  0.
        254    2    1    2    0    0 -0.28058720142E+03  0.72888558429E+03 -0.18079765204E+04  0.21640922460E+04  0.89694636306E+03 0.  0.
        -24    2    4    4    0    0  0.31058755796E+03  0.19102106486E+03 -0.43431008334E+03  0.57289359209E+03  0.81413395654E+02 0.  0.
         24    2    4    4    0    0 -0.59117475938E+03  0.53786451943E+03 -0.13736664370E+04  0.15911986539E+04  0.78535587091E+02 0.  0.
         13    1    3    3    0    0  0.69031932186E+02 -0.25340103605E+03 -0.11971891218E+03  0.28863490896E+03  0.00000000000E+00 0. -1.
        -13    1    3    3    0    0  0.21155526924E+03 -0.47548454824E+03 -0.34970584754E+03  0.62700507762E+03  0.00000000000E+00 0.  1.
          2    1    6    6  502    0 -0.14787957819E+03  0.92090107348E+02 -0.31329848286E+03  0.35847579679E+03  0.00000000000E+00 0. -1.
          3    1    5    5  503    0  0.29521309962E+03  0.19693308948E+03 -0.42599674334E+03  0.55444264019E+03  0.00000000000E+00 0. -1.
         -4    1    5    5    0  503  0.15374458335E+02 -0.59120246209E+01 -0.83133399946E+01  0.18450951902E+02  0.00000000000E+00 0.  1.
         -1    1    6    6    0  502 -0.44329518119E+03  0.44577441208E+03 -0.10603679542E+04  0.12327228571E+04  0.00000000000E+00 0.  1.
<mgrwt>
<rscale>  0 0.20732086E+04</rscale>
<asrwt>0</asrwt>
<pdfrwt beam="1">  1        2 0.41208719E+00 0.20732086E+04</pdfrwt>
<pdfrwt beam="2">  1       -2 0.61717765E-01 0.20732086E+04</pdfrwt>
<totfact> 0.61656405E+00</totfact>
</mgrwt>
</event>
<event>
12    1  0.1489025E-007  0.1363846E+04  0.7818608E-02  0.8980413E-01
          1   -1    0    0  501    0  0.00000000000E+00  0.00000000000E+00  0.16461262746E+03  0.16461262746E+03  0.00000000000E+00 0. -1.
         -1   -1    0    0    0  501 -0.00000000000E+00 -0.00000000000E+00 -0.28249270589E+04  0.28249270589E+04  0.00000000000E+00 0.  1.
         23    2    1    2    0    0 -0.30120829577E+03  0.91411735248E+02 -0.11493911744E+04  0.11953786794E+04  0.93528458198E+02 0.  0.
        254    2    1    2    0    0  0.30120829577E+03 -0.91411735248E+02 -0.15109232570E+04  0.17941610070E+04  0.91490004241E+03 0.  0.
        -24    2    4    4    0    0 -0.18216242928E+03 -0.92907693042E+02 -0.11875843227E+04  0.12075154704E+04  0.76955165433E+02 0.  0.
         24    2    4    4    0    0  0.48337072506E+03  0.14959577936E+01 -0.32333893427E+03  0.58664553661E+03  0.77171390268E+02 0.  0.
         13    1    3    3    0    0 -0.54739457157E+02  0.27872694880E+02 -0.38123012983E+03  0.38614726101E+03  0.00000000000E+00 0.  1.
        -13    1    3    3    0    0 -0.24646883862E+03  0.63539040368E+02 -0.76816104461E+03  0.80923141839E+03  0.00000000000E+00 0. -1.
          2    1    6    6  502    0  0.46311835684E+03  0.17789013136E+02 -0.30442034887E+03  0.55449689832E+03  0.00000000000E+00 0. -1.
          1    1    5    5  503    0 -0.16752468922E+03 -0.10015270607E+03 -0.97739619402E+03  0.99669373738E+03  0.00000000000E+00 0. -1.
         -2    1    5    5    0  503 -0.14637740065E+02  0.72450130279E+01 -0.21018812872E+03  0.21082173300E+03  0.00000000000E+00 0.  1.
         -3    1    6    6    0  502  0.20252368215E+02 -0.16293055343E+02 -0.18918585402E+02  0.32148638297E+02  0.00000000000E+00 0.  1.
<mgrwt>
<rscale>  0 0.13638455E+04</rscale>
<asrwt>0</asrwt>
<pdfrwt beam="1">  1        1 0.25325022E-01 0.13638455E+04</pdfrwt>
<pdfrwt beam="2">  1       -1 0.43460411E+00 0.13638455E+04</pdfrwt>
<totfact> 0.78420427E-01</totfact>
</mgrwt>
</event>
<event>
12    1  0.1489025E-007  0.1642922E+04  0.7818608E-02  0.8794605E-01
         -1   -1    0    0    0  501 -0.00000000000E+00  0.00000000000E+00  0.68738552413E+03  0.68738552413E+03  0.00000000000E+00 0.  1.
          1   -1    0    0  501    0  0.00000000000E+00 -0.00000000000E+00 -0.98168748627E+03  0.98168748627E+03  0.00000000000E+00 0. -1.
         23    2    1    2    0    0  0.49127018962E+03 -0.29099372710E+03 -0.10438370988E+03  0.58734564654E+03  0.89750772699E+02 0.  0.
        254    2    1    2    0    0 -0.49127018962E+03  0.29099372710E+03 -0.18991825227E+03  0.10817273639E+04  0.89891122963E+03 0.  0.
        -24    2    4    4    0    0  0.16836197492E+03  0.36348659135E+02  0.19347413927E+03  0.27354289744E+03  0.87900480978E+02 0.  0.
         24    2    4    4    0    0 -0.65963216455E+03  0.25464506796E+03 -0.38339239153E+03  0.80818446641E+03  0.78827043114E+02 0.  0.
         11    1    3    3    0    0  0.12667703920E+03 -0.74174088813E+02  0.12552056462E+02  0.14733099414E+03  0.00000000000E+00 0. -1.
        -11    1    3    3    0    0  0.36459315042E+03 -0.21681963828E+03 -0.11693576634E+03  0.44001465240E+03  0.00000000000E+00 0.  1.
          4    1    6    6  502    0 -0.65247222118E+03  0.24069428388E+03 -0.37116743647E+03  0.78830134061E+03  0.00000000000E+00 0. -1.
          3    1    5    5  503    0  0.88427502757E+02 -0.23129889028E+02  0.11384400191E+03  0.14599613619E+03  0.00000000000E+00 0. -1.
         -4    1    5    5    0  503  0.79934472167E+02  0.59478548163E+02  0.79630137355E+02  0.12754676126E+03  0.00000000000E+00 0.  1.
         -3    1    6    6    0  502 -0.71599433614E+01  0.13950784086E+02 -0.12224955060E+02  0.19883125804E+02  0.00000000000E+00 0.  1.
<mgrwt>
<rscale>  0 0.16429215E+04</rscale>
<asrwt>0</asrwt>
<pdfrwt beam="1">  1        1 0.15102884E+00 0.16429215E+04</pdfrwt>
<pdfrwt beam="2">  1       -1 0.10575162E+00 0.16429215E+04</pdfrwt>
<totfact> 0.12524619E+01</totfact>
</mgrwt>
</event>
<event>
12    1  0.1489025E-007  0.1442175E+04  0.7818608E-02  0.8923843E-01
         -2   -1    0    0    0  501 -0.00000000000E+00  0.00000000000E+00  0.89713822398E+03  0.89713822398E+03  0.00000000000E+00 0. -1.
          2   -1    0    0  501    0  0.00000000000E+00 -0.00000000000E+00 -0.57958453355E+03  0.57958453355E+03  0.00000000000E+00 0.  1.
         23    2    1    2    0    0  0.12734740767E+03 -0.23586103140E+03  0.34740538982E+03  0.44895546800E+03  0.94987993959E+02 0.  0.
        254    2    1    2    0    0 -0.12734740767E+03  0.23586103140E+03 -0.29851699396E+02  0.10277672895E+04  0.99174930758E+03 0.  0.
        -24    2    4    4    0    0  0.32090363876E+03  0.38453240477E+03 -0.15942060081E+03  0.53162080070E+03  0.79758586246E+02 0.  0.
         24    2    4    4    0    0 -0.44825104643E+03 -0.14867137337E+03  0.12956890142E+03  0.49614648883E+03  0.79630774703E+02 0.  0.
         11    1    3    3    0    0  0.18934368254E+02 -0.11065726064E+03  0.95007586264E+02  0.14707134691E+03  0.00000000000E+00 0.  1.
        -11    1    3    3    0    0  0.10841303942E+03 -0.12520377077E+03  0.25239780356E+03  0.30188412110E+03  0.00000000000E+00 0. -1.
          2    1    6    6  502    0 -0.74059404598E+01 -0.11331327218E+02 -0.61534034901E+01  0.14869811873E+02  0.00000000000E+00 0. -1.
          1    1    5    5  503    0  0.12964747845E+03  0.14017077060E+03 -0.21840762289E+02  0.19218046856E+03  0.00000000000E+00 0. -1.
         -2    1    5    5    0  503  0.19125616031E+03  0.24436163418E+03 -0.13757983853E+03  0.33944033214E+03  0.00000000000E+00 0.  1.
         -1    1    6    6    0  502 -0.44084510597E+03 -0.13734004615E+03  0.13572230491E+03  0.48127667696E+03  0.00000000000E+00 0.  1.
<mgrwt>
<rscale>  0 0.14421754E+04</rscale>
<asrwt>0</asrwt>
<pdfrwt beam="1">  1        2 0.89166852E-01 0.14421754E+04</pdfrwt>
<pdfrwt beam="2">  1       -2 0.13802126E+00 0.14421754E+04</pdfrwt>
<totfact> 0.18689387E+01</totfact>
</mgrwt>
</event>
<event>
12    1  0.1489025E-007  0.2108347E+04  0.7818608E-02  0.8557575E-01
         -2   -1    0    0    0  501 -0.00000000000E+00  0.00000000000E+00  0.35589396703E+03  0.35589396703E+03  0.00000000000E+00 0.  1.
          2   -1    0    0  501    0  0.00000000000E+00 -0.00000000000E+00 -0.31225081903E+04  0.31225081903E+04  0.00000000000E+00 0. -1.
         23    2    1    2    0    0 -0.61414189098E+02  0.37049133933E+03  0.14509750421E+03  0.41353902431E+03  0.94475942753E+02 0.  0.
        254    2    1    2    0    0  0.61414189098E+02 -0.37049133933E+03 -0.29117117275E+04  0.30648631331E+04  0.87993483005E+03 0.  0.
        -24    2    4    4    0    0  0.24504637899E+03 -0.89303809707E+02 -0.25519118607E+04  0.25662550022E+04  0.73400905673E+02 0.  0.
         24    2    4    4    0    0 -0.18363218990E+03 -0.28118752963E+03 -0.35979986679E+03  0.49860813089E+03  0.79792957523E+02 0.  0.
         11    1    3    3    0    0 -0.70995147294E+02  0.19164648645E+03  0.48505112412E+02  0.21005102389E+03  0.00000000000E+00 0.  1.
        -11    1    3    3    0    0  0.95809581954E+01  0.17884485288E+03  0.96592391795E+02  0.20348800042E+03  0.00000000000E+00 0. -1.
          4    1    6    6  502    0 -0.86561884159E+02 -0.12076161717E+03 -0.21664624802E+03  0.26270120812E+03  0.00000000000E+00 0. -1.
          1    1    5    5  503    0  0.18112681014E+03 -0.29853295926E+02 -0.17000196838E+04  0.17099020632E+04  0.00000000000E+00 0. -1.
         -2    1    5    5    0  503  0.63919568854E+02 -0.59450513780E+02 -0.85189217695E+03  0.85635293893E+03  0.00000000000E+00 0.  1.
         -3    1    6    6    0  502 -0.97070305738E+02 -0.16042591246E+03 -0.14315361877E+03  0.23590692277E+03  0.00000000000E+00 0.  1.
<mgrwt>
<rscale>  0 0.21083471E+04</rscale>
<asrwt>0</asrwt>
<pdfrwt beam="1">  1        2 0.48038587E+00 0.21083471E+04</pdfrwt>
<pdfrwt beam="2">  1       -2 0.54752919E-01 0.21083471E+04</pdfrwt>
<totfact> 0.42165868E+00</totfact>
</mgrwt>
</event>
<event>
12    1  0.1489025E-007  0.1230113E+04  0.7818608E-02  0.9086900E-01
          1   -1    0    0  501    0  0.00000000000E+00  0.00000000000E+00  0.18282160545E+04  0.18282160545E+04  0.00000000000E+00 0. -1.
         -1   -1    0    0    0  501 -0.00000000000E+00 -0.00000000000E+00 -0.20691994916E+03  0.20691994916E+03  0.00000000000E+00 0.  1.
         23    2    1    2    0    0 -0.85595744288E+02 -0.23502612887E+03  0.19825766697E+03  0.33230939604E+03  0.92517671246E+02 0.  0.
        254    2    1    2    0    0  0.85595744288E+02  0.23502612887E+03  0.14230384384E+04  0.17028266076E+04  0.90111938489E+03 0.  0.
        -24    2    4    4    0    0 -0.70214219998E+02 -0.12080326547E+03 -0.55076888417E+02  0.17244878623E+03  0.84744643460E+02 0.  0.
         24    2    4    4    0    0  0.15580996429E+03  0.35582939434E+03  0.14781153268E+04  0.15303778214E+04  0.79624456401E+02 0.  0.
         11    1    3    3    0    0  0.25808385173E+01 -0.10073557147E+03  0.10933604870E+03  0.14868990427E+03  0.00000000000E+00 0. -1.
        -11    1    3    3    0    0 -0.88176582805E+02 -0.13429055740E+03  0.88921618268E+02  0.18361949177E+03  0.00000000000E+00 0.  1.
          4    1    6    6  502    0  0.12903806325E+03  0.33621067909E+03  0.13984614059E+04  0.14440854360E+04  0.00000000000E+00 0. -1.
          1    1    5    5  503    0 -0.78030686096E+02 -0.12983088811E+03 -0.51108069027E+02  0.15986520009E+03  0.00000000000E+00 0. -1.
         -2    1    5    5    0  503  0.78164660987E+01  0.90276226376E+01 -0.39688193898E+01  0.12583586139E+02  0.00000000000E+00 0.  1.
         -1    1    6    6    0  502  0.26771901036E+02  0.19618715253E+02  0.79653920885E+02  0.86292385443E+02  0.00000000000E+00 0.  1.
<mgrwt>
<rscale>  0 0.12301128E+04</rscale>
<asrwt>0</asrwt>
<pdfrwt beam="1">  1        1 0.28126400E+00 0.12301128E+04</pdfrwt>
<pdfrwt beam="2">  1       -1 0.31833840E-01 0.12301128E+04</pdfrwt>
<totfact> 0.35403401E+01</totfact>
</mgrwt>
</event>
<event>
12    1  0.1489025E-007  0.1963486E+04  0.7818608E-02  0.8623885E-01
          2   -1    0    0  501    0  0.00000000000E+00  0.00000000000E+00  0.36588321979E+04  0.36588321979E+04  0.00000000000E+00 0. -1.
         -2   -1    0    0    0  501 -0.00000000000E+00 -0.00000000000E+00 -0.26342264503E+03  0.26342264503E+03  0.00000000000E+00 0.  1.
         23    2    1    2    0    0 -0.28129417473E+03 -0.52725543164E+03  0.23584930740E+04  0.24346420830E+04  0.88700559242E+02 0.  0.
        254    2    1    2    0    0  0.28129417473E+03  0.52725543164E+03  0.10369164788E+04  0.14876127599E+04  0.88355601771E+03 0.  0.
        -24    2    4    4    0    0 -0.53204239606E+02  0.54544705718E+03  0.99661674108E+03  0.11402524917E+04  0.81164233976E+02 0.  0.
         24    2    4    4    0    0  0.33449841433E+03 -0.18191625542E+02  0.40299737725E+02  0.34736026821E+03  0.82552786970E+02 0.  0.
         13    1    3    3    0    0 -0.25379622796E+03 -0.49952822627E+03  0.22659787311E+04  0.23342237647E+04  0.00000000000E+00 0. -1.
        -13    1    3    3    0    0 -0.27497946770E+02 -0.27727205369E+02  0.92514342985E+02  0.10041831831E+03  0.00000000000E+00 0.  1.
          2    1    6    6  502    0  0.22206312981E+03 -0.41791725995E+02  0.52039905889E+02  0.23187654859E+03  0.00000000000E+00 0. -1.
          3    1    5    5  503    0 -0.45096319804E+02  0.39698360193E+03  0.64826681411E+03  0.76149820783E+03  0.00000000000E+00 0. -1.
         -4    1    5    5    0  503 -0.81079198019E+01  0.14846345525E+03  0.34834992697E+03  0.37875428384E+03  0.00000000000E+00 0.  1.
         -1    1    6    6    0  502  0.11243528452E+03  0.23600100453E+02 -0.11740168163E+02  0.11548371961E+03  0.00000000000E+00 0.  1.
<mgrwt>
<rscale>  0 0.19634859E+04</rscale>
<asrwt>0</asrwt>
<pdfrwt beam="1">  1        2 0.56289723E+00 0.19634859E+04</pdfrwt>
<pdfrwt beam="2">  1       -2 0.40526563E-01 0.19634859E+04</pdfrwt>
<totfact> 0.33867731E+00</totfact>
</mgrwt>
</event>
<event>
12    1  0.1489025E-007  0.5618339E+04  0.7818608E-02  0.7739612E-01
          2   -1    0    0  501    0  0.00000000000E+00  0.00000000000E+00  0.25779342028E+04  0.25779342028E+04  0.00000000000E+00 0. -1.
         -2   -1    0    0    0  501 -0.00000000000E+00 -0.00000000000E+00 -0.30611462892E+04  0.30611462892E+04  0.00000000000E+00 0.  1.
         23    2    1    2    0    0  0.64012004846E+03  0.15059900722E+04 -0.24368706945E+04  0.29367965090E+04  0.93140641626E+02 0.  0.
        254    2    1    2    0    0 -0.64012004846E+03 -0.15059900722E+04  0.19536586081E+04  0.27022839830E+04  0.89877527416E+03 0.  0.
        -24    2    4    4    0    0 -0.98083453280E+02  0.83208121004E+02  0.33778457822E+03  0.37024286171E+03  0.80233410445E+02 0.  0.
         24    2    4    4    0    0 -0.54203659518E+03 -0.15891981932E+04  0.16158740299E+04  0.23320411213E+04  0.89511691285E+02 0.  0.
         13    1    3    3    0    0  0.14253021182E+03  0.41250651979E+03 -0.60004277637E+03  0.74197562198E+03  0.00000000000E+00 0. -1.
        -13    1    3    3    0    0  0.49758983664E+03  0.10934835524E+04 -0.18368279182E+04  0.21948208870E+04  0.00000000000E+00 0.  1.
          2    1    6    6  502    0 -0.35295371537E+03 -0.90251041566E+03  0.94725115856E+03  0.13551332528E+04  0.00000000000E+00 0. -1.
          1    1    5    5  503    0 -0.78258467255E+02  0.14944581541E+02  0.15898552467E+03  0.17783173302E+03  0.00000000000E+00 0. -1.
         -2    1    5    5    0  503 -0.19824986024E+02  0.68263539463E+02  0.17879905356E+03  0.19241112869E+03  0.00000000000E+00 0.  1.
         -1    1    6    6    0  502 -0.18908287980E+03 -0.68668777757E+03  0.66862287136E+03  0.97690786843E+03  0.00000000000E+00 0.  1.
<mgrwt>
<rscale>  0 0.56183392E+04</rscale>
<asrwt>0</asrwt>
<pdfrwt beam="1">  1        2 0.39660526E+00 0.56183392E+04</pdfrwt>
<pdfrwt beam="2">  1       -2 0.47094558E+00 0.56183392E+04</pdfrwt>
<totfact> 0.55294717E-03</totfact>
</mgrwt>
</event>
<event>
12    1  0.1489025E-007  0.2234476E+04  0.7818608E-02  0.8504214E-01
          1   -1    0    0  501    0  0.00000000000E+00  0.00000000000E+00  0.25770845334E+04  0.25770845334E+04  0.00000000000E+00 0. -1.
         -1   -1    0    0    0  501 -0.00000000000E+00 -0.00000000000E+00 -0.48435394586E+03  0.48435394586E+03  0.00000000000E+00 0.  1.
         23    2    1    2    0    0  0.86988769436E+03 -0.26818788039E+03  0.66983786680E+03  0.11330486320E+04  0.80542502464E+02 0.  0.
        254    2    1    2    0    0 -0.86988769436E+03  0.26818788039E+03  0.14228927207E+04  0.19283898472E+04  0.93028725039E+03 0.  0.
        -24    2    4    4    0    0 -0.52857712151E+03  0.20642697348E+03  0.14619883975E+04  0.15702563330E+04  0.79303267983E+02 0.  0.
         24    2    4    4    0    0 -0.34131057285E+03  0.61760906916E+02 -0.39095676747E+02  0.35813351421E+03  0.80148769776E+02 0.  0.
         13    1    3    3    0    0  0.48986019378E+02 -0.21088083605E+02  0.63941531240E+02  0.83263778331E+02  0.00000000000E+00 0. -1.
        -13    1    3    3    0    0  0.82090167498E+03 -0.24709979679E+03  0.60589633556E+03  0.10497848537E+04  0.00000000000E+00 0.  1.
          4    1    6    6  502    0 -0.69818600776E+02  0.11062254554E+02  0.24329550563E+02  0.74759196897E+02  0.00000000000E+00 0. -1.
          3    1    5    5  503    0 -0.30903836678E+03  0.14194806279E+03  0.96367756252E+03  0.10219238764E+04  0.00000000000E+00 0. -1.
         -4    1    5    5    0  503 -0.21953875473E+03  0.64478910690E+02  0.49831083494E+03  0.54833245661E+03  0.00000000000E+00 0.  1.
         -3    1    6    6    0  502 -0.27149197208E+03  0.50698652362E+02 -0.63425227311E+02  0.28337431731E+03  0.00000000000E+00 0.  1.
<mgrwt>
<rscale>  0 0.22344763E+04</rscale>
<asrwt>0</asrwt>
<pdfrwt beam="1">  1        1 0.39647454E+00 0.22344763E+04</pdfrwt>
<pdfrwt beam="2">  1       -1 0.74515993E-01 0.22344763E+04</pdfrwt>
<totfact> 0.19723572E+00</totfact>
</mgrwt>
</event>
<event>
12    1  0.1489025E-007  0.1441980E+04  0.7818608E-02  0.8923979E-01
         -1   -1    0    0    0  501 -0.00000000000E+00  0.00000000000E+00  0.67843901736E+03  0.67843901736E+03  0.00000000000E+00 0.  1.
          1   -1    0    0  501    0  0.00000000000E+00 -0.00000000000E+00 -0.76621000296E+03  0.76621000296E+03  0.00000000000E+00 0. -1.
         23    2    1    2    0    0  0.10776819309E+03 -0.36892842074E+02  0.40661991143E+03  0.43272582909E+03  0.94534784872E+02 0.  0.
        254    2    1    2    0    0 -0.10776819309E+03  0.36892842074E+02 -0.49439089703E+03  0.10119231912E+04  0.87555189489E+03 0.  0.
        -24    2    4    4    0    0 -0.41526151242E+03  0.25205941769E+03 -0.21262715566E+03  0.53608137000E+03  0.78720100246E+02 0.  0.
         24    2    4    4    0    0  0.30749331934E+03 -0.21516657562E+03 -0.28176374137E+03  0.47584182123E+03  0.78650087001E+02 0.  0.
         13    1    3    3    0    0  0.63781641016E+02  0.19173391535E+02  0.27609872153E+03  0.28401799363E+03  0.00000000000E+00 0.  1.
        -13    1    3    3    0    0  0.43986552071E+02 -0.56066233609E+02  0.13052118989E+03  0.14870783545E+03  0.00000000000E+00 0. -1.
          4    1    6    6  502    0  0.23159906132E+03 -0.12070027649E+03 -0.20900686096E+03  0.33450044824E+03  0.00000000000E+00 0. -1.
          3    1    5    5  503    0 -0.12678832695E+03  0.48645746343E+02 -0.31771039359E+02  0.13946715538E+03  0.00000000000E+00 0. -1.
         -4    1    5    5    0  503 -0.28847318547E+03  0.20341367135E+03 -0.18085611630E+03  0.39661421461E+03  0.00000000000E+00 0.  1.
         -3    1    6    6    0  502  0.75894258017E+02 -0.94466299131E+02 -0.72756880409E+02  0.14134137299E+03  0.00000000000E+00 0.  1.
<mgrwt>
<rscale>  0 0.14419803E+04</rscale>
<asrwt>0</asrwt>
<pdfrwt beam="1">  1        1 0.11787846E+00 0.14419803E+04</pdfrwt>
<pdfrwt beam="2">  1       -1 0.10437523E+00 0.14419803E+04</pdfrwt>
<totfact> 0.19878137E+01</totfact>
</mgrwt>
</event>
<event>
12    1  0.1489025E-007  0.2114417E+04  0.7818608E-02  0.8554919E-01
          1   -1    0    0  501    0  0.00000000000E+00  0.00000000000E+00  0.97333424166E+03  0.97333424166E+03  0.00000000000E+00 0. -1.
         -1   -1    0    0    0  501 -0.00000000000E+00 -0.00000000000E+00 -0.11483104274E+04  0.11483104274E+04  0.00000000000E+00 0.  1.
         23    2    1    2    0    0 -0.57629035691E+03  0.64209495320E+03 -0.71010475702E+02  0.87054197545E+03  0.91675181864E+02 0.  0.
        254    2    1    2    0    0  0.57629035691E+03 -0.64209495320E+03 -0.10396571000E+03  0.12511026936E+04  0.90002920877E+03 0.  0.
        -24    2    4    4    0    0  0.10412334794E+03 -0.14894760367E+03  0.36717451560E+03  0.41766723861E+03  0.81251074281E+02 0.  0.
         24    2    4    4    0    0  0.47216700897E+03 -0.49314734953E+03 -0.47114022560E+03  0.83343545497E+03  0.80657006655E+02 0.  0.
         13    1    3    3    0    0 -0.77490118911E+02  0.92579257679E+02  0.21603478092E+02  0.12264724924E+03  0.00000000000E+00 0.  1.
        -13    1    3    3    0    0 -0.49880023799E+03  0.54951569552E+03 -0.92613953794E+02  0.74789472621E+03  0.00000000000E+00 0. -1.
          4    1    6    6  502    0  0.25102449460E+03 -0.28401280968E+03 -0.21598605889E+03  0.43626431276E+03  0.00000000000E+00 0. -1.
          3    1    5    5  503    0  0.28791649968E+02 -0.56138502281E+02  0.56132547002E+02  0.84447340865E+02  0.00000000000E+00 0. -1.
         -4    1    5    5    0  503  0.75331697969E+02 -0.92809101393E+02  0.31104196860E+03  0.33321989774E+03  0.00000000000E+00 0.  1.
         -1    1    6    6    0  502  0.22114251436E+03 -0.20913453985E+03 -0.25515416671E+03  0.39717114221E+03  0.00000000000E+00 0.  1.
<mgrwt>
<rscale>  0 0.21144170E+04</rscale>
<asrwt>0</asrwt>
<pdfrwt beam="1">  1        1 0.14974373E+00 0.21144170E+04</pdfrwt>
<pdfrwt beam="2">  1       -1 0.17666314E+00 0.21144170E+04</pdfrwt>
<totfact> 0.32088394E+00</totfact>
</mgrwt>
</event>
<event>
12    1  0.1489025E-007  0.1842875E+04  0.7818608E-02  0.8683826E-01
         -1   -1    0    0    0  501 -0.00000000000E+00  0.00000000000E+00  0.17595514601E+04  0.17595514601E+04  0.00000000000E+00 0.  1.
          1   -1    0    0  501    0  0.00000000000E+00 -0.00000000000E+00 -0.48253590756E+03  0.48253590756E+03  0.00000000000E+00 0. -1.
         23    2    1    2    0    0  0.18327299888E+03 -0.66307108334E+03  0.41512298636E+03  0.80878713762E+03  0.92505602522E+02 0.  0.
        254    2    1    2    0    0 -0.18327299888E+03  0.66307108334E+03  0.86189256619E+03  0.14333002301E+04  0.91555365770E+03 0.  0.
        -24    2    4    4    0    0 -0.23744532184E+03  0.69777509767E+03  0.20604436893E+03  0.76894556960E+03  0.74516033478E+02 0.  0.
         24    2    4    4    0    0  0.54172322959E+02 -0.34704014328E+02  0.65584819727E+03  0.66435466045E+03  0.84209547087E+02 0.  0.
         11    1    3    3    0    0  0.39753772076E+02 -0.93076232775E+02  0.28142851748E+02  0.10505030988E+03  0.00000000000E+00 0. -1.
        -11    1    3    3    0    0  0.14351922681E+03 -0.56999485057E+03  0.38698013461E+03  0.70373682774E+03  0.00000000000E+00 0.  1.
          2    1    6    6  502    0  0.73900155134E+02 -0.36876395217E+02  0.58417230666E+03  0.58998168219E+03  0.00000000000E+00 0. -1.
          3    1    5    5  503    0 -0.12810057831E+03  0.27535141735E+03  0.67143950556E+02  0.31102487247E+03  0.00000000000E+00 0. -1.
         -4    1    5    5    0  503 -0.10934474353E+03  0.42242368032E+03  0.13890041837E+03  0.45792069713E+03  0.00000000000E+00 0.  1.
         -1    1    6    6    0  502 -0.19727832175E+02  0.21723808895E+01  0.71675890610E+02  0.74372978264E+02  0.00000000000E+00 0.  1.
<mgrwt>
<rscale>  0 0.18428747E+04</rscale>
<asrwt>0</asrwt>
<pdfrwt beam="1">  1        1 0.74236294E-01 0.18428747E+04</pdfrwt>
<pdfrwt beam="2">  1       -1 0.27070022E+00 0.18428747E+04</pdfrwt>
<totfact> 0.22385603E+00</totfact>
</mgrwt>
</event>
<event>
12    1  0.1489025E-007  0.1610710E+04  0.7818608E-02  0.8813995E-01
         -2   -1    0    0    0  501 -0.00000000000E+00  0.00000000000E+00  0.93416876519E+03  0.93416876519E+03  0.00000000000E+00 0.  1.
          2   -1    0    0  501    0  0.00000000000E+00 -0.00000000000E+00 -0.69430377357E+03  0.69430377357E+03  0.00000000000E+00 0. -1.
         23    2    1    2    0    0 -0.42066958033E+03 -0.77094189060E+02 -0.26177736213E+03  0.50957535139E+03  0.90737211876E+02 0.  0.
        254    2    1    2    0    0  0.42066958033E+03  0.77094189060E+02  0.50164235374E+03  0.11188971874E+04  0.90409040203E+03 0.  0.
        -24    2    4    4    0    0  0.30118867007E+03 -0.25729365338E+03 -0.99376401372E+02  0.41630636042E+03  0.80750712208E+02 0.  0.
         24    2    4    4    0    0  0.11948091025E+03  0.33438784244E+03  0.60101875512E+03  0.70259082696E+03  0.79494710762E+02 0.  0.
         13    1    3    3    0    0 -0.13065267603E+03 -0.67406567500E+02 -0.87729932572E+02  0.17120253551E+03  0.00000000000E+00 0.  1.
        -13    1    3    3    0    0 -0.29001690430E+03 -0.96876215602E+01 -0.17404742956E+03  0.33837281588E+03  0.00000000000E+00 0. -1.
          4    1    6    6  502    0  0.10947663944E+03  0.19949812403E+03  0.35059983759E+03  0.41797713118E+03  0.00000000000E+00 0. -1.
          3    1    5    5  503    0  0.50724758644E+02 -0.46396107599E+02 -0.50388691100E+02  0.85232740955E+02  0.00000000000E+00 0. -1.
         -4    1    5    5    0  503  0.25046391143E+03 -0.21089754578E+03 -0.48987710272E+02  0.33107361946E+03  0.00000000000E+00 0.  1.
         -3    1    6    6    0  502  0.10004270808E+02  0.13488971841E+03  0.25041891753E+03  0.28461369577E+03  0.00000000000E+00 0.  1.
<mgrwt>
<rscale>  0 0.16107103E+04</rscale>
<asrwt>0</asrwt>
<pdfrwt beam="1">  1        2 0.10681596E+00 0.16107103E+04</pdfrwt>
<pdfrwt beam="2">  1       -2 0.14371827E+00 0.16107103E+04</pdfrwt>
<totfact> 0.13297660E+01</totfact>
</mgrwt>
</event>
<event>
12    1  0.1489025E-007  0.2066497E+04  0.7818608E-02  0.8576147E-01
          2   -1    0    0  501    0  0.00000000000E+00  0.00000000000E+00  0.57952011130E+03  0.57952011130E+03  0.00000000000E+00 0. -1.
         -2   -1    0    0    0  501 -0.00000000000E+00 -0.00000000000E+00 -0.18422179225E+04  0.18422179225E+04  0.00000000000E+00 0.  1.
         23    2    1    2    0    0  0.72364066507E+03  0.28525710420E+03 -0.17808431542E+03  0.80325750573E+03  0.92093265127E+02 0.  0.
        254    2    1    2    0    0 -0.72364066507E+03 -0.28525710420E+03 -0.10846134958E+04  0.16184805280E+04  0.91545909622E+03 0.  0.
        -24    2    4    4    0    0 -0.71338117336E+03 -0.36416041578E+03 -0.12079971857E+04  0.14515001516E+04  0.77910092785E+02 0.  0.
         24    2    4    4    0    0 -0.10259491704E+02  0.78903311578E+02  0.12338368996E+03  0.16698037641E+03  0.79548233227E+02 0.  0.
         13    1    3    3    0    0  0.63465154337E+03  0.21610113024E+03 -0.14725655324E+03  0.68641588885E+03  0.00000000000E+00 0. -1.
        -13    1    3    3    0    0  0.88989121697E+02  0.69155973960E+02 -0.30827762183E+02  0.11684161688E+03  0.00000000000E+00 0.  1.
          4    1    6    6  502    0 -0.21753745121E+01 -0.14645720171E+02  0.35110190383E+02  0.38104525221E+02  0.00000000000E+00 0. -1.
          1    1    5    5  503    0 -0.10810681465E+03 -0.30217945670E+02 -0.19753516838E+03  0.22720112315E+03  0.00000000000E+00 0. -1.
         -2    1    5    5    0  503 -0.60527435872E+03 -0.33394247011E+03 -0.10104620173E+04  0.12242990285E+04  0.00000000000E+00 0.  1.
         -3    1    6    6    0  502 -0.80841171916E+01  0.93549031749E+02  0.88273499580E+02  0.12887585119E+03  0.00000000000E+00 0.  1.
<mgrwt>
<rscale>  0 0.20664969E+04</rscale>
<asrwt>0</asrwt>
<pdfrwt beam="1">  1        2 0.89156940E-01 0.20664969E+04</pdfrwt>
<pdfrwt beam="2">  1       -2 0.28341814E+00 0.20664969E+04</pdfrwt>
<totfact> 0.19191658E+00</totfact>
</mgrwt>
</event>
<event>
12    1  0.1489025E-007  0.1223821E+04  0.7818608E-02  0.9092258E-01
          1   -1    0    0  501    0  0.00000000000E+00  0.00000000000E+00  0.94667668403E+03  0.94667668403E+03  0.00000000000E+00 0. -1.
         -1   -1    0    0    0  501 -0.00000000000E+00 -0.00000000000E+00 -0.39552490477E+03  0.39552490477E+03  0.00000000000E+00 0.  1.
         23    2    1    2    0    0 -0.70824727787E+02 -0.12379755705E+03  0.39501857225E+03  0.42876685216E+03  0.86367609044E+02 0.  0.
        254    2    1    2    0    0  0.70824727787E+02  0.12379755705E+03  0.15613320701E+03  0.91343473664E+03  0.88861885113E+03 0.  0.
        -24    2    4    4    0    0 -0.39257403897E+03  0.55128654487E+02  0.16763713325E+03  0.43771808587E+03  0.79632717116E+02 0.  0.
         24    2    4    4    0    0  0.46339876676E+03  0.68668902561E+02 -0.11503926244E+02  0.47571665077E+03  0.81976559398E+02 0.  0.
         13    1    3    3    0    0 -0.27999906437E+01 -0.16796837119E+02  0.37088934161E+01  0.17427839085E+02  0.00000000000E+00 0.  1.
        -13    1    3    3    0    0 -0.68024737144E+02 -0.10700071993E+03  0.39130967883E+03  0.41133901307E+03  0.00000000000E+00 0. -1.
          2    1    6    6  502    0  0.36233421363E+03  0.42083187741E+02  0.23450534150E+02  0.36552291940E+03  0.00000000000E+00 0. -1.
          3    1    5    5  503    0 -0.16122309289E+03  0.55446492055E+02  0.47244268472E+02  0.17691585589E+03  0.00000000000E+00 0. -1.
         -4    1    5    5    0  503 -0.23135094608E+03 -0.31783756729E+00  0.12039286478E+03  0.26080222998E+03  0.00000000000E+00 0.  1.
         -1    1    6    6    0  502  0.10106455313E+03  0.26585714820E+02 -0.34954460394E+02  0.11019373137E+03  0.00000000000E+00 0.  1.
<mgrwt>
<rscale>  0 0.12238206E+04</rscale>
<asrwt>0</asrwt>
<pdfrwt beam="1">  1        1 0.14564257E+00 0.12238206E+04</pdfrwt>
<pdfrwt beam="2">  1       -1 0.60849986E-01 0.12238206E+04</pdfrwt>
<totfact> 0.45132064E+01</totfact>
</mgrwt>
</event>
<event>
12    1  0.1489025E-007  0.1480907E+04  0.7818608E-02  0.8897250E-01
         -2   -1    0    0    0  501 -0.00000000000E+00  0.00000000000E+00  0.67577009192E+03  0.67577009192E+03  0.00000000000E+00 0.  1.
          2   -1    0    0  501    0  0.00000000000E+00 -0.00000000000E+00 -0.81132788051E+03  0.81132788051E+03  0.00000000000E+00 0. -1.
         23    2    1    2    0    0 -0.36782589352E+03  0.12004608068E+03 -0.29885890234E+03  0.50080187225E+03  0.10853074363E+03 0.  0.
        254    2    1    2    0    0  0.36782589352E+03 -0.12004608068E+03  0.16330111375E+03  0.98629610018E+03  0.89241570697E+03 0.  0.
        -24    2    4    4    0    0  0.54121851488E+03 -0.14332032596E+03  0.39182624548E+03  0.68817355841E+03  0.81220952698E+02 0.  0.
         24    2    4    4    0    0 -0.17339262136E+03  0.23274245278E+02 -0.22852513173E+03  0.29812254177E+03  0.77760031139E+02 0.  0.
         13    1    3    3    0    0 -0.19568305872E+03  0.11787173403E+03 -0.18987147443E+03  0.29704676729E+03  0.00000000000E+00 0. -1.
        -13    1    3    3    0    0 -0.17214283480E+03  0.21743466481E+01 -0.10898742791E+03  0.20375510496E+03  0.00000000000E+00 0.  1.
          2    1    6    6  502    0 -0.15455937687E+03  0.19648443549E+02 -0.23115883318E+03  0.27876346330E+03  0.00000000000E+00 0. -1.
          1    1    5    5  503    0  0.53707386453E+03 -0.13258370833E+03  0.38913979677E+03  0.67635534825E+03  0.00000000000E+00 0. -1.
         -2    1    5    5    0  503  0.41446503560E+01 -0.10736617628E+02  0.26864487073E+01  0.11818210157E+02  0.00000000000E+00 0.  1.
         -1    1    6    6    0  502 -0.18833244491E+02  0.36258017293E+01  0.26337014416E+01  0.19359078478E+02  0.00000000000E+00 0.  1.
<mgrwt>
<rscale>  0 0.14809066E+04</rscale>
<asrwt>0</asrwt>
<pdfrwt beam="1">  1        2 0.12481967E+00 0.14809066E+04</pdfrwt>
<pdfrwt beam="2">  1       -2 0.10396463E+00 0.14809066E+04</pdfrwt>
<totfact> 0.24626335E+01</totfact>
</mgrwt>
</event>
<event>
12    1  0.1489025E-007  0.1561782E+04  0.7818608E-02  0.8844377E-01
          1   -1    0    0  501    0  0.00000000000E+00  0.00000000000E+00  0.12868702553E+04  0.12868702553E+04  0.00000000000E+00 0. -1.
         -1   -1    0    0    0  501 -0.00000000000E+00 -0.00000000000E+00 -0.47385550748E+03  0.47385550748E+03  0.00000000000E+00 0.  1.
         23    2    1    2    0    0 -0.33152508901E+03 -0.44320992212E+02  0.70585145980E+03  0.78647337690E+03  0.91874121950E+02 0.  0.
        254    2    1    2    0    0  0.33152508901E+03  0.44320992212E+02  0.10716328803E+03  0.97425238588E+03  0.90874116562E+03 0.  0.
        -24    2    4    4    0    0  0.27697512812E+03  0.73168652928E+02  0.49327426154E+03  0.57539731114E+03  0.75456578193E+02 0.  0.
         24    2    4    4    0    0  0.54549960886E+02 -0.28847660715E+02 -0.38611097351E+03  0.39885507474E+03  0.78713410688E+02 0.  0.
         11    1    3    3    0    0 -0.29357913093E+03 -0.63869463173E+02  0.65086422108E+03  0.71686278236E+03  0.00000000000E+00 0. -1.
        -11    1    3    3    0    0 -0.37945958078E+02  0.19548470961E+02  0.54987238719E+02  0.69610594548E+02  0.00000000000E+00 0.  1.
          4    1    6    6  502    0  0.53063616697E+02 -0.76844744478E+01 -0.11466648525E+03  0.12658278479E+03  0.00000000000E+00 0. -1.
          3    1    5    5  503    0  0.80681219162E+02  0.48157779231E+01  0.85208663864E+02  0.11744431549E+03  0.00000000000E+00 0. -1.
         -4    1    5    5    0  503  0.19629390896E+03  0.68352875005E+02  0.40806559768E+03  0.45795299565E+03  0.00000000000E+00 0.  1.
         -3    1    6    6    0  502  0.14863441886E+01 -0.21163186268E+02 -0.27144448826E+03  0.27227228995E+03  0.00000000000E+00 0.  1.
<mgrwt>
<rscale>  0 0.15617817E+04</rscale>
<asrwt>0</asrwt>
<pdfrwt beam="1">  1        1 0.19798004E+00 0.15617817E+04</pdfrwt>
<pdfrwt beam="2">  1       -1 0.72900848E-01 0.15617817E+04</pdfrwt>
<totfact> 0.16879007E+01</totfact>
</mgrwt>
</event>
<event>
12    1  0.1489025E-007  0.2865148E+04  0.7818608E-02  0.8283323E-01
         -1   -1    0    0    0  501 -0.00000000000E+00  0.00000000000E+00  0.20200494525E+04  0.20200494525E+04  0.00000000000E+00 0.  1.
          1   -1    0    0  501    0  0.00000000000E+00 -0.00000000000E+00 -0.10159493668E+04  0.10159493668E+04  0.00000000000E+00 0. -1.
         23    2    1    2    0    0 -0.71820216602E+03 -0.61498505935E+03  0.13804500830E+04  0.16756786790E+04  0.90750367016E+02 0.  0.
        254    2    1    2    0    0  0.71820216602E+03  0.61498505935E+03 -0.37634999739E+03  0.13603201403E+04  0.90266859313E+03 0.  0.
        -24    2    4    4    0    0  0.74798757800E+03  0.80279462452E+02 -0.14265313706E+03  0.77070296362E+03  0.87766347055E+02 0.  0.
         24    2    4    4    0    0 -0.29785411980E+02  0.53470559690E+03 -0.23369686034E+03  0.58961717667E+03  0.78974339921E+02 0.  0.
         11    1    3    3    0    0 -0.57865119747E+02 -0.26275744130E+02  0.69715765118E+02  0.94334907213E+02  0.00000000000E+00 0. -1.
        -11    1    3    3    0    0 -0.66033704628E+03 -0.58870931522E+03  0.13107343179E+04  0.15813437718E+04  0.00000000000E+00 0.  1.
          2    1    6    6  502    0 -0.20431029325E+02  0.49658272357E+03 -0.19324353523E+03  0.53324937151E+03  0.00000000000E+00 0. -1.
          3    1    5    5  503    0  0.41080308549E+03  0.84805553964E+02 -0.95596141904E+02  0.43022061710E+03  0.00000000000E+00 0. -1.
         -4    1    5    5    0  503  0.33718449252E+03 -0.45260915125E+01 -0.47056995152E+02  0.34048234652E+03  0.00000000000E+00 0.  1.
         -1    1    6    6    0  502 -0.93543826551E+01  0.38122873331E+02 -0.40453325112E+02  0.56367805160E+02  0.00000000000E+00 0.  1.
<mgrwt>
<rscale>  0 0.28651478E+04</rscale>
<asrwt>0</asrwt>
<pdfrwt beam="1">  1        1 0.15629990E+00 0.28651478E+04</pdfrwt>
<pdfrwt beam="2">  1       -1 0.31077684E+00 0.28651478E+04</pdfrwt>
<totfact> 0.35576710E-01</totfact>
</mgrwt>
</event>
<event>
12    1  0.1489025E-007  0.4716413E+04  0.7818608E-02  0.7873807E-01
         -1   -1    0    0    0  501 -0.00000000000E+00  0.00000000000E+00  0.10579608856E+04  0.10579608856E+04  0.00000000000E+00 0.  1.
          1   -1    0    0  501    0  0.00000000000E+00 -0.00000000000E+00 -0.52564674181E+04  0.52564674181E+04  0.00000000000E+00 0. -1.
         23    2    1    2    0    0 -0.60877801745E+03 -0.21503967638E+04 -0.14889615403E+04  0.26872388669E+04  0.97104806810E+02 0.  0.
        254    2    1    2    0    0  0.60877801745E+03  0.21503967638E+04 -0.27095449923E+04  0.36271894368E+04  0.90556735185E+03 0.  0.
        -24    2    4    4    0    0  0.62017265816E+03  0.20896609592E+04 -0.27572762045E+04  0.35158340328E+04  0.84969569845E+02 0.  0.
         24    2    4    4    0    0 -0.11394640705E+02  0.60735804600E+02  0.47731212212E+02  0.11135540400E+03  0.79391949108E+02 0.  0.
         13    1    3    3    0    0 -0.25312979888E+02 -0.40271783166E+02 -0.27333460382E+02  0.54860564403E+02  0.00000000000E+00 0.  1.
        -13    1    3    3    0    0 -0.58346503756E+03 -0.21101249806E+04 -0.14616280799E+04  0.26323783025E+04  0.00000000000E+00 0. -1.
          2    1    6    6  502    0  0.25159117945E+02  0.21476534567E+02  0.47290609446E+02  0.57711562919E+02  0.00000000000E+00 0. -1.
          3    1    5    5  503    0  0.15266979189E+03  0.65002921749E+03 -0.85477604763E+03  0.10846603803E+04  0.00000000000E+00 0. -1.
         -4    1    5    5    0  503  0.46750286626E+03  0.14396317417E+04 -0.19025001569E+04  0.24311736525E+04  0.00000000000E+00 0.  1.
         -1    1    6    6    0  502 -0.36553758650E+02  0.39259270034E+02  0.44060276669E+00  0.53643841080E+02  0.00000000000E+00 0.  1.
<mgrwt>
<rscale>  0 0.47164126E+04</rscale>
<asrwt>0</asrwt>
<pdfrwt beam="1">  1        1 0.80868729E+00 0.47164126E+04</pdfrwt>
<pdfrwt beam="2">  1       -1 0.16276321E+00 0.47164126E+04</pdfrwt>
<totfact> 0.77105517E-04</totfact>
</mgrwt>
</event>
<event>
12    1  0.1489025E-007  0.2104582E+04  0.7818608E-02  0.8559227E-01
          2   -1    0    0  501    0  0.00000000000E+00  0.00000000000E+00  0.13039005948E+04  0.13039005948E+04  0.00000000000E+00 0. -1.
         -2   -1    0    0    0  501 -0.00000000000E+00 -0.00000000000E+00 -0.84923402494E+03  0.84923402494E+03  0.00000000000E+00 0.  1.
         23    2    1    2    0    0  0.37248209241E+03 -0.40839338963E+03 -0.48261414684E+03  0.74005055770E+03  0.96074675994E+02 0.  0.
        254    2    1    2    0    0 -0.37248209241E+03  0.40839338963E+03  0.93728071670E+03  0.14130840620E+04  0.90154498202E+03 0.  0.
        -24    2    4    4    0    0 -0.61633477273E+03  0.31133863963E+03  0.89858401519E+03  0.11360556709E+04  0.79805728888E+02 0.  0.
         24    2    4    4    0    0  0.24385268033E+03  0.97054750005E+02  0.38696701503E+02  0.27702839115E+03  0.79771803267E+02 0.  0.
         13    1    3    3    0    0  0.25519666506E+03 -0.22440269427E+03 -0.25595252890E+03  0.42543343087E+03  0.00000000000E+00 0. -1.
        -13    1    3    3    0    0  0.11728542734E+03 -0.18399069536E+03 -0.22666161794E+03  0.31461712683E+03  0.00000000000E+00 0.  1.
          2    1    6    6  502    0  0.16142078314E+03  0.28437005021E+02  0.43784539458E+02  0.16965381923E+03  0.00000000000E+00 0. -1.
          1    1    5    5  503    0 -0.33938068100E+03  0.18388350502E+03  0.43923388531E+03  0.58473822866E+03  0.00000000000E+00 0. -1.
         -2    1    5    5    0  503 -0.27695409174E+03  0.12745513461E+03  0.45935012989E+03  0.55131744222E+03  0.00000000000E+00 0.  1.
         -1    1    6    6    0  502  0.82431897192E+02  0.68617744984E+02 -0.50878379552E+01  0.10737457193E+03  0.00000000000E+00 0.  1.
<mgrwt>
<rscale>  0 0.21045824E+04</rscale>
<asrwt>0</asrwt>
<pdfrwt beam="1">  1        2 0.20060009E+00 0.21045824E+04</pdfrwt>
<pdfrwt beam="2">  1       -2 0.13065139E+00 0.21045824E+04</pdfrwt>
<totfact> 0.64975535E+00</totfact>
</mgrwt>
</event>
<event>
12    1  0.1489025E-007  0.1931739E+04  0.7818608E-02  0.8639217E-01
         -1   -1    0    0    0  501 -0.00000000000E+00  0.00000000000E+00  0.11705978795E+04  0.11705978795E+04  0.00000000000E+00 0.  1.
          1   -1    0    0  501    0  0.00000000000E+00 -0.00000000000E+00 -0.79694661696E+03  0.79694661696E+03  0.00000000000E+00 0. -1.
         23    2    1    2    0    0  0.71036339458E+02  0.11298128962E+03  0.88040895094E+03  0.89523291103E+03  0.92255681462E+02 0.  0.
        254    2    1    2    0    0 -0.71036339458E+02 -0.11298128962E+03 -0.50675768841E+03  0.10723115854E+04  0.93554147324E+03 0.  0.
        -24    2    4    4    0    0 -0.66951704040E+02  0.31785587352E+03 -0.53736487341E+03  0.63303655632E+03  0.80370314572E+02 0.  0.
         24    2    4    4    0    0 -0.40846354179E+01 -0.43083716314E+03  0.30607184993E+02  0.43927502910E+03  0.79927504857E+02 0.  0.
         13    1    3    3    0    0  0.40796932955E+02  0.42233904275E+02  0.64282831030E+03  0.64550470868E+03  0.00000000000E+00 0.  1.
        -13    1    3    3    0    0  0.30239406502E+02  0.70747385345E+02  0.23758064064E+03  0.24972820234E+03  0.00000000000E+00 0. -1.
          2    1    6    6  502    0  0.11516220836E+02 -0.27775487347E+02 -0.14528153111E+02  0.33394135301E+02  0.00000000000E+00 0. -1.
          3    1    5    5  503    0 -0.20410174182E+01  0.30308904093E+02 -0.16572368865E+02  0.34604029089E+02  0.00000000000E+00 0. -1.
         -4    1    5    5    0  503 -0.64910686622E+02  0.28754696943E+03 -0.52079250454E+03  0.59843252723E+03  0.00000000000E+00 0.  1.
         -1    1    6    6    0  502 -0.15600856253E+02 -0.40306167579E+03  0.45135338104E+02  0.40588089380E+03  0.00000000000E+00 0.  1.
<mgrwt>
<rscale>  0 0.19317391E+04</rscale>
<asrwt>0</asrwt>
<pdfrwt beam="1">  1        1 0.12260717E+00 0.19317391E+04</pdfrwt>
<pdfrwt beam="2">  1       -1 0.18009198E+00 0.19317391E+04</pdfrwt>
<totfact> 0.43129811E+00</totfact>
</mgrwt>
</event>
<event>
12    1  0.1489025E-007  0.1778068E+04  0.7818608E-02  0.8718050E-01
          2   -1    0    0  501    0  0.00000000000E+00  0.00000000000E+00  0.27448305543E+04  0.27448305543E+04  0.00000000000E+00 0. -1.
         -2   -1    0    0    0  501 -0.00000000000E+00 -0.00000000000E+00 -0.28795266105E+03  0.28795266105E+03  0.00000000000E+00 0.  1.
         23    2    1    2    0    0 -0.19188215366E+03 -0.62618455525E+03  0.10069090313E+04  0.12048747911E+04  0.94507178140E+02 0.  0.
        254    2    1    2    0    0  0.19188215366E+03  0.62618455525E+03  0.14499688620E+04  0.18279084243E+04  0.89995202585E+03 0.  0.
        -24    2    4    4    0    0 -0.13413141381E+03 -0.18071530122E+03  0.29467007754E+03  0.37913181202E+03  0.79127871361E+02 0.  0.
         24    2    4    4    0    0  0.32601356747E+03  0.80689985647E+03  0.11552987844E+04  0.14487766123E+04  0.82862334324E+02 0.  0.
         13    1    3    3    0    0 -0.86598501185E+02 -0.30952699584E+03  0.40937842248E+03  0.52047762137E+03  0.00000000000E+00 0. -1.
        -13    1    3    3    0    0 -0.10528365248E+03 -0.31665755942E+03  0.59753060884E+03  0.68439716972E+03  0.00000000000E+00 0.  1.
          2    1    6    6  502    0  0.30462991355E+03  0.79072250668E+03  0.11181283263E+04  0.14029441973E+04  0.00000000000E+00 0. -1.
          1    1    5    5  503    0 -0.11319920419E+03 -0.12563168721E+03  0.16299071810E+03  0.23486880348E+03  0.00000000000E+00 0. -1.
         -2    1    5    5    0  503 -0.20932209616E+02 -0.55083614007E+02  0.13167935944E+03  0.14426300855E+03  0.00000000000E+00 0.  1.
         -1    1    6    6    0  502  0.21383653921E+02  0.16177349790E+02  0.37170458132E+02  0.45832414937E+02  0.00000000000E+00 0.  1.
<mgrwt>
<rscale>  0 0.17780678E+04</rscale>
<asrwt>0</asrwt>
<pdfrwt beam="1">  1        2 0.42228161E+00 0.17780678E+04</pdfrwt>
<pdfrwt beam="2">  1       -2 0.44300411E-01 0.17780678E+04</pdfrwt>
<totfact> 0.11436718E+01</totfact>
</mgrwt>
</event>
<event>
12    1  0.1489025E-007  0.2219775E+04  0.7818608E-02  0.8510242E-01
          1   -1    0    0  501    0  0.00000000000E+00  0.00000000000E+00  0.10739066200E+04  0.10739066200E+04  0.00000000000E+00 0. -1.
         -1   -1    0    0    0  501 -0.00000000000E+00 -0.00000000000E+00 -0.11470740307E+04  0.11470740307E+04  0.00000000000E+00 0.  1.
         23    2    1    2    0    0  0.14762953646E+03 -0.98376535035E+02  0.88046536237E+03  0.90276216740E+03  0.91037650871E+02 0.  0.
        254    2    1    2    0    0 -0.14762953646E+03  0.98376535035E+02 -0.95363277313E+03  0.13182184833E+04  0.89264331124E+03 0.  0.
        -24    2    4    4    0    0 -0.17828699128E+02  0.25072699997E+03  0.69633725996E+02  0.27234164505E+03  0.78353205478E+02 0.  0.
         24    2    4    4    0    0 -0.12980083733E+03 -0.15235046493E+03 -0.10232664991E+04  0.10458768383E+04  0.82006774471E+02 0.  0.
         13    1    3    3    0    0 -0.61028627574E+00 -0.27583226484E+02  0.60377969510E+02  0.66383025200E+02  0.00000000000E+00 0.  1.
        -13    1    3    3    0    0  0.14823982273E+03 -0.70793308551E+02  0.82008739286E+03  0.83637914220E+03  0.00000000000E+00 0. -1.
          4    1    6    6  502    0  0.69432861943E+01  0.37038023492E+01 -0.22767882767E+02  0.24089496896E+02  0.00000000000E+00 0. -1.
          1    1    5    5  503    0 -0.45150837665E+02  0.99721033626E+02  0.36073189442E+02  0.11525692034E+03  0.00000000000E+00 0. -1.
         -2    1    5    5    0  503  0.27322138537E+02  0.15100596634E+03  0.33560536554E+02  0.15708472472E+03  0.00000000000E+00 0.  1.
         -1    1    6    6    0  502 -0.13674412352E+03 -0.15605426728E+03 -0.10004986164E+04  0.10217873414E+04  0.00000000000E+00 0.  1.
<mgrwt>
<rscale>  0 0.22197751E+04</rscale>
<asrwt>0</asrwt>
<pdfrwt beam="1">  1        1 0.16521640E+00 0.22197751E+04</pdfrwt>
<pdfrwt beam="2">  1       -1 0.17647293E+00 0.22197751E+04</pdfrwt>
<totfact> 0.26652463E+00</totfact>
</mgrwt>
</event>
<event>
12    1  0.1489025E-007  0.2746780E+04  0.7818608E-02  0.8319984E-01
          1   -1    0    0  501    0  0.00000000000E+00  0.00000000000E+00  0.22483943899E+04  0.22483943899E+04  0.00000000000E+00 0. -1.
         -1   -1    0    0    0  501 -0.00000000000E+00 -0.00000000000E+00 -0.83890997227E+03  0.83890997227E+03  0.00000000000E+00 0.  1.
         23    2    1    2    0    0 -0.72987599952E+02 -0.71766946546E+03  0.17444511697E+04  0.18899436578E+04  0.91654212983E+02 0.  0.
        254    2    1    2    0    0  0.72987599952E+02  0.71766946546E+03 -0.33496675211E+03  0.11973607044E+04  0.89503814439E+03 0.  0.
        -24    2    4    4    0    0  0.38979613053E+03  0.41056340617E+03 -0.45709806069E+03  0.73225526071E+03  0.82193648732E+02 0.  0.
         24    2    4    4    0    0 -0.31680853057E+03  0.30710605928E+03  0.12213130858E+03  0.46510544364E+03  0.82007563538E+02 0.  0.
         13    1    3    3    0    0 -0.20903464434E+02 -0.69368170724E+02  0.24562828267E+03  0.25609012316E+03  0.00000000000E+00 0.  1.
        -13    1    3    3    0    0 -0.52084135517E+02 -0.64830129473E+03  0.14988228870E+04  0.16338535346E+04  0.00000000000E+00 0. -1.
          2    1    6    6  502    0 -0.14142813972E+03  0.82341421374E+02  0.41560723355E+02  0.16884703759E+03  0.00000000000E+00 0. -1.
          1    1    5    5  503    0  0.61508489288E+02  0.31644966483E+02 -0.38740571958E+02  0.79281334965E+02  0.00000000000E+00 0. -1.
         -2    1    5    5    0  503  0.32828764124E+03  0.37891843969E+03 -0.41835748873E+03  0.65297392574E+03  0.00000000000E+00 0.  1.
         -1    1    6    6    0  502 -0.17538039085E+03  0.22476463791E+03  0.80570585226E+02  0.29625840605E+03  0.00000000000E+00 0.  1.
<mgrwt>
<rscale>  0 0.27467803E+04</rscale>
<asrwt>0</asrwt>
<pdfrwt beam="1">  1        1 0.34590683E+00 0.27467803E+04</pdfrwt>
<pdfrwt beam="2">  1       -1 0.12906307E+00 0.27467803E+04</pdfrwt>
<totfact> 0.90658892E-01</totfact>
</mgrwt>
</event>
<event>
12    1  0.1489025E-007  0.2200251E+04  0.7818608E-02  0.8518324E-01
         -2   -1    0    0    0  501 -0.00000000000E+00  0.00000000000E+00  0.69016510501E+03  0.69016510501E+03  0.00000000000E+00 0.  1.
          2   -1    0    0  501    0  0.00000000000E+00 -0.00000000000E+00 -0.17536041224E+04  0.17536041224E+04  0.00000000000E+00 0. -1.
         23    2    1    2    0    0  0.91249893580E+03  0.23224626029E+02 -0.40463034375E+03  0.10027424767E+04  0.92590866100E+02 0.  0.
        254    2    1    2    0    0 -0.91249893580E+03 -0.23224626029E+02 -0.65880867361E+03  0.14410267506E+04  0.89963077790E+03 0.  0.
        -24    2    4    4    0    0 -0.32627348269E+03  0.36589338513E+03 -0.52031009869E+03  0.71946595081E+03  0.81094394335E+02 0.  0.
         24    2    4    4    0    0 -0.58622545312E+03 -0.38911801116E+03 -0.13849857493E+03  0.72156079983E+03  0.79968894611E+02 0.  0.
         13    1    3    3    0    0  0.82481037472E+03  0.92817923463E+01 -0.39125493297E+03  0.91295056191E+03  0.00000000000E+00 0. -1.
        -13    1    3    3    0    0  0.87688561088E+02  0.13942833683E+02 -0.13375410777E+02  0.89791914837E+02  0.00000000000E+00 0.  1.
          2    1    6    6  502    0 -0.47644841129E+03 -0.34331416723E+03 -0.13493869088E+03  0.60255801077E+03  0.00000000000E+00 0. -1.
          1    1    5    5  503    0 -0.22839690076E+03  0.30149501613E+03 -0.37267986683E+03  0.53099404156E+03  0.00000000000E+00 0. -1.
         -2    1    5    5    0  503 -0.97876581926E+02  0.64398369001E+02 -0.14763023186E+03  0.18847190925E+03  0.00000000000E+00 0.  1.
         -1    1    6    6    0  502 -0.10977704182E+03 -0.45803843927E+02 -0.35598840494E+01  0.11900278906E+03  0.00000000000E+00 0.  1.
<mgrwt>
<rscale>  0 0.22002512E+04</rscale>
<asrwt>0</asrwt>
<pdfrwt beam="1">  1        2 0.26978525E+00 0.22002512E+04</pdfrwt>
<pdfrwt beam="2">  1       -2 0.10617925E+00 0.22002512E+04</pdfrwt>
<totfact> 0.59891620E+00</totfact>
</mgrwt>
</event>
<event>
12    1  0.1489025E-007  0.1624730E+04  0.7818608E-02  0.8805498E-01
         -2   -1    0    0    0  501 -0.00000000000E+00  0.00000000000E+00  0.39981135063E+03  0.39981135063E+03  0.00000000000E+00 0.  1.
          2   -1    0    0  501    0  0.00000000000E+00 -0.00000000000E+00 -0.16506201573E+04  0.16506201573E+04  0.00000000000E+00 0. -1.
         23    2    1    2    0    0 -0.23650721631E+03  0.48329932189E+03 -0.62750171396E+03  0.83174687780E+03  0.92361083766E+02 0.  0.
        254    2    1    2    0    0  0.23650721631E+03 -0.48329932189E+03 -0.62330709271E+03  0.12186846301E+04  0.89842450880E+03 0.  0.
        -24    2    4    4    0    0  0.54870742376E+03 -0.13522625421E+03 -0.30399891979E+03  0.64676794722E+03  0.80792682838E+02 0.  0.
         24    2    4    4    0    0 -0.31220020745E+03 -0.34807306768E+03 -0.31930817293E+03  0.57191668292E+03  0.80666925911E+02 0.  0.
         13    1    3    3    0    0 -0.10481526839E+03  0.15885719425E+03 -0.16669818541E+03  0.25300224045E+03  0.00000000000E+00 0.  1.
        -13    1    3    3    0    0 -0.13169194791E+03  0.32444212764E+03 -0.46080352855E+03  0.57874463735E+03  0.00000000000E+00 0. -1.
          2    1    6    6  502    0 -0.22581969463E+01 -0.36997171185E+01  0.48199690962E+01  0.64822420731E+01  0.00000000000E+00 0. -1.
          1    1    5    5  503    0  0.86877263557E+02 -0.22963067131E+01 -0.22344404122E+02  0.89734075708E+02  0.00000000000E+00 0. -1.
         -2    1    5    5    0  503  0.46183016020E+03 -0.13292994750E+03 -0.28165451566E+03  0.55703387151E+03  0.00000000000E+00 0.  1.
         -1    1    6    6    0  502 -0.30994201050E+03 -0.34437335056E+03 -0.32412814202E+03  0.56543444085E+03  0.00000000000E+00 0.  1.
<mgrwt>
<rscale>  0 0.16247297E+04</rscale>
<asrwt>0</asrwt>
<pdfrwt beam="1">  1        2 0.25394156E+00 0.16247297E+04</pdfrwt>
<pdfrwt beam="2">  1       -2 0.61509438E-01 0.16247297E+04</pdfrwt>
<totfact> 0.24567085E+01</totfact>
</mgrwt>
</event>
<event>
12    1  0.1489025E-007  0.1617523E+04  0.7818608E-02  0.8809855E-01
         -1   -1    0    0    0  501 -0.00000000000E+00  0.00000000000E+00  0.17142660363E+04  0.17142660363E+04  0.00000000000E+00 0.  1.
          1   -1    0    0  501    0  0.00000000000E+00 -0.00000000000E+00 -0.38155980694E+03  0.38155980694E+03  0.00000000000E+00 0. -1.
         23    2    1    2    0    0  0.20725629751E+03 -0.30420419928E+03  0.98075792342E+03  0.10515848356E+04  0.91919499464E+02 0.  0.
        254    2    1    2    0    0 -0.20725629751E+03  0.30420419928E+03  0.35194830593E+03  0.10442410076E+04  0.91163386525E+03 0.  0.
        -24    2    4    4    0    0 -0.39961957087E+03  0.52697806791E+03  0.16524156599E+03  0.68668085867E+03  0.82608359495E+02 0.  0.
         24    2    4    4    0    0  0.19236327335E+03 -0.22277386863E+03  0.18670673994E+03  0.35756014897E+03  0.79737242959E+02 0.  0.
         11    1    3    3    0    0  0.14220307659E+03 -0.18850465453E+03  0.73871644551E+03  0.77553704401E+03  0.00000000000E+00 0.  1.
        -11    1    3    3    0    0  0.65053220925E+02 -0.11569954474E+03  0.24204147791E+03  0.27604779158E+03  0.00000000000E+00 0. -1.
          4    1    6    6  502    0  0.38853126243E+02 -0.31800603192E+02  0.11786165126E+01  0.50221837074E+02  0.00000000000E+00 0. -1.
          1    1    5    5  503    0 -0.15689997024E+03  0.14343287501E+03  0.55639224089E+02  0.21974146980E+03  0.00000000000E+00 0. -1.
         -2    1    5    5    0  503 -0.24271960063E+03  0.38354519290E+03  0.10960234190E+03  0.46693938887E+03  0.00000000000E+00 0.  1.
         -3    1    6    6    0  502  0.15351014711E+03 -0.19097326544E+03  0.18552812343E+03  0.30733831190E+03  0.00000000000E+00 0.  1.
<mgrwt>
<rscale>  0 0.16175228E+04</rscale>
<asrwt>0</asrwt>
<pdfrwt beam="1">  1        1 0.58701510E-01 0.16175228E+04</pdfrwt>
<pdfrwt beam="2">  1       -1 0.26373323E+00 0.16175228E+04</pdfrwt>
<totfact> 0.34758724E+00</totfact>
</mgrwt>
</event>
<event>
12    1  0.1489025E-007  0.2590321E+04  0.7818608E-02  0.8371497E-01
         -2   -1    0    0    0  501 -0.00000000000E+00  0.00000000000E+00  0.84582193890E+03  0.84582193890E+03  0.00000000000E+00 0.  1.
          2   -1    0    0  501    0  0.00000000000E+00 -0.00000000000E+00 -0.19832071817E+04  0.19832071817E+04  0.00000000000E+00 0. -1.
         23    2    1    2    0    0 -0.62488228786E+03  0.58178287816E+03  0.32289276469E+03  0.91750876552E+03  0.92808438768E+02 0.  0.
        254    2    1    2    0    0  0.62488228786E+03 -0.58178287816E+03 -0.14602780074E+04  0.19115203550E+04  0.89025222139E+03 0.  0.
        -24    2    4    4    0    0 -0.20650070331E+03 -0.25142630932E+03 -0.37382223747E+03  0.50183828699E+03  0.78999187175E+02 0.  0.
         24    2    4    4    0    0  0.83138299117E+03 -0.33035656884E+03 -0.10864557700E+04  0.14096820680E+04  0.80524855099E+02 0.  0.
         13    1    3    3    0    0 -0.16903433341E+03  0.17792070741E+03  0.51508467845E+02  0.25076185167E+03  0.00000000000E+00 0. -1.
        -13    1    3    3    0    0 -0.45584795446E+03  0.40386217075E+03  0.27138429684E+03  0.66674691384E+03  0.00000000000E+00 0.  1.
          2    1    6    6  502    0  0.30159853276E+03 -0.11860103028E+03 -0.33404078978E+03  0.46541500683E+03  0.00000000000E+00 0. -1.
          1    1    5    5  503    0 -0.12176728111E+02 -0.10455986649E+02  0.54756426548E+00  0.16059271183E+02  0.00000000000E+00 0. -1.
         -2    1    5    5    0  503 -0.19432397520E+03 -0.24097032267E+03 -0.37436980174E+03  0.48577901581E+03  0.00000000000E+00 0.  1.
         -1    1    6    6    0  502  0.52978445841E+03 -0.21175553856E+03 -0.75241498018E+03  0.94426706121E+03  0.00000000000E+00 0.  1.
<mgrwt>
<rscale>  0 0.25903206E+04</rscale>
<asrwt>0</asrwt>
<pdfrwt beam="1">  1        2 0.30510879E+00 0.25903206E+04</pdfrwt>
<pdfrwt beam="2">  1       -2 0.13012645E+00 0.25903206E+04</pdfrwt>
<totfact> 0.26182555E+00</totfact>
</mgrwt>
</event>
<event>
12    1  0.1489025E-007  0.1723690E+04  0.7818608E-02  0.8747967E-01
          1   -1    0    0  501    0  0.00000000000E+00  0.00000000000E+00  0.46553967741E+04  0.46553967741E+04  0.00000000000E+00 0. -1.
         -1   -1    0    0    0  501 -0.00000000000E+00 -0.00000000000E+00 -0.15955180062E+03  0.15955180062E+03  0.00000000000E+00 0.  1.
         23    2    1    2    0    0  0.29971452661E+03  0.72101803284E+02  0.13034130672E+03  0.34715012536E+03  0.92178553925E+02 0.  0.
        254    2    1    2    0    0 -0.29971452661E+03 -0.72101803284E+02  0.43655036667E+04  0.44677984493E+04  0.89920701293E+03 0.  0.
        -24    2    4    4    0    0 -0.94965810490E+02 -0.16380704607E+03  0.17530779419E+03  0.27069531058E+03  0.81803881071E+02 0.  0.
         24    2    4    4    0    0 -0.20474871612E+03  0.91705242789E+02  0.41901958725E+04  0.41971031387E+04  0.87186115840E+02 0.  0.
         13    1    3    3    0    0  0.15682436252E+03  0.20113979255E+02  0.11251096443E+03  0.19405455407E+03  0.00000000000E+00 0. -1.
        -13    1    3    3    0    0  0.14289016410E+03  0.51987824029E+02  0.17830342294E+02  0.15309557129E+03  0.00000000000E+00 0.  1.
          4    1    6    6  502    0 -0.26977678993E+02  0.36969016920E+02  0.13796447646E+04  0.13804036293E+04  0.00000000000E+00 0. -1.
          3    1    5    5  503    0 -0.87759558760E+02 -0.16441690008E+03  0.18224918128E+03  0.26067109786E+03  0.00000000000E+00 0. -1.
         -4    1    5    5    0  503 -0.72062517294E+01  0.60985400217E+00 -0.69413870847E+01  0.10024212715E+02  0.00000000000E+00 0.  1.
         -3    1    6    6    0  502 -0.17777103713E+03  0.54736225869E+02  0.28105511079E+04  0.28166995094E+04  0.00000000000E+00 0.  1.
<mgrwt>
<rscale>  0 0.17236902E+04</rscale>
<asrwt>0</asrwt>
<pdfrwt beam="1">  1        1 0.71621478E+00 0.17236902E+04</pdfrwt>
<pdfrwt beam="2">  1       -1 0.24546434E-01 0.17236902E+04</pdfrwt>
<totfact> 0.31017986E-01</totfact>
</mgrwt>
</event>
<event>
12    1  0.1489025E-007  0.1268587E+04  0.7818608E-02  0.9054854E-01
          3   -1    0    0  501    0  0.00000000000E+00  0.00000000000E+00  0.94490264959E+03  0.94490264959E+03  0.00000000000E+00 0. -1.
         -3   -1    0    0    0  501 -0.00000000000E+00 -0.00000000000E+00 -0.42578799042E+03  0.42578799042E+03  0.00000000000E+00 0.  1.
         23    2    1    2    0    0 -0.12187272609E+03 -0.56843547463E+02  0.44454557675E+03  0.47353213986E+03  0.92345911791E+02 0.  0.
        254    2    1    2    0    0  0.12187272609E+03  0.56843547463E+02  0.74569082422E+02  0.89715850015E+03  0.88388272756E+03 0.  0.
        -24    2    4    4    0    0 -0.13578914739E+03 -0.35470382184E+03  0.11222915766E+03  0.40357452325E+03  0.77611327827E+02 0.  0.
         24    2    4    4    0    0  0.25766187347E+03  0.41154736930E+03 -0.37660075242E+02  0.49358397690E+03  0.80286877904E+02 0.  0.
         11    1    3    3    0    0 -0.11456523117E+03 -0.54237060403E+02  0.44759429344E+03  0.46519619779E+03  0.00000000000E+00 0. -1.
        -11    1    3    3    0    0 -0.73074949175E+01 -0.26064870602E+01 -0.30487166956E+01  0.83359420736E+01  0.00000000000E+00 0.  1.
          2    1    6    6  502    0  0.11096486127E+03  0.20615524992E+03 -0.55311566853E+02  0.24056715681E+03  0.00000000000E+00 0. -1.
          3    1    5    5  503    0 -0.52709215315E+01 -0.87341540560E+02  0.45667072183E+02  0.98700601837E+02  0.00000000000E+00 0. -1.
         -4    1    5    5    0  503 -0.13051822585E+03 -0.26736228128E+03  0.66562085481E+02  0.30487392141E+03  0.00000000000E+00 0.  1.
         -1    1    6    6    0  502  0.14669701221E+03  0.20539211938E+03  0.17651491611E+02  0.25301682010E+03  0.00000000000E+00 0.  1.
<mgrwt>
<rscale>  0 0.12685869E+04</rscale>
<asrwt>0</asrwt>
<pdfrwt beam="1">  1        3 0.14536964E+00 0.12685869E+04</pdfrwt>
<pdfrwt beam="2">  1       -3 0.65505845E-01 0.12685869E+04</pdfrwt>
<totfact> 0.20340789E+00</totfact>
</mgrwt>
</event>
<event>
12    1  0.1489025E-007  0.1159638E+04  0.7818608E-02  0.9148938E-01
         -1   -1    0    0    0  501 -0.00000000000E+00  0.00000000000E+00  0.70610498692E+03  0.70610498692E+03  0.00000000000E+00 0.  1.
          1   -1    0    0  501    0  0.00000000000E+00 -0.00000000000E+00 -0.47611932212E+03  0.47611932212E+03  0.00000000000E+00 0. -1.
         23    2    1    2    0    0 -0.21243225691E+03  0.50579700316E+02  0.33885635781E+02  0.23888435397E+03  0.90728873007E+02 0.  0.
        254    2    1    2    0    0  0.21243225691E+03 -0.50579700316E+02  0.19610002902E+03  0.94333995507E+03  0.89652065207E+03 0.  0.
        -24    2    4    4    0    0  0.43305753346E+03 -0.31031576211E+03 -0.66701354494E+01  0.53871095781E+03  0.79563219260E+02 0.  0.
         24    2    4    4    0    0 -0.22062527655E+03  0.25973606179E+03  0.20277016447E+03  0.40462899726E+03  0.80439737573E+02 0.  0.
         13    1    3    3    0    0 -0.11155779995E+03  0.57948579485E+02 -0.14899057157E+02  0.12659053084E+03  0.00000000000E+00 0. -1.
        -13    1    3    3    0    0 -0.10087445697E+03 -0.73688791691E+01  0.48784692937E+02  0.11229382313E+03  0.00000000000E+00 0.  1.
          2    1    6    6  502    0 -0.15126199399E+03  0.22749069771E+03  0.14954907650E+03  0.31144362997E+03  0.00000000000E+00 0. -1.
          1    1    5    5  503    0  0.41808131571E+03 -0.28576038961E+03 -0.20440926427E+02  0.50682227485E+03  0.00000000000E+00 0. -1.
         -2    1    5    5    0  503  0.14976217756E+02 -0.24555372500E+02  0.13770790977E+02  0.31888682962E+02  0.00000000000E+00 0.  1.
         -1    1    6    6    0  502 -0.69363282561E+02  0.32245364083E+02  0.53221087969E+02  0.93185367291E+02  0.00000000000E+00 0.  1.
<mgrwt>
<rscale>  0 0.11596383E+04</rscale>
<asrwt>0</asrwt>
<pdfrwt beam="1">  1        1 0.73249126E-01 0.11596383E+04</pdfrwt>
<pdfrwt beam="2">  1       -1 0.10863154E+00 0.11596383E+04</pdfrwt>
<totfact> 0.37010555E+01</totfact>
</mgrwt>
</event>
<event>
12    1  0.1539008E-007  0.1197765E+04  0.7818608E-02  0.9114815E-01
          1   -1    0    0  501    0  0.00000000000E+00  0.00000000000E+00  0.19781330541E+04  0.19781330541E+04  0.00000000000E+00 0. -1.
         -1   -1    0    0    0  501 -0.00000000000E+00 -0.00000000000E+00 -0.18131259184E+03  0.18131259184E+03  0.00000000000E+00 0.  1.
         23    2    1    2    0    0  0.43993621847E+02  0.24427211413E+03  0.23778874590E+03  0.35751378872E+03  0.98327600092E+02 0.  0.
        254    2    1    2    0    0 -0.43993621847E+02 -0.24427211413E+03  0.15590317164E+04  0.18019318573E+04  0.86877742889E+03 0.  0.
        -24    2    4    4    0    0 -0.11465748766E+02  0.21011214681E+03  0.11870620568E+04  0.12083591098E+04  0.82078218622E+02 0.  0.
         24    2    4    4    0    0 -0.32527873081E+02 -0.45438426094E+03  0.37196965963E+03  0.59357274746E+03  0.80274900985E+02 0.  0.
         11    1    3    3    0    0  0.41445876691E+02  0.14609040796E+03  0.20258285890E+03  0.25317974388E+03  0.00000000000E+00 0.  1.
        -11    1    3    3    0    0  0.25477451554E+01  0.98181706170E+02  0.35205887003E+02  0.10433404483E+03  0.00000000000E+00 0. -1.
          2    1    6    6  502    0  0.26271549071E+02 -0.10476467480E+03  0.84118313780E+02  0.13690040939E+03  0.00000000000E+00 0. -1.
          1    1    5    5  503    0 -0.29751000911E+02  0.47531187698E+02  0.19520627757E+03  0.20310053338E+03  0.00000000000E+00 0. -1.
         -2    1    5    5    0  503  0.18285252145E+02  0.16258095911E+03  0.99185577921E+03  0.10052585764E+04  0.00000000000E+00 0.  1.
         -1    1    6    6    0  502 -0.58799422152E+02 -0.34961958613E+03  0.28785134585E+03  0.45667233807E+03  0.00000000000E+00 0.  1.
<mgrwt>
<rscale>  0 0.11977653E+04</rscale>
<asrwt>0</asrwt>
<pdfrwt beam="1">  1        1 0.30432815E+00 0.11977653E+04</pdfrwt>
<pdfrwt beam="2">  1       -1 0.27894246E-01 0.11977653E+04</pdfrwt>
<totfact> 0.35438985E+01</totfact>
</mgrwt>
</event>
<event>
12    1  0.1489025E-007  0.1371145E+04  0.7818608E-02  0.8974974E-01
          2   -1    0    0  501    0  0.00000000000E+00  0.00000000000E+00  0.59186865210E+03  0.59186865210E+03  0.00000000000E+00 0.  1.
         -2   -1    0    0    0  501 -0.00000000000E+00 -0.00000000000E+00 -0.79411180181E+03  0.79411180181E+03  0.00000000000E+00 0. -1.
         23    2    1    2    0    0 -0.12471106590E+03 -0.35498197826E+03  0.37733060749E+02  0.38965265949E+03  0.94023169107E+02 0.  0.
        254    2    1    2    0    0  0.12471106590E+03  0.35498197826E+03 -0.23997621045E+03  0.99632779442E+03  0.89079483468E+03 0.  0.
        -24    2    4    4    0    0 -0.37194721971E+02 -0.17365726387E+03  0.20328153034E+03  0.28317388613E+03  0.85579066194E+02 0.  0.
         24    2    4    4    0    0  0.16190578787E+03  0.52863924214E+03 -0.44325774080E+03  0.71315390828E+03  0.80238018732E+02 0.  0.
         13    1    3    3    0    0 -0.49005273244E+02 -0.48123724730E+02  0.25797129978E+02  0.73368260186E+02  0.00000000000E+00 0. -1.
        -13    1    3    3    0    0 -0.75705792651E+02 -0.30685825353E+03  0.11935930771E+02  0.31628439931E+03  0.00000000000E+00 0.  1.
          2    1    6    6  502    0  0.78524867275E+02  0.13399844657E+03 -0.12446201781E+03  0.19902897362E+03  0.00000000000E+00 0. -1.
          3    1    5    5  503    0 -0.56734940834E+02 -0.65576476880E+02  0.10066238678E+03  0.13286099482E+03  0.00000000000E+00 0. -1.
         -4    1    5    5    0  503  0.19540218863E+02 -0.10808078699E+03  0.10261914356E+03  0.15031289132E+03  0.00000000000E+00 0.  1.
         -3    1    6    6    0  502  0.83380920591E+02  0.39464079557E+03 -0.31879572299E+03  0.51412493466E+03  0.00000000000E+00 0.  1.
<mgrwt>
<rscale>  0 0.13711453E+04</rscale>
<asrwt>0</asrwt>
<pdfrwt beam="1">  1        2 0.91056717E-01 0.13711453E+04</pdfrwt>
<pdfrwt beam="2">  1       -2 0.12217104E+00 0.13711453E+04</pdfrwt>
<totfact> 0.24965038E+01</totfact>
</mgrwt>
</event>
<event>
12    1  0.1489025E-007  0.1850515E+04  0.7818608E-02  0.8679888E-01
          1   -1    0    0  501    0  0.00000000000E+00  0.00000000000E+00  0.85925231383E+03  0.85925231383E+03  0.00000000000E+00 0. -1.
         -1   -1    0    0    0  501 -0.00000000000E+00 -0.00000000000E+00 -0.99633319126E+03  0.99633319126E+03  0.00000000000E+00 0.  1.
         23    2    1    2    0    0 -0.35132212067E+03  0.47933885780E+03 -0.43402883539E+03  0.74163576530E+03  0.91921734913E+02 0.  0.
        254    2    1    2    0    0  0.35132212067E+03 -0.47933885780E+03  0.29694795796E+03  0.11139497398E+04  0.89415488590E+03 0.  0.
        -24    2    4    4    0    0 -0.54135170742E+02 -0.41192412028E+03 -0.19670349105E+03  0.46635015929E+03  0.78600954817E+02 0.  0.
         24    2    4    4    0    0  0.40545729141E+03 -0.67414737523E+02  0.49365144902E+03  0.64759958050E+03  0.82177256941E+02 0.  0.
         11    1    3    3    0    0 -0.16527772719E+03  0.18823227305E+03 -0.13411822978E+03  0.28414048512E+03  0.00000000000E+00 0. -1.
        -11    1    3    3    0    0 -0.18604439347E+03  0.29110658475E+03 -0.29991060561E+03  0.45749528018E+03  0.00000000000E+00 0.  1.
          4    1    6    6  502    0  0.37594176852E+03 -0.57768065585E+02  0.48297481643E+03  0.61476339842E+03  0.00000000000E+00 0. -1.
          1    1    5    5  503    0 -0.35251965779E+02 -0.39658138868E+03 -0.18972490460E+03  0.44103859056E+03  0.00000000000E+00 0. -1.
         -2    1    5    5    0  503 -0.18883204963E+02 -0.15342731600E+02 -0.69785864503E+01  0.25311568728E+02  0.00000000000E+00 0.  1.
         -1    1    6    6    0  502  0.29515522885E+02 -0.96466719374E+01  0.10676632581E+02  0.32836182085E+02  0.00000000000E+00 0.  1.
<mgrwt>
<rscale>  0 0.18505152E+04</rscale>
<asrwt>0</asrwt>
<pdfrwt beam="1">  1        1 0.13219266E+00 0.18505152E+04</pdfrwt>
<pdfrwt beam="2">  1       -1 0.15328203E+00 0.18505152E+04</pdfrwt>
<totfact> 0.60811133E+00</totfact>
</mgrwt>
</event>
<event>
12    1  0.1489025E-007  0.1669101E+04  0.7818608E-02  0.8779186E-01
          2   -1    0    0  501    0  0.00000000000E+00  0.00000000000E+00  0.19878982525E+04  0.19878982525E+04  0.00000000000E+00 0. -1.
         -2   -1    0    0    0  501 -0.00000000000E+00 -0.00000000000E+00 -0.35035713676E+03  0.35035713676E+03  0.00000000000E+00 0.  1.
         23    2    1    2    0    0  0.42568688955E+03 -0.38576278662E+03  0.41652254716E+03  0.71548710897E+03  0.91697957135E+02 0.  0.
        254    2    1    2    0    0 -0.42568688955E+03  0.38576278662E+03  0.12210185686E+04  0.16227682803E+04  0.90137022982E+03 0.  0.
        -24    2    4    4    0    0  0.27553967984E+03  0.12668056945E+03  0.42027518963E+03  0.52448358237E+03  0.80509076006E+02 0.  0.
         24    2    4    4    0    0 -0.70122656939E+03  0.25908221717E+03  0.80074337895E+03  0.10982846979E+04  0.78721165237E+02 0.  0.
         13    1    3    3    0    0  0.25701833595E+03 -0.27843398809E+03  0.30598016892E+03  0.48703980793E+03  0.00000000000E+00 0. -1.
        -13    1    3    3    0    0  0.16866855360E+03 -0.10732879853E+03  0.11054237824E+03  0.22844730104E+03  0.00000000000E+00 0.  1.
          4    1    6    6  502    0 -0.27850814232E+01 -0.10010302084E+01 -0.14589533475E+01  0.32995885929E+01  0.00000000000E+00 0. -1.
          3    1    5    5  503    0  0.20799038072E+03  0.80718981034E+02  0.24657715263E+03  0.33252946421E+03  0.00000000000E+00 0. -1.
         -4    1    5    5    0  503  0.67549299123E+02  0.45961588415E+02  0.17369803700E+03  0.19195411816E+03  0.00000000000E+00 0.  1.
         -3    1    6    6    0  502 -0.69844148797E+03  0.26008324738E+03  0.80220233230E+03  0.10949851093E+04  0.00000000000E+00 0.  1.
<mgrwt>
<rscale>  0 0.16691008E+04</rscale>
<asrwt>0</asrwt>
<pdfrwt beam="1">  1        2 0.30583049E+00 0.16691008E+04</pdfrwt>
<pdfrwt beam="2">  1       -2 0.53901099E-01 0.16691008E+04</pdfrwt>
<totfact> 0.20986818E+01</totfact>
</mgrwt>
</event>
<event>
12    1  0.1489025E-007  0.1726395E+04  0.7818608E-02  0.8746452E-01
          1   -1    0    0  501    0  0.00000000000E+00  0.00000000000E+00  0.14705646573E+04  0.14705646573E+04  0.00000000000E+00 0. -1.
         -1   -1    0    0    0  501 -0.00000000000E+00 -0.00000000000E+00 -0.50668257919E+03  0.50668257919E+03  0.00000000000E+00 0.  1.
         23    2    1    2    0    0  0.25355092259E+03 -0.18073178263E+03 -0.26949003803E+03  0.42151646912E+03  0.89995586263E+02 0.  0.
        254    2    1    2    0    0 -0.25355092259E+03  0.18073178263E+03  0.12333721161E+04  0.15557307673E+04  0.89562235123E+03 0.  0.
        -24    2    4    4    0    0  0.92757893553E+02 -0.19539786916E+03  0.92533887846E+03  0.95373389159E+03  0.81067514405E+02 0.  0.
         24    2    4    4    0    0 -0.34630881614E+03  0.37612965179E+03  0.30803323767E+03  0.60199687575E+03  0.78182170691E+02 0.  0.
         11    1    3    3    0    0  0.66635874590E+02 -0.77102976939E+02 -0.13445535827E+03  0.16871115020E+03  0.00000000000E+00 0. -1.
        -11    1    3    3    0    0  0.18691504800E+03 -0.10362880569E+03 -0.13503467976E+03  0.25280531893E+03  0.00000000000E+00 0.  1.
          4    1    6    6  502    0 -0.63185354733E+02  0.11674285324E+03  0.67775022283E+02  0.14904608845E+03  0.00000000000E+00 0. -1.
          3    1    5    5  503    0  0.23389099528E+02 -0.14059545720E+03  0.58141946250E+03  0.59863404842E+03  0.00000000000E+00 0. -1.
         -4    1    5    5    0  503  0.69368794025E+02 -0.54802411957E+02  0.34391941597E+03  0.35509984317E+03  0.00000000000E+00 0.  1.
         -3    1    6    6    0  502 -0.28312346141E+03  0.25938679855E+03  0.24025821538E+03  0.45295078731E+03  0.00000000000E+00 0.  1.
<mgrwt>
<rscale>  0 0.17263945E+04</rscale>
<asrwt>0</asrwt>
<pdfrwt beam="1">  1        1 0.22624071E+00 0.17263945E+04</pdfrwt>
<pdfrwt beam="2">  1       -1 0.77951167E-01 0.17263945E+04</pdfrwt>
<totfact> 0.10731881E+01</totfact>
</mgrwt>
</event>
<event>
12    1  0.1489025E-007  0.1377504E+04  0.7818608E-02  0.8970265E-01
          2   -1    0    0  501    0  0.00000000000E+00  0.00000000000E+00  0.94385270208E+03  0.94385270208E+03  0.00000000000E+00 0.  1.
         -2   -1    0    0    0  501 -0.00000000000E+00 -0.00000000000E+00 -0.50259921901E+03  0.50259921901E+03  0.00000000000E+00 0. -1.
         23    2    1    2    0    0 -0.19609381722E+03 -0.23412387264E+03 -0.11508600567E+03  0.34275600673E+03  0.10473833373E+03 0.  0.
        254    2    1    2    0    0  0.19609381722E+03  0.23412387264E+03  0.55633948873E+03  0.11036959144E+04  0.90297523319E+03 0.  0.
        -24    2    4    4    0    0  0.75928902259E+02 -0.22547253456E+03 -0.11579244269E+03  0.27671135302E+03  0.80982844273E+02 0.  0.
         24    2    4    4    0    0  0.12016491497E+03  0.45959640721E+03  0.67213193142E+03  0.82698456134E+03  0.80459102396E+02 0.  0.
         13    1    3    3    0    0 -0.49754035557E+02 -0.87522944816E+01 -0.21602703293E+00  0.50518445944E+02  0.00000000000E+00 0.  1.
        -13    1    3    3    0    0 -0.14633978167E+03 -0.22537157816E+03 -0.11486997864E+03  0.29223756078E+03  0.00000000000E+00 0. -1.
          2    1    6    6  502    0  0.97933394130E+02  0.31688709849E+03  0.52358251137E+03  0.61979595763E+03  0.00000000000E+00 0. -1.
          3    1    5    5  503    0  0.20409351570E+02 -0.26363910555E+02 -0.49415216195E+02  0.59610913454E+02  0.00000000000E+00 0. -1.
         -4    1    5    5    0  503  0.55519550688E+02 -0.19910862401E+03 -0.66377226492E+02  0.21710043957E+03  0.00000000000E+00 0.  1.
         -3    1    6    6    0  502  0.22231520836E+02  0.14270930872E+03  0.14854942005E+03  0.20718860372E+03  0.00000000000E+00 0.  1.
<mgrwt>
<rscale>  0 0.13775045E+04</rscale>
<asrwt>0</asrwt>
<pdfrwt beam="1">  1        2 0.14520811E+00 0.13775045E+04</pdfrwt>
<pdfrwt beam="2">  1       -2 0.77322957E-01 0.13775045E+04</pdfrwt>
<totfact> 0.39871444E+01</totfact>
</mgrwt>
</event>
<event>
12    1  0.1489025E-007  0.2072171E+04  0.7818608E-02  0.8573602E-01
         -1   -1    0    0    0  501 -0.00000000000E+00  0.00000000000E+00  0.21421672884E+04  0.21421672884E+04  0.00000000000E+00 0.  1.
          1   -1    0    0  501    0  0.00000000000E+00 -0.00000000000E+00 -0.50111551463E+03  0.50111551463E+03  0.00000000000E+00 0. -1.
         23    2    1    2    0    0  0.31885039504E+03 -0.59748472638E+03  0.13049844265E+04  0.14729456289E+04  0.89055598236E+02 0.  0.
        254    2    1    2    0    0 -0.31885039504E+03  0.59748472638E+03  0.33606734731E+03  0.11703371742E+04  0.89336121847E+03 0.  0.
        -24    2    4    4    0    0 -0.34258291783E+03 -0.90073358661E+02 -0.67433667092E+02  0.36875128925E+03  0.77161832112E+02 0.  0.
         24    2    4    4    0    0  0.23732522787E+02  0.68755808504E+03  0.40350101440E+03  0.80158588494E+03  0.80171749155E+02 0.  0.
         11    1    3    3    0    0  0.96725535601E+01 -0.14981412421E+02  0.77505896599E+02  0.79530906056E+02  0.00000000000E+00 0. -1.
        -11    1    3    3    0    0  0.30917784148E+03 -0.58250331396E+03  0.12274785299E+04  0.13934147228E+04  0.00000000000E+00 0.  1.
          2    1    6    6  502    0  0.32017000661E+02  0.26508332978E+03  0.11998657031E+03  0.29273031465E+03  0.00000000000E+00 0. -1.
          3    1    5    5  503    0 -0.50147993674E+02 -0.11463732661E+02 -0.39095703050E+02  0.64612014618E+02  0.00000000000E+00 0. -1.
         -4    1    5    5    0  503 -0.29243492416E+03 -0.78609626000E+02 -0.28337964041E+02  0.30413927463E+03  0.00000000000E+00 0.  1.
         -1    1    6    6    0  502 -0.82844778743E+01  0.42247475526E+03  0.28351444408E+03  0.50885557029E+03  0.00000000000E+00 0.  1.
<mgrwt>
<rscale>  0 0.20721711E+04</rscale>
<asrwt>0</asrwt>
<pdfrwt beam="1">  1        1 0.77094695E-01 0.20721711E+04</pdfrwt>
<pdfrwt beam="2">  1       -1 0.32956420E+00 0.20721711E+04</pdfrwt>
<totfact> 0.86406960E-01</totfact>
</mgrwt>
</event>
<event>
12    1  0.1489025E-007  0.1684584E+04  0.7818608E-02  0.8770206E-01
         -2   -1    0    0    0  501 -0.00000000000E+00  0.00000000000E+00  0.64946946515E+03  0.64946946515E+03  0.00000000000E+00 0.  1.
          2   -1    0    0  501    0  0.00000000000E+00 -0.00000000000E+00 -0.10923619498E+04  0.10923619498E+04  0.00000000000E+00 0. -1.
         23    2    1    2    0    0 -0.41480328979E+03 -0.35149661122E+03  0.10547965776E+03  0.56109193170E+03  0.89925306238E+02 0.  0.
        254    2    1    2    0    0  0.41480328979E+03  0.35149661122E+03 -0.54837214243E+03  0.11807394833E+04  0.89320886910E+03 0.  0.
        -24    2    4    4    0    0  0.14369819666E+03 -0.26196645018E+03  0.19990977226E+01  0.30969191124E+03  0.81421684750E+02 0.  0.
         24    2    4    4    0    0  0.27110509313E+03  0.61346306140E+03 -0.55037124015E+03  0.87104757203E+03  0.77333508492E+02 0.  0.
         11    1    3    3    0    0 -0.14313353452E+03 -0.15740361555E+03  0.65082642785E+01  0.21285080314E+03  0.00000000000E+00 0. -1.
        -11    1    3    3    0    0 -0.27166975527E+03 -0.19409299566E+03  0.98971393483E+02  0.34824112856E+03  0.00000000000E+00 0.  1.
          4    1    6    6  502    0  0.22197060950E+03  0.42772286995E+03 -0.41576434148E+03  0.63645721978E+03  0.00000000000E+00 0. -1.
          3    1    5    5  503    0  0.12514231529E+03 -0.25111512727E+03 -0.16887637537E+02  0.28107756674E+03  0.00000000000E+00 0. -1.
         -4    1    5    5    0  503  0.18555881372E+02 -0.10851322913E+02  0.18886735259E+02  0.28614344501E+02  0.00000000000E+00 0.  1.
         -3    1    6    6    0  502  0.49134483626E+02  0.18574019145E+03 -0.13460689867E+03  0.23459035225E+03  0.00000000000E+00 0.  1.
<mgrwt>
<rscale>  0 0.16845839E+04</rscale>
<asrwt>0</asrwt>
<pdfrwt beam="1">  1        2 0.16805568E+00 0.16845839E+04</pdfrwt>
<pdfrwt beam="2">  1       -2 0.99918380E-01 0.16845839E+04</pdfrwt>
<totfact> 0.17368827E+01</totfact>
</mgrwt>
</event>
<event>
12    1  0.1489025E-007  0.1148891E+04  0.7818608E-02  0.9158807E-01
          2   -1    0    0  501    0  0.00000000000E+00  0.00000000000E+00  0.17640374693E+04  0.17640374693E+04  0.00000000000E+00 0. -1.
         -2   -1    0    0    0  501 -0.00000000000E+00 -0.00000000000E+00 -0.18706380084E+03  0.18706380084E+03  0.00000000000E+00 0.  1.
         23    2    1    2    0    0 -0.96807898046E+02 -0.15529777832E+03  0.36256799746E+03  0.41859051254E+03  0.10135726579E+03 0.  0.
        254    2    1    2    0    0  0.96807898046E+02  0.15529777832E+03  0.12144056710E+04  0.15325107576E+04  0.91668910724E+03 0.  0.
        -24    2    4    4    0    0  0.19966418755E+03 -0.33549325145E+03  0.35184155220E+03  0.53159861668E+03  0.79894316704E+02 0.  0.
         24    2    4    4    0    0 -0.10285628950E+03  0.49079102977E+03  0.86256411880E+03  0.10009121409E+04  0.79705731333E+02 0.  0.
         13    1    3    3    0    0 -0.59074699359E+02 -0.59427675862E+02  0.72625984018E+02  0.11088734065E+03  0.00000000000E+00 0.  1.
        -13    1    3    3    0    0 -0.37733198687E+02 -0.95870102457E+02  0.28994201344E+03  0.30770317188E+03  0.00000000000E+00 0. -1.
          2    1    6    6  502    0 -0.10484710055E+03  0.35705821995E+03  0.67087999050E+03  0.76717888956E+03  0.00000000000E+00 0. -1.
          1    1    5    5  503    0  0.16371703580E+03 -0.31981791014E+03  0.31703917037E+03  0.47916656708E+03  0.00000000000E+00 0. -1.
         -2    1    5    5    0  503  0.35947151750E+02 -0.15675341310E+02  0.34802381834E+02  0.52432049602E+02  0.00000000000E+00 0.  1.
         -1    1    6    6    0  502  0.19908110449E+01  0.13373280982E+03  0.19168412829E+03  0.23373325136E+03  0.00000000000E+00 0.  1.
<mgrwt>
<rscale>  0 0.11488909E+04</rscale>
<asrwt>0</asrwt>
<pdfrwt beam="1">  1        2 0.27139037E+00 0.11488909E+04</pdfrwt>
<pdfrwt beam="2">  1       -2 0.28779048E-01 0.11488909E+04</pdfrwt>
<totfact> 0.99111405E+01</totfact>
</mgrwt>
</event>
<event>
12    1  0.1489025E-007  0.1110873E+04  0.7818608E-02  0.9194658E-01
         -2   -1    0    0    0  501 -0.00000000000E+00  0.00000000000E+00  0.35172018553E+03  0.35172018553E+03  0.00000000000E+00 0.  1.
          2   -1    0    0  501    0  0.00000000000E+00 -0.00000000000E+00 -0.87714576832E+03  0.87714576832E+03  0.00000000000E+00 0. -1.
         23    2    1    2    0    0  0.48662155145E+02 -0.28328050962E+02 -0.26574050378E+03  0.28687319355E+03  0.92237356907E+02 0.  0.
        254    2    1    2    0    0 -0.48662155145E+02  0.28328050962E+02 -0.25968507901E+03  0.94199276029E+03  0.90373864384E+03 0.  0.
        -24    2    4    4    0    0  0.15175117753E+03  0.11516050417E+03  0.28428772020E+03  0.35049926229E+03  0.75761886238E+02 0.  0.
         24    2    4    4    0    0 -0.20041333267E+03 -0.86832453213E+02 -0.54397279921E+03  0.59149349801E+03  0.79074477951E+02 0.  0.
         11    1    3    3    0    0  0.52561486179E+01 -0.21614777339E+02 -0.54495222279E+01  0.22902466902E+02  0.00000000000E+00 0.  1.
        -11    1    3    3    0    0  0.43406006527E+02 -0.67132736234E+01 -0.26029098156E+03  0.26397072664E+03  0.00000000000E+00 0. -1.
          2    1    6    6  502    0 -0.13025613455E+03 -0.53996993782E+02 -0.43862864589E+03  0.46073574304E+03  0.00000000000E+00 0. -1.
          1    1    5    5  503    0 -0.16233498487E+01  0.28641422340E+02  0.45832947047E+02  0.54070559211E+02  0.00000000000E+00 0. -1.
         -2    1    5    5    0  503  0.15337452738E+03  0.86519081834E+02  0.23845477315E+03  0.29642870308E+03  0.00000000000E+00 0.  1.
         -1    1    6    6    0  502 -0.70157198120E+02 -0.32835459431E+02 -0.10534415332E+03  0.13075775496E+03  0.00000000000E+00 0.  1.
<mgrwt>
<rscale>  0 0.11108733E+04</rscale>
<asrwt>0</asrwt>
<pdfrwt beam="1">  1        2 0.13494550E+00 0.11108733E+04</pdfrwt>
<pdfrwt beam="2">  1       -2 0.54110799E-01 0.11108733E+04</pdfrwt>
<totfact> 0.96996390E+01</totfact>
</mgrwt>
</event>
<event>
12    1  0.1489025E-007  0.2036491E+04  0.7818608E-02  0.8589747E-01
          2   -1    0    0  501    0  0.00000000000E+00  0.00000000000E+00  0.70684177602E+03  0.70684177602E+03  0.00000000000E+00 0.  1.
         -2   -1    0    0    0  501 -0.00000000000E+00 -0.00000000000E+00 -0.14668400914E+04  0.14668400914E+04  0.00000000000E+00 0. -1.
         23    2    1    2    0    0 -0.42986424260E+03  0.30277408268E+03 -0.96556889658E+03  0.11032591528E+04  0.91662708157E+02 0.  0.
        254    2    1    2    0    0  0.42986424260E+03 -0.30277408268E+03  0.20557058123E+03  0.10704227145E+04  0.90944494706E+03 0.  0.
        -24    2    4    4    0    0 -0.12760026406E+03 -0.29183946119E+03  0.35857260858E+03  0.48628668103E+03  0.80301444730E+02 0.  0.
         24    2    4    4    0    0  0.55746450666E+03 -0.10934621495E+02 -0.15300202735E+03  0.58413603351E+03  0.83180785910E+02 0.  0.
         11    1    3    3    0    0 -0.48897343343E+02  0.57656115171E+02 -0.19851037763E+03  0.21241833214E+03  0.00000000000E+00 0.  1.
        -11    1    3    3    0    0 -0.38096689925E+03  0.24511796751E+03 -0.76705851895E+03  0.89084082070E+03  0.00000000000E+00 0. -1.
          2    1    6    6  502    0  0.38972757160E+03  0.29164582124E+02 -0.11700140567E+03  0.40795524491E+03  0.00000000000E+00 0. -1.
          1    1    5    5  503    0 -0.12566084280E+03 -0.25625786011E+03  0.27911362935E+03  0.39920315176E+03  0.00000000000E+00 0. -1.
         -2    1    5    5    0  503 -0.19394212560E+01 -0.35581601078E+02  0.79458979232E+02  0.87083529273E+02  0.00000000000E+00 0.  1.
         -1    1    6    6    0  502  0.16773693506E+03 -0.40099203620E+02 -0.36000621676E+02  0.17618078861E+03  0.00000000000E+00 0.  1.
<mgrwt>
<rscale>  0 0.20364910E+04</rscale>
<asrwt>0</asrwt>
<pdfrwt beam="1">  1        2 0.10874489E+00 0.20364910E+04</pdfrwt>
<pdfrwt beam="2">  1       -2 0.22566770E+00 0.20364910E+04</pdfrwt>
<totfact> 0.34105155E+00</totfact>
</mgrwt>
</event>
<event>
12    1  0.1489025E-007  0.1483599E+04  0.7818608E-02  0.8895433E-01
         -2   -1    0    0    0  501 -0.00000000000E+00  0.00000000000E+00  0.14092676055E+03  0.14092676055E+03  0.00000000000E+00 0.  1.
          2   -1    0    0  501    0  0.00000000000E+00 -0.00000000000E+00 -0.39046268560E+04  0.39046268560E+04  0.00000000000E+00 0. -1.
         23    2    1    2    0    0  0.39810276430E+03  0.89615941204E+01 -0.19187339904E+04  0.19616955352E+04  0.90239270764E+02 0.  0.
        254    2    1    2    0    0 -0.39810276430E+03 -0.89615941204E+01 -0.18449661051E+04  0.20838580813E+04  0.88317521090E+03 0.  0.
        -24    2    4    4    0    0  0.21936848633E+03  0.16941665608E+03 -0.34291999650E+03  0.44812913876E+03  0.80006655024E+02 0.  0.
         24    2    4    4    0    0 -0.61747125063E+03 -0.17837825020E+03 -0.15020461086E+04  0.16357289426E+04  0.79856845712E+02 0.  0.
         11    1    3    3    0    0  0.31280480983E+03 -0.84270032130E+01 -0.13150403886E+04  0.13517577768E+04  0.00000000000E+00 0. -1.
        -11    1    3    3    0    0  0.85297954476E+02  0.17388597333E+02 -0.60369360174E+03  0.60993775841E+03  0.00000000000E+00 0.  1.
          2    1    6    6  502    0 -0.53808561268E+03 -0.16761458323E+03 -0.12481156740E+04  0.13694610293E+04  0.00000000000E+00 0. -1.
          3    1    5    5  503    0  0.12610067392E+03  0.93915513979E+02 -0.25419767529E+03  0.29889456645E+03  0.00000000000E+00 0. -1.
         -4    1    5    5    0  503  0.93267812414E+02  0.75501142099E+02 -0.88722321212E+02  0.14923457231E+03  0.00000000000E+00 0.  1.
         -1    1    6    6    0  502 -0.79385637956E+02 -0.10763666971E+02 -0.25393043457E+03  0.26626791328E+03  0.00000000000E+00 0.  1.
<mgrwt>
<rscale>  0 0.14835989E+04</rscale>
<asrwt>0</asrwt>
<pdfrwt beam="1">  1        2 0.60071180E+00 0.14835989E+04</pdfrwt>
<pdfrwt beam="2">  1       -2 0.21681041E-01 0.14835989E+04</pdfrwt>
<totfact> 0.74729861E+00</totfact>
</mgrwt>
</event>
<event>
12    1  0.1489025E-007  0.1048085E+04  0.7818608E-02  0.9257323E-01
         -1   -1    0    0    0  501 -0.00000000000E+00  0.00000000000E+00  0.41409668383E+03  0.41409668383E+03  0.00000000000E+00 0.  1.
          1   -1    0    0  501    0  0.00000000000E+00 -0.00000000000E+00 -0.66317992855E+03  0.66317992855E+03  0.00000000000E+00 0. -1.
         23    2    1    2    0    0 -0.97426819193E+02 -0.14526343393E+03 -0.61437734597E+02  0.20375625831E+03  0.84549200072E+02 0.  0.
        254    2    1    2    0    0  0.97426819193E+02  0.14526343393E+03 -0.18764551013E+03  0.87352035407E+03  0.83500510248E+03 0.  0.
        -24    2    4    4    0    0 -0.13498917107E+03  0.30445594151E+03  0.19370449864E+03  0.39276619865E+03  0.76343679403E+02 0.  0.
         24    2    4    4    0    0  0.23241599026E+03 -0.15919250758E+03 -0.38135000877E+03  0.48075415542E+03  0.79607045947E+02 0.  0.
         11    1    3    3    0    0 -0.47931261730E+02 -0.13230409559E+03 -0.30566910336E+02  0.14400040128E+03  0.00000000000E+00 0. -1.
        -11    1    3    3    0    0 -0.49495557463E+02 -0.12959338336E+02 -0.30870824261E+02  0.59755857029E+02  0.00000000000E+00 0.  1.
          4    1    6    6  502    0  0.28604185474E+02 -0.14045050038E+01 -0.13686400390E+02  0.31740976932E+02  0.00000000000E+00 0. -1.
          3    1    5    5  503    0 -0.23305973289E+02  0.14803753839E+02  0.15141561377E+01  0.27651621788E+02  0.00000000000E+00 0. -1.
         -4    1    5    5    0  503 -0.11168319778E+03  0.28965218767E+03  0.19219034250E+03  0.36511457686E+03  0.00000000000E+00 0.  1.
         -3    1    6    6    0  502  0.20381180479E+03 -0.15778800258E+03 -0.36766360838E+03  0.44901317849E+03  0.00000000000E+00 0.  1.
<mgrwt>
<rscale>  0 0.10480851E+04</rscale>
<asrwt>0</asrwt>
<pdfrwt beam="1">  1        1 0.10202768E+00 0.10480851E+04</pdfrwt>
<pdfrwt beam="2">  1       -1 0.63707182E-01 0.10480851E+04</pdfrwt>
<totfact> 0.73863149E+01</totfact>
</mgrwt>
</event>
<event>
12    1  0.1489025E-007  0.2058605E+04  0.7818608E-02  0.8579701E-01
         -2   -1    0    0    0  501 -0.00000000000E+00  0.00000000000E+00  0.63968289232E+03  0.63968289232E+03  0.00000000000E+00 0.  1.
          2   -1    0    0  501    0  0.00000000000E+00 -0.00000000000E+00 -0.16562321009E+04  0.16562321009E+04  0.00000000000E+00 0. -1.
         23    2    1    2    0    0  0.48485935899E+03  0.35043470228E+03  0.22534608895E+03  0.64566699026E+03  0.90619666465E+02 0.  0.
        254    2    1    2    0    0 -0.48485935899E+03 -0.35043470228E+03 -0.12418952975E+04  0.16502480029E+04  0.90726041610E+03 0.  0.
        -24    2    4    4    0    0 -0.59887632034E+02 -0.13334021600E+02 -0.10703777105E+04  0.10756566829E+04  0.86974316837E+02 0.  0.
         24    2    4    4    0    0 -0.42497172695E+03 -0.33710068068E+03 -0.17151758701E+03  0.57459131999E+03  0.80616777000E+02 0.  0.
         13    1    3    3    0    0  0.15299166300E+03  0.72313145764E+02  0.91935344873E+02  0.19258179466E+03  0.00000000000E+00 0.  1.
        -13    1    3    3    0    0  0.33186769599E+03  0.27812155652E+03  0.13341074408E+03  0.45308519560E+03  0.00000000000E+00 0. -1.
          4    1    6    6  502    0 -0.37526853789E+03 -0.32681980246E+03 -0.15650971060E+03  0.52166363523E+03  0.00000000000E+00 0. -1.
          1    1    5    5  503    0 -0.25566596557E+02 -0.47800930815E+01 -0.94572940911E+03  0.94608700203E+03  0.00000000000E+00 0. -1.
         -2    1    5    5    0  503 -0.34321035477E+02 -0.85539285181E+01 -0.12464830140E+03  0.12956968091E+03  0.00000000000E+00 0.  1.
         -3    1    6    6    0  502 -0.49703189065E+02 -0.10280878221E+02 -0.15007876410E+02  0.52927684765E+02  0.00000000000E+00 0.  1.
<mgrwt>
<rscale>  0 0.20586047E+04</rscale>
<asrwt>0</asrwt>
<pdfrwt beam="1">  1        2 0.25480493E+00 0.20586047E+04</pdfrwt>
<pdfrwt beam="2">  1       -2 0.98412754E-01 0.20586047E+04</pdfrwt>
<totfact> 0.82288736E+00</totfact>
</mgrwt>
</event>
<event>
12    1  0.1489025E-007  0.4230640E+04  0.7818608E-02  0.7959569E-01
         -1   -1    0    0    0  501 -0.00000000000E+00  0.00000000000E+00  0.16028382830E+04  0.16028382830E+04  0.00000000000E+00 0.  1.
          1   -1    0    0  501    0  0.00000000000E+00 -0.00000000000E+00 -0.27916588668E+04  0.27916588668E+04  0.00000000000E+00 0. -1.
         23    2    1    2    0    0 -0.10160690102E+04 -0.20955359064E+03 -0.23062036782E+04  0.25304363459E+04  0.90684918667E+02 0.  0.
        254    2    1    2    0    0  0.10160690102E+04  0.20955359064E+03  0.11173830943E+04  0.18640608039E+04  0.10723193369E+04 0.  0.
        -24    2    4    4    0    0  0.60709023672E+03  0.12128365262E+03 -0.44281275466E+02  0.62677457968E+03  0.87276929671E+02 0.  0.
         24    2    4    4    0    0  0.40897877352E+03  0.88269938020E+02  0.11616643698E+04  0.12372862243E+04  0.79736274565E+02 0.  0.
         13    1    3    3    0    0 -0.10070923273E+04 -0.21003157915E+03 -0.22567887345E+04  0.24802103968E+04  0.00000000000E+00 0. -1.
        -13    1    3    3    0    0 -0.89766829248E+01  0.47798851054E+00 -0.49414943639E+02  0.50225949112E+02  0.00000000000E+00 0.  1.
          2    1    6    6  502    0  0.30314811894E+02  0.13710070972E+02  0.16887645538E+03  0.17212266279E+03  0.00000000000E+00 0. -1.
          3    1    5    5  503    0  0.14486528334E+03  0.30253038450E+02 -0.48240219573E+02  0.15565447452E+03  0.00000000000E+00 0. -1.
         -4    1    5    5    0  503  0.46222495338E+03  0.91030614171E+02  0.39589441065E+01  0.47112010516E+03  0.00000000000E+00 0.  1.
         -1    1    6    6    0  502  0.37866396163E+03  0.74559867049E+02  0.99278791444E+03  0.10651635615E+04  0.00000000000E+00 0.  1.
<mgrwt>
<rscale>  0 0.42306395E+04</rscale>
<asrwt>0</asrwt>
<pdfrwt beam="1">  1        1 0.42948598E+00 0.42306395E+04</pdfrwt>
<pdfrwt beam="2">  1       -1 0.24659051E+00 0.42306395E+04</pdfrwt>
<totfact> 0.47621505E-02</totfact>
</mgrwt>
</event>
<event>
12    1  0.1489025E-007  0.2201175E+04  0.7818608E-02  0.8517939E-01
          2   -1    0    0  501    0  0.00000000000E+00  0.00000000000E+00  0.18030284414E+04  0.18030284414E+04  0.00000000000E+00 0. -1.
         -2   -1    0    0    0  501 -0.00000000000E+00 -0.00000000000E+00 -0.67181007322E+03  0.67181007322E+03  0.00000000000E+00 0.  1.
         23    2    1    2    0    0  0.46952980951E+02 -0.75403229198E+03  0.10527935896E+04  0.13004653023E+04  0.10984707712E+03 0.  0.
        254    2    1    2    0    0 -0.46952980951E+02  0.75403229198E+03  0.78424778533E+02  0.11743732123E+04  0.89567444762E+03 0.  0.
        -24    2    4    4    0    0 -0.42505673886E+01 -0.19889681416E+03  0.14061440149E+02  0.21496177192E+03  0.80204920556E+02 0.  0.
         24    2    4    4    0    0 -0.42702413562E+02  0.95292910614E+03  0.64363338384E+02  0.95941144039E+03  0.80189121233E+02 0.  0.
         13    1    3    3    0    0  0.33714591247E+02 -0.65523177658E+03  0.96909132026E+03  0.11703005348E+04  0.00000000000E+00 0. -1.
        -13    1    3    3    0    0  0.13238389703E+02 -0.98800515403E+02  0.83702269360E+02  0.13016476751E+03  0.00000000000E+00 0.  1.
          4    1    6    6  502    0 -0.27459045691E+02  0.75511234270E+03  0.18808258435E+02  0.75584548677E+03  0.00000000000E+00 0. -1.
          1    1    5    5  503    0 -0.70395786342E+01 -0.17211257393E+03 -0.17881706256E+02  0.17318212722E+03  0.00000000000E+00 0. -1.
         -2    1    5    5    0  503  0.27890112457E+01 -0.26784240231E+02  0.31943146405E+02  0.41779644694E+02  0.00000000000E+00 0.  1.
         -3    1    6    6    0  502 -0.15243367871E+02  0.19781676344E+03  0.45555079949E+02  0.20356595361E+03  0.00000000000E+00 0.  1.
<mgrwt>
<rscale>  0 0.22011748E+04</rscale>
<asrwt>0</asrwt>
<pdfrwt beam="1">  1        2 0.27738899E+00 0.22011748E+04</pdfrwt>
<pdfrwt beam="2">  1       -2 0.10335540E+00 0.22011748E+04</pdfrwt>
<totfact> 0.59976795E+00</totfact>
</mgrwt>
</event>
<event>
12    1  0.1489025E-007  0.1550701E+04  0.7818608E-02  0.8851420E-01
         -1   -1    0    0    0  501 -0.00000000000E+00  0.00000000000E+00  0.75592881727E+03  0.75592881727E+03  0.00000000000E+00 0.  1.
          1   -1    0    0  501    0  0.00000000000E+00 -0.00000000000E+00 -0.79527158067E+03  0.79527158067E+03  0.00000000000E+00 0. -1.
         23    2    1    2    0    0  0.72385807513E+02  0.25654262060E+03 -0.44823428742E+03  0.52949242309E+03  0.91621113159E+02 0.  0.
        254    2    1    2    0    0 -0.72385807513E+02 -0.25654262060E+03  0.40889152402E+03  0.10217079748E+04  0.89757511448E+03 0.  0.
        -24    2    4    4    0    0 -0.21414770952E+03 -0.28821683386E+03  0.63944872983E+03  0.73734199866E+03  0.76487646725E+02 0.  0.
         24    2    4    4    0    0  0.14176190201E+03  0.31674213264E+02 -0.23055720581E+03  0.28436597618E+03  0.81287702716E+02 0.  0.
         11    1    3    3    0    0  0.28865981184E+02  0.19121716923E+03 -0.24844638385E+03  0.31483782544E+03  0.00000000000E+00 0. -1.
        -11    1    3    3    0    0  0.43519826329E+02  0.65325451370E+02 -0.19978790357E+03  0.21465459765E+03  0.00000000000E+00 0.  1.
          2    1    6    6  502    0  0.11487123101E+03  0.57975345510E+02 -0.17292207514E+03  0.21554253518E+03  0.00000000000E+00 0. -1.
          1    1    5    5  503    0 -0.20613268133E+03 -0.25941557384E+03  0.54051703860E+03  0.63399194891E+03  0.00000000000E+00 0. -1.
         -2    1    5    5    0  503 -0.80150281916E+01 -0.28801260025E+02  0.98931691221E+02  0.10335004975E+03  0.00000000000E+00 0.  1.
         -1    1    6    6    0  502  0.26890670994E+02 -0.26301132247E+02 -0.57635130669E+02  0.68823441001E+02  0.00000000000E+00 0.  1.
<mgrwt>
<rscale>  0 0.15507014E+04</rscale>
<asrwt>0</asrwt>
<pdfrwt beam="1">  1        1 0.12234947E+00 0.15507014E+04</pdfrwt>
<pdfrwt beam="2">  1       -1 0.11629674E+00 0.15507014E+04</pdfrwt>
<totfact> 0.14371588E+01</totfact>
</mgrwt>
</event>
<event>
12    1  0.1572642E-007  0.3237008E+04  0.7818608E-02  0.8179111E-01
         -2   -1    0    0    0  501 -0.00000000000E+00  0.00000000000E+00  0.10459260323E+04  0.10459260323E+04  0.00000000000E+00 0.  1.
          2   -1    0    0  501    0  0.00000000000E+00 -0.00000000000E+00 -0.25045320363E+04  0.25045320363E+04  0.00000000000E+00 0. -1.
         23    2    1    2    0    0 -0.61140847482E+03 -0.16402828748E+03 -0.21547682919E+04  0.22476725884E+04  0.90994891713E+02 0.  0.
        254    2    1    2    0    0  0.61140847482E+03  0.16402828748E+03  0.69616228795E+03  0.13027854803E+04  0.90104521213E+03 0.  0.
        -24    2    4    4    0    0  0.51353534400E+03  0.48318140464E+03  0.28041916132E+03  0.76303489482E+03  0.80028278385E+02 0.  0.
         24    2    4    4    0    0  0.97873130823E+02 -0.31915311716E+03  0.41574312663E+03  0.53975058547E+03  0.83967167654E+02 0.  0.
         13    1    3    3    0    0 -0.46973689276E+03 -0.11005578779E+03 -0.15044153334E+04  0.15798830717E+04  0.00000000000E+00 0. -1.
        -13    1    3    3    0    0 -0.14167158207E+03 -0.53972499695E+02 -0.65035295853E+03  0.66778951666E+03  0.00000000000E+00 0.  1.
          4    1    6    6  502    0  0.74432188494E+02 -0.19055336503E+03  0.31096016386E+03  0.37221896663E+03  0.00000000000E+00 0. -1.
          3    1    5    5  503    0  0.38355690342E+03  0.38200190903E+03  0.18176499537E+03  0.57103403595E+03  0.00000000000E+00 0. -1.
         -4    1    5    5    0  503  0.12997844058E+03  0.10117949561E+03  0.98654165955E+02  0.19200085887E+03  0.00000000000E+00 0.  1.
         -3    1    6    6    0  502  0.23440942330E+02 -0.12859975213E+03  0.10478296276E+03  0.16753161884E+03  0.00000000000E+00 0.  1.
<mgrwt>
<rscale>  0 0.32370080E+04</rscale>
<asrwt>0</asrwt>
<pdfrwt beam="1">  1        2 0.38531262E+00 0.32370080E+04</pdfrwt>
<pdfrwt beam="2">  1       -2 0.16091170E+00 0.32370080E+04</pdfrwt>
<totfact> 0.72028963E-01</totfact>
</mgrwt>
</event>
<event>
12    1  0.1489025E-007  0.2403852E+04  0.7818608E-02  0.8438063E-01
          2   -1    0    0  501    0  0.00000000000E+00  0.00000000000E+00  0.13855017914E+04  0.13855017914E+04  0.00000000000E+00 0. -1.
         -2   -1    0    0    0  501 -0.00000000000E+00 -0.00000000000E+00 -0.10426734453E+04  0.10426734453E+04  0.00000000000E+00 0.  1.
         23    2    1    2    0    0 -0.65225094438E+03  0.56144321009E+03 -0.34690473502E+03  0.93242681952E+03  0.91799269979E+02 0.  0.
        254    2    1    2    0    0  0.65225094438E+03 -0.56144321009E+03  0.68973308110E+03  0.14957484171E+04  0.10103869712E+04 0.  0.
        -24    2    4    4    0    0  0.82970093655E+03 -0.46966339432E+03  0.22255373861E+03  0.98207418756E+03  0.77150471279E+02 0.  0.
         24    2    4    4    0    0 -0.17744999217E+03 -0.91779815772E+02  0.46717934250E+03  0.51367422956E+03  0.75449597428E+02 0.  0.
         13    1    3    3    0    0 -0.55963093283E+02  0.69764927325E+02 -0.12423519395E+02  0.90295939713E+02  0.00000000000E+00 0.  1.
        -13    1    3    3    0    0 -0.59628785110E+03  0.49167828277E+03 -0.33448121563E+03  0.84213087980E+03  0.00000000000E+00 0. -1.
          2    1    6    6  502    0 -0.15874706471E+03 -0.86063194041E+02  0.45751160006E+03  0.49185807721E+03  0.00000000000E+00 0. -1.
          3    1    5    5  503    0  0.77553772498E+03 -0.45721534287E+03  0.21809281951E+03  0.92632019872E+03  0.00000000000E+00 0. -1.
         -4    1    5    5    0  503  0.54163211573E+02 -0.12448051450E+02  0.44609190926E+01  0.55753988843E+02  0.00000000000E+00 0.  1.
         -1    1    6    6    0  502 -0.18702927460E+02 -0.57166217315E+01  0.96677424335E+01  0.21816152350E+02  0.00000000000E+00 0.  1.
<mgrwt>
<rscale>  0 0.24038518E+04</rscale>
<asrwt>0</asrwt>
<pdfrwt beam="1">  1        2 0.21315412E+00 0.24038518E+04</pdfrwt>
<pdfrwt beam="2">  1       -2 0.16041130E+00 0.24038518E+04</pdfrwt>
<totfact> 0.33172143E+00</totfact>
</mgrwt>
</event>
<event>
12    1  0.1489025E-007  0.1667363E+04  0.7818608E-02  0.8780201E-01
         -1   -1    0    0    0  501 -0.00000000000E+00  0.00000000000E+00  0.26458786497E+03  0.26458786497E+03  0.00000000000E+00 0.  1.
          1   -1    0    0  501    0  0.00000000000E+00 -0.00000000000E+00 -0.26268192579E+04  0.26268192579E+04  0.00000000000E+00 0. -1.
         23    2    1    2    0    0 -0.37726521749E+03 -0.40001676391E+03 -0.57339199399E+03  0.80000562371E+03  0.94277056849E+02 0.  0.
        254    2    1    2    0    0  0.37726521749E+03  0.40001676391E+03 -0.17888393990E+04  0.20914014992E+04  0.93363342905E+03 0.  0.
        -24    2    4    4    0    0 -0.10534990954E+03 -0.71728067108E+02  0.25091693538E+02  0.15421155422E+03  0.83114928380E+02 0.  0.
         24    2    4    4    0    0  0.48261512703E+03  0.47174483102E+03 -0.18139310925E+04  0.19371899450E+04  0.83056174710E+02 0.  0.
         11    1    3    3    0    0 -0.61740130644E+02 -0.29353638453E+02 -0.98948359429E+02  0.12026744221E+03  0.00000000000E+00 0. -1.
        -11    1    3    3    0    0 -0.31552508685E+03 -0.37066312546E+03 -0.47444363456E+03  0.67973818149E+03  0.00000000000E+00 0.  1.
          2    1    6    6  502    0  0.38770763315E+03  0.35023397961E+03 -0.14760690552E+04  0.15658099837E+04  0.00000000000E+00 0. -1.
          3    1    5    5  503    0 -0.68535228314E+02 -0.59427749565E+02  0.54220980423E+02  0.10568183220E+03  0.00000000000E+00 0. -1.
         -4    1    5    5    0  503 -0.36814681223E+02 -0.12300317543E+02 -0.29129286885E+02  0.48529722023E+02  0.00000000000E+00 0.  1.
         -1    1    6    6    0  502  0.94907493881E+02  0.12151085140E+03 -0.33786203727E+03  0.37137996127E+03  0.00000000000E+00 0.  1.
<mgrwt>
<rscale>  0 0.16673626E+04</rscale>
<asrwt>0</asrwt>
<pdfrwt beam="1">  1        1 0.40412601E+00 0.16673626E+04</pdfrwt>
<pdfrwt beam="2">  1       -1 0.40705828E-01 0.16673626E+04</pdfrwt>
<totfact> 0.62329961E+00</totfact>
</mgrwt>
</event>
<event>
12    1  0.1489025E-007  0.3267071E+04  0.7818608E-02  0.8171325E-01
          1   -1    0    0  501    0  0.00000000000E+00  0.00000000000E+00  0.29962184504E+04  0.29962184504E+04  0.00000000000E+00 0. -1.
         -1   -1    0    0    0  501 -0.00000000000E+00 -0.00000000000E+00 -0.89060208413E+03  0.89060208413E+03  0.00000000000E+00 0.  1.
         23    2    1    2    0    0 -0.10847353554E+03 -0.14904681616E+04  0.72699875205E+03  0.16646290081E+04  0.95920281851E+02 0.  0.
        254    2    1    2    0    0  0.10847353554E+03  0.14904681616E+04  0.13786176142E+04  0.22221915265E+04  0.89682038637E+03 0.  0.
        -24    2    4    4    0    0  0.89328747334E+02  0.13975557691E+04  0.76595611740E+03  0.15981187094E+04  0.78440312024E+02 0.  0.
         24    2    4    4    0    0  0.19144788205E+02  0.92912392452E+02  0.61266149681E+03  0.62407281707E+03  0.71508990671E+02 0.  0.
         13    1    3    3    0    0 -0.57503563585E+02 -0.12636699331E+04  0.61918206745E+03  0.14083873020E+04  0.00000000000E+00 0.  1.
        -13    1    3    3    0    0 -0.50969971953E+02 -0.22679822845E+03  0.10781668460E+03  0.25624170611E+03  0.00000000000E+00 0. -1.
          4    1    6    6  502    0  0.34234481477E+02  0.25234524122E+02  0.13893942733E+03  0.14530294352E+03  0.00000000000E+00 0. -1.
          1    1    5    5  503    0 -0.79334159470E+01  0.27138666067E+02  0.98883943521E+01  0.29953741458E+02  0.00000000000E+00 0. -1.
         -2    1    5    5    0  503  0.97262163281E+02  0.13704171031E+04  0.75606772305E+03  0.15681649679E+04  0.00000000000E+00 0.  1.
         -3    1    6    6    0  502 -0.15089693272E+02  0.67677868329E+02  0.47372206948E+03  0.47876987355E+03  0.00000000000E+00 0.  1.
<mgrwt>
<rscale>  0 0.32670711E+04</rscale>
<asrwt>0</asrwt>
<pdfrwt beam="1">  1        1 0.46095668E+00 0.32670711E+04</pdfrwt>
<pdfrwt beam="2">  1       -1 0.13701571E+00 0.32670711E+04</pdfrwt>
<totfact> 0.22170308E-01</totfact>
</mgrwt>
</event>
<event>
12    1  0.1489025E-007  0.1948204E+04  0.7818608E-02  0.8631227E-01
         -2   -1    0    0    0  501 -0.00000000000E+00  0.00000000000E+00  0.68301575259E+03  0.68301575259E+03  0.00000000000E+00 0.  1.
          2   -1    0    0  501    0  0.00000000000E+00 -0.00000000000E+00 -0.13892424518E+04  0.13892424518E+04  0.00000000000E+00 0. -1.
         23    2    1    2    0    0 -0.60346542101E+03  0.46234284033E+03 -0.19592156327E+03  0.79020196303E+03  0.90013704853E+02 0.  0.
        254    2    1    2    0    0  0.60346542101E+03 -0.46234284033E+03 -0.51030513593E+03  0.12820562413E+04  0.89739927449E+03 0.  0.
        -24    2    4    4    0    0  0.75782619762E+03 -0.45305170430E+03 -0.17425414603E+03  0.90342128649E+03  0.79051381445E+02 0.  0.
         24    2    4    4    0    0 -0.15436077661E+03 -0.92911360333E+01 -0.33605098990E+03  0.37863495486E+03  0.80750149617E+02 0.  0.
         11    1    3    3    0    0 -0.24706603993E+03  0.20527576815E+03 -0.38938643219E+02  0.32356759265E+03  0.00000000000E+00 0.  1.
        -11    1    3    3    0    0 -0.35639938108E+03  0.25706707218E+03 -0.15698292005E+03  0.46663437038E+03  0.00000000000E+00 0. -1.
          4    1    6    6  502    0 -0.95917732512E+02 -0.30612649100E+02 -0.13653001269E+03  0.16964017821E+03  0.00000000000E+00 0. -1.
          1    1    5    5  503    0  0.44233100742E+03 -0.29294530359E+03 -0.73860660492E+02  0.53565760350E+03  0.00000000000E+00 0. -1.
         -2    1    5    5    0  503  0.31549519020E+03 -0.16010640071E+03 -0.10039348553E+03  0.36776368299E+03  0.00000000000E+00 0.  1.
         -3    1    6    6    0  502 -0.58443044094E+02  0.21321513066E+02 -0.19952097721E+03  0.20899477665E+03  0.00000000000E+00 0.  1.
<mgrwt>
<rscale>  0 0.19482038E+04</rscale>
<asrwt>0</asrwt>
<pdfrwt beam="1">  1        2 0.21372961E+00 0.19482038E+04</pdfrwt>
<pdfrwt beam="2">  1       -2 0.10507935E+00 0.19482038E+04</pdfrwt>
<totfact> 0.10049197E+01</totfact>
</mgrwt>
</event>
<event>
12    1  0.1489025E-007  0.1798198E+04  0.7818608E-02  0.8707258E-01
         -2   -1    0    0    0  501 -0.00000000000E+00  0.00000000000E+00  0.44494221381E+03  0.44494221381E+03  0.00000000000E+00 0.  1.
          2   -1    0    0  501    0  0.00000000000E+00 -0.00000000000E+00 -0.18168181976E+04  0.18168181976E+04  0.00000000000E+00 0. -1.
         23    2    1    2    0    0 -0.50832772073E+03 -0.38073547643E+03 -0.80001964635E+03  0.10256374854E+04  0.92435069815E+02 0.  0.
        254    2    1    2    0    0  0.50832772073E+03  0.38073547643E+03 -0.57185633746E+03  0.12361229261E+04  0.89309777910E+03 0.  0.
        -24    2    4    4    0    0 -0.42482879745E+02  0.17481065616E+03 -0.61060884288E+03  0.64151870925E+03  0.79621195278E+02 0.  0.
         24    2    4    4    0    0  0.55081060048E+03  0.20592482027E+03  0.38752505419E+02  0.59460421684E+03  0.79088992962E+02 0.  0.
         13    1    3    3    0    0 -0.45468169387E+03 -0.31765454749E+03 -0.65177730674E+03  0.85583497934E+03  0.00000000000E+00 0. -1.
        -13    1    3    3    0    0 -0.53646026865E+02 -0.63080928937E+02 -0.14824233962E+03  0.16980250601E+03  0.00000000000E+00 0.  1.
          4    1    6    6  502    0  0.26993842918E+03  0.12032644441E+03 -0.15754462497E+02  0.29596184189E+03  0.00000000000E+00 0. -1.
          1    1    5    5  503    0  0.14716282507E+02  0.65056847030E+02 -0.14271123636E+03  0.15752923316E+03  0.00000000000E+00 0. -1.
         -4    1    5    5    0  503 -0.57199162251E+02  0.10975380913E+03 -0.46789760652E+03  0.48398947609E+03  0.00000000000E+00 0.  1.
         -3    1    6    6    0  502  0.28087217130E+03  0.85598375867E+02  0.54506967917E+02  0.29864237495E+03  0.00000000000E+00 0.  1.
<mgrwt>
<rscale>  0 0.17981981E+04</rscale>
<asrwt>0</asrwt>
<pdfrwt beam="1">  1        2 0.27951049E+00 0.17981981E+04</pdfrwt>
<pdfrwt beam="2">  1       -2 0.68452649E-01 0.17981981E+04</pdfrwt>
<totfact> 0.15562210E+01</totfact>
</mgrwt>
</event>
<event>
12    1  0.1489025E-007  0.1516826E+04  0.7818608E-02  0.8873340E-01
          2   -1    0    0  501    0  0.00000000000E+00  0.00000000000E+00  0.63846470065E+03  0.63846470065E+03  0.00000000000E+00 0.  1.
         -2   -1    0    0    0  501 -0.00000000000E+00 -0.00000000000E+00 -0.90089603329E+03  0.90089603329E+03  0.00000000000E+00 0. -1.
         23    2    1    2    0    0  0.15522925663E+03  0.13582462506E+03 -0.52153991413E+03  0.56818269955E+03  0.91012346120E+02 0.  0.
        254    2    1    2    0    0 -0.15522925663E+03 -0.13582462506E+03  0.25910858150E+03  0.97117803440E+03  0.91296498651E+03 0.  0.
        -24    2    4    4    0    0 -0.72267501743E+02  0.14613777620E+03  0.53164482266E+03  0.56151658766E+03  0.77947542033E+02 0.  0.
         24    2    4    4    0    0 -0.82961754884E+02 -0.28196240126E+03 -0.27253624116E+03  0.40966144674E+03  0.84622985647E+02 0.  0.
         11    1    3    3    0    0  0.50845872504E+02  0.44920399405E+01 -0.71173374940E+02  0.87584990003E+02  0.00000000000E+00 0.  1.
        -11    1    3    3    0    0  0.10438338412E+03  0.13133258512E+03 -0.45036653919E+03  0.48059770954E+03  0.00000000000E+00 0. -1.
          4    1    6    6  502    0 -0.12298555215E+02 -0.64426573393E+02 -0.19186203592E+02  0.68338482773E+02  0.00000000000E+00 0. -1.
          1    1    5    5  503    0  0.56452272155E+01  0.29011023773E+02  0.37548568243E+02  0.47784966964E+02  0.00000000000E+00 0. -1.
         -2    1    5    5    0  503 -0.77912728958E+02  0.11712675243E+03  0.49409625442E+03  0.51373162069E+03  0.00000000000E+00 0.  1.
         -3    1    6    6    0  502 -0.70663199669E+02 -0.21753582786E+03 -0.25335003757E+03  0.34132296396E+03  0.00000000000E+00 0.  1.
<mgrwt>
<rscale>  0 0.15168260E+04</rscale>
<asrwt>0</asrwt>
<pdfrwt beam="1">  1        2 0.98225339E-01 0.15168260E+04</pdfrwt>
<pdfrwt beam="2">  1       -2 0.13859939E+00 0.15168260E+04</pdfrwt>
<totfact> 0.16345131E+01</totfact>
</mgrwt>
</event>
<event>
12    1  0.1489025E-007  0.1609817E+04  0.7818608E-02  0.8814540E-01
          3   -1    0    0  501    0  0.00000000000E+00  0.00000000000E+00  0.71979210350E+03  0.71979210350E+03  0.00000000000E+00 0. -1.
         -3   -1    0    0    0  501 -0.00000000000E+00 -0.00000000000E+00 -0.90008956796E+03  0.90008956796E+03  0.00000000000E+00 0.  1.
         23    2    1    2    0    0  0.13144601716E+03  0.31299181274E+02 -0.59899125534E+03  0.62069203951E+03  0.90611201099E+02 0.  0.
        254    2    1    2    0    0 -0.13144601716E+03 -0.31299181274E+02  0.41869379088E+03  0.99918963195E+03  0.89711634468E+03 0.  0.
        -24    2    4    4    0    0 -0.34285956441E+03 -0.36230201411E+03  0.20109394734E+03  0.54312374907E+03  0.75691484387E+02 0.  0.
         24    2    4    4    0    0  0.21141354726E+03  0.33100283284E+03  0.21759984354E+03  0.45606588288E+03  0.79923928257E+02 0.  0.
         11    1    3    3    0    0  0.60747723478E+01  0.22052876330E+02 -0.28653276294E+02  0.36663912174E+02  0.00000000000E+00 0. -1.
        -11    1    3    3    0    0  0.12537124481E+03  0.92463049440E+01 -0.57033797905E+03  0.58402812734E+03  0.00000000000E+00 0.  1.
          4    1    6    6  502    0  0.87744325998E+02  0.94833552952E+02  0.38179925930E+02  0.13472258999E+03  0.00000000000E+00 0. -1.
          3    1    5    5  503    0 -0.24893419740E+03 -0.21659201168E+03  0.14944005768E+03  0.36223288779E+03  0.00000000000E+00 0. -1.
         -4    1    5    5    0  503 -0.93925367013E+02 -0.14571000243E+03  0.51653889657E+02  0.18089086128E+03  0.00000000000E+00 0.  1.
         -3    1    6    6    0  502  0.12366922126E+03  0.23616927989E+03  0.17941991761E+03  0.32134329288E+03  0.00000000000E+00 0.  1.
<mgrwt>
<rscale>  0 0.16098166E+04</rscale>
<asrwt>0</asrwt>
<pdfrwt beam="1">  1        3 0.11073725E+00 0.16098166E+04</pdfrwt>
<pdfrwt beam="2">  1       -3 0.13847532E+00 0.16098166E+04</pdfrwt>
<totfact> 0.68287313E-01</totfact>
</mgrwt>
</event>
<event>
12    1  0.1489025E-007  0.2171573E+04  0.7818608E-02  0.8530354E-01
         -1   -1    0    0    0  501 -0.00000000000E+00  0.00000000000E+00  0.44335899543E+03  0.44335899543E+03  0.00000000000E+00 0.  1.
          1   -1    0    0  501    0  0.00000000000E+00 -0.00000000000E+00 -0.26590909396E+04  0.26590909396E+04  0.00000000000E+00 0. -1.
         23    2    1    2    0    0 -0.72257915193E+03 -0.52992120285E+03 -0.95243280919E+03  0.13108525757E+04  0.90934630956E+02 0.  0.
        254    2    1    2    0    0  0.72257915193E+03  0.52992120285E+03 -0.12632991350E+04  0.17915973594E+04  0.90053277654E+03 0.  0.
        -24    2    4    4    0    0  0.84940262788E+03  0.28758363868E+03 -0.11984268483E+04  0.14989594247E+04  0.80394482226E+02 0.  0.
         24    2    4    4    0    0 -0.12682347596E+03  0.24233756417E+03 -0.64872286766E+02  0.29263793470E+03  0.81344072784E+02 0.  0.
         11    1    3    3    0    0 -0.36813636623E+03 -0.23215313030E+03 -0.41258505758E+03  0.59970483555E+03  0.00000000000E+00 0.  1.
        -11    1    3    3    0    0 -0.35444278570E+03 -0.29776807255E+03 -0.53984775161E+03  0.71114774012E+03  0.00000000000E+00 0. -1.
          2    1    6    6  502    0 -0.93816061109E+02  0.22957898410E+03 -0.67860642343E+02  0.25712454189E+03  0.00000000000E+00 0. -1.
          3    1    5    5  503    0  0.78653501102E+03  0.24978402160E+03 -0.11244093485E+04  0.13947493553E+04  0.00000000000E+00 0. -1.
         -4    1    5    5    0  503  0.62867616861E+02  0.37799617086E+02 -0.74017499765E+02  0.10421006944E+03  0.00000000000E+00 0.  1.
         -1    1    6    6    0  502 -0.33007414846E+02  0.12758580069E+02  0.29883555774E+01  0.35513392815E+02  0.00000000000E+00 0.  1.
<mgrwt>
<rscale>  0 0.21715726E+04</rscale>
<asrwt>0</asrwt>
<pdfrwt beam="1">  1        1 0.40909092E+00 0.21715726E+04</pdfrwt>
<pdfrwt beam="2">  1       -1 0.68209075E-01 0.21715726E+04</pdfrwt>
<totfact> 0.20863105E+00</totfact>
</mgrwt>
</event>
<event>
12    1  0.1489025E-007  0.1536327E+04  0.7818608E-02  0.8860649E-01
         -2   -1    0    0    0  501 -0.00000000000E+00  0.00000000000E+00  0.30792273768E+03  0.30792273768E+03  0.00000000000E+00 0.  1.
          2   -1    0    0  501    0  0.00000000000E+00 -0.00000000000E+00 -0.19163088303E+04  0.19163088303E+04  0.00000000000E+00 0. -1.
         23    2    1    2    0    0 -0.35831314583E+03  0.10118631412E+03 -0.63398138418E+02  0.38867310305E+03  0.91763154043E+02 0.  0.
        254    2    1    2    0    0  0.35831314583E+03 -0.10118631412E+03 -0.15449879542E+04  0.18355584649E+04  0.91850972716E+03 0.  0.
        -24    2    4    4    0    0 -0.64159510775E+02 -0.29769461228E+03 -0.12531378151E+03  0.33948952615E+03  0.82529204100E+02 0.  0.
         24    2    4    4    0    0  0.42247265660E+03  0.19650829816E+03 -0.14196741727E+04  0.14960689387E+04  0.75158872587E+02 0.  0.
         13    1    3    3    0    0 -0.14674147199E+03  0.11481849762E+01 -0.46915233437E+02  0.15406302950E+03  0.00000000000E+00 0. -1.
        -13    1    3    3    0    0 -0.21157167383E+03  0.10003812914E+03 -0.16482904982E+02  0.23461007354E+03  0.00000000000E+00 0.  1.
          4    1    6    6  502    0  0.20927113613E+02 -0.49055393335E+01 -0.45318384922E+02  0.50157396386E+02  0.00000000000E+00 0. -1.
          1    1    5    5  503    0 -0.20498881031E+01 -0.32692886158E+01  0.91326908833E+01  0.99144506685E+01  0.00000000000E+00 0. -1.
         -2    1    5    5    0  503 -0.62109622672E+02 -0.29442532366E+03 -0.13444647239E+03  0.32957507548E+03  0.00000000000E+00 0.  1.
         -3    1    6    6    0  502  0.40154554299E+03  0.20141383749E+03 -0.13743557877E+04  0.14459115424E+04  0.00000000000E+00 0.  1.
<mgrwt>
<rscale>  0 0.15363269E+04</rscale>
<asrwt>0</asrwt>
<pdfrwt beam="1">  1        2 0.29481674E+00 0.15363269E+04</pdfrwt>
<pdfrwt beam="2">  1       -2 0.47372730E-01 0.15363269E+04</pdfrwt>
<totfact> 0.30265510E+01</totfact>
</mgrwt>
</event>
<event>
12    1  0.1489025E-007  0.1418462E+04  0.7818608E-02  0.8940562E-01
          2   -1    0    0  501    0  0.00000000000E+00  0.00000000000E+00  0.26305453425E+04  0.26305453425E+04  0.00000000000E+00 0. -1.
         -2   -1    0    0    0  501 -0.00000000000E+00 -0.00000000000E+00 -0.19121828426E+03  0.19121828426E+03  0.00000000000E+00 0.  1.
         23    2    1    2    0    0 -0.42377522986E+03  0.10925608839E+02  0.85192790039E+03  0.95684240126E+03  0.10030662500E+03 0.  0.
        254    2    1    2    0    0  0.42377522986E+03 -0.10925608839E+02  0.15873991579E+04  0.18649212255E+04  0.88226428953E+03 0.  0.
        -24    2    4    4    0    0  0.38980203251E+03 -0.36108786136E+03  0.12908754247E+04  0.13982373391E+04  0.79863797935E+02 0.  0.
         24    2    4    4    0    0  0.33973197345E+02  0.35016225252E+03  0.29652373319E+03  0.46668388642E+03  0.78100859578E+02 0.  0.
         11    1    3    3    0    0 -0.38341944465E+03 -0.15317703577E+02  0.79126196975E+03  0.87939786636E+03  0.00000000000E+00 0. -1.
        -11    1    3    3    0    0 -0.40355785211E+02  0.26243312416E+02  0.60665930642E+02  0.77444534908E+02  0.00000000000E+00 0.  1.
          2    1    6    6  502    0  0.24608566175E+02  0.72150706325E+02  0.10159186636E+03  0.12701265001E+03  0.00000000000E+00 0. -1.
          1    1    5    5  503    0  0.35919927337E+02 -0.60486100884E+02  0.12738815755E+03  0.14552165565E+03  0.00000000000E+00 0. -1.
         -2    1    5    5    0  503  0.35388210518E+03 -0.30060176048E+03  0.11634872671E+04  0.12527156834E+04  0.00000000000E+00 0.  1.
         -1    1    6    6    0  502  0.93646311699E+01  0.27801154620E+03  0.19493186684E+03  0.33967123641E+03  0.00000000000E+00 0.  1.
<mgrwt>
<rscale>  0 0.14184617E+04</rscale>
<asrwt>0</asrwt>
<pdfrwt beam="1">  1        2 0.40469926E+00 0.14184617E+04</pdfrwt>
<pdfrwt beam="2">  1       -2 0.29418199E-01 0.14184617E+04</pdfrwt>
<totfact> 0.30326023E+01</totfact>
</mgrwt>
</event>
<event>
12    1  0.1489025E-007  0.1905832E+04  0.7818608E-02  0.8651959E-01
         -1   -1    0    0    0  501 -0.00000000000E+00  0.00000000000E+00  0.67281493912E+03  0.67281493912E+03  0.00000000000E+00 0.  1.
          1   -1    0    0  501    0  0.00000000000E+00 -0.00000000000E+00 -0.13496265431E+04  0.13496265431E+04  0.00000000000E+00 0. -1.
         23    2    1    2    0    0 -0.45414146913E+03 -0.41256559803E+03  0.15494633880E+03  0.63914362333E+03  0.89673611881E+02 0.  0.
        254    2    1    2    0    0  0.45414146913E+03  0.41256559803E+03 -0.83175794282E+03  0.13832978589E+04  0.91936763291E+03 0.  0.
        -24    2    4    4    0    0 -0.13455769102E+03  0.22547351950E+03 -0.69246269306E+03  0.74500116347E+03  0.81105314747E+02 0.  0.
         24    2    4    4    0    0  0.58869916015E+03  0.18709207853E+03 -0.13929524976E+03  0.63829669548E+03  0.80307894012E+02 0.  0.
         11    1    3    3    0    0 -0.64294810583E+02 -0.29393915964E+02  0.37563962548E+02  0.80055457315E+02  0.00000000000E+00 0. -1.
        -11    1    3    3    0    0 -0.38984665855E+03 -0.38317168207E+03  0.11738237625E+03  0.55908816601E+03  0.00000000000E+00 0.  1.
          4    1    6    6  502    0  0.54140641894E+03  0.19328355375E+03 -0.13419476490E+03  0.59032844887E+03  0.00000000000E+00 0. -1.
          3    1    5    5  503    0 -0.56798024038E+02  0.14896137738E+03 -0.48615371369E+03  0.51162578201E+03  0.00000000000E+00 0. -1.
         -4    1    5    5    0  503 -0.77759666977E+02  0.76512142120E+02 -0.20630897937E+03  0.23337538145E+03  0.00000000000E+00 0.  1.
         -1    1    6    6    0  502  0.47292741212E+02 -0.61914752200E+01 -0.51004848551E+01  0.47968246606E+02  0.00000000000E+00 0.  1.
<mgrwt>
<rscale>  0 0.19058320E+04</rscale>
<asrwt>0</asrwt>
<pdfrwt beam="1">  1        1 0.20763485E+00 0.19058320E+04</pdfrwt>
<pdfrwt beam="2">  1       -1 0.10350999E+00 0.19058320E+04</pdfrwt>
<totfact> 0.68634930E+00</totfact>
</mgrwt>
</event>
<event>
12    1  0.1515322E-007  0.1957578E+04  0.7818608E-02  0.8626715E-01
          1   -1    0    0  501    0  0.00000000000E+00  0.00000000000E+00  0.21650393118E+04  0.21650393118E+04  0.00000000000E+00 0. -1.
         -1   -1    0    0    0  501 -0.00000000000E+00 -0.00000000000E+00 -0.44249911532E+03  0.44249911532E+03  0.00000000000E+00 0.  1.
         23    2    1    2    0    0 -0.34843609051E+03 -0.36548440801E+03 -0.82735384946E+02  0.51977449776E+03  0.91289774542E+02 0.  0.
        254    2    1    2    0    0  0.34843609051E+03  0.36548440801E+03  0.18052755815E+04  0.20877639294E+04  0.91910376898E+03 0.  0.
        -24    2    4    4    0    0  0.36256463276E+03 -0.18026371475E+03  0.38499861202E+03  0.56405933297E+03  0.77400775628E+02 0.  0.
         24    2    4    4    0    0 -0.14128542257E+02  0.54574812276E+03  0.14202769694E+04  0.15237045964E+04  0.80301917816E+02 0.  0.
         13    1    3    3    0    0 -0.33395014975E+03 -0.32835581874E+03 -0.55751547486E+02  0.47164444369E+03  0.00000000000E+00 0.  1.
        -13    1    3    3    0    0 -0.14485940756E+02 -0.37128589264E+02 -0.26983837460E+02  0.48130054066E+02  0.00000000000E+00 0. -1.
          4    1    6    6  502    0  0.31984702563E+02  0.24891707510E+03  0.61593970219E+03  0.66510484001E+03  0.00000000000E+00 0. -1.
          3    1    5    5  503    0  0.14300019539E+02 -0.26543990766E+02  0.17129570619E+02  0.34677026894E+02  0.00000000000E+00 0. -1.
         -4    1    5    5    0  503  0.34826461322E+03 -0.15371972399E+03  0.36786904140E+03  0.52938230608E+03  0.00000000000E+00 0.  1.
         -3    1    6    6    0  502 -0.46113244820E+02  0.29683104766E+03  0.80433726724E+03  0.85859975639E+03  0.00000000000E+00 0.  1.
<mgrwt>
<rscale>  0 0.19575781E+04</rscale>
<asrwt>0</asrwt>
<pdfrwt beam="1">  1        1 0.33308297E+00 0.19575781E+04</pdfrwt>
<pdfrwt beam="2">  1       -1 0.68076788E-01 0.19575781E+04</pdfrwt>
<totfact> 0.46812040E+00</totfact>
</mgrwt>
</event>
<event>
12    1  0.1677249E-007  0.1570163E+04  0.7818608E-02  0.8839091E-01
         -2   -1    0    0    0  501 -0.00000000000E+00  0.00000000000E+00  0.30497699628E+03  0.30497699628E+03  0.00000000000E+00 0. -1.
          2   -1    0    0  501    0  0.00000000000E+00 -0.00000000000E+00 -0.20209821360E+04  0.20209821360E+04  0.00000000000E+00 0.  1.
         23    2    1    2    0    0 -0.95700546018E+02 -0.34050367162E+03 -0.10293843751E+04  0.10915403178E+04  0.82016637926E+02 0.  0.
        254    2    1    2    0    0  0.95700546018E+02  0.34050367162E+03 -0.68662076462E+03  0.12344188144E+04  0.96293322206E+03 0.  0.
        -24    2    4    4    0    0 -0.40174033036E+03  0.22209673195E+03 -0.50177384024E+03  0.68500377892E+03  0.82042300144E+02 0.  0.
         24    2    4    4    0    0  0.49744087638E+03  0.11840693967E+03 -0.18484692439E+03  0.54941503552E+03  0.78872472662E+02 0.  0.
         11    1    3    3    0    0 -0.33208570330E+02 -0.75101394998E+02 -0.15196424287E+03  0.17273146727E+03  0.00000000000E+00 0. -1.
        -11    1    3    3    0    0 -0.62491975688E+02 -0.26540227662E+03 -0.87742013223E+03  0.91880885058E+03  0.00000000000E+00 0.  1.
          4    1    6    6  502    0  0.85930281926E+01  0.15488688451E+02 -0.84225871431E+01  0.19613250053E+02  0.00000000000E+00 0. -1.
          3    1    5    5  503    0 -0.73388184052E+01  0.84469862922E+01 -0.38782704176E+02  0.40364687243E+02  0.00000000000E+00 0. -1.
         -4    1    5    5    0  503 -0.39440151196E+03  0.21364974566E+03 -0.46299113606E+03  0.64463909168E+03  0.00000000000E+00 0.  1.
         -3    1    6    6    0  502  0.48884784819E+03  0.10291825122E+03 -0.17642433725E+03  0.52980178547E+03  0.00000000000E+00 0.  1.
<mgrwt>
<rscale>  0 0.15701631E+04</rscale>
<asrwt>0</asrwt>
<pdfrwt beam="1">  1        2 0.31092032E+00 0.15701631E+04</pdfrwt>
<pdfrwt beam="2">  1       -2 0.46919539E-01 0.15701631E+04</pdfrwt>
<totfact> 0.26924318E+01</totfact>
</mgrwt>
</event>
<event>
12    1  0.1489025E-007  0.3342542E+04  0.7818608E-02  0.8152154E-01
          2   -1    0    0  501    0  0.00000000000E+00  0.00000000000E+00  0.28499918772E+04  0.28499918772E+04  0.00000000000E+00 0.  1.
         -2   -1    0    0    0  501 -0.00000000000E+00 -0.00000000000E+00 -0.98005444474E+03  0.98005444474E+03  0.00000000000E+00 0. -1.
         23    2    1    2    0    0  0.98981373658E+03  0.31629503997E+03 -0.44809329973E+03  0.11353784849E+04  0.92319625113E+02 0.  0.
        254    2    1    2    0    0 -0.98981373658E+03 -0.31629503997E+03  0.23180307322E+04  0.26946678371E+04  0.89899638010E+03 0.  0.
        -24    2    4    4    0    0 -0.99639783203E+03  0.31707132726E+02  0.15067708713E+04  0.18082731420E+04  0.75361234092E+02 0.  0.
         24    2    4    4    0    0  0.65840954494E+01 -0.34800217270E+03  0.81125986096E+03  0.88639469513E+03  0.80025814813E+02 0.  0.
         11    1    3    3    0    0  0.89762563527E+03  0.28911182354E+03 -0.37599154436E+03  0.10152275947E+04  0.00000000000E+00 0.  1.
        -11    1    3    3    0    0  0.92188101315E+02  0.27183216437E+02 -0.72101755377E+02  0.12015089017E+03  0.00000000000E+00 0. -1.
          2    1    6    6  502    0  0.63389705518E+01 -0.25988553649E+03  0.50886716254E+03  0.57142494147E+03  0.00000000000E+00 0. -1.
          3    1    5    5  503    0 -0.42764470216E+03  0.44808409913E+02  0.68585101413E+03  0.80949329735E+03  0.00000000000E+00 0. -1.
         -4    1    5    5    0  503 -0.56875312988E+03 -0.13101277187E+02  0.82091985714E+03  0.99877984464E+03  0.00000000000E+00 0.  1.
         -1    1    6    6    0  502  0.24512489758E+00 -0.88116636210E+02  0.30239269842E+03  0.31496975366E+03  0.00000000000E+00 0.  1.
<mgrwt>
<rscale>  0 0.33425423E+04</rscale>
<asrwt>0</asrwt>
<pdfrwt beam="1">  1        2 0.43846029E+00 0.33425423E+04</pdfrwt>
<pdfrwt beam="2">  1       -2 0.15077761E+00 0.33425423E+04</pdfrwt>
<totfact> 0.53006584E-01</totfact>
</mgrwt>
</event>
<event>
12    1  0.1489025E-007  0.1437357E+04  0.7818608E-02  0.8927213E-01
         -4   -1    0    0    0  501 -0.00000000000E+00  0.00000000000E+00  0.88477764913E+03  0.88477764913E+03  0.00000000000E+00 0.  1.
          4   -1    0    0  501    0  0.00000000000E+00 -0.00000000000E+00 -0.58376144706E+03  0.58376144706E+03  0.00000000000E+00 0. -1.
         23    2    1    2    0    0 -0.12436364750E+03 -0.34943926542E+03 -0.13911486079E+03  0.40671085093E+03  0.92123041255E+02 0.  0.
        254    2    1    2    0    0  0.12436364750E+03  0.34943926542E+03  0.44013106286E+03  0.10618282453E+04  0.89229465589E+03 0.  0.
        -24    2    4    4    0    0 -0.16875819604E+03  0.34215450467E+03 -0.13413612640E+03  0.41215229166E+03  0.79548584631E+02 0.  0.
         24    2    4    4    0    0  0.29312184354E+03  0.72847607524E+01  0.57426718926E+03  0.64967595361E+03  0.79514509001E+02 0.  0.
         11    1    3    3    0    0 -0.10508940671E+03 -0.33740753006E+03 -0.11069662075E+03  0.37032602743E+03  0.00000000000E+00 0. -1.
        -11    1    3    3    0    0 -0.19274240794E+02 -0.12031735357E+02 -0.28418240040E+02  0.36384823496E+02  0.00000000000E+00 0.  1.
          2    1    6    6  502    0  0.12741705317E+03  0.37236105653E+02  0.29638669470E+03  0.32475637915E+03  0.00000000000E+00 0. -1.
          3    1    5    5  503    0 -0.10460795331E+03  0.15826045578E+03 -0.99898957222E+02  0.21440381856E+03  0.00000000000E+00 0. -1.
         -4    1    5    5    0  503 -0.64150242725E+02  0.18389404888E+03 -0.34237169182E+02  0.19774847309E+03  0.00000000000E+00 0.  1.
         -1    1    6    6    0  502  0.16570479036E+03 -0.29951344901E+02  0.27788049456E+03  0.32491957446E+03  0.00000000000E+00 0.  1.
<mgrwt>
<rscale>  0 0.14373574E+04</rscale>
<asrwt>0</asrwt>
<pdfrwt beam="1">  1        4 0.89809454E-01 0.14373574E+04</pdfrwt>
<pdfrwt beam="2">  1       -4 0.13611964E+00 0.14373574E+04</pdfrwt>
<totfact> 0.79332616E-01</totfact>
</mgrwt>
</event>
<event>
12    1  0.1489025E-007  0.1722099E+04  0.7818608E-02  0.8748860E-01
          2   -1    0    0  501    0  0.00000000000E+00  0.00000000000E+00  0.60140495241E+03  0.60140495241E+03  0.00000000000E+00 0.  1.
         -2   -1    0    0    0  501 -0.00000000000E+00 -0.00000000000E+00 -0.12327906830E+04  0.12327906830E+04  0.00000000000E+00 0. -1.
         23    2    1    2    0    0  0.48003304709E+03  0.75088710992E+01  0.19298334740E+03  0.52580583034E+03  0.93493793404E+02 0.  0.
        254    2    1    2    0    0 -0.48003304709E+03 -0.75088710992E+01 -0.82436907796E+03  0.13083898050E+04  0.89543921947E+03 0.  0.
        -24    2    4    4    0    0 -0.55377866534E+03 -0.34621531747E+03 -0.48348947396E+03  0.81649746525E+03  0.79813426829E+02 0.  0.
         24    2    4    4    0    0  0.73745618247E+02  0.33870644637E+03 -0.34087960400E+03  0.49189233977E+03  0.74824437725E+02 0.  0.
         11    1    3    3    0    0  0.45261655063E+03  0.28776314920E+02  0.17081953281E+03  0.48463298587E+03  0.00000000000E+00 0.  1.
        -11    1    3    3    0    0  0.27416496464E+02 -0.21267443821E+02  0.22163814591E+02  0.41172844476E+02  0.00000000000E+00 0. -1.
          4    1    6    6  502    0  0.77186588221E+02  0.22769378765E+03 -0.20166084953E+03  0.31379822907E+03  0.00000000000E+00 0. -1.
          3    1    5    5  503    0 -0.52671082282E+03 -0.31936067455E+03 -0.43169119508E+03  0.75217871495E+03  0.00000000000E+00 0. -1.
         -4    1    5    5    0  503 -0.27067842521E+02 -0.26854642926E+02 -0.51798278882E+02  0.64318750303E+02  0.00000000000E+00 0.  1.
         -3    1    6    6    0  502 -0.34409699737E+01  0.11101265873E+03 -0.13921875447E+03  0.17809411070E+03  0.00000000000E+00 0.  1.
<mgrwt>
<rscale>  0 0.17220992E+04</rscale>
<asrwt>0</asrwt>
<pdfrwt beam="1">  1        2 0.92523839E-01 0.17220992E+04</pdfrwt>
<pdfrwt beam="2">  1       -2 0.18966010E+00 0.17220992E+04</pdfrwt>
<totfact> 0.73134685E+00</totfact>
</mgrwt>
</event>
<event>
12    1  0.1489025E-007  0.2161107E+04  0.7818608E-02  0.8534793E-01
         -1   -1    0    0    0  501 -0.00000000000E+00  0.00000000000E+00  0.81753576909E+03  0.81753576909E+03  0.00000000000E+00 0.  1.
          1   -1    0    0  501    0  0.00000000000E+00 -0.00000000000E+00 -0.14281892658E+04  0.14281892658E+04  0.00000000000E+00 0. -1.
         23    2    1    2    0    0 -0.14973543358E+03 -0.12013674917E+03  0.64991586886E+03  0.68371359620E+03  0.90664802797E+02 0.  0.
        254    2    1    2    0    0  0.14973543358E+03  0.12013674917E+03 -0.12605693656E+04  0.15620114387E+04  0.90221453692E+03 0.  0.
        -24    2    4    4    0    0 -0.35156397579E+03 -0.63174329094E+02 -0.65152827920E+03  0.74727722843E+03  0.79661362064E+02 0.  0.
         24    2    4    4    0    0  0.50129940936E+03  0.18331107827E+03 -0.60904108636E+03  0.81473421026E+03  0.89200556294E+02 0.  0.
         13    1    3    3    0    0 -0.34568777029E+02 -0.21956563635E+02  0.48150961386E+02  0.63210806942E+02  0.00000000000E+00 0. -1.
        -13    1    3    3    0    0 -0.11516665655E+03 -0.98180185539E+02  0.60176490747E+03  0.62050278926E+03  0.00000000000E+00 0.  1.
          4    1    6    6  502    0  0.49145280117E+03  0.18192810569E+03 -0.56932512203E+03  0.77379246959E+03  0.00000000000E+00 0. -1.
          3    1    5    5  503    0 -0.28519547877E+03 -0.80466004609E+02 -0.55011096669E+03  0.62484663293E+03  0.00000000000E+00 0. -1.
         -4    1    5    5    0  503 -0.66368497018E+02  0.17291675515E+02 -0.10141731251E+03  0.12243059550E+03  0.00000000000E+00 0.  1.
         -3    1    6    6    0  502  0.98466081906E+01  0.13829725735E+01 -0.39715964329E+02  0.40941740663E+02  0.00000000000E+00 0.  1.
<mgrwt>
<rscale>  0 0.21611069E+04</rscale>
<asrwt>0</asrwt>
<pdfrwt beam="1">  1        1 0.21972142E+00 0.21611069E+04</pdfrwt>
<pdfrwt beam="2">  1       -1 0.12577474E+00 0.21611069E+04</pdfrwt>
<totfact> 0.37007548E+00</totfact>
</mgrwt>
</event>
<event>
12    1  0.1489025E-007  0.1816988E+04  0.7818608E-02  0.8697317E-01
          2   -1    0    0  501    0  0.00000000000E+00  0.00000000000E+00  0.13448373948E+04  0.13448373948E+04  0.00000000000E+00 0.  1.
         -2   -1    0    0    0  501 -0.00000000000E+00 -0.00000000000E+00 -0.61372562245E+03  0.61372562245E+03  0.00000000000E+00 0. -1.
         23    2    1    2    0    0  0.21208767463E+03  0.19320943561E+03  0.94103674166E+03  0.98854086057E+03  0.96704788573E+02 0.  0.
        254    2    1    2    0    0 -0.21208767463E+03 -0.19320943561E+03 -0.20992496927E+03  0.97002215672E+03  0.90253167483E+03 0.  0.
        -24    2    4    4    0    0 -0.10233798723E+03  0.33230453598E+03 -0.23241484429E+03  0.42694513576E+03  0.85826108161E+02 0.  0.
         24    2    4    4    0    0 -0.10974968740E+03 -0.52551397159E+03  0.22489875017E+02  0.54307702096E+03  0.78847498369E+02 0.  0.
         13    1    3    3    0    0  0.18918732202E+03  0.14274289322E+03  0.84556385044E+03  0.87814896319E+03  0.00000000000E+00 0.  1.
        -13    1    3    3    0    0  0.22900352610E+02  0.50466542393E+02  0.95472891222E+02  0.11039189739E+03  0.00000000000E+00 0. -1.
          2    1    6    6  502    0  0.28998789452E+01 -0.11885145184E+03  0.23046119852E+02  0.12109996095E+03  0.00000000000E+00 0. -1.
          3    1    5    5  503    0 -0.51313654083E+02  0.51828788692E+02 -0.42782150430E+02  0.84555465986E+02  0.00000000000E+00 0. -1.
         -4    1    5    5    0  503 -0.51024333151E+02  0.28047574729E+03 -0.18963269386E+03  0.34238966977E+03  0.00000000000E+00 0.  1.
         -1    1    6    6    0  502 -0.11264956634E+03 -0.40666251975E+03 -0.55624483466E+00  0.42197706001E+03  0.00000000000E+00 0.  1.
<mgrwt>
<rscale>  0 0.18169878E+04</rscale>
<asrwt>0</asrwt>
<pdfrwt beam="1">  1        2 0.20689806E+00 0.18169878E+04</pdfrwt>
<pdfrwt beam="2">  1       -2 0.94419327E-01 0.18169878E+04</pdfrwt>
<totfact> 0.13879141E+01</totfact>
</mgrwt>
</event>
<event>
12    1  0.1489025E-007  0.1417412E+04  0.7818608E-02  0.8941311E-01
          1   -1    0    0  501    0  0.00000000000E+00  0.00000000000E+00  0.87330499791E+03  0.87330499791E+03  0.00000000000E+00 0. -1.
         -1   -1    0    0    0  501 -0.00000000000E+00 -0.00000000000E+00 -0.57512998101E+03  0.57512998101E+03  0.00000000000E+00 0.  1.
         23    2    1    2    0    0  0.36239916635E+03  0.49406107057E+02 -0.94586347701E+02  0.38861119160E+03  0.91093149495E+02 0.  0.
        254    2    1    2    0    0 -0.36239916635E+03 -0.49406107057E+02  0.39276136460E+03  0.10598237873E+04  0.91388776743E+03 0.  0.
        -24    2    4    4    0    0 -0.61045069634E+03 -0.24053448986E+03  0.26659098200E+03  0.71255045021E+03  0.78425116751E+02 0.  0.
         24    2    4    4    0    0  0.24805152999E+03  0.19112838280E+03  0.12617038260E+03  0.34727333711E+03  0.81364519160E+02 0.  0.
         13    1    3    3    0    0  0.17888522614E+02 -0.14044615244E+02 -0.20367714046E+02  0.30530218377E+02  0.00000000000E+00 0. -1.
        -13    1    3    3    0    0  0.34451064373E+03  0.63450722301E+02 -0.74218633655E+02  0.35808097323E+03  0.00000000000E+00 0.  1.
          4    1    6    6  502    0  0.61101764974E+02  0.36767614921E+02 -0.52495309561E+01  0.71504131106E+02  0.00000000000E+00 0. -1.
          3    1    5    5  503    0 -0.56164386159E+02 -0.13762520512E+02  0.47561463254E+02  0.74872812357E+02  0.00000000000E+00 0. -1.
         -4    1    5    5    0  503 -0.55428631018E+03 -0.22677196935E+03  0.21902951875E+03  0.63767763785E+03  0.00000000000E+00 0.  1.
         -3    1    6    6    0  502  0.18694976502E+03  0.15436076788E+03  0.13141991356E+03  0.27576920600E+03  0.00000000000E+00 0.  1.
<mgrwt>
<rscale>  0 0.14174116E+04</rscale>
<asrwt>0</asrwt>
<pdfrwt beam="1">  1        1 0.13435461E+00 0.14174116E+04</pdfrwt>
<pdfrwt beam="2">  1       -1 0.88481536E-01 0.14174116E+04</pdfrwt>
<totfact> 0.23388784E+01</totfact>
</mgrwt>
</event>
<event>
12    1  0.1489025E-007  0.1996510E+04  0.7818608E-02  0.8608254E-01
         -2   -1    0    0    0  501 -0.00000000000E+00  0.00000000000E+00  0.25306455489E+03  0.25306455489E+03  0.00000000000E+00 0. -1.
          2   -1    0    0  501    0  0.00000000000E+00 -0.00000000000E+00 -0.39377806198E+04  0.39377806198E+04  0.00000000000E+00 0.  1.
         23    2    1    2    0    0  0.18337232579E+03 -0.21001626410E+03 -0.30011829161E+04  0.30154632734E+04  0.90485445608E+02 0.  0.
        254    2    1    2    0    0 -0.18337232579E+03  0.21001626410E+03 -0.68353314879E+03  0.11753819013E+04  0.91464354120E+03 0.  0.
        -24    2    4    4    0    0  0.20623033396E+02  0.54195439893E+03 -0.30846211501E+03  0.62916986464E+03  0.81030624771E+02 0.  0.
         24    2    4    4    0    0 -0.20399535919E+03 -0.33193813483E+03 -0.37507103378E+03  0.54621203670E+03  0.76630781868E+02 0.  0.
         11    1    3    3    0    0  0.10342348790E+03 -0.13499231963E+03 -0.13543274437E+04  0.13649623324E+04  0.00000000000E+00 0. -1.
        -11    1    3    3    0    0  0.79948837894E+02 -0.75023944472E+02 -0.16468554725E+04  0.16505009410E+04  0.00000000000E+00 0.  1.
          4    1    6    6  502    0 -0.18451827367E+03 -0.24251054358E+03 -0.30286622679E+03  0.42963508748E+03  0.00000000000E+00 0. -1.
          3    1    5    5  503    0  0.27667481075E+02  0.51664892992E+03 -0.30947668922E+03  0.60288259842E+03  0.00000000000E+00 0. -1.
         -4    1    5    5    0  503 -0.70444476792E+01  0.25305469008E+02  0.10145742147E+01  0.26287266226E+02  0.00000000000E+00 0.  1.
         -3    1    6    6    0  502 -0.19477085525E+02 -0.89427591246E+02 -0.72204806997E+02  0.11657694922E+03  0.00000000000E+00 0.  1.
<mgrwt>
<rscale>  0 0.19965097E+04</rscale>
<asrwt>0</asrwt>
<pdfrwt beam="1">  1        2 0.60581236E+00 0.19965097E+04</pdfrwt>
<pdfrwt beam="2">  1       -2 0.38933011E-01 0.19965097E+04</pdfrwt>
<totfact> 0.22461102E+00</totfact>
</mgrwt>
</event>
<event>
12    1  0.1489025E-007  0.1355090E+04  0.7818608E-02  0.8986984E-01
          1   -1    0    0  501    0  0.00000000000E+00  0.00000000000E+00  0.67927122947E+03  0.67927122947E+03  0.00000000000E+00 0. -1.
         -1   -1    0    0    0  501 -0.00000000000E+00 -0.00000000000E+00 -0.67582277582E+03  0.67582277582E+03  0.00000000000E+00 0.  1.
         23    2    1    2    0    0 -0.17838906409E+03 -0.28079757339E+03 -0.19216033947E+03  0.39469496052E+03  0.90490775124E+02 0.  0.
        254    2    1    2    0    0  0.17838906409E+03  0.28079757339E+03  0.19560879312E+03  0.96039904478E+03  0.87945073191E+03 0.  0.
        -24    2    4    4    0    0 -0.32636920622E+03  0.29795231363E+01 -0.27062053370E+02  0.33745664725E+03  0.81356608299E+02 0.  0.
         24    2    4    4    0    0  0.50475827031E+03  0.27781805025E+03  0.22267084649E+03  0.62294239754E+03  0.80691661775E+02 0.  0.
         11    1    3    3    0    0 -0.12316528445E+03 -0.22757961091E+03 -0.10680390844E+03  0.27994506863E+03  0.00000000000E+00 0. -1.
        -11    1    3    3    0    0 -0.55223779641E+02 -0.53217962482E+02 -0.85356431031E+02  0.11474989188E+03  0.00000000000E+00 0.  1.
          2    1    6    6  502    0  0.49689297824E+03  0.27241203903E+03  0.22932174535E+03  0.61130958909E+03  0.00000000000E+00 0. -1.
          1    1    5    5  503    0 -0.24885598966E+03 -0.32758227432E+02 -0.21431189557E+02  0.25191605932E+03  0.00000000000E+00 0. -1.
         -2    1    5    5    0  503 -0.77513216551E+02  0.35737750568E+02 -0.56308638132E+01  0.85540587928E+02  0.00000000000E+00 0.  1.
         -1    1    6    6    0  502  0.78652920697E+01  0.54060112244E+01 -0.66508988529E+01  0.11632808442E+02  0.00000000000E+00 0.  1.
<mgrwt>
<rscale>  0 0.13550896E+04</rscale>
<asrwt>0</asrwt>
<pdfrwt beam="1">  1        1 0.10450327E+00 0.13550896E+04</pdfrwt>
<pdfrwt beam="2">  1       -1 0.10397274E+00 0.13550896E+04</pdfrwt>
<totfact> 0.24313956E+01</totfact>
</mgrwt>
</event>
<event>
12    1  0.1489025E-007  0.2210868E+04  0.7818608E-02  0.8513918E-01
          2   -1    0    0  501    0  0.00000000000E+00  0.00000000000E+00  0.30770821268E+04  0.30770821268E+04  0.00000000000E+00 0. -1.
         -2   -1    0    0    0  501 -0.00000000000E+00 -0.00000000000E+00 -0.39712445156E+03  0.39712445156E+03  0.00000000000E+00 0.  1.
         23    2    1    2    0    0  0.55627566317E+03  0.88963151807E+02 -0.62391831560E+02  0.57426186534E+03  0.92341180001E+02 0.  0.
        254    2    1    2    0    0 -0.55627566317E+03 -0.88963151807E+02  0.27423495068E+04  0.28999447130E+04  0.75620200039E+03 0.  0.
        -24    2    4    4    0    0  0.85798571871E+02  0.18454294683E+03  0.41432518006E+03  0.46831615393E+03  0.78975762323E+02 0.  0.
         24    2    4    4    0    0 -0.64207423504E+03 -0.27350609863E+03  0.23280243267E+04  0.24316285591E+04  0.77815643035E+02 0.  0.
         13    1    3    3    0    0  0.39724875139E+02  0.16618467067E+02 -0.28359289498E+02  0.51560531934E+02  0.00000000000E+00 0. -1.
        -13    1    3    3    0    0  0.51655078803E+03  0.72344684739E+02 -0.34032542062E+02  0.52270133340E+03  0.00000000000E+00 0.  1.
          2    1    6    6  502    0 -0.50350389965E+02 -0.46010051249E+02  0.23648037291E+03  0.24611999788E+03  0.00000000000E+00 0. -1.
          3    1    5    5  503    0 -0.50324139525E+01  0.67718944599E+02  0.99709492634E+02  0.12063649352E+03  0.00000000000E+00 0. -1.
         -4    1    5    5    0  503  0.90830985823E+02  0.11682400223E+03  0.31461568743E+03  0.34767966041E+03  0.00000000000E+00 0.  1.
         -1    1    6    6    0  502 -0.59172384507E+03 -0.22749604738E+03  0.20915439538E+04  0.21855085612E+04  0.00000000000E+00 0.  1.
<mgrwt>
<rscale>  0 0.22108682E+04</rscale>
<asrwt>0</asrwt>
<pdfrwt beam="1">  1        2 0.47339723E+00 0.22108682E+04</pdfrwt>
<pdfrwt beam="2">  1       -2 0.61096071E-01 0.22108682E+04</pdfrwt>
<totfact> 0.35476383E+00</totfact>
</mgrwt>
</event>
<event>
12    1  0.1489025E-007  0.3023157E+04  0.7818608E-02  0.8237149E-01
          2   -1    0    0  501    0  0.00000000000E+00  0.00000000000E+00  0.14617479138E+04  0.14617479138E+04  0.00000000000E+00 0. -1.
         -2   -1    0    0    0  501 -0.00000000000E+00 -0.00000000000E+00 -0.15631075785E+04  0.15631075785E+04  0.00000000000E+00 0.  1.
         23    2    1    2    0    0  0.17266949882E+02  0.46449888363E+03 -0.13407481891E+04  0.14222310398E+04  0.95278872147E+02 0.  0.
        254    2    1    2    0    0 -0.17266949882E+02 -0.46449888363E+03  0.12393885244E+04  0.16026244525E+04  0.90347322082E+03 0.  0.
        -24    2    4    4    0    0 -0.35162931985E+03  0.69636006628E+02  0.33328928674E+03  0.49593583921E+03  0.79863984128E+02 0.  0.
         24    2    4    4    0    0  0.33436236996E+03 -0.53413489026E+03  0.90609923770E+03  0.11066886133E+04  0.81520443757E+02 0.  0.
         13    1    3    3    0    0 -0.33322868136E+02  0.19628073006E+03 -0.63781988786E+03  0.66816969992E+03  0.00000000000E+00 0.  1.
        -13    1    3    3    0    0  0.50589818018E+02  0.26821815357E+03 -0.70292830125E+03  0.75406133987E+03  0.00000000000E+00 0. -1.
          2    1    6    6  502    0  0.41341371805E+02 -0.47087131055E+02  0.55794282689E+02  0.83900589476E+02  0.00000000000E+00 0. -1.
          3    1    5    5  503    0 -0.10431428822E+03  0.31566679473E+02  0.56341306266E+02  0.12268768794E+03  0.00000000000E+00 0. -1.
         -4    1    5    5    0  503 -0.24731503163E+03  0.38069327155E+02  0.27694798047E+03  0.37324815127E+03  0.00000000000E+00 0.  1.
         -1    1    6    6    0  502  0.29302099816E+03 -0.48704775921E+03  0.85030495502E+03  0.10227880238E+04  0.00000000000E+00 0.  1.
<mgrwt>
<rscale>  0 0.30231568E+04</rscale>
<asrwt>0</asrwt>
<pdfrwt beam="1">  1        2 0.22488430E+00 0.30231568E+04</pdfrwt>
<pdfrwt beam="2">  1       -2 0.24047809E+00 0.30231568E+04</pdfrwt>
<totfact> 0.83878558E-01</totfact>
</mgrwt>
</event>
<event>
12    1  0.1489025E-007  0.1630565E+04  0.7818608E-02  0.8801988E-01
         -1   -1    0    0    0  501 -0.00000000000E+00  0.00000000000E+00  0.10861485462E+04  0.10861485462E+04  0.00000000000E+00 0.  1.
          1   -1    0    0  501    0  0.00000000000E+00 -0.00000000000E+00 -0.61196523685E+03  0.61196523685E+03  0.00000000000E+00 0. -1.
         23    2    1    2    0    0 -0.49058440568E+03 -0.20284688841E+03 -0.30843982777E+02  0.53989036140E+03  0.93329158522E+02 0.  0.
        254    2    1    2    0    0  0.49058440568E+03  0.20284688841E+03  0.50502729210E+03  0.11582234216E+04  0.89700000522E+03 0.  0.
        -24    2    4    4    0    0  0.53824871696E+03  0.75024396215E+02  0.71102268886E+03  0.89861473952E+03  0.81331695381E+02 0.  0.
         24    2    4    4    0    0 -0.47664311277E+02  0.12782249219E+03 -0.20599539677E+03  0.25960868209E+03  0.79699989014E+02 0.  0.
         11    1    3    3    0    0 -0.79610871940E+02 -0.95197140850E+01 -0.30308541722E+02  0.85715363784E+02  0.00000000000E+00 0. -1.
        -11    1    3    3    0    0 -0.41097353374E+03 -0.19332717432E+03 -0.53544105539E+00  0.45417499762E+03  0.00000000000E+00 0.  1.
          4    1    6    6  502    0 -0.32544896505E+02  0.85131333198E+02 -0.66159189710E+02  0.11262127936E+03  0.00000000000E+00 0. -1.
          3    1    5    5  503    0  0.10102126070E+03  0.45981606901E+02  0.15626225514E+03  0.19167027852E+03  0.00000000000E+00 0. -1.
         -4    1    5    5    0  503  0.43722745625E+03  0.29042789314E+02  0.55476043372E+03  0.70694446100E+03  0.00000000000E+00 0.  1.
         -3    1    6    6    0  502 -0.15119414772E+02  0.42691158993E+02 -0.13983620706E+03  0.14698740274E+03  0.00000000000E+00 0.  1.
<mgrwt>
<rscale>  0 0.16305645E+04</rscale>
<asrwt>0</asrwt>
<pdfrwt beam="1">  1        1 0.94148498E-01 0.16305645E+04</pdfrwt>
<pdfrwt beam="2">  1       -1 0.16709978E+00 0.16305645E+04</pdfrwt>
<totfact> 0.82339416E+00</totfact>
</mgrwt>
</event>
<event>
12    1  0.1489025E-007  0.1598762E+04  0.7818608E-02  0.8821309E-01
         -2   -1    0    0    0  501 -0.00000000000E+00  0.00000000000E+00  0.20810325002E+03  0.20810325002E+03  0.00000000000E+00 0.  1.
          2   -1    0    0  501    0  0.00000000000E+00 -0.00000000000E+00 -0.30706390593E+04  0.30706390593E+04  0.00000000000E+00 0. -1.
         23    2    1    2    0    0  0.41871967077E+03 -0.10402714214E+03 -0.31994345119E+03  0.54417040916E+03  0.87234243566E+02 0.  0.
        254    2    1    2    0    0 -0.41871967077E+03  0.10402714214E+03 -0.25425923581E+04  0.27345719002E+04  0.90937328349E+03 0.  0.
        -24    2    4    4    0    0  0.20224715648E+03  0.10456186275E+03 -0.21063796345E+03  0.32002942345E+03  0.78825026362E+02 0.  0.
         24    2    4    4    0    0 -0.62096682725E+03 -0.53472061278E+00 -0.23319543947E+04  0.24145424768E+04  0.80024912894E+02 0.  0.
         13    1    3    3    0    0  0.42083288489E+03 -0.10852439479E+03 -0.31278023018E+03  0.53545245696E+03  0.00000000000E+00 0. -1.
        -13    1    3    3    0    0 -0.21132141178E+01  0.44972526534E+01 -0.71632210104E+01  0.87179522010E+01  0.00000000000E+00 0.  1.
          4    1    6    6  502    0 -0.26189222842E+03  0.38065972387E+02 -0.94854697908E+03  0.98477303430E+03  0.00000000000E+00 0. -1.
          1    1    5    5  503    0 -0.19179577035E+00 -0.59539765301E+01  0.20416476513E+01  0.62972174229E+01  0.00000000000E+00 0. -1.
         -2    1    5    5    0  503  0.20243895225E+03  0.11051583928E+03 -0.21267961110E+03  0.31373220602E+03  0.00000000000E+00 0.  1.
         -3    1    6    6    0  502 -0.35907459883E+03 -0.38600693000E+02 -0.13834074156E+04  0.14297694425E+04  0.00000000000E+00 0.  1.
<mgrwt>
<rscale>  0 0.15987620E+04</rscale>
<asrwt>0</asrwt>
<pdfrwt beam="1">  1        2 0.47240600E+00 0.15987620E+04</pdfrwt>
<pdfrwt beam="2">  1       -2 0.32015886E-01 0.15987620E+04</pdfrwt>
<totfact> 0.13766657E+01</totfact>
</mgrwt>
</event>
<event>
12    1  0.1489025E-007  0.1597526E+04  0.7818608E-02  0.8822069E-01
         -1   -1    0    0    0  501 -0.00000000000E+00  0.00000000000E+00  0.26724874483E+03  0.26724874483E+03  0.00000000000E+00 0.  1.
          1   -1    0    0  501    0  0.00000000000E+00 -0.00000000000E+00 -0.23873737815E+04  0.23873737815E+04  0.00000000000E+00 0. -1.
         23    2    1    2    0    0  0.11156483705E+03 -0.26093378526E+03 -0.14897059431E+04  0.15192605024E+04  0.91627091973E+02 0.  0.
        254    2    1    2    0    0 -0.11156483705E+03  0.26093378526E+03 -0.63041909358E+03  0.11353620240E+04  0.90060287519E+03 0.  0.
        -24    2    4    4    0    0  0.18546776905E+02  0.30872196614E+02  0.22239236113E+03  0.23890023274E+03  0.79485114670E+02 0.  0.
         24    2    4    4    0    0 -0.13011161396E+03  0.23006158865E+03 -0.85281145471E+03  0.89646179125E+03  0.80616370698E+02 0.  0.
         11    1    3    3    0    0  0.70427967195E+02 -0.15668607662E+03 -0.11149356820E+04  0.11280922836E+04  0.00000000000E+00 0. -1.
        -11    1    3    3    0    0  0.41136869859E+02 -0.10424770864E+03 -0.37477026106E+03  0.39116821880E+03  0.00000000000E+00 0.  1.
          2    1    6    6  502    0 -0.12696742730E+03  0.15797219521E+03 -0.58565028275E+03  0.61972751733E+03  0.00000000000E+00 0. -1.
          3    1    5    5  503    0  0.10843991919E+02  0.28902723053E+02  0.22741199377E+03  0.22949765679E+03  0.00000000000E+00 0. -1.
         -4    1    5    5    0  503  0.77027849862E+01  0.19694735605E+01 -0.50196326376E+01  0.94025759485E+01  0.00000000000E+00 0.  1.
         -1    1    6    6    0  502 -0.31441866579E+01  0.72089393439E+02 -0.26716117196E+03  0.27673427391E+03  0.00000000000E+00 0.  1.
<mgrwt>
<rscale>  0 0.15975264E+04</rscale>
<asrwt>0</asrwt>
<pdfrwt beam="1">  1        1 0.36728829E+00 0.15975264E+04</pdfrwt>
<pdfrwt beam="2">  1       -1 0.41115190E-01 0.15975264E+04</pdfrwt>
<totfact> 0.90221253E+00</totfact>
</mgrwt>
</event>
<event>
12    1  0.1489025E-007  0.2561491E+04  0.7818608E-02  0.8381401E-01
          1   -1    0    0  501    0  0.00000000000E+00  0.00000000000E+00  0.28742623917E+04  0.28742623917E+04  0.00000000000E+00 0. -1.
         -1   -1    0    0    0  501 -0.00000000000E+00 -0.00000000000E+00 -0.57068870468E+03  0.57068870468E+03  0.00000000000E+00 0.  1.
         23    2    1    2    0    0  0.10155510485E+04  0.21466671356E+03  0.44056427357E+03  0.11314282670E+04  0.92775611898E+02 0.  0.
        254    2    1    2    0    0 -0.10155510485E+04 -0.21466671356E+03  0.18630094135E+04  0.23135228294E+04  0.89674861443E+03 0.  0.
        -24    2    4    4    0    0 -0.44684059052E+03 -0.44544821859E+03  0.14091845764E+04  0.15461179265E+04  0.81171691256E+02 0.  0.
         24    2    4    4    0    0 -0.56871045799E+03  0.23078150503E+03  0.45382483707E+03  0.76740490292E+03  0.79130362019E+02 0.  0.
         13    1    3    3    0    0  0.24268863018E+03  0.22949928196E+02  0.73496331252E+02  0.25460986063E+03  0.00000000000E+00 0. -1.
        -13    1    3    3    0    0  0.77286241833E+03  0.19171678536E+03  0.36706794232E+03  0.87681840636E+03  0.00000000000E+00 0.  1.
          2    1    6    6  502    0 -0.48080009708E+03  0.16250912391E+03  0.37316827019E+03  0.62994643151E+03  0.00000000000E+00 0. -1.
          3    1    5    5  503    0 -0.21307191319E+03 -0.26836989924E+03  0.77909299140E+03  0.85112157314E+03  0.00000000000E+00 0. -1.
         -4    1    5    5    0  503 -0.23376867733E+03 -0.17707831935E+03  0.63009158500E+03  0.69499635336E+03  0.00000000000E+00 0.  1.
         -1    1    6    6    0  502 -0.87910360916E+02  0.68272381126E+02  0.80656566881E+02  0.13745847141E+03  0.00000000000E+00 0.  1.
<mgrwt>
<rscale>  0 0.25614910E+04</rscale>
<asrwt>0</asrwt>
<pdfrwt beam="1">  1        1 0.44219421E+00 0.25614910E+04</pdfrwt>
<pdfrwt beam="2">  1       -1 0.87798264E-01 0.25614910E+04</pdfrwt>
<totfact> 0.83091506E-01</totfact>
</mgrwt>
</event>
<event>
12    1  0.1489025E-007  0.1566354E+04  0.7818608E-02  0.8841489E-01
          1   -1    0    0  501    0  0.00000000000E+00  0.00000000000E+00  0.11153114815E+04  0.11153114815E+04  0.00000000000E+00 0. -1.
         -1   -1    0    0    0  501 -0.00000000000E+00 -0.00000000000E+00 -0.54995065065E+03  0.54995065065E+03  0.00000000000E+00 0.  1.
         23    2    1    2    0    0  0.17560008105E+03  0.32472554516E+03  0.59323064811E+03  0.70472269582E+03  0.91811807599E+02 0.  0.
        254    2    1    2    0    0 -0.17560008105E+03 -0.32472554516E+03 -0.27869817288E+02  0.96053943630E+03  0.88632793809E+03 0.  0.
        -24    2    4    4    0    0 -0.17749062335E+03  0.21472630238E+03  0.21825701505E+03  0.36268100928E+03  0.79316351170E+02 0.  0.
         24    2    4    4    0    0  0.18905422993E+01 -0.53945184754E+03 -0.24612683234E+03  0.59785842702E+03  0.76448748864E+02 0.  0.
         13    1    3    3    0    0  0.12315051626E+03  0.29317575252E+03  0.47546640667E+03  0.57200207639E+03  0.00000000000E+00 0. -1.
        -13    1    3    3    0    0  0.52449564792E+02  0.31549792635E+02  0.11776424144E+03  0.13272061943E+03  0.00000000000E+00 0.  1.
          4    1    6    6  502    0  0.20113006202E+02 -0.16524752818E+03 -0.44093041058E+02  0.17220765040E+03  0.00000000000E+00 0. -1.
          1    1    5    5  503    0 -0.43875247228E+02  0.13827906110E+02  0.19028357259E+02  0.49782795087E+02  0.00000000000E+00 0. -1.
         -2    1    5    5    0  503 -0.13361537612E+03  0.20089839627E+03  0.19922865779E+03  0.31289821419E+03  0.00000000000E+00 0.  1.
         -3    1    6    6    0  502 -0.18222463902E+02 -0.37420431936E+03 -0.20203379128E+03  0.42565077662E+03  0.00000000000E+00 0.  1.
<mgrwt>
<rscale>  0 0.15663541E+04</rscale>
<asrwt>0</asrwt>
<pdfrwt beam="1">  1        1 0.17158638E+00 0.15663541E+04</pdfrwt>
<pdfrwt beam="2">  1       -1 0.84607793E-01 0.15663541E+04</pdfrwt>
<totfact> 0.16431163E+01</totfact>
</mgrwt>
</event>
<event>
12    1  0.1489025E-007  0.1461777E+04  0.7818608E-02  0.8910276E-01
         -2   -1    0    0    0  501 -0.00000000000E+00  0.00000000000E+00  0.25539008388E+03  0.25539008388E+03  0.00000000000E+00 0. -1.
          2   -1    0    0  501    0  0.00000000000E+00 -0.00000000000E+00 -0.20916946600E+04  0.20916946600E+04  0.00000000000E+00 0.  1.
         23    2    1    2    0    0  0.16216273889E+03  0.26662400764E+03 -0.63377951242E+02  0.33287778592E+03  0.96983196098E+02 0.  0.
        254    2    1    2    0    0 -0.16216273889E+03 -0.26662400764E+03 -0.17729266249E+04  0.20142069580E+04  0.90353513323E+03 0.  0.
        -24    2    4    4    0    0  0.89971539514E+02 -0.12690417577E+02 -0.16073180050E+04  0.16119522856E+04  0.81627675203E+02 0.  0.
         24    2    4    4    0    0 -0.25213427841E+03 -0.25393359006E+03 -0.16560861996E+03  0.40225467240E+03  0.79552774669E+02 0.  0.
         11    1    3    3    0    0  0.73073799713E+02  0.10773250087E+03 -0.75191035381E+02  0.15033217803E+03  0.00000000000E+00 0.  1.
        -11    1    3    3    0    0  0.89088939178E+02  0.15889150676E+03  0.11813084139E+02  0.18254560790E+03  0.00000000000E+00 0. -1.
          4    1    6    6  502    0 -0.33745369701E+02 -0.62968013318E+02 -0.74248036341E+01  0.71825123644E+02  0.00000000000E+00 0. -1.
          1    1    5    5  503    0  0.68246779163E+02 -0.15374561774E+02 -0.55304263661E+03  0.55744969094E+03  0.00000000000E+00 0. -1.
         -2    1    5    5    0  503  0.21724760351E+02  0.26841441964E+01 -0.10542753684E+04  0.10545025947E+04  0.00000000000E+00 0.  1.
         -3    1    6    6    0  502 -0.21838890870E+03 -0.19096557674E+03 -0.15818381633E+03  0.33042954876E+03  0.00000000000E+00 0.  1.
<mgrwt>
<rscale>  0 0.14617771E+04</rscale>
<asrwt>0</asrwt>
<pdfrwt beam="1">  1        2 0.32179918E+00 0.14617771E+04</pdfrwt>
<pdfrwt beam="2">  1       -2 0.39290782E-01 0.14617771E+04</pdfrwt>
<totfact> 0.35274384E+01</totfact>
</mgrwt>
</event>
<event>
12    1  0.1489025E-007  0.3696642E+04  0.7818608E-02  0.8068706E-01
         -2   -1    0    0    0  501 -0.00000000000E+00  0.00000000000E+00  0.35361962184E+04  0.35361962184E+04  0.00000000000E+00 0.  1.
          2   -1    0    0  501    0  0.00000000000E+00 -0.00000000000E+00 -0.96609192347E+03  0.96609192347E+03  0.00000000000E+00 0. -1.
         23    2    1    2    0    0 -0.55213686820E+02  0.17225377657E+04  0.14528855286E+04  0.22560621829E+04  0.93569803973E+02 0.  0.
        254    2    1    2    0    0  0.55213686820E+02 -0.17225377657E+04  0.11172187663E+04  0.22462259590E+04  0.90948797771E+03 0.  0.
        -24    2    4    4    0    0 -0.33109854262E+03 -0.24875293417E+03  0.20697545376E+03  0.46965447169E+03  0.78944392656E+02 0.  0.
         24    2    4    4    0    0  0.38631222944E+03 -0.14737848315E+04  0.91024331256E+03  0.17765714873E+04  0.79903023756E+02 0.  0.
         11    1    3    3    0    0 -0.81381837153E+00  0.10345650125E+03  0.11808455920E+03  0.15699641102E+03  0.00000000000E+00 0. -1.
        -11    1    3    3    0    0 -0.54399868449E+02  0.16190812645E+04  0.13348009694E+04  0.20990657718E+04  0.00000000000E+00 0.  1.
          4    1    6    6  502    0  0.37470862864E+03 -0.14001226156E+04  0.88297004806E+03  0.16971699977E+04  0.00000000000E+00 0. -1.
          1    1    5    5  503    0 -0.22771463602E+03 -0.12785300972E+03  0.11017388881E+03  0.28344070514E+03  0.00000000000E+00 0. -1.
         -2    1    5    5    0  503 -0.10338390660E+03 -0.12089992445E+03  0.96801564957E+02  0.18621376655E+03  0.00000000000E+00 0.  1.
         -3    1    6    6    0  502  0.11603600808E+02 -0.73662215912E+02  0.27273264502E+02  0.79401489667E+02  0.00000000000E+00 0.  1.
<mgrwt>
<rscale>  0 0.36966420E+04</rscale>
<asrwt>0</asrwt>
<pdfrwt beam="1">  1        2 0.14862953E+00 0.36966420E+04</pdfrwt>
<pdfrwt beam="2">  1       -2 0.54403018E+00 0.36966420E+04</pdfrwt>
<totfact> 0.19622399E-02</totfact>
</mgrwt>
</event>
<event>
12    1  0.1489025E-007  0.2082627E+04  0.7818608E-02  0.8568935E-01
         -2   -1    0    0    0  501 -0.00000000000E+00  0.00000000000E+00  0.12333723190E+04  0.12333723190E+04  0.00000000000E+00 0.  1.
          2   -1    0    0  501    0  0.00000000000E+00 -0.00000000000E+00 -0.87916208926E+03  0.87916208926E+03  0.00000000000E+00 0. -1.
         23    2    1    2    0    0 -0.75944298011E+03  0.33370682215E+03 -0.90358276573E+01  0.83479026205E+03  0.93162504507E+02 0.  0.
        254    2    1    2    0    0  0.75944298011E+03 -0.33370682215E+03  0.36324605743E+03  0.12777441462E+04  0.90142582713E+03 0.  0.
        -24    2    4    4    0    0 -0.56607265737E+02  0.11657183061E+03 -0.14783742759E+03  0.21169011420E+03  0.78507485154E+02 0.  0.
         24    2    4    4    0    0  0.81605024585E+03 -0.45027865275E+03  0.51108348503E+03  0.10660540320E+04  0.81092550167E+02 0.  0.
         13    1    3    3    0    0 -0.28063749406E+03  0.13718244488E+03  0.39917572820E+02  0.31491243049E+03  0.00000000000E+00 0.  1.
        -13    1    3    3    0    0 -0.47880548605E+03  0.19652437726E+03 -0.48953400477E+02  0.51987783156E+03  0.00000000000E+00 0. -1.
          4    1    6    6  502    0  0.57863256964E+03 -0.34168775719E+03  0.40243794408E+03  0.78327675371E+03  0.00000000000E+00 0. -1.
          3    1    5    5  503    0 -0.33311583996E+02  0.11580664603E+03 -0.14448780756E+03  0.18814241262E+03  0.00000000000E+00 0. -1.
         -4    1    5    5    0  503 -0.23295681741E+02  0.76518458069E+00 -0.33496200337E+01  0.23547701577E+02  0.00000000000E+00 0.  1.
         -3    1    6    6    0  502  0.23741767621E+03 -0.10859089557E+03  0.10864554094E+03  0.28277727834E+03  0.00000000000E+00 0.  1.
<mgrwt>
<rscale>  0 0.20826274E+04</rscale>
<asrwt>0</asrwt>
<pdfrwt beam="1">  1        2 0.13525571E+00 0.20826274E+04</pdfrwt>
<pdfrwt beam="2">  1       -2 0.18974959E+00 0.20826274E+04</pdfrwt>
<totfact> 0.43488493E+00</totfact>
</mgrwt>
</event>
<event>
12    1  0.1489025E-007  0.3749470E+04  0.7818608E-02  0.8057086E-01
          2   -1    0    0  501    0  0.00000000000E+00  0.00000000000E+00  0.37101538120E+04  0.37101538120E+04  0.00000000000E+00 0. -1.
         -2   -1    0    0    0  501 -0.00000000000E+00 -0.00000000000E+00 -0.94730075261E+03  0.94730075261E+03  0.00000000000E+00 0.  1.
         23    2    1    2    0    0 -0.13557699832E+04  0.73425751988E+03  0.23660696917E+03  0.15625898705E+04  0.91966801047E+02 0.  0.
        254    2    1    2    0    0  0.13557699832E+04 -0.73425751988E+03  0.25262460902E+04  0.30948646941E+04  0.90499823971E+03 0.  0.
        -24    2    4    4    0    0  0.81034978347E+03 -0.14347020650E+02  0.78355960031E+03  0.11302471240E+04  0.81365260232E+02 0.  0.
         24    2    4    4    0    0  0.54542019974E+03 -0.71991049923E+03  0.17426864899E+04  0.19646175701E+04  0.83735736349E+02 0.  0.
         11    1    3    3    0    0 -0.13723577728E+03  0.44282485337E+02  0.25790158185E+02  0.14649139678E+03  0.00000000000E+00 0. -1.
        -11    1    3    3    0    0 -0.12185342059E+04  0.68997503455E+03  0.21081681099E+03  0.14160984737E+04  0.00000000000E+00 0.  1.
          4    1    6    6  502    0  0.45358051274E+03 -0.54122107297E+03  0.13566292222E+04  0.15294111213E+04  0.00000000000E+00 0. -1.
          1    1    5    5  503    0  0.16579599465E+03 -0.19736930199E+02  0.20221313077E+03  0.26223655068E+03  0.00000000000E+00 0. -1.
         -2    1    5    5    0  503  0.64455378881E+03  0.53899095488E+01  0.58134646954E+03  0.86801057335E+03  0.00000000000E+00 0.  1.
         -1    1    6    6    0  502  0.91839687003E+02 -0.17868942626E+03  0.38605726768E+03  0.43520644882E+03  0.00000000000E+00 0.  1.
<mgrwt>
<rscale>  0 0.37494701E+04</rscale>
<asrwt>0</asrwt>
<pdfrwt beam="1">  1        2 0.57079289E+00 0.37494701E+04</pdfrwt>
<pdfrwt beam="2">  1       -2 0.14573858E+00 0.37494701E+04</pdfrwt>
<totfact> 0.14899537E-01</totfact>
</mgrwt>
</event>
<event>
12    1  0.1489025E-007  0.2582552E+04  0.7818608E-02  0.8374152E-01
          2   -1    0    0  501    0  0.00000000000E+00  0.00000000000E+00  0.14621390475E+04  0.14621390475E+04  0.00000000000E+00 0. -1.
         -2   -1    0    0    0  501 -0.00000000000E+00 -0.00000000000E+00 -0.11403797567E+04  0.11403797567E+04  0.00000000000E+00 0.  1.
         23    2    1    2    0    0  0.22433646286E+03 -0.10751632462E+04 -0.12567994099E+03  0.11093316212E+04  0.92294873006E+02 0.  0.
        254    2    1    2    0    0 -0.22433646286E+03  0.10751632462E+04  0.44743923173E+03  0.14931871830E+04  0.90725037494E+03 0.  0.
        -24    2    4    4    0    0 -0.55681861029E+03  0.48625555708E+03  0.23090272981E+03  0.77873457506E+03  0.81363604932E+02 0.  0.
         24    2    4    4    0    0  0.33248214743E+03  0.58890768914E+03  0.21653650192E+03  0.71445260795E+03  0.78726283142E+02 0.  0.
         11    1    3    3    0    0  0.12143843371E+03 -0.78096585419E+03 -0.81481440569E+02  0.79454023419E+03  0.00000000000E+00 0.  1.
        -11    1    3    3    0    0  0.10289802915E+03 -0.29419739204E+03 -0.44198500425E+02  0.31479138699E+03  0.00000000000E+00 0. -1.
          2    1    6    6  502    0  0.24736518862E+03  0.37700221059E+03  0.12061308371E+03  0.46676302262E+03  0.00000000000E+00 0. -1.
          3    1    5    5  503    0 -0.39685849403E+03  0.34088523921E+03  0.12429084418E+03  0.53772448758E+03  0.00000000000E+00 0. -1.
         -4    1    5    5    0  503 -0.15996011626E+03  0.14537031788E+03  0.10661188563E+03  0.24101008748E+03  0.00000000000E+00 0.  1.
         -1    1    6    6    0  502  0.85116958813E+02  0.21190547855E+03  0.95923418214E+02  0.24768958533E+03  0.00000000000E+00 0.  1.
<mgrwt>
<rscale>  0 0.25825520E+04</rscale>
<asrwt>0</asrwt>
<pdfrwt beam="1">  1        2 0.22494447E+00 0.25825520E+04</pdfrwt>
<pdfrwt beam="2">  1       -2 0.17544304E+00 0.25825520E+04</pdfrwt>
<totfact> 0.23049463E+00</totfact>
</mgrwt>
</event>
<event>
12    1  0.1489025E-007  0.1508568E+04  0.7818608E-02  0.8878775E-01
          1   -1    0    0  501    0  0.00000000000E+00  0.00000000000E+00  0.51581036699E+04  0.51581036699E+04  0.00000000000E+00 0. -1.
         -1   -1    0    0    0  501 -0.00000000000E+00 -0.00000000000E+00 -0.11030105260E+03  0.11030105260E+03  0.00000000000E+00 0.  1.
         23    2    1    2    0    0  0.46366577967E+03  0.79902764364E+02  0.12986510746E+04  0.13841371618E+04  0.89278565245E+02 0.  0.
        254    2    1    2    0    0 -0.46366577967E+03 -0.79902764364E+02  0.37491515426E+04  0.38842675606E+04  0.90001488086E+03 0.  0.
        -24    2    4    4    0    0 -0.57642217422E+03  0.22325839894E+03  0.30032387903E+04  0.30672674480E+04  0.81114302287E+02 0.  0.
         24    2    4    4    0    0  0.11275639455E+03 -0.30316116331E+03  0.74591275230E+03  0.81700011263E+03  0.80514933661E+02 0.  0.
         11    1    3    3    0    0  0.10242665541E+03  0.44646586972E+02  0.23377401343E+03  0.25910389195E+03  0.00000000000E+00 0. -1.
        -11    1    3    3    0    0  0.36123912425E+03  0.35256177392E+02  0.10648770612E+04  0.11250332699E+04  0.00000000000E+00 0.  1.
          2    1    6    6  502    0  0.11421168943E+03 -0.20326180001E+03  0.53671548969E+03  0.58516936541E+03  0.00000000000E+00 0. -1.
          1    1    5    5  503    0 -0.47850103207E+03  0.15420670629E+03  0.24873110879E+04  0.25376089915E+04  0.00000000000E+00 0. -1.
         -2    1    5    5    0  503 -0.97921142149E+02  0.69051692657E+02  0.51592770246E+03  0.52965845646E+03  0.00000000000E+00 0.  1.
         -3    1    6    6    0  502 -0.14552948836E+01 -0.99899363302E+02  0.20919726261E+03  0.23183074722E+03  0.00000000000E+00 0.  1.
<mgrwt>
<rscale>  0 0.15085679E+04</rscale>
<asrwt>0</asrwt>
<pdfrwt beam="1">  1        1 0.79355422E+00 0.15085679E+04</pdfrwt>
<pdfrwt beam="2">  1       -1 0.16969397E-01 0.15085679E+04</pdfrwt>
<totfact> 0.14490237E-01</totfact>
</mgrwt>
</event>
<event>
12    1  0.1489025E-007  0.1735637E+04  0.7818608E-02  0.8741296E-01
         -2   -1    0    0    0  501 -0.00000000000E+00  0.00000000000E+00  0.15923696223E+04  0.15923696223E+04  0.00000000000E+00 0.  1.
          2   -1    0    0  501    0  0.00000000000E+00 -0.00000000000E+00 -0.47294851851E+03  0.47294851851E+03  0.00000000000E+00 0. -1.
         23    2    1    2    0    0  0.79057485630E+02 -0.55728286211E+03  0.74192334835E+03  0.93530956139E+03  0.86829985456E+02 0.  0.
        254    2    1    2    0    0 -0.79057485630E+02  0.55728286211E+03  0.37749775544E+03  0.11300085794E+04  0.90421267396E+03 0.  0.
        -24    2    4    4    0    0 -0.40335713867E+03  0.11796302737E+03  0.39074637740E+03  0.57916973550E+03  0.78374702023E+02 0.  0.
         24    2    4    4    0    0  0.32429965304E+03  0.43931983473E+03 -0.13248621958E+02  0.55083884392E+03  0.71244114364E+02 0.  0.
         11    1    3    3    0    0  0.79545695727E+02 -0.35753136038E+03  0.52823115769E+03  0.64279417181E+03  0.00000000000E+00 0.  1.
        -11    1    3    3    0    0 -0.48821009636E+00 -0.19975150173E+03  0.21369219066E+03  0.29251538958E+03  0.00000000000E+00 0. -1.
          2    1    6    6  502    0  0.30457840464E+03  0.39548574772E+03  0.56038151279E+01  0.49920775632E+03  0.00000000000E+00 0. -1.
          1    1    5    5  503    0 -0.35749122942E+03  0.96793823817E+02  0.37296587468E+03  0.52561636877E+03  0.00000000000E+00 0. -1.
         -2    1    5    5    0  503 -0.45865909250E+02  0.21169203556E+02  0.17780502718E+02  0.53553366724E+02  0.00000000000E+00 0.  1.
         -1    1    6    6    0  502  0.19721248404E+02  0.43834087015E+02 -0.18852437086E+02  0.51631087604E+02  0.00000000000E+00 0.  1.
<mgrwt>
<rscale>  0 0.17356369E+04</rscale>
<asrwt>0</asrwt>
<pdfrwt beam="1">  1        2 0.72761311E-01 0.17356369E+04</pdfrwt>
<pdfrwt beam="2">  1       -2 0.24497994E+00 0.17356369E+04</pdfrwt>
<totfact> 0.43002504E+00</totfact>
</mgrwt>
</event>
<event>
12    1  0.1489025E-007  0.1257714E+04  0.7818608E-02  0.9063788E-01
         -1   -1    0    0    0  501 -0.00000000000E+00  0.00000000000E+00  0.54674336086E+03  0.54674336086E+03  0.00000000000E+00 0.  1.
          1   -1    0    0  501    0  0.00000000000E+00 -0.00000000000E+00 -0.72330263924E+03  0.72330263924E+03  0.00000000000E+00 0. -1.
         23    2    1    2    0    0  0.82688761967E+02  0.16059675607E+03  0.21363760235E+03  0.29088453465E+03  0.79649469200E+02 0.  0.
        254    2    1    2    0    0 -0.82688761967E+02 -0.16059675607E+03 -0.39019688074E+03  0.97916146545E+03  0.87970155182E+03 0.  0.
        -24    2    4    4    0    0  0.34597935141E+03  0.11892653313E+03 -0.21836550947E+03  0.43353658287E+03  0.80157601507E+02 0.  0.
         24    2    4    4    0    0 -0.42866811337E+03 -0.27952328920E+03 -0.17183137127E+03  0.54562488259E+03  0.79315015707E+02 0.  0.
         13    1    3    3    0    0  0.49711220360E+02  0.57171869312E+02  0.38880405810E+02  0.85155822034E+02  0.00000000000E+00 0. -1.
        -13    1    3    3    0    0  0.32977541607E+02  0.10342488676E+03  0.17475719654E+03  0.20572871262E+03  0.00000000000E+00 0.  1.
          2    1    6    6  502    0 -0.30771617223E+03 -0.18880733097E+03 -0.83613797252E+02  0.37057889574E+03  0.00000000000E+00 0. -1.
          1    1    5    5  503    0  0.32522189245E+03  0.95594814382E+02 -0.17915984672E+03  0.38341348247E+03  0.00000000000E+00 0. -1.
         -2    1    5    5    0  503  0.20757458960E+02  0.23331718745E+02 -0.39205662749E+02  0.50123100399E+02  0.00000000000E+00 0.  1.
         -1    1    6    6    0  502 -0.12095194114E+03 -0.90715958228E+02 -0.88217574019E+02  0.17504598684E+03  0.00000000000E+00 0.  1.
<mgrwt>
<rscale>  0 0.12577137E+04</rscale>
<asrwt>0</asrwt>
<pdfrwt beam="1">  1        1 0.11127733E+00 0.12577137E+04</pdfrwt>
<pdfrwt beam="2">  1       -1 0.84114363E-01 0.12577137E+04</pdfrwt>
<totfact> 0.35783564E+01</totfact>
</mgrwt>
</event>
<event>
12    1  0.1489025E-007  0.1496757E+04  0.7818608E-02  0.8886613E-01
         -2   -1    0    0    0  501 -0.00000000000E+00  0.00000000000E+00  0.43299960487E+03  0.43299960487E+03  0.00000000000E+00 0.  1.
          2   -1    0    0  501    0  0.00000000000E+00 -0.00000000000E+00 -0.12934653969E+04  0.12934653969E+04  0.00000000000E+00 0. -1.
         23    2    1    2    0    0 -0.74817694346E+02  0.12696445100E+03  0.24003385898E+03  0.29790608640E+03  0.97026406985E+02 0.  0.
        254    2    1    2    0    0  0.74817694346E+02 -0.12696445100E+03 -0.11004996510E+04  0.14285589153E+04  0.89886786214E+03 0.  0.
        -24    2    4    4    0    0  0.17548369113E+03 -0.10954628699E+03 -0.12275058205E+04  0.12469731592E+04  0.73325340284E+02 0.  0.
         24    2    4    4    0    0 -0.10066599678E+03 -0.17418164016E+02  0.12700616957E+03  0.18158575611E+03  0.80036144129E+02 0.  0.
         13    1    3    3    0    0 -0.58128208160E+02  0.19169570390E+02  0.51053054160E+02  0.79704299457E+02  0.00000000000E+00 0. -1.
        -13    1    3    3    0    0 -0.16689486186E+02  0.10779488061E+03  0.18898080482E+03  0.21820178694E+03  0.00000000000E+00 0.  1.
          4    1    6    6  502    0 -0.39875509213E+02  0.25071985058E+00  0.22399596439E+00  0.39876926532E+02  0.00000000000E+00 0. -1.
          1    1    5    5  503    0 -0.21321212107E+01 -0.13193255317E+02 -0.34926962532E+02  0.37396532439E+02  0.00000000000E+00 0. -1.
         -2    1    5    5    0  503  0.17761581234E+03 -0.96353031669E+02 -0.11925788580E+04  0.12095766268E+04  0.00000000000E+00 0.  1.
         -3    1    6    6    0  502 -0.60790487569E+02 -0.17668883867E+02  0.12678217361E+03  0.14170882958E+03  0.00000000000E+00 0.  1.
<mgrwt>
<rscale>  0 0.14967565E+04</rscale>
<asrwt>0</asrwt>
<pdfrwt beam="1">  1        2 0.19899467E+00 0.14967565E+04</pdfrwt>
<pdfrwt beam="2">  1       -2 0.66615325E-01 0.14967565E+04</pdfrwt>
<totfact> 0.33371495E+01</totfact>
</mgrwt>
</event>
<event>
12    1  0.1489025E-007  0.1729770E+04  0.7818608E-02  0.8744565E-01
          2   -1    0    0  501    0  0.00000000000E+00  0.00000000000E+00  0.99243103108E+03  0.99243103108E+03  0.00000000000E+00 0. -1.
         -2   -1    0    0    0  501 -0.00000000000E+00 -0.00000000000E+00 -0.75373142910E+03  0.75373142910E+03  0.00000000000E+00 0.  1.
         23    2    1    2    0    0  0.24337965298E+03 -0.57277387001E+03  0.16812388621E+03  0.65108535880E+03  0.91339704839E+02 0.  0.
        254    2    1    2    0    0 -0.24337965298E+03  0.57277387001E+03  0.70575715769E+02  0.10950771014E+04  0.89828133937E+03 0.  0.
        -24    2    4    4    0    0  0.35581059557E+02  0.39471111028E+02 -0.34573593396E+03  0.35896535500E+03  0.80615194944E+02 0.  0.
         24    2    4    4    0    0 -0.27896071254E+03  0.53330275898E+03  0.41631164973E+03  0.73611174637E+03  0.79461950461E+02 0.  0.
         13    1    3    3    0    0  0.75020619395E+02 -0.13763459470E+03  0.81012199623E+02  0.17644928869E+03  0.00000000000E+00 0. -1.
        -13    1    3    3    0    0  0.16835903358E+03 -0.43513927531E+03  0.87111686583E+02  0.47463607011E+03  0.00000000000E+00 0.  1.
          4    1    6    6  502    0 -0.63147130144E+02  0.76699073278E+02  0.95430347000E+02  0.13775797260E+03  0.00000000000E+00 0. -1.
          1    1    5    5  503    0  0.24016411775E+02  0.32186874996E+02 -0.56022439648E+02  0.68929650373E+02  0.00000000000E+00 0. -1.
         -2    1    5    5    0  503  0.11564647783E+02  0.72842360319E+01 -0.28971349431E+03  0.29003570463E+03  0.00000000000E+00 0.  1.
         -3    1    6    6    0  502 -0.21581358239E+03  0.45660368570E+03  0.32088130273E+03  0.59835377377E+03  0.00000000000E+00 0.  1.
<mgrwt>
<rscale>  0 0.17297705E+04</rscale>
<asrwt>0</asrwt>
<pdfrwt beam="1">  1        2 0.15268170E+00 0.17297705E+04</pdfrwt>
<pdfrwt beam="2">  1       -2 0.11595868E+00 0.17297705E+04</pdfrwt>
<totfact> 0.13973749E+01</totfact>
</mgrwt>
</event>
<event>
12    1  0.1489025E-007  0.1508274E+04  0.7818608E-02  0.8878969E-01
         -1   -1    0    0    0  501 -0.00000000000E+00  0.00000000000E+00  0.43452479443E+03  0.43452479443E+03  0.00000000000E+00 0.  1.
          1   -1    0    0  501    0  0.00000000000E+00 -0.00000000000E+00 -0.13088381009E+04  0.13088381009E+04  0.00000000000E+00 0. -1.
         23    2    1    2    0    0 -0.10627720284E+03  0.95913689778E+02 -0.80852007577E+03  0.82636793568E+03  0.93193199710E+02 0.  0.
        254    2    1    2    0    0  0.10627720284E+03 -0.95913689778E+02 -0.65793230739E+02  0.91699495968E+03  0.90335858170E+03 0.  0.
        -24    2    4    4    0    0  0.30627938056E+03 -0.21962513618E+03  0.29017152498E+03  0.48278030845E+03  0.82674378819E+02 0.  0.
         24    2    4    4    0    0 -0.20000217772E+03  0.12371144640E+03 -0.35596475572E+03  0.43421465123E+03  0.80784051432E+02 0.  0.
         13    1    3    3    0    0 -0.11337832197E+03  0.50584003119E+02 -0.62383120656E+03  0.63606505921E+03  0.00000000000E+00 0. -1.
        -13    1    3    3    0    0  0.71011191317E+01  0.45329686659E+02 -0.18468886921E+03  0.19030287648E+03  0.00000000000E+00 0.  1.
          4    1    6    6  502    0 -0.66789882910E+02  0.38079877007E+02 -0.56345312776E+02  0.95319251801E+02  0.00000000000E+00 0. -1.
          3    1    5    5  503    0  0.10048887222E+02 -0.35734249148E+02  0.30454563675E+02  0.48014551390E+02  0.00000000000E+00 0. -1.
         -4    1    5    5    0  503  0.29623049334E+03 -0.18389088703E+03  0.25971696131E+03  0.43476575706E+03  0.00000000000E+00 0.  1.
         -3    1    6    6    0  502 -0.13321229481E+03  0.85631569397E+02 -0.29961944294E+03  0.33889539943E+03  0.00000000000E+00 0.  1.
<mgrwt>
<rscale>  0 0.15082740E+04</rscale>
<asrwt>0</asrwt>
<pdfrwt beam="1">  1        1 0.20135971E+00 0.15082740E+04</pdfrwt>
<pdfrwt beam="2">  1       -1 0.66849968E-01 0.15082740E+04</pdfrwt>
<totfact> 0.19537017E+01</totfact>
</mgrwt>
</event>
<event>
12    1  0.1489025E-007  0.1782901E+04  0.7818608E-02  0.8715446E-01
          2   -1    0    0  501    0  0.00000000000E+00  0.00000000000E+00  0.77627213106E+03  0.77627213106E+03  0.00000000000E+00 0. -1.
         -2   -1    0    0    0  501 -0.00000000000E+00 -0.00000000000E+00 -0.10237179908E+04  0.10237179908E+04  0.00000000000E+00 0.  1.
         23    2    1    2    0    0 -0.15371187270E+03  0.62917844993E+03 -0.21339126946E+03  0.68859314400E+03  0.95560569383E+02 0.  0.
        254    2    1    2    0    0  0.15371187270E+03 -0.62917844993E+03 -0.34054590262E+02  0.11113969778E+04  0.90252460662E+03 0.  0.
        -24    2    4    4    0    0  0.18658106555E+03  0.13550089140E+03  0.19073086349E+03  0.30973116527E+03  0.79888339955E+02 0.  0.
         24    2    4    4    0    0 -0.32869192854E+02 -0.76467934133E+03 -0.22478545375E+03  0.80166581257E+03  0.79527956899E+02 0.  0.
         13    1    3    3    0    0 -0.13765555683E+03  0.48773005395E+03 -0.20275988339E+03  0.54583992906E+03  0.00000000000E+00 0. -1.
        -13    1    3    3    0    0 -0.16056315871E+02  0.14144839599E+03 -0.10631386071E+02  0.14275321494E+03  0.00000000000E+00 0.  1.
          2    1    6    6  502    0 -0.31375477795E+02 -0.29529678946E+03 -0.51933960576E+02  0.30146600261E+03  0.00000000000E+00 0. -1.
          1    1    5    5  503    0 -0.68766019651E+01  0.82164075745E-02  0.10848318402E+02  0.12844210145E+02  0.00000000000E+00 0. -1.
         -2    1    5    5    0  503  0.19345766752E+03  0.13549267499E+03  0.17988254509E+03  0.29688695512E+03  0.00000000000E+00 0.  1.
         -1    1    6    6    0  502 -0.14937150591E+01 -0.46938255187E+03 -0.17285149317E+03  0.50019980996E+03  0.00000000000E+00 0.  1.
<mgrwt>
<rscale>  0 0.17829007E+04</rscale>
<asrwt>0</asrwt>
<pdfrwt beam="1">  1        2 0.11942648E+00 0.17829007E+04</pdfrwt>
<pdfrwt beam="2">  1       -2 0.15749508E+00 0.17829007E+04</pdfrwt>
<totfact> 0.89062279E+00</totfact>
</mgrwt>
</event>
<event>
12    1  0.1489025E-007  0.2406861E+04  0.7818608E-02  0.8436939E-01
          2   -1    0    0  501    0  0.00000000000E+00  0.00000000000E+00  0.15995748037E+04  0.15995748037E+04  0.00000000000E+00 0.  1.
         -2   -1    0    0    0  501 -0.00000000000E+00 -0.00000000000E+00 -0.90539402136E+03  0.90539402136E+03  0.00000000000E+00 0. -1.
         23    2    1    2    0    0  0.24549750672E+03  0.97658806278E+03  0.70662269348E+02  0.10134527418E+04  0.90000184905E+02 0.  0.
        254    2    1    2    0    0 -0.24549750672E+03 -0.97658806278E+03  0.62351851296E+03  0.14915160833E+04  0.90656032369E+03 0.  0.
        -24    2    4    4    0    0  0.24052722882E+03 -0.47166912281E+03  0.57335805683E+03  0.78439525590E+03  0.78812098918E+02 0.  0.
         24    2    4    4    0    0 -0.48602473554E+03 -0.50491893998E+03  0.50160456130E+02  0.70712082738E+03  0.79627970272E+02 0.  0.
         11    1    3    3    0    0  0.20390310260E+03  0.81274241506E+03  0.92436965852E+02  0.84301322715E+03  0.00000000000E+00 0. -1.
        -11    1    3    3    0    0  0.41594404118E+02  0.16384564772E+03 -0.21774696504E+02  0.17043951461E+03  0.00000000000E+00 0.  1.
          4    1    6    6  502    0 -0.25997372117E+03 -0.23057044681E+03 -0.41582588495E+01  0.34751454324E+03  0.00000000000E+00 0. -1.
          3    1    5    5  503    0  0.18137252468E+03 -0.39380518507E+03  0.42819224101E+03  0.60936615573E+03  0.00000000000E+00 0. -1.
         -4    1    5    5    0  503  0.59154704140E+02 -0.77863937740E+02  0.14516581582E+03  0.17502910017E+03  0.00000000000E+00 0.  1.
         -3    1    6    6    0  502 -0.22605101436E+03 -0.27434849316E+03  0.54318714979E+02  0.35960628414E+03  0.00000000000E+00 0.  1.
<mgrwt>
<rscale>  0 0.24068614E+04</rscale>
<asrwt>0</asrwt>
<pdfrwt beam="1">  1        2 0.24608843E+00 0.24068614E+04</pdfrwt>
<pdfrwt beam="2">  1       -2 0.13929139E+00 0.24068614E+04</pdfrwt>
<totfact> 0.36500913E+00</totfact>
</mgrwt>
</event>
<event>
12    1  0.1489025E-007  0.4243289E+04  0.7818608E-02  0.7957189E-01
         -2   -1    0    0    0  501 -0.00000000000E+00  0.00000000000E+00  0.11236329821E+04  0.11236329821E+04  0.00000000000E+00 0. -1.
          2   -1    0    0  501    0  0.00000000000E+00 -0.00000000000E+00 -0.40060903266E+04  0.40060903266E+04  0.00000000000E+00 0.  1.
         23    2    1    2    0    0 -0.71781887989E+03 -0.18457240682E+04 -0.18995932564E+04  0.27456569365E+04  0.90643215936E+02 0.  0.
        254    2    1    2    0    0  0.71781887989E+03  0.18457240682E+04 -0.98286408806E+03  0.23840663722E+04  0.89207027248E+03 0.  0.
        -24    2    4    4    0    0  0.40562169820E+03  0.12587299342E+04 -0.10789089585E+04  0.17085920066E+04  0.79448694318E+02 0.  0.
         24    2    4    4    0    0  0.31219718169E+03  0.58699413404E+03  0.96044870410E+02  0.67547436560E+03  0.70794122660E+02 0.  0.
         11    1    3    3    0    0 -0.17792066334E+02 -0.35561827730E+02 -0.56919030958E+02  0.69433257889E+02  0.00000000000E+00 0. -1.
        -11    1    3    3    0    0 -0.70002681355E+03 -0.18101622405E+04 -0.18426742255E+04  0.26762236786E+04  0.00000000000E+00 0.  1.
          2    1    6    6  502    0  0.12040272363E+03  0.22304422438E+03  0.20307021854E+01  0.25347517756E+03  0.00000000000E+00 0. -1.
          3    1    5    5  503    0  0.24532711382E+03  0.63587915326E+03 -0.56778511224E+03  0.88707813861E+03  0.00000000000E+00 0. -1.
         -4    1    5    5    0  503  0.16029458438E+03  0.62285078092E+03 -0.51112384623E+03  0.82151386796E+03  0.00000000000E+00 0.  1.
         -1    1    6    6    0  502  0.19179445806E+03  0.36394990965E+03  0.94014168224E+02  0.42199918804E+03  0.00000000000E+00 0.  1.
<mgrwt>
<rscale>  0 0.42432889E+04</rscale>
<asrwt>0</asrwt>
<pdfrwt beam="1">  1        2 0.61632159E+00 0.42432889E+04</pdfrwt>
<pdfrwt beam="2">  1       -2 0.17286661E+00 0.42432889E+04</pdfrwt>
<totfact> 0.53008490E-02</totfact>
</mgrwt>
</event>
<event>
12    1  0.1489025E-007  0.1655948E+04  0.7818608E-02  0.8786895E-01
          2   -1    0    0  501    0  0.00000000000E+00  0.00000000000E+00  0.44425739891E+03  0.44425739891E+03  0.00000000000E+00 0. -1.
         -2   -1    0    0    0  501 -0.00000000000E+00 -0.00000000000E+00 -0.15431172117E+04  0.15431172117E+04  0.00000000000E+00 0.  1.
         23    2    1    2    0    0  0.57740019363E+03 -0.85489225569E+02 -0.62285044925E+03  0.85863446332E+03  0.92795841416E+02 0.  0.
        254    2    1    2    0    0 -0.57740019363E+03  0.85489225569E+02 -0.47600936354E+03  0.11287401473E+04  0.84069614881E+03 0.  0.
        -24    2    4    4    0    0 -0.29447105503E+02  0.29756262331E+02  0.21979141987E+03  0.23790182244E+03  0.80848263450E+02 0.  0.
         24    2    4    4    0    0 -0.54795308813E+03  0.55732963238E+02 -0.69580078341E+03  0.89083832484E+03  0.78073304214E+02 0.  0.
         13    1    3    3    0    0  0.11754698608E+03  0.19624692252E+02 -0.13313106148E+03  0.17867932733E+03  0.00000000000E+00 0. -1.
        -13    1    3    3    0    0  0.45985320755E+03 -0.10511391782E+03 -0.48971938777E+03  0.67995513600E+03  0.00000000000E+00 0.  1.
          2    1    6    6  502    0 -0.14935614286E+03  0.17214470868E+02 -0.24877082819E+03  0.29067253117E+03  0.00000000000E+00 0. -1.
          1    1    5    5  503    0 -0.75662188011E+01 -0.11108965429E+02  0.17015705851E+00  0.13441939342E+02  0.00000000000E+00 0. -1.
         -2    1    5    5    0  503 -0.21880886701E+02  0.40865227760E+02  0.21962126281E+03  0.22445988310E+03  0.00000000000E+00 0.  1.
         -1    1    6    6    0  502 -0.39859694527E+03  0.38518492370E+02 -0.44702995522E+03  0.60016579368E+03  0.00000000000E+00 0.  1.
<mgrwt>
<rscale>  0 0.16559484E+04</rscale>
<asrwt>0</asrwt>
<pdfrwt beam="1">  1        2 0.68347294E-01 0.16559484E+04</pdfrwt>
<pdfrwt beam="2">  1       -2 0.23740264E+00 0.16559484E+04</pdfrwt>
<totfact> 0.51792068E+00</totfact>
</mgrwt>
</event>
<event>
12    1  0.1489025E-007  0.1604412E+04  0.7818608E-02  0.8817842E-01
         -1   -1    0    0    0  501 -0.00000000000E+00  0.00000000000E+00  0.17850125489E+04  0.17850125489E+04  0.00000000000E+00 0.  1.
          1   -1    0    0  501    0  0.00000000000E+00 -0.00000000000E+00 -0.36052088810E+03  0.36052088810E+03  0.00000000000E+00 0. -1.
         23    2    1    2    0    0  0.46351744205E+03 -0.45782337730E+02  0.87869141665E+03  0.99856450970E+03  0.89933491075E+02 0.  0.
        254    2    1    2    0    0 -0.46351744205E+03  0.45782337730E+02  0.54580024420E+03  0.11469689273E+04  0.89481583143E+03 0.  0.
        -24    2    4    4    0    0 -0.52613299937E+03 -0.24393155345E+03  0.82361523200E+02  0.59124713671E+03  0.80443895770E+02 0.  0.
         24    2    4    4    0    0  0.62615557322E+02  0.28971389118E+03  0.46343872100E+03  0.55572179063E+03  0.78717302372E+02 0.  0.
         11    1    3    3    0    0  0.40924649782E+03 -0.33196279010E+02  0.70155741326E+03  0.81287606252E+03  0.00000000000E+00 0. -1.
        -11    1    3    3    0    0  0.54270944233E+02 -0.12586058720E+02  0.17713400338E+03  0.18568844718E+03  0.00000000000E+00 0.  1.
          4    1    6    6  502    0  0.62773984203E+02  0.23145121774E+03  0.41771422530E+03  0.48165902182E+03  0.00000000000E+00 0. -1.
          1    1    5    5  503    0 -0.34824617551E+03 -0.13994928806E+03  0.86512903918E+02  0.38515670127E+03  0.00000000000E+00 0. -1.
         -2    1    5    5    0  503 -0.17788682386E+03 -0.10398226539E+03 -0.41513807174E+01  0.20609043544E+03  0.00000000000E+00 0.  1.
         -3    1    6    6    0  502 -0.15842688151E+00  0.58262673444E+02  0.45724495700E+02  0.74062768804E+02  0.00000000000E+00 0.  1.
<mgrwt>
<rscale>  0 0.16044118E+04</rscale>
<asrwt>0</asrwt>
<pdfrwt beam="1">  1        1 0.55464753E-01 0.16044118E+04</pdfrwt>
<pdfrwt beam="2">  1       -1 0.27461731E+00 0.16044118E+04</pdfrwt>
<totfact> 0.31893584E+00</totfact>
</mgrwt>
</event>
<event>
12    1  0.1489025E-007  0.2929383E+04  0.7818608E-02  0.8264188E-01
          2   -1    0    0  501    0  0.00000000000E+00  0.00000000000E+00  0.28781594596E+04  0.28781594596E+04  0.00000000000E+00 0. -1.
         -2   -1    0    0    0  501 -0.00000000000E+00 -0.00000000000E+00 -0.74537979736E+03  0.74537979736E+03  0.00000000000E+00 0.  1.
         23    2    1    2    0    0  0.99286973420E+03  0.11215496010E+03 -0.10367826141E+03  0.10084427112E+04  0.88535167052E+02 0.  0.
        254    2    1    2    0    0 -0.99286973420E+03 -0.11215496010E+03  0.22364579236E+04  0.26150965457E+04  0.91576026063E+03 0.  0.
        -24    2    4    4    0    0  0.18303845965E+02 -0.22139138228E+02  0.10420505823E+04  0.10456657200E+04  0.81989083842E+02 0.  0.
         24    2    4    4    0    0 -0.10111735802E+04 -0.90015821868E+02  0.11944073414E+04  0.15694308256E+04  0.77002350356E+02 0.  0.
         13    1    3    3    0    0  0.13674991175E+03  0.46603270331E+02 -0.15234443915E+02  0.14527384985E+03  0.00000000000E+00 0. -1.
        -13    1    3    3    0    0  0.85611982245E+03  0.65551689765E+02 -0.88443817495E+02  0.86316886139E+03  0.00000000000E+00 0.  1.
          2    1    6    6  502    0 -0.77080750738E+03 -0.60030938814E+02  0.85890999589E+03  0.11556272358E+04  0.00000000000E+00 0. -1.
          3    1    5    5  503    0  0.24167099511E+02  0.13981473284E+02  0.83081051206E+03  0.83127951812E+03  0.00000000000E+00 0. -1.
         -4    1    5    5    0  503 -0.58632535462E+01 -0.36120611512E+02  0.21124007020E+03  0.21438620193E+03  0.00000000000E+00 0.  1.
         -1    1    6    6    0  502 -0.24036607279E+03 -0.29984883054E+02  0.33549734549E+03  0.41380358987E+03  0.00000000000E+00 0.  1.
<mgrwt>
<rscale>  0 0.29293835E+04</rscale>
<asrwt>0</asrwt>
<pdfrwt beam="1">  1        2 0.44279376E+00 0.29293835E+04</pdfrwt>
<pdfrwt beam="2">  1       -2 0.11467382E+00 0.29293835E+04</pdfrwt>
<totfact> 0.10588105E+00</totfact>
</mgrwt>
</event>
<event>
12    1  0.1489025E-007  0.1544666E+04  0.7818608E-02  0.8855282E-01
          1   -1    0    0  501    0  0.00000000000E+00  0.00000000000E+00  0.87474616381E+03  0.87474616381E+03  0.00000000000E+00 0. -1.
         -1   -1    0    0    0  501 -0.00000000000E+00 -0.00000000000E+00 -0.68190982016E+03  0.68190982016E+03  0.00000000000E+00 0.  1.
         23    2    1    2    0    0 -0.52299750296E+01  0.18960828920E+03 -0.40693074365E+03  0.45825037844E+03  0.91772126726E+02 0.  0.
        254    2    1    2    0    0  0.52299750296E+01 -0.18960828920E+03  0.59976708730E+03  0.10984056055E+04  0.90044192444E+03 0.  0.
        -24    2    4    4    0    0  0.24189671253E+03  0.14674101067E+03 -0.75771509213E+02  0.30332963655E+03  0.78870799767E+02 0.  0.
         24    2    4    4    0    0 -0.23666673750E+03 -0.33634929987E+03  0.67553859651E+03  0.79507596898E+03  0.81556145781E+02 0.  0.
         13    1    3    3    0    0  0.27506014518E+02  0.90425817641E+02 -0.26978159459E+03  0.28585926277E+03  0.00000000000E+00 0.  1.
        -13    1    3    3    0    0 -0.32735989548E+02  0.99182471554E+02 -0.13714914906E+03  0.17239111567E+03  0.00000000000E+00 0. -1.
          2    1    6    6  502    0 -0.17464610054E+03 -0.19696788249E+03  0.47546742380E+03  0.54347665843E+03  0.00000000000E+00 0. -1.
          1    1    5    5  503    0  0.18376229485E+03  0.14037032189E+03 -0.39718580284E+02  0.23462730850E+03  0.00000000000E+00 0. -1.
         -2    1    5    5    0  503  0.58134417683E+02  0.63706887800E+01 -0.36052928930E+02  0.68702328049E+02  0.00000000000E+00 0.  1.
         -1    1    6    6    0  502 -0.62020636964E+02 -0.13938141737E+03  0.20007117272E+03  0.25159931055E+03  0.00000000000E+00 0.  1.
<mgrwt>
<rscale>  0 0.15446657E+04</rscale>
<asrwt>0</asrwt>
<pdfrwt beam="1">  1        1 0.13457633E+00 0.15446657E+04</pdfrwt>
<pdfrwt beam="2">  1       -1 0.10490920E+00 0.15446657E+04</pdfrwt>
<totfact> 0.15704215E+01</totfact>
</mgrwt>
</event>
<event>
12    1  0.1489025E-007  0.1357725E+04  0.7818608E-02  0.8985001E-01
         -2   -1    0    0    0  501 -0.00000000000E+00  0.00000000000E+00  0.20903567517E+03  0.20903567517E+03  0.00000000000E+00 0.  1.
          2   -1    0    0  501    0  0.00000000000E+00 -0.00000000000E+00 -0.22046687924E+04  0.22046687924E+04  0.00000000000E+00 0. -1.
         23    2    1    2    0    0  0.32065217749E+03  0.12995560020E+03 -0.80672853248E+03  0.88266607402E+03  0.92640143272E+02 0.  0.
        254    2    1    2    0    0 -0.32065217749E+03 -0.12995560020E+03 -0.11889045847E+04  0.15310383935E+04  0.90048774223E+03 0.  0.
        -24    2    4    4    0    0 -0.13212082864E+03 -0.10653582647E+03  0.10958442363E+03  0.21633270871E+03  0.77364715941E+02 0.  0.
         24    2    4    4    0    0 -0.18853134885E+03 -0.23419773736E+02 -0.12984890083E+04  0.13147056848E+04  0.79276589116E+02 0.  0.
         11    1    3    3    0    0  0.31204555909E+03  0.14145067234E+03 -0.78625824116E+03  0.85766120668E+03  0.00000000000E+00 0. -1.
        -11    1    3    3    0    0  0.86066184002E+01 -0.11495072136E+02 -0.20470291328E+02  0.25004867341E+02  0.00000000000E+00 0.  1.
          2    1    6    6  502    0 -0.28333885772E+02  0.18191241090E+02 -0.37441075471E+03  0.37592172533E+03  0.00000000000E+00 0. -1.
          3    1    5    5  503    0 -0.75366204976E+01  0.11492750599E+02  0.22793064422E+01  0.13931231199E+02  0.00000000000E+00 0. -1.
         -4    1    5    5    0  503 -0.12458420814E+03 -0.11802857707E+03  0.10730511719E+03  0.20240147751E+03  0.00000000000E+00 0.  1.
         -1    1    6    6    0  502 -0.16019746308E+03 -0.41611014826E+02 -0.92407825363E+03  0.93878395947E+03  0.00000000000E+00 0.  1.
<mgrwt>
<rscale>  0 0.13577252E+04</rscale>
<asrwt>0</asrwt>
<pdfrwt beam="1">  1        2 0.33917983E+00 0.13577252E+04</pdfrwt>
<pdfrwt beam="2">  1       -2 0.32159333E-01 0.13577252E+04</pdfrwt>
<totfact> 0.45173725E+01</totfact>
</mgrwt>
</event>
<event>
12    1  0.1489025E-007  0.2097892E+04  0.7818608E-02  0.8562172E-01
          2   -1    0    0  501    0  0.00000000000E+00  0.00000000000E+00  0.95577428798E+03  0.95577428798E+03  0.00000000000E+00 0.  1.
         -2   -1    0    0    0  501 -0.00000000000E+00 -0.00000000000E+00 -0.11512006569E+04  0.11512006569E+04  0.00000000000E+00 0. -1.
         23    2    1    2    0    0  0.49137768453E+03  0.10123572026E+03 -0.77438493504E+03  0.92717656579E+03  0.91014595651E+02 0.  0.
        254    2    1    2    0    0 -0.49137768453E+03 -0.10123572026E+03  0.57895856612E+03  0.11797983791E+04  0.89723491580E+03 0.  0.
        -24    2    4    4    0    0 -0.73770126408E+03 -0.32532898097E+02  0.51649531440E+03  0.90460432431E+03  0.79246635833E+02 0.  0.
         24    2    4    4    0    0  0.24632357955E+03 -0.68702822168E+02  0.62463251719E+02  0.27519405478E+03  0.80216746093E+02 0.  0.
         11    1    3    3    0    0  0.40320595701E+03  0.45955756043E+02 -0.61744770913E+03  0.73886984564E+03  0.00000000000E+00 0. -1.
        -11    1    3    3    0    0  0.88171727514E+02  0.55279964222E+02 -0.15693722592E+03  0.18830672016E+03  0.00000000000E+00 0.  1.
          4    1    6    6  502    0  0.28467888573E+02 -0.16862292783E+02  0.37277604539E+02  0.49843529148E+02  0.00000000000E+00 0. -1.
          1    1    5    5  503    0 -0.13848044881E+03  0.10216157212E+02  0.66187159701E+02  0.15382439560E+03  0.00000000000E+00 0. -1.
         -2    1    5    5    0  503 -0.59922081527E+03 -0.42749055309E+02  0.45030815470E+03  0.75077992872E+03  0.00000000000E+00 0.  1.
         -3    1    6    6    0  502  0.21785569098E+03 -0.51840529385E+02  0.25185647179E+02  0.22535052563E+03  0.00000000000E+00 0.  1.
<mgrwt>
<rscale>  0 0.20978923E+04</rscale>
<asrwt>0</asrwt>
<pdfrwt beam="1">  1        2 0.14704220E+00 0.20978923E+04</pdfrwt>
<pdfrwt beam="2">  1       -2 0.17710779E+00 0.20978923E+04</pdfrwt>
<totfact> 0.47097814E+00</totfact>
</mgrwt>
</event>
<event>
12    1  0.1489025E-007  0.3626819E+04  0.7818608E-02  0.8084376E-01
         -2   -1    0    0    0  501 -0.00000000000E+00  0.00000000000E+00  0.13496173337E+04  0.13496173337E+04  0.00000000000E+00 0.  1.
          2   -1    0    0  501    0  0.00000000000E+00 -0.00000000000E+00 -0.24365819652E+04  0.24365819652E+04  0.00000000000E+00 0. -1.
         23    2    1    2    0    0 -0.35115503295E+03  0.91701797512E+03 -0.19586226039E+04  0.21928714168E+04  0.90833486454E+02 0.  0.
        254    2    1    2    0    0  0.35115503295E+03 -0.91701797512E+03  0.87165797246E+03  0.15933278820E+04  0.90259309483E+03 0.  0.
        -24    2    4    4    0    0  0.50022213521E+02 -0.85829178412E+03  0.93259242731E+03  0.12709981914E+04  0.80874956826E+02 0.  0.
         24    2    4    4    0    0  0.30113281943E+03 -0.58726191009E+02 -0.60934454854E+02  0.32232969059E+03  0.77805405968E+02 0.  0.
         13    1    3    3    0    0 -0.33874444000E+03  0.89761684713E+03 -0.19354935778E+04  0.21602312815E+04  0.00000000000E+00 0. -1.
        -13    1    3    3    0    0 -0.12410592952E+02  0.19401127991E+02 -0.23129026159E+02  0.32640135352E+02  0.00000000000E+00 0.  1.
          4    1    6    6  502    0  0.52587100165E+02 -0.22205228845E+02 -0.41087250916E+02  0.70332335946E+02  0.00000000000E+00 0. -1.
          1    1    5    5  503    0  0.65708940721E+02 -0.43317040947E+03  0.47057172329E+03  0.64295568688E+03  0.00000000000E+00 0. -1.
         -2    1    5    5    0  503 -0.15686727200E+02 -0.42512137465E+03  0.46202070402E+03  0.62804250456E+03  0.00000000000E+00 0.  1.
         -3    1    6    6    0  502  0.24854571926E+03 -0.36520962164E+02 -0.19847203939E+02  0.25199735464E+03  0.00000000000E+00 0.  1.
<mgrwt>
<rscale>  0 0.36268186E+04</rscale>
<asrwt>0</asrwt>
<pdfrwt beam="1">  1        2 0.37485876E+00 0.36268186E+04</pdfrwt>
<pdfrwt beam="2">  1       -2 0.20763344E+00 0.36268186E+04</pdfrwt>
<totfact> 0.36532546E-01</totfact>
</mgrwt>
</event>
<event>
12    1  0.1489025E-007  0.1778297E+04  0.7818608E-02  0.8717927E-01
          1   -1    0    0  501    0  0.00000000000E+00  0.00000000000E+00  0.18756093700E+04  0.18756093700E+04  0.00000000000E+00 0. -1.
         -1   -1    0    0    0  501 -0.00000000000E+00 -0.00000000000E+00 -0.42150827701E+03  0.42150827701E+03  0.00000000000E+00 0.  1.
         23    2    1    2    0    0  0.27377490162E+03  0.11781194042E+03 -0.21732416213E+03  0.37983910500E+03  0.90639970095E+02 0.  0.
        254    2    1    2    0    0 -0.27377490162E+03 -0.11781194042E+03  0.16714252551E+04  0.19172785420E+04  0.89076499380E+03 0.  0.
        -24    2    4    4    0    0 -0.33928683546E+03 -0.22061213671E+03  0.17131338835E+04  0.17624457145E+04  0.87189002661E+02 0.  0.
         24    2    4    4    0    0  0.65511933842E+02  0.10280019628E+03 -0.41708628385E+02  0.15483282751E+03  0.85871421104E+02 0.  0.
         11    1    3    3    0    0  0.26589290749E+03  0.10490440195E+03 -0.22415087323E+03  0.36324590262E+03  0.00000000000E+00 0.  1.
        -11    1    3    3    0    0  0.78819941290E+01  0.12907538469E+02  0.68267110966E+01  0.16593202379E+02  0.00000000000E+00 0. -1.
          4    1    6    6  502    0  0.13590722046E+02  0.45068029336E+01  0.22342204240E+02  0.26536636726E+02  0.00000000000E+00 0. -1.
          3    1    5    5  503    0 -0.15081686627E+03 -0.76659183666E+02  0.55217379524E+03  0.57751039622E+03  0.00000000000E+00 0. -1.
         -4    1    5    5    0  503 -0.18846996919E+03 -0.14395295304E+03  0.11609600883E+04  0.11849353183E+04  0.00000000000E+00 0.  1.
         -3    1    6    6    0  502  0.51921211796E+02  0.98293393349E+02 -0.64050832625E+02  0.12829619079E+03  0.00000000000E+00 0.  1.
<mgrwt>
<rscale>  0 0.17782968E+04</rscale>
<asrwt>0</asrwt>
<pdfrwt beam="1">  1        1 0.28855528E+00 0.17782968E+04</pdfrwt>
<pdfrwt beam="2">  1       -1 0.64847428E-01 0.17782968E+04</pdfrwt>
<totfact> 0.82502966E+00</totfact>
</mgrwt>
</event>
<event>
12    1  0.1489025E-007  0.1187155E+04  0.7818608E-02  0.9124174E-01
         -1   -1    0    0    0  501 -0.00000000000E+00  0.00000000000E+00  0.21791750563E+03  0.21791750563E+03  0.00000000000E+00 0.  1.
          1   -1    0    0  501    0  0.00000000000E+00 -0.00000000000E+00 -0.16168251282E+04  0.16168251282E+04  0.00000000000E+00 0. -1.
         23    2    1    2    0    0  0.64827681580E+02 -0.43912748526E+02  0.36435932088E+02  0.12638095448E+03  0.92269229575E+02 0.  0.
        254    2    1    2    0    0 -0.64827681580E+02  0.43912748526E+02 -0.14353435547E+04  0.17083616794E+04  0.92312379984E+03 0.  0.
        -24    2    4    4    0    0  0.10103968771E+03 -0.31980434926E+03 -0.17902884376E+03  0.38805189114E+03  0.77775979700E+02 0.  0.
         24    2    4    4    0    0 -0.16586736929E+03  0.36371709779E+03 -0.12563147109E+04  0.13203097882E+04  0.71338437317E+02 0.  0.
         11    1    3    3    0    0  0.64813626356E+02 -0.29114680933E+02  0.63657046354E+02  0.95397538531E+02  0.00000000000E+00 0.  1.
        -11    1    3    3    0    0  0.14055223840E-01 -0.14798067593E+02 -0.27221114266E+02  0.30983415950E+02  0.00000000000E+00 0. -1.
          2    1    6    6  502    0 -0.16501954784E+03  0.30280831849E+03 -0.10489495843E+04  0.11041827564E+04  0.00000000000E+00 0. -1.
          1    1    5    5  503    0  0.46465290792E+02 -0.18945479502E+03 -0.62342183838E+02  0.20478938081E+03  0.00000000000E+00 0. -1.
         -2    1    5    5    0  503  0.54574396915E+02 -0.13034955424E+03 -0.11668665992E+03  0.18326251033E+03  0.00000000000E+00 0.  1.
         -1    1    6    6    0  502 -0.84782144581E+00  0.60908779296E+02 -0.20736512657E+03  0.21612703189E+03  0.00000000000E+00 0.  1.
<mgrwt>
<rscale>  0 0.11871554E+04</rscale>
<asrwt>0</asrwt>
<pdfrwt beam="1">  1        1 0.24874234E+00 0.11871554E+04</pdfrwt>
<pdfrwt beam="2">  1       -1 0.33525769E-01 0.11871554E+04</pdfrwt>
<totfact> 0.45115489E+01</totfact>
</mgrwt>
</event>
<event>
12    1  0.1489025E-007  0.2307686E+04  0.7818608E-02  0.8474897E-01
          3   -1    0    0  501    0  0.00000000000E+00  0.00000000000E+00  0.11334492622E+04  0.11334492622E+04  0.00000000000E+00 0. -1.
         -3   -1    0    0    0  501 -0.00000000000E+00 -0.00000000000E+00 -0.11746039952E+04  0.11746039952E+04  0.00000000000E+00 0.  1.
         23    2    1    2    0    0  0.77601808976E+03 -0.15828361532E+03  0.55304462843E+03  0.97016497941E+03  0.90021929118E+02 0.  0.
        254    2    1    2    0    0 -0.77601808976E+03  0.15828361532E+03 -0.59419936143E+03  0.13378882780E+04  0.89978574381E+03 0.  0.
        -24    2    4    4    0    0 -0.13965663310E+03 -0.27852824570E+03  0.55439947763E+02  0.32582074776E+03  0.77482985510E+02 0.  0.
         24    2    4    4    0    0 -0.63636145667E+03  0.43681186102E+03 -0.64963930919E+03  0.10120675302E+04  0.80554008239E+02 0.  0.
         13    1    3    3    0    0  0.34877031385E+03 -0.10064256916E+03  0.29470741615E+03  0.46757044355E+03  0.00000000000E+00 0.  1.
        -13    1    3    3    0    0  0.42724777592E+03 -0.57641046158E+02  0.25833721228E+03  0.50259453586E+03  0.00000000000E+00 0. -1.
          4    1    6    6  502    0 -0.13109075988E+03  0.10611787259E+03 -0.10362561142E+03  0.19794963388E+03  0.00000000000E+00 0. -1.
          1    1    5    5  503    0 -0.11722443420E+03 -0.26856615640E+03  0.63784389535E+02  0.29989630989E+03  0.00000000000E+00 0. -1.
         -4    1    5    5    0  503 -0.22432198900E+02 -0.99620893054E+01 -0.83444417721E+01  0.25924437879E+02  0.00000000000E+00 0.  1.
         -3    1    6    6    0  502 -0.50527069678E+03  0.33069398843E+03 -0.54601369777E+03  0.81411789635E+03  0.00000000000E+00 0.  1.
<mgrwt>
<rscale>  0 0.23076863E+04</rscale>
<asrwt>0</asrwt>
<pdfrwt beam="1">  1        3 0.17437681E+00 0.23076863E+04</pdfrwt>
<pdfrwt beam="2">  1       -3 0.18070831E+00 0.23076863E+04</pdfrwt>
<totfact> 0.10012006E-01</totfact>
</mgrwt>
</event>
<event>
12    1  0.1489025E-007  0.1906529E+04  0.7818608E-02  0.8651613E-01
          1   -1    0    0  501    0  0.00000000000E+00  0.00000000000E+00  0.14623307936E+04  0.14623307936E+04  0.00000000000E+00 0. -1.
         -1   -1    0    0    0  501 -0.00000000000E+00 -0.00000000000E+00 -0.62141451655E+03  0.62141451655E+03  0.00000000000E+00 0.  1.
         23    2    1    2    0    0 -0.23182744663E+03  0.68672834131E+03  0.17665132045E+03  0.75183724784E+03  0.93347621607E+02 0.  0.
        254    2    1    2    0    0  0.23182744663E+03 -0.68672834131E+03  0.66426495664E+03  0.13319080624E+04  0.89854959472E+03 0.  0.
        -24    2    4    4    0    0  0.21568038612E+03 -0.11994175667E+03  0.71158458418E+03  0.75730258315E+03  0.79060281205E+02 0.  0.
         24    2    4    4    0    0  0.16147060507E+02 -0.56678658464E+03 -0.47319627538E+02  0.57460547920E+03  0.80153287407E+02 0.  0.
         11    1    3    3    0    0 -0.24682738745E+01 -0.29805973675E+01  0.17061610260E+00  0.38736864149E+01  0.00000000000E+00 0.  1.
        -11    1    3    3    0    0 -0.22935917276E+03  0.68970893868E+03  0.17648070435E+03  0.74796356143E+03  0.00000000000E+00 0. -1.
          4    1    6    6  502    0  0.48736942414E+02 -0.33979232798E+03 -0.32516591126E+02  0.34480638685E+03  0.00000000000E+00 0. -1.
          1    1    5    5  503    0  0.20284826779E+03 -0.12153954112E+03  0.70318782510E+03  0.74188435566E+03  0.00000000000E+00 0. -1.
         -2    1    5    5    0  503  0.12832118336E+02  0.15977844505E+01  0.83967590722E+01  0.15418227494E+02  0.00000000000E+00 0.  1.
         -3    1    6    6    0  502 -0.32589881907E+02 -0.22699425666E+03 -0.14803036412E+02  0.22979909235E+03  0.00000000000E+00 0.  1.
<mgrwt>
<rscale>  0 0.19065294E+04</rscale>
<asrwt>0</asrwt>
<pdfrwt beam="1">  1        1 0.22497397E+00 0.19065294E+04</pdfrwt>
<pdfrwt beam="2">  1       -1 0.95602234E-01 0.19065294E+04</pdfrwt>
<totfact> 0.68587600E+00</totfact>
</mgrwt>
</event>
<event>
12    1  0.1489025E-007  0.1479264E+04  0.7818608E-02  0.8898360E-01
         -1   -1    0    0    0  501 -0.00000000000E+00  0.00000000000E+00  0.65833350743E+03  0.65833350743E+03  0.00000000000E+00 0.  1.
          1   -1    0    0  501    0  0.00000000000E+00 -0.00000000000E+00 -0.83097013590E+03  0.83097013590E+03  0.00000000000E+00 0. -1.
         23    2    1    2    0    0 -0.35405503461E+01 -0.93857811003E+02 -0.50779929479E+03  0.52442382515E+03  0.91314842257E+02 0.  0.
        254    2    1    2    0    0  0.35405503461E+01  0.93857811003E+02  0.33516266632E+03  0.96487981817E+03  0.89990956570E+03 0.  0.
        -24    2    4    4    0    0 -0.36219503698E+02 -0.29954807461E+03  0.44799783516E+03  0.54596568013E+03  0.79596244427E+02 0.  0.
         24    2    4    4    0    0  0.39760054044E+02  0.39340588562E+03 -0.11283516884E+03  0.41891413804E+03  0.80051402164E+02 0.  0.
         13    1    3    3    0    0  0.16347671607E+02 -0.25554172141E+02 -0.35020756851E+03  0.35151899397E+03  0.00000000000E+00 0. -1.
        -13    1    3    3    0    0 -0.19888221953E+02 -0.68303638862E+02 -0.15759172627E+03  0.17290483118E+03  0.00000000000E+00 0.  1.
          4    1    6    6  502    0  0.32241229630E+02  0.38748224249E+03 -0.12004468278E+03  0.40693084301E+03  0.00000000000E+00 0. -1.
          3    1    5    5  503    0 -0.31781218884E+02 -0.13318468906E+03  0.26715758465E+03  0.30020223569E+03  0.00000000000E+00 0. -1.
         -4    1    5    5    0  503 -0.44382848144E+01 -0.16636338555E+03  0.18084025051E+03  0.24576344445E+03  0.00000000000E+00 0.  1.
         -3    1    6    6    0  502  0.75188244142E+01  0.59236431295E+01  0.72095139404E+01  0.11983295029E+02  0.00000000000E+00 0.  1.
<mgrwt>
<rscale>  0 0.14792640E+04</rscale>
<asrwt>0</asrwt>
<pdfrwt beam="1">  1        1 0.12784156E+00 0.14792640E+04</pdfrwt>
<pdfrwt beam="2">  1       -1 0.10128208E+00 0.14792640E+04</pdfrwt>
<totfact> 0.18651016E+01</totfact>
</mgrwt>
</event>
<event>
12    1  0.1489025E-007  0.1341591E+04  0.7818608E-02  0.8997218E-01
          2   -1    0    0  501    0  0.00000000000E+00  0.00000000000E+00  0.43894490101E+04  0.43894490101E+04  0.00000000000E+00 0.  1.
         -2   -1    0    0    0  501 -0.00000000000E+00 -0.00000000000E+00 -0.10251088877E+03  0.10251088877E+03  0.00000000000E+00 0. -1.
         23    2    1    2    0    0 -0.30807334761E+03 -0.15756875158E+03  0.15198054102E+04  0.15613736397E+04  0.91334873832E+02 0.  0.
        254    2    1    2    0    0  0.30807334761E+03  0.15756875158E+03  0.27671327111E+04  0.29305862591E+04  0.90087473151E+03 0.  0.
        -24    2    4    4    0    0 -0.14190772260E+03 -0.16496695206E+03  0.17869582739E+04  0.18019268212E+04  0.79802877762E+02 0.  0.
         24    2    4    4    0    0  0.44998107021E+03  0.32253570364E+03  0.98017443721E+03  0.11286594378E+04  0.81350818218E+02 0.  0.
         11    1    3    3    0    0 -0.97023879612E+02 -0.32784960860E+02  0.63589961660E+03  0.64409378919E+03  0.00000000000E+00 0.  1.
        -11    1    3    3    0    0 -0.21104946799E+03 -0.12478379072E+03  0.88390579356E+03  0.91727985056E+03  0.00000000000E+00 0. -1.
          4    1    6    6  502    0  0.32377669028E+03  0.18634270224E+03  0.63622695874E+03  0.73779379970E+03  0.00000000000E+00 0. -1.
          3    1    5    5  503    0 -0.14925043808E+02 -0.95122719178E+01  0.41348099423E+03  0.41385960522E+03  0.00000000000E+00 0. -1.
         -4    1    5    5    0  503 -0.12698267879E+03 -0.15545468014E+03  0.13734772797E+04  0.13880672160E+04  0.00000000000E+00 0.  1.
         -3    1    6    6    0  502  0.12620437993E+03  0.13619300140E+03  0.34394747846E+03  0.39086563815E+03  0.00000000000E+00 0.  1.
<mgrwt>
<rscale>  0 0.13415906E+04</rscale>
<asrwt>0</asrwt>
<pdfrwt beam="1">  1        2 0.67529970E+00 0.13415906E+04</pdfrwt>
<pdfrwt beam="2">  1       -2 0.15770909E-01 0.13415906E+04</pdfrwt>
<totfact> 0.51626570E+00</totfact>
</mgrwt>
</event>
<event>
12    1  0.1489025E-007  0.1442350E+04  0.7818608E-02  0.8923721E-01
         -2   -1    0    0    0  501 -0.00000000000E+00  0.00000000000E+00  0.29541062479E+03  0.29541062479E+03  0.00000000000E+00 0.  1.
          2   -1    0    0  501    0  0.00000000000E+00 -0.00000000000E+00 -0.17605783561E+04  0.17605783561E+04  0.00000000000E+00 0. -1.
         23    2    1    2    0    0 -0.36766918156E+03 -0.19317543235E+03 -0.35620204394E+03  0.55413000415E+03  0.87651529704E+02 0.  0.
        254    2    1    2    0    0  0.36766918156E+03  0.19317543235E+03 -0.11089656874E+04  0.15018589768E+04  0.92373054272E+03 0.  0.
        -24    2    4    4    0    0 -0.14744565267E+03  0.41015393409E+03 -0.56168828662E+03  0.71547198033E+03  0.80249318822E+02 0.  0.
         24    2    4    4    0    0  0.51511483422E+03 -0.21697850175E+03 -0.54727740076E+03  0.78638699643E+03  0.80430044790E+02 0.  0.
         11    1    3    3    0    0 -0.61804933959E+00 -0.17427523536E+02 -0.16850168615E+02  0.24249303988E+02  0.00000000000E+00 0. -1.
        -11    1    3    3    0    0 -0.36705113222E+03 -0.17574790881E+03 -0.33935187533E+03  0.52988070016E+03  0.00000000000E+00 0.  1.
          4    1    6    6  502    0  0.41642164449E+03 -0.19818024623E+03 -0.41601334754E+03  0.62108735402E+03  0.00000000000E+00 0. -1.
          1    1    5    5  503    0 -0.71359319550E+02  0.30589070696E+03 -0.39846741019E+03  0.50738304472E+03  0.00000000000E+00 0. -1.
         -2    1    5    5    0  503 -0.76086333116E+02  0.10426322713E+03 -0.16322087643E+03  0.20808893561E+03  0.00000000000E+00 0.  1.
         -3    1    6    6    0  502  0.98693189730E+02 -0.18798255520E+02 -0.13126405322E+03  0.16529964240E+03  0.00000000000E+00 0.  1.
<mgrwt>
<rscale>  0 0.14423502E+04</rscale>
<asrwt>0</asrwt>
<pdfrwt beam="1">  1        2 0.27085821E+00 0.14423502E+04</pdfrwt>
<pdfrwt beam="2">  1       -2 0.45447789E-01 0.14423502E+04</pdfrwt>
<totfact> 0.40425741E+01</totfact>
</mgrwt>
</event>
<event>
12    1  0.1489025E-007  0.1909683E+04  0.7818608E-02  0.8650052E-01
         -1   -1    0    0    0  501 -0.00000000000E+00  0.00000000000E+00  0.11743839888E+04  0.11743839888E+04  0.00000000000E+00 0.  1.
          1   -1    0    0  501    0  0.00000000000E+00 -0.00000000000E+00 -0.77634076419E+03  0.77634076419E+03  0.00000000000E+00 0. -1.
         23    2    1    2    0    0 -0.27285497832E+03 -0.38731490097E+03  0.73701358936E+03  0.88165463145E+03  0.98301508333E+02 0.  0.
        254    2    1    2    0    0  0.27285497832E+03  0.38731490097E+03 -0.33897036475E+03  0.10690701215E+04  0.89640802366E+03 0.  0.
        -24    2    4    4    0    0  0.36183717789E+03 -0.13147000024E+03 -0.36429308235E+03  0.53607811514E+03  0.80372827583E+02 0.  0.
         24    2    4    4    0    0 -0.88982199573E+02  0.51878490121E+03  0.25322717595E+02  0.53299200640E+03  0.79897642627E+02 0.  0.
         13    1    3    3    0    0 -0.21824252651E+03 -0.27479538020E+03  0.60776510569E+03  0.70179820821E+03  0.00000000000E+00 0.  1.
        -13    1    3    3    0    0 -0.54612451815E+02 -0.11251952077E+03  0.12924848368E+03  0.17985642324E+03  0.00000000000E+00 0. -1.
          4    1    6    6  502    0 -0.62794272051E+02  0.35415917950E+03 -0.20019632599E+02  0.36023968510E+03  0.00000000000E+00 0. -1.
          1    1    5    5  503    0  0.76739355604E+02 -0.19720463514E+02 -0.35647325626E+02  0.86882433230E+02  0.00000000000E+00 0. -1.
         -2    1    5    5    0  503  0.28509782229E+03 -0.11174953673E+03 -0.32864575672E+03  0.44919568191E+03  0.00000000000E+00 0.  1.
         -3    1    6    6    0  502 -0.26187927522E+02  0.16462572171E+03  0.45342350194E+02  0.17275232131E+03  0.00000000000E+00 0.  1.
<mgrwt>
<rscale>  0 0.19096829E+04</rscale>
<asrwt>0</asrwt>
<pdfrwt beam="1">  1        1 0.11943704E+00 0.19096829E+04</pdfrwt>
<pdfrwt beam="2">  1       -1 0.18067446E+00 0.19096829E+04</pdfrwt>
<totfact> 0.44624766E+00</totfact>
</mgrwt>
</event>
<event>
12    1  0.1489025E-007  0.1222957E+04  0.7818608E-02  0.9092997E-01
         -2   -1    0    0    0  501 -0.00000000000E+00  0.00000000000E+00  0.29392545349E+04  0.29392545349E+04  0.00000000000E+00 0.  1.
          2   -1    0    0  501    0  0.00000000000E+00 -0.00000000000E+00 -0.12721108847E+03  0.12721108847E+03  0.00000000000E+00 0. -1.
         23    2    1    2    0    0  0.23266638466E+03  0.11905826630E+03  0.55952526329E+03  0.62353009684E+03  0.86097294263E+02 0.  0.
        254    2    1    2    0    0 -0.23266638466E+03 -0.11905826630E+03  0.22525181832E+04  0.24429355265E+04  0.90872839952E+03 0.  0.
        -24    2    4    4    0    0  0.46446565303E+02 -0.38709010966E+03  0.46434583716E+03  0.61164506028E+03  0.80601407299E+02 0.  0.
         24    2    4    4    0    0 -0.27911294997E+03  0.26803184336E+03  0.17881723460E+04  0.18312904663E+04  0.79494181781E+02 0.  0.
         11    1    3    3    0    0  0.57104533497E+01  0.24137320889E+02  0.91340138654E+02  0.94647981841E+02  0.00000000000E+00 0.  1.
        -11    1    3    3    0    0  0.22695593131E+03  0.94920945407E+02  0.46818512464E+03  0.52888211500E+03  0.00000000000E+00 0. -1.
          4    1    6    6  502    0 -0.90188196926E+02  0.40884108013E+02  0.49326031177E+03  0.50310153679E+03  0.00000000000E+00 0. -1.
          3    1    5    5  503    0  0.45627365933E+02 -0.22159851041E+03  0.21318345464E+03  0.31086161177E+03  0.00000000000E+00 0. -1.
         -4    1    5    5    0  503  0.81919936951E+00 -0.16549159925E+03  0.25116238251E+03  0.30078344851E+03  0.00000000000E+00 0.  1.
         -3    1    6    6    0  502 -0.18892475304E+03  0.22714773535E+03  0.12949120342E+04  0.13281889295E+04  0.00000000000E+00 0.  1.
<mgrwt>
<rscale>  0 0.12229567E+04</rscale>
<asrwt>0</asrwt>
<pdfrwt beam="1">  1        2 0.19570939E-01 0.12229567E+04</pdfrwt>
<pdfrwt beam="2">  1       -2 0.45219295E+00 0.12229567E+04</pdfrwt>
<totfact> 0.98364861E-01</totfact>
</mgrwt>
</event>
<event>
12    1  0.1489025E-007  0.1151503E+04  0.7818608E-02  0.9156398E-01
          2   -1    0    0  501    0  0.00000000000E+00  0.00000000000E+00  0.21734169218E+04  0.21734169218E+04  0.00000000000E+00 0.  1.
         -2   -1    0    0    0  501 -0.00000000000E+00 -0.00000000000E+00 -0.15252004098E+03  0.15252004098E+03  0.00000000000E+00 0. -1.
         23    2    1    2    0    0  0.16948087318E+03 -0.62563434097E+02  0.24631241247E+03  0.32912774348E+03  0.12254516447E+03 0.  0.
        254    2    1    2    0    0 -0.16948087318E+03  0.62563434097E+02  0.17745844684E+04  0.19968092193E+04  0.89747371734E+03 0.  0.
        -24    2    4    4    0    0 -0.15364738167E+03  0.44738312739E+03  0.12657077559E+04  0.13536522994E+04  0.81235730105E+02 0.  0.
         24    2    4    4    0    0 -0.15833491508E+02 -0.38481969329E+03  0.50887671249E+03  0.64315691991E+03  0.79739697216E+02 0.  0.
         11    1    3    3    0    0  0.15880505751E+03 -0.15696607431E+02  0.22665421307E+03  0.27719589116E+03  0.00000000000E+00 0.  1.
        -11    1    3    3    0    0  0.10675815671E+02 -0.46866826666E+02  0.19658199399E+02  0.51931852322E+02  0.00000000000E+00 0. -1.
          4    1    6    6  502    0  0.29999577510E+02 -0.22430638982E+03  0.28639229716E+03  0.36501216286E+03  0.00000000000E+00 0. -1.
          1    1    5    5  503    0 -0.15867973416E+03  0.39436261783E+03  0.10864876563E+04  0.11666861444E+04  0.00000000000E+00 0. -1.
         -2    1    5    5    0  503  0.50323524863E+01  0.53020509558E+02  0.17922009963E+03  0.18696615501E+03  0.00000000000E+00 0.  1.
         -3    1    6    6    0  502 -0.45833069018E+02 -0.16051330347E+03  0.22248441533E+03  0.27814475705E+03  0.00000000000E+00 0.  1.
<mgrwt>
<rscale>  0 0.11515027E+04</rscale>
<asrwt>0</asrwt>
<pdfrwt beam="1">  1        2 0.33437181E+00 0.11515027E+04</pdfrwt>
<pdfrwt beam="2">  1       -2 0.23464623E-01 0.11515027E+04</pdfrwt>
<totfact> 0.85385030E+01</totfact>
</mgrwt>
</event>
<event>
12    1  0.1489025E-007  0.1726470E+04  0.7818608E-02  0.8746410E-01
         -1   -1    0    0    0  501 -0.00000000000E+00  0.00000000000E+00  0.11055701894E+04  0.11055701894E+04  0.00000000000E+00 0.  1.
          1   -1    0    0  501    0  0.00000000000E+00 -0.00000000000E+00 -0.67401857087E+03  0.67401857087E+03  0.00000000000E+00 0. -1.
         23    2    1    2    0    0 -0.60126104487E+03  0.16796002281E+02 -0.14799615849E+02  0.60857234539E+03  0.91347256014E+02 0.  0.
        254    2    1    2    0    0  0.60126104487E+03 -0.16796002281E+02  0.44635123438E+03  0.11710164149E+04  0.90014058331E+03 0.  0.
        -24    2    4    4    0    0 -0.22362839876E+03 -0.63484851382E+02  0.47855585345E+02  0.25020258127E+03  0.79190829897E+02 0.  0.
         24    2    4    4    0    0  0.82488944363E+03  0.46688849101E+02  0.39849564904E+03  0.92081383361E+03  0.80479134068E+02 0.  0.
         13    1    3    3    0    0 -0.33499125482E+03  0.24288481812E+02  0.34625218722E+02  0.33765067292E+03  0.00000000000E+00 0. -1.
        -13    1    3    3    0    0 -0.26626979005E+03 -0.74924795310E+01 -0.49424834571E+02  0.27092167247E+03  0.00000000000E+00 0.  1.
          4    1    6    6  502    0  0.50275461027E+03  0.56328754298E+02  0.27390269334E+03  0.57528932906E+03  0.00000000000E+00 0. -1.
          1    1    5    5  503    0 -0.21733222321E+03 -0.39752023895E+02  0.45107646475E+02  0.22549549534E+03  0.00000000000E+00 0. -1.
         -2    1    5    5    0  503 -0.62961755486E+01 -0.23732827487E+02  0.27479388700E+01  0.24707085929E+02  0.00000000000E+00 0.  1.
         -3    1    6    6    0  502  0.32213483336E+03 -0.96399051974E+01  0.12459295570E+03  0.34552450455E+03  0.00000000000E+00 0.  1.
<mgrwt>
<rscale>  0 0.17264702E+04</rscale>
<asrwt>0</asrwt>
<pdfrwt beam="1">  1        1 0.10369516E+00 0.17264702E+04</pdfrwt>
<pdfrwt beam="2">  1       -1 0.17008772E+00 0.17264702E+04</pdfrwt>
<totfact> 0.67298177E+00</totfact>
</mgrwt>
</event>
<event>
12    1  0.1489025E-007  0.1811859E+04  0.7818608E-02  0.8700018E-01
          1   -1    0    0  501    0  0.00000000000E+00  0.00000000000E+00  0.13225289384E+04  0.13225289384E+04  0.00000000000E+00 0. -1.
         -1   -1    0    0    0  501 -0.00000000000E+00 -0.00000000000E+00 -0.62055954512E+03  0.62055954512E+03  0.00000000000E+00 0.  1.
         23    2    1    2    0    0 -0.15818952450E+03 -0.88004703045E+02 -0.43869402547E+03  0.48331963360E+03  0.91524132483E+02 0.  0.
        254    2    1    2    0    0  0.15818952450E+03  0.88004703045E+02  0.11406634187E+04  0.14597688499E+04  0.89277281932E+03 0.  0.
        -24    2    4    4    0    0  0.32097837434E+03  0.84588470687E+02  0.12164033879E+04  0.12634901400E+04  0.81165298102E+02 0.  0.
         24    2    4    4    0    0 -0.16278884984E+03  0.34162323575E+01 -0.75739969180E+02  0.19627870990E+03  0.79226944613E+02 0.  0.
         13    1    3    3    0    0 -0.66389735034E+02 -0.32149562107E+01 -0.83135543297E+02  0.10643989581E+03  0.00000000000E+00 0. -1.
        -13    1    3    3    0    0 -0.91799789465E+02 -0.84789746834E+02 -0.35555848217E+03  0.37687973779E+03  0.00000000000E+00 0.  1.
          2    1    6    6  502    0 -0.57142767728E+02 -0.21164084272E+02  0.48798467181E+01  0.61131229914E+02  0.00000000000E+00 0. -1.
          1    1    5    5  503    0  0.11614410622E+03  0.71071041338E+02  0.51000839671E+03  0.52787224879E+03  0.00000000000E+00 0. -1.
         -2    1    5    5    0  503  0.20483426812E+03  0.13517429350E+02  0.70639499120E+03  0.73561789122E+03  0.00000000000E+00 0.  1.
         -1    1    6    6    0  502 -0.10564608211E+03  0.24580316630E+02 -0.80619815898E+02  0.13514747999E+03  0.00000000000E+00 0.  1.
<mgrwt>
<rscale>  0 0.18118587E+04</rscale>
<asrwt>0</asrwt>
<pdfrwt beam="1">  1        1 0.20346599E+00 0.18118587E+04</pdfrwt>
<pdfrwt beam="2">  1       -1 0.95470700E-01 0.18118587E+04</pdfrwt>
<totfact> 0.87012298E+00</totfact>
</mgrwt>
</event>
<event>
12    1  0.1489025E-007  0.2929788E+04  0.7818608E-02  0.8264069E-01
         -1   -1    0    0    0  501 -0.00000000000E+00  0.00000000000E+00  0.90790710559E+03  0.90790710559E+03  0.00000000000E+00 0.  1.
          1   -1    0    0  501    0  0.00000000000E+00 -0.00000000000E+00 -0.23635844783E+04  0.23635844783E+04  0.00000000000E+00 0. -1.
         23    2    1    2    0    0 -0.51256008766E+03 -0.75661329598E+03 -0.17311528321E+04  0.19595035703E+04  0.87078073775E+02 0.  0.
        254    2    1    2    0    0  0.51256008766E+03  0.75661329598E+03  0.27547545944E+03  0.13119880135E+04  0.90013570962E+03 0.  0.
        -24    2    4    4    0    0  0.38457555421E+03 -0.10625030215E+03  0.67483696730E+02  0.41156474313E+03  0.75126592208E+02 0.  0.
         24    2    4    4    0    0  0.12798453345E+03  0.86286359812E+03  0.20799176271E+03  0.90042327038E+03  0.81165649898E+02 0.  0.
         13    1    3    3    0    0 -0.12150557190E+03 -0.18830982429E+03 -0.34902279001E+03  0.41477837681E+03  0.00000000000E+00 0.  1.
        -13    1    3    3    0    0 -0.39105451576E+03 -0.56830347169E+03 -0.13821300421E+04  0.15447251935E+04  0.00000000000E+00 0. -1.
          4    1    6    6  502    0 -0.97324250405E+01  0.12085275271E+03  0.23158926374E+02  0.12343599072E+03  0.00000000000E+00 0. -1.
          3    1    5    5  503    0  0.53575672329E+02  0.60905884739E+01 -0.63932674596E+01  0.54298451196E+02  0.00000000000E+00 0. -1.
         -4    1    5    5    0  503  0.33099988188E+03 -0.11234089062E+03  0.73876964190E+02  0.35726629193E+03  0.00000000000E+00 0.  1.
         -3    1    6    6    0  502  0.13771695849E+03  0.74201084541E+03  0.18483283634E+03  0.77698727966E+03  0.00000000000E+00 0.  1.
<mgrwt>
<rscale>  0 0.29297885E+04</rscale>
<asrwt>0</asrwt>
<pdfrwt beam="1">  1        1 0.36362837E+00 0.29297885E+04</pdfrwt>
<pdfrwt beam="2">  1       -1 0.13967802E+00 0.29297885E+04</pdfrwt>
<totfact> 0.60750558E-01</totfact>
</mgrwt>
</event>
<event>
12    1  0.1489025E-007  0.1202277E+04  0.7818608E-02  0.9110866E-01
         -1   -1    0    0    0  501 -0.00000000000E+00  0.00000000000E+00  0.45486180781E+03  0.45486180781E+03  0.00000000000E+00 0.  1.
          1   -1    0    0  501    0  0.00000000000E+00 -0.00000000000E+00 -0.79445546593E+03  0.79445546593E+03  0.00000000000E+00 0. -1.
         23    2    1    2    0    0  0.12342279573E+03  0.14165159941E+03  0.98934928252E+02  0.23097198990E+03  0.90893222908E+02 0.  0.
        254    2    1    2    0    0 -0.12342279573E+03 -0.14165159941E+03 -0.43852858638E+03  0.10183452838E+04  0.89967851698E+03 0.  0.
        -24    2    4    4    0    0 -0.15011077368E+03  0.17076485586E+03  0.19319559103E+03  0.30874621979E+03  0.79409139703E+02 0.  0.
         24    2    4    4    0    0  0.26687977950E+02 -0.31241645528E+03 -0.63172417741E+03  0.70959906405E+03  0.78352445296E+02 0.  0.
         11    1    3    3    0    0  0.13753921027E+03  0.13081789618E+03  0.83321962523E+02  0.20729907322E+03  0.00000000000E+00 0.  1.
        -11    1    3    3    0    0 -0.14116414540E+02  0.10833703235E+02  0.15612965729E+02  0.23672916679E+02  0.00000000000E+00 0. -1.
          4    1    6    6  502    0  0.24911882278E+02 -0.24221487772E+02 -0.59706289899E+02  0.69080557338E+02  0.00000000000E+00 0. -1.
          3    1    5    5  503    0 -0.28545959405E+02  0.88390190888E+02  0.60687662132E+02  0.11095354874E+03  0.00000000000E+00 0. -1.
         -4    1    5    5    0  503 -0.12156481427E+03  0.82374664976E+02  0.13250792890E+03  0.19779267104E+03  0.00000000000E+00 0.  1.
         -3    1    6    6    0  502  0.17760956717E+01 -0.28819496751E+03 -0.57201788751E+03  0.64051850671E+03  0.00000000000E+00 0.  1.
<mgrwt>
<rscale>  0 0.12022769E+04</rscale>
<asrwt>0</asrwt>
<pdfrwt beam="1">  1        1 0.12222392E+00 0.12022769E+04</pdfrwt>
<pdfrwt beam="2">  1       -1 0.69978740E-01 0.12022769E+04</pdfrwt>
<totfact> 0.45690588E+01</totfact>
</mgrwt>
</event>
<event>
12    1  0.1489025E-007  0.1433574E+04  0.7818608E-02  0.8929868E-01
         -2   -1    0    0    0  501 -0.00000000000E+00  0.00000000000E+00  0.14303615864E+03  0.14303615864E+03  0.00000000000E+00 0.  1.
          2   -1    0    0  501    0  0.00000000000E+00 -0.00000000000E+00 -0.35919839412E+04  0.35919839412E+04  0.00000000000E+00 0. -1.
         23    2    1    2    0    0  0.15572639915E+03 -0.31134175114E+03 -0.41366557476E+03  0.54834411912E+03  0.91529600881E+02 0.  0.
        254    2    1    2    0    0 -0.15572639915E+03  0.31134175114E+03 -0.30352822078E+04  0.31866759807E+04  0.90596982716E+03 0.  0.
        -24    2    4    4    0    0 -0.45808755615E+03  0.32038294024E+03 -0.12181194664E+04  0.13428433667E+04  0.83209587513E+02 0.  0.
         24    2    4    4    0    0  0.30236115700E+03 -0.90411890961E+01 -0.18171627414E+04  0.18438326140E+04  0.78321565361E+02 0.  0.
         11    1    3    3    0    0  0.18622994086E+02 -0.10909131398E+02 -0.63281669251E+02  0.66861010460E+02  0.00000000000E+00 0. -1.
        -11    1    3    3    0    0  0.13710340506E+03 -0.30043261974E+03 -0.35038390551E+03  0.48148310866E+03  0.00000000000E+00 0.  1.
          4    1    6    6  502    0  0.24076286534E+03 -0.37925766143E+02 -0.13671153024E+04  0.13886718011E+04  0.00000000000E+00 0. -1.
          3    1    5    5  503    0 -0.54694128394E+02  0.75394021168E+02 -0.19339675053E+03  0.21465788880E+03  0.00000000000E+00 0. -1.
         -4    1    5    5    0  503 -0.40339342776E+03  0.24498891907E+03 -0.10247227159E+04  0.11281854779E+04  0.00000000000E+00 0.  1.
         -3    1    6    6    0  502  0.61598291668E+02  0.28884577046E+02 -0.45004743897E+03  0.45516081296E+03  0.00000000000E+00 0.  1.
<mgrwt>
<rscale>  0 0.14335740E+04</rscale>
<asrwt>0</asrwt>
<pdfrwt beam="1">  1        2 0.55261290E+00 0.14335740E+04</pdfrwt>
<pdfrwt beam="2">  1       -2 0.22005564E-01 0.14335740E+04</pdfrwt>
<totfact> 0.12480180E+01</totfact>
</mgrwt>
</event>
<event>
12    1  0.1489025E-007  0.2723024E+04  0.7818608E-02  0.8327573E-01
         -2   -1    0    0    0  501 -0.00000000000E+00  0.00000000000E+00  0.15344784873E+04  0.15344784873E+04  0.00000000000E+00 0.  1.
          2   -1    0    0  501    0  0.00000000000E+00 -0.00000000000E+00 -0.12080418681E+04  0.12080418681E+04  0.00000000000E+00 0. -1.
         23    2    1    2    0    0 -0.53552842783E+03 -0.46392374054E+03  0.11318067859E+04  0.13382477952E+04  0.88907966626E+02 0.  0.
        254    2    1    2    0    0  0.53552842783E+03  0.46392374054E+03 -0.80537016672E+03  0.14042725602E+04  0.90628052155E+03 0.  0.
        -24    2    4    4    0    0  0.51677984780E+03 -0.76359045810E+02 -0.64601994350E+03  0.83505379759E+03  0.84148455142E+02 0.  0.
         24    2    4    4    0    0  0.18748580035E+02  0.54028278635E+03 -0.15935022322E+03  0.56921876258E+03  0.79752790210E+02 0.  0.
         13    1    3    3    0    0 -0.38235702055E+03 -0.31421138943E+03  0.85950493557E+03  0.99180362103E+03  0.00000000000E+00 0.  1.
        -13    1    3    3    0    0 -0.15317140728E+03 -0.14971235112E+03  0.27230185036E+03  0.34644417414E+03  0.00000000000E+00 0. -1.
          2    1    6    6  502    0  0.14732282735E+00 -0.21982473202E+01 -0.40978680088E+01  0.46525818116E+01  0.00000000000E+00 0. -1.
          3    1    5    5  503    0  0.11632420860E+03 -0.49030699335E+02 -0.12866002170E+03  0.18024630972E+03  0.00000000000E+00 0. -1.
         -4    1    5    5    0  503  0.40045563919E+03 -0.27328346475E+02 -0.51735992180E+03  0.65480748787E+03  0.00000000000E+00 0.  1.
         -1    1    6    6    0  502  0.18601257207E+02  0.54248103367E+03 -0.15525235521E+03  0.56456618076E+03  0.00000000000E+00 0.  1.
<mgrwt>
<rscale>  0 0.27230235E+04</rscale>
<asrwt>0</asrwt>
<pdfrwt beam="1">  1        2 0.18585259E+00 0.27230235E+04</pdfrwt>
<pdfrwt beam="2">  1       -2 0.23607361E+00 0.27230235E+04</pdfrwt>
<totfact> 0.12851739E+00</totfact>
</mgrwt>
</event>
<event>
12    1  0.1489025E-007  0.2069835E+04  0.7818608E-02  0.8574649E-01
          2   -1    0    0  501    0  0.00000000000E+00  0.00000000000E+00  0.15162439378E+04  0.15162439378E+04  0.00000000000E+00 0. -1.
         -2   -1    0    0    0  501 -0.00000000000E+00 -0.00000000000E+00 -0.70638614869E+03  0.70638614869E+03  0.00000000000E+00 0.  1.
         23    2    1    2    0    0  0.35855164553E+03 -0.61248429469E+03 -0.14777362808E+03  0.73102680271E+03  0.94163938774E+02 0.  0.
        254    2    1    2    0    0 -0.35855164553E+03  0.61248429469E+03  0.95763141724E+03  0.14916032838E+04  0.89673080204E+03 0.  0.
        -24    2    4    4    0    0 -0.42515300106E+03  0.31697480795E+03  0.58016252579E+02  0.53926760137E+03  0.78838804794E+02 0.  0.
         24    2    4    4    0    0  0.66601355531E+02  0.29550948674E+03  0.89961516466E+03  0.95233568246E+03  0.76643396995E+02 0.  0.
         13    1    3    3    0    0  0.32548406520E+03 -0.59576597727E+03 -0.14054230500E+03  0.69327419963E+03  0.00000000000E+00 0.  1.
        -13    1    3    3    0    0  0.33067580321E+02 -0.16718317422E+02 -0.72313230835E+01  0.37752603079E+02  0.00000000000E+00 0. -1.
          2    1    6    6  502    0  0.27403362780E+02  0.23695536286E+03  0.74871819472E+03  0.78579750788E+03  0.00000000000E+00 0. -1.
          1    1    5    5  503    0 -0.42395974726E+03  0.32053390558E+03  0.60255266123E+02  0.53489676482E+03  0.00000000000E+00 0. -1.
         -4    1    5    5    0  503 -0.11932537994E+01 -0.35590976230E+01 -0.22390135439E+01  0.43708365526E+01  0.00000000000E+00 0.  1.
         -1    1    6    6    0  502  0.39197992751E+02  0.58554123880E+02  0.15089696994E+03  0.16653817459E+03  0.00000000000E+00 0.  1.
<mgrwt>
<rscale>  0 0.20698345E+04</rscale>
<asrwt>0</asrwt>
<pdfrwt beam="1">  1        2 0.23326830E+00 0.20698345E+04</pdfrwt>
<pdfrwt beam="2">  1       -2 0.10867479E+00 0.20698345E+04</pdfrwt>
<totfact> 0.77693493E+00</totfact>
</mgrwt>
</event>
<event>
12    1  0.1489025E-007  0.1585828E+04  0.7818608E-02  0.8829302E-01
         -1   -1    0    0    0  501 -0.00000000000E+00  0.00000000000E+00  0.62245804724E+03  0.62245804724E+03  0.00000000000E+00 0.  1.
          1   -1    0    0  501    0  0.00000000000E+00 -0.00000000000E+00 -0.10100486606E+04  0.10100486606E+04  0.00000000000E+00 0. -1.
         23    2    1    2    0    0  0.53998458551E+03  0.90788201915E+02 -0.17518432372E+03  0.58228985280E+03  0.92444984742E+02 0.  0.
        254    2    1    2    0    0 -0.53998458551E+03 -0.90788201915E+02 -0.21240628961E+03  0.10502168550E+04  0.87063951238E+03 0.  0.
        -24    2    4    4    0    0 -0.39261744017E+03  0.34342039055E+03 -0.24947887943E+03  0.58342428005E+03  0.77834184600E+02 0.  0.
         24    2    4    4    0    0 -0.14736714533E+03 -0.43420859246E+03  0.37072589823E+02  0.46679257497E+03  0.79162831193E+02 0.  0.
         11    1    3    3    0    0  0.39901343129E+02  0.12905223623E+02  0.10431784182E+02  0.43214396924E+02  0.00000000000E+00 0. -1.
        -11    1    3    3    0    0  0.50008324238E+03  0.77882978291E+02 -0.18561610791E+03  0.53907545588E+03  0.00000000000E+00 0.  1.
          4    1    6    6  502    0 -0.15287205387E+03 -0.43358342104E+03  0.37240669106E+02  0.46124973203E+03  0.00000000000E+00 0. -1.
          3    1    5    5  503    0 -0.28256355409E+03  0.22449735154E+03 -0.20648329050E+03  0.41578428566E+03  0.00000000000E+00 0. -1.
         -4    1    5    5    0  503 -0.11005388609E+03  0.11892303901E+03 -0.42995588930E+02  0.16763999439E+03  0.00000000000E+00 0.  1.
         -3    1    6    6    0  502  0.55049085358E+01 -0.62517141731E+00 -0.16807928290E+00  0.55428429469E+01  0.00000000000E+00 0.  1.
<mgrwt>
<rscale>  0 0.15858284E+04</rscale>
<asrwt>0</asrwt>
<pdfrwt beam="1">  1        1 0.15539210E+00 0.15858284E+04</pdfrwt>
<pdfrwt beam="2">  1       -1 0.95762777E-01 0.15858284E+04</pdfrwt>
<totfact> 0.15015869E+01</totfact>
</mgrwt>
</event>
<event>
12    1  0.1489025E-007  0.1698155E+04  0.7818608E-02  0.8762417E-01
          2   -1    0    0  501    0  0.00000000000E+00  0.00000000000E+00  0.91782556405E+03  0.91782556405E+03  0.00000000000E+00 0. -1.
         -2   -1    0    0    0  501 -0.00000000000E+00 -0.00000000000E+00 -0.78547911302E+03  0.78547911302E+03  0.00000000000E+00 0.  1.
         23    2    1    2    0    0  0.49732309580E+03 -0.34913338248E+03  0.72244967888E+02  0.61872099735E+03  0.91498397750E+02 0.  0.
        254    2    1    2    0    0 -0.49732309580E+03  0.34913338248E+03  0.60101483134E+02  0.10845836797E+04  0.89637335394E+03 0.  0.
        -24    2    4    4    0    0 -0.47942769701E+02  0.20445067866E+03 -0.37544019684E+03  0.43742431462E+03  0.79284932034E+02 0.  0.
         24    2    4    4    0    0 -0.44938032610E+03  0.14468270382E+03  0.43554167997E+03  0.64715936510E+03  0.79012192502E+02 0.  0.
         11    1    3    3    0    0  0.19695384716E+03 -0.14075264803E+03 -0.16134234313E+02  0.24261582668E+03  0.00000000000E+00 0.  1.
        -11    1    3    3    0    0  0.30036924865E+03 -0.20838073445E+03  0.88379202201E+02  0.37610517067E+03  0.00000000000E+00 0. -1.
          4    1    6    6  502    0 -0.55144420490E+02  0.90021953464E+01  0.22381137547E+02  0.60190214738E+02  0.00000000000E+00 0. -1.
          3    1    5    5  503    0  0.15273324156E+02  0.21647923936E+02 -0.21662379711E+02  0.34222298816E+02  0.00000000000E+00 0. -1.
         -4    1    5    5    0  503 -0.63216093857E+02  0.18280275473E+03 -0.35377781713E+03  0.40320201581E+03  0.00000000000E+00 0.  1.
         -3    1    6    6    0  502 -0.39423590561E+03  0.13568050847E+03  0.41316054243E+03  0.58696915036E+03  0.00000000000E+00 0.  1.
<mgrwt>
<rscale>  0 0.16981552E+04</rscale>
<asrwt>0</asrwt>
<pdfrwt beam="1">  1        2 0.14120393E+00 0.16981552E+04</pdfrwt>
<pdfrwt beam="2">  1       -2 0.12084294E+00 0.16981552E+04</pdfrwt>
<totfact> 0.14164154E+01</totfact>
</mgrwt>
</event>
<event>
12    1  0.1489025E-007  0.1886278E+04  0.7818608E-02  0.8661717E-01
          2   -1    0    0  501    0  0.00000000000E+00  0.00000000000E+00  0.12383108546E+04  0.12383108546E+04  0.00000000000E+00 0. -1.
         -2   -1    0    0    0  501 -0.00000000000E+00 -0.00000000000E+00 -0.71832651261E+03  0.71832651261E+03  0.00000000000E+00 0.  1.
         23    2    1    2    0    0 -0.10591169698E+03 -0.65907770521E+03  0.49660859408E+03  0.83684261624E+03  0.89915291189E+02 0.  0.
        254    2    1    2    0    0  0.10591169698E+03  0.65907770521E+03  0.23375747867E+02  0.11197947509E+04  0.89877313575E+03 0.  0.
        -24    2    4    4    0    0  0.42178180444E+03  0.36695122875E+03  0.26030698622E+03  0.62169887983E+03  0.78718963886E+02 0.  0.
         24    2    4    4    0    0 -0.31587010746E+03  0.29212647646E+03 -0.23693123835E+03  0.49809587109E+03  0.82772471593E+02 0.  0.
         13    1    3    3    0    0 -0.44636162237E+02 -0.10568466921E+03  0.61157087598E+02  0.13000702154E+03  0.00000000000E+00 0.  1.
        -13    1    3    3    0    0 -0.61275534739E+02 -0.55339303600E+03  0.43545150648E+03  0.70683559470E+03  0.00000000000E+00 0. -1.
          4    1    6    6  502    0 -0.42999361562E+02  0.47440461560E+02 -0.71505705784E+02  0.95982334038E+02  0.00000000000E+00 0. -1.
          1    1    5    5  503    0  0.45154833219E+02  0.65158880585E+02  0.58773666862E+02  0.98686283741E+02  0.00000000000E+00 0. -1.
         -2    1    5    5    0  503  0.37662697122E+03  0.30179234817E+03  0.20153331936E+03  0.52301259609E+03  0.00000000000E+00 0.  1.
         -3    1    6    6    0  502 -0.27287074590E+03  0.24468601490E+03 -0.16542553257E+03  0.40211353705E+03  0.00000000000E+00 0.  1.
<mgrwt>
<rscale>  0 0.18862784E+04</rscale>
<asrwt>0</asrwt>
<pdfrwt beam="1">  1        2 0.19050936E+00 0.18862784E+04</pdfrwt>
<pdfrwt beam="2">  1       -2 0.11051177E+00 0.18862784E+04</pdfrwt>
<totfact> 0.10948809E+01</totfact>
</mgrwt>
</event>
<event>
12    1  0.1489025E-007  0.2257303E+04  0.7818608E-02  0.8494949E-01
          2   -1    0    0  501    0  0.00000000000E+00  0.00000000000E+00  0.20850062187E+04  0.20850062187E+04  0.00000000000E+00 0. -1.
         -2   -1    0    0    0  501 -0.00000000000E+00 -0.00000000000E+00 -0.61095949323E+03  0.61095949323E+03  0.00000000000E+00 0.  1.
         23    2    1    2    0    0 -0.15767094327E+03 -0.91576042395E+03  0.41805426288E+03  0.10231417664E+04  0.92587401942E+02 0.  0.
        254    2    1    2    0    0  0.15767094327E+03  0.91576042395E+03  0.10559924626E+04  0.16728239456E+04  0.90539637251E+03 0.  0.
        -24    2    4    4    0    0 -0.23660634987E+03 -0.39067413912E+02  0.28849554377E+03  0.38344092659E+03  0.79299670775E+02 0.  0.
         24    2    4    4    0    0  0.39427729314E+03  0.95482783786E+03  0.76749691885E+03  0.12893830190E+04  0.79411997476E+02 0.  0.
         11    1    3    3    0    0 -0.50229304096E+02 -0.46943742390E+03  0.17345830907E+03  0.50297342170E+03  0.00000000000E+00 0.  1.
        -11    1    3    3    0    0 -0.10744163918E+03 -0.44632300004E+03  0.24459595381E+03  0.52016834469E+03  0.00000000000E+00 0. -1.
          4    1    6    6  502    0  0.18255377335E+03  0.35068737107E+03  0.27263595944E+03  0.48024772646E+03  0.00000000000E+00 0. -1.
          1    1    5    5  503    0 -0.19369651878E+03 -0.19093162827E+02  0.26951190977E+03  0.33244482213E+03  0.00000000000E+00 0. -1.
         -2    1    5    5    0  503 -0.42909831090E+02 -0.19974251085E+02  0.18983633997E+02  0.50996104462E+02  0.00000000000E+00 0.  1.
         -3    1    6    6    0  502  0.21172351980E+03  0.60414046679E+03  0.49486095941E+03  0.80913529251E+03  0.00000000000E+00 0.  1.
<mgrwt>
<rscale>  0 0.22573031E+04</rscale>
<asrwt>0</asrwt>
<pdfrwt beam="1">  1        2 0.32077018E+00 0.22573031E+04</pdfrwt>
<pdfrwt beam="2">  1       -2 0.93993769E-01 0.22573031E+04</pdfrwt>
<totfact> 0.52067062E+00</totfact>
</mgrwt>
</event>
<event>
12    1  0.1489025E-007  0.1357703E+04  0.7818608E-02  0.8985018E-01
          1   -1    0    0  501    0  0.00000000000E+00  0.00000000000E+00  0.21852047278E+04  0.21852047278E+04  0.00000000000E+00 0. -1.
         -1   -1    0    0    0  501 -0.00000000000E+00 -0.00000000000E+00 -0.21089067081E+03  0.21089067081E+03  0.00000000000E+00 0.  1.
         23    2    1    2    0    0 -0.23542099772E+03  0.13671189024E+03  0.10208612095E+03  0.30462968798E+03  0.90909205296E+02 0.  0.
        254    2    1    2    0    0  0.23542099772E+03 -0.13671189024E+03  0.18722279360E+04  0.20914657106E+04  0.89155941312E+03 0.  0.
        -24    2    4    4    0    0 -0.26936832649E+03  0.17366195705E+03  0.58604711154E+03  0.67314793809E+03  0.83421573771E+02 0.  0.
         24    2    4    4    0    0  0.50478932421E+03 -0.31037384729E+03  0.12861808245E+04  0.14183177725E+04  0.78866999753E+02 0.  0.
         11    1    3    3    0    0 -0.20722438002E+03  0.82762342779E+02  0.61477649911E+02  0.23145420820E+03  0.00000000000E+00 0.  1.
        -11    1    3    3    0    0 -0.28196617708E+02  0.53949547457E+02  0.40608471037E+02  0.73175479779E+02  0.00000000000E+00 0. -1.
          4    1    6    6  502    0  0.32543604247E+03 -0.17641919398E+03  0.87655388137E+03  0.95151408643E+03  0.00000000000E+00 0. -1.
          3    1    5    5  503    0 -0.14319405610E+03  0.14014966224E+03  0.36779167048E+03  0.41882834002E+03  0.00000000000E+00 0. -1.
         -4    1    5    5    0  503 -0.12617427039E+03  0.33512294814E+02  0.21825544105E+03  0.25431959807E+03  0.00000000000E+00 0.  1.
         -3    1    6    6    0  502  0.17935328174E+03 -0.13395465331E+03  0.40962694315E+03  0.46680368611E+03  0.00000000000E+00 0.  1.
<mgrwt>
<rscale>  0 0.13577029E+04</rscale>
<asrwt>0</asrwt>
<pdfrwt beam="1">  1        1 0.33618533E+00 0.13577029E+04</pdfrwt>
<pdfrwt beam="2">  1       -1 0.32444720E-01 0.13577029E+04</pdfrwt>
<totfact> 0.19417330E+01</totfact>
</mgrwt>
</event>
<event>
12    1  0.1489025E-007  0.1661449E+04  0.7818608E-02  0.8783662E-01
          1   -1    0    0  501    0  0.00000000000E+00  0.00000000000E+00  0.93063877382E+03  0.93063877382E+03  0.00000000000E+00 0. -1.
         -1   -1    0    0    0  501 -0.00000000000E+00 -0.00000000000E+00 -0.74153740168E+03  0.74153740168E+03  0.00000000000E+00 0.  1.
         23    2    1    2    0    0  0.43296798294E+03  0.20537972292E+02  0.45637618795E+03  0.63628780634E+03  0.93273066945E+02 0.  0.
        254    2    1    2    0    0 -0.43296798294E+03 -0.20537972292E+02 -0.26727481581E+03  0.10358883692E+04  0.90207860170E+03 0.  0.
        -24    2    4    4    0    0 -0.61263979625E+03 -0.12586787762E+03  0.66739005292E+02  0.63412929764E+03  0.80595463459E+02 0.  0.
         24    2    4    4    0    0  0.17967181331E+03  0.10532990533E+03 -0.33401382110E+03  0.40175907152E+03  0.80428660381E+02 0.  0.
         11    1    3    3    0    0  0.40249920324E+03 -0.38933274758E+01  0.39806536662E+03  0.56610670611E+03  0.00000000000E+00 0. -1.
        -11    1    3    3    0    0  0.30468779694E+02  0.24431299767E+02  0.58310821332E+02  0.70181100225E+02  0.00000000000E+00 0.  1.
          2    1    6    6  502    0  0.18106122982E+03  0.11379900401E+03 -0.32677252835E+03  0.39052998290E+03  0.00000000000E+00 0. -1.
          3    1    5    5  503    0 -0.29541668052E+03 -0.45092636501E+02  0.69322565717E+02  0.30677349807E+03  0.00000000000E+00 0. -1.
         -4    1    5    5    0  503 -0.31722311573E+03 -0.80775241118E+02 -0.25835604256E+01  0.32735579957E+03  0.00000000000E+00 0.  1.
         -1    1    6    6    0  502 -0.13894165104E+01 -0.84690986795E+01 -0.72412927505E+01  0.11229088626E+02  0.00000000000E+00 0.  1.
<mgrwt>
<rscale>  0 0.16614493E+04</rscale>
<asrwt>0</asrwt>
<pdfrwt beam="1">  1        1 0.14317520E+00 0.16614493E+04</pdfrwt>
<pdfrwt beam="2">  1       -1 0.11408268E+00 0.16614493E+04</pdfrwt>
<totfact> 0.11479120E+01</totfact>
</mgrwt>
</event>
<event>
12    1  0.1489025E-007  0.2267666E+04  0.7818608E-02  0.8490780E-01
          2   -1    0    0  501    0  0.00000000000E+00  0.00000000000E+00  0.26326918669E+04  0.26326918669E+04  0.00000000000E+00 0. -1.
         -2   -1    0    0    0  501 -0.00000000000E+00 -0.00000000000E+00 -0.48831289258E+03  0.48831289258E+03  0.00000000000E+00 0.  1.
         23    2    1    2    0    0 -0.77325682201E+03  0.31561506254E+03  0.15306482347E+04  0.17459702502E+04  0.89381853612E+02 0.  0.
        254    2    1    2    0    0  0.77325682201E+03 -0.31561506254E+03  0.61373073969E+03  0.13750345093E+04  0.90361247256E+03 0.  0.
        -24    2    4    4    0    0  0.90890245991E+03 -0.39854121356E+02  0.45699312763E+03  0.10210478125E+04  0.77484734494E+02 0.  0.
         24    2    4    4    0    0 -0.13564563791E+03 -0.27576094118E+03  0.15673761206E+03  0.35398669684E+03  0.79347758260E+02 0.  0.
         13    1    3    3    0    0 -0.56202244559E+02  0.19730206172E+02  0.68321143155E+02  0.90640785142E+02  0.00000000000E+00 0.  1.
        -13    1    3    3    0    0 -0.71705457745E+03  0.29588485637E+03  0.14623270915E+04  0.16553294650E+04  0.00000000000E+00 0. -1.
          2    1    6    6  502    0 -0.12660876334E+02 -0.10660379753E+03  0.40672092314E+02  0.11479933158E+03  0.00000000000E+00 0. -1.
          3    1    5    5  503    0  0.11101215029E+02 -0.72252116929E-01  0.17331016644E+02  0.20581698992E+02  0.00000000000E+00 0. -1.
         -4    1    5    5    0  503  0.89780124488E+03 -0.39781869239E+02  0.43966211098E+03  0.10004661135E+04  0.00000000000E+00 0.  1.
         -1    1    6    6    0  502 -0.12298476157E+03 -0.16915714366E+03  0.11606551975E+03  0.23918736527E+03  0.00000000000E+00 0.  1.
<mgrwt>
<rscale>  0 0.22676661E+04</rscale>
<asrwt>0</asrwt>
<pdfrwt beam="1">  1        2 0.40502951E+00 0.22676661E+04</pdfrwt>
<pdfrwt beam="2">  1       -2 0.75125062E-01 0.22676661E+04</pdfrwt>
<totfact> 0.42107796E+00</totfact>
</mgrwt>
</event>
<event>
12    1  0.1489025E-007  0.2813842E+04  0.7818608E-02  0.8298984E-01
          2   -1    0    0  501    0  0.00000000000E+00  0.00000000000E+00  0.13865533388E+04  0.13865533388E+04  0.00000000000E+00 0.  1.
         -2   -1    0    0    0  501 -0.00000000000E+00 -0.00000000000E+00 -0.14275882910E+04  0.14275882910E+04  0.00000000000E+00 0. -1.
         23    2    1    2    0    0 -0.62559065928E+03 -0.96967273989E+03  0.49762795595E+03  0.12599849377E+04  0.91101949838E+02 0.  0.
        254    2    1    2    0    0  0.62559065928E+03  0.96967273989E+03 -0.53866290807E+03  0.15541566921E+04  0.89085150256E+03 0.  0.
        -24    2    4    4    0    0  0.60872091528E+03  0.16343534170E+03 -0.33551905234E+03  0.71871168954E+03  0.81982892003E+02 0.  0.
         24    2    4    4    0    0  0.16869744003E+02  0.80623739819E+03 -0.20314385573E+03  0.83544500256E+03  0.79984971590E+02 0.  0.
         13    1    3    3    0    0 -0.16951654368E+03 -0.19595234570E+03  0.99202105290E+02  0.27744231484E+03  0.00000000000E+00 0. -1.
        -13    1    3    3    0    0 -0.45607411560E+03 -0.77372039419E+03  0.39842585066E+03  0.98254262288E+03  0.00000000000E+00 0.  1.
          2    1    6    6  502    0  0.16613212444E+02  0.31319711039E+02 -0.89212492036E+01  0.36558334407E+02  0.00000000000E+00 0. -1.
          3    1    5    5  503    0  0.96809441066E+02  0.52778370193E+02 -0.39591764866E+02  0.11715430886E+03  0.00000000000E+00 0. -1.
         -4    1    5    5    0  503  0.51191147421E+03  0.11065697150E+03 -0.29592728748E+03  0.60155738068E+03  0.00000000000E+00 0.  1.
         -1    1    6    6    0  502  0.25653155924E+00  0.77491768715E+03 -0.19422260652E+03  0.79888666816E+03  0.00000000000E+00 0.  1.
<mgrwt>
<rscale>  0 0.28138424E+04</rscale>
<asrwt>0</asrwt>
<pdfrwt beam="1">  1        2 0.21331590E+00 0.28138424E+04</pdfrwt>
<pdfrwt beam="2">  1       -2 0.21962897E+00 0.28138424E+04</pdfrwt>
<totfact> 0.12723136E+00</totfact>
</mgrwt>
</event>
<event>
12    1  0.1489025E-007  0.1087714E+04  0.7818608E-02  0.9217250E-01
          2   -1    0    0  501    0  0.00000000000E+00  0.00000000000E+00  0.51142649384E+03  0.51142649384E+03  0.00000000000E+00 0.  1.
         -2   -1    0    0    0  501 -0.00000000000E+00 -0.00000000000E+00 -0.57834397931E+03  0.57834397931E+03  0.00000000000E+00 0. -1.
         23    2    1    2    0    0  0.53813082559E+02 -0.69924712371E+02 -0.13722494817E+03  0.18657907950E+03  0.90530399603E+02 0.  0.
        254    2    1    2    0    0 -0.53813082559E+02  0.69924712371E+02  0.70307462695E+02  0.90319139365E+03  0.89611731430E+03 0.  0.
        -24    2    4    4    0    0 -0.18415400381E+03  0.19892227350E+03 -0.34284371571E+03  0.44393966135E+03  0.77832136727E+02 0.  0.
         24    2    4    4    0    0  0.13034092125E+03 -0.12899756113E+03  0.41315117841E+03  0.45925173229E+03  0.81173461605E+02 0.  0.
         11    1    3    3    0    0  0.71517801503E+02 -0.75131371181E+02 -0.13101870137E+03  0.16710900327E+03  0.00000000000E+00 0. -1.
        -11    1    3    3    0    0 -0.17704718943E+02  0.52066588099E+01 -0.62062467988E+01  0.19470076223E+02  0.00000000000E+00 0.  1.
          4    1    6    6  502    0  0.93689573736E+02 -0.41393235571E+02  0.25469439039E+03  0.27451843049E+03  0.00000000000E+00 0. -1.
          3    1    5    5  503    0 -0.16620675393E+03  0.20280159729E+03 -0.33019979960E+03  0.42164568132E+03  0.00000000000E+00 0. -1.
         -4    1    5    5    0  503 -0.17947249877E+02 -0.38793237941E+01 -0.12643916108E+02  0.22293980035E+02  0.00000000000E+00 0.  1.
         -1    1    6    6    0  502  0.36651347514E+02 -0.87604325554E+02  0.15845678801E+03  0.18473330181E+03  0.00000000000E+00 0.  1.
<mgrwt>
<rscale>  0 0.10877140E+04</rscale>
<asrwt>0</asrwt>
<pdfrwt beam="1">  1        2 0.78680999E-01 0.10877140E+04</pdfrwt>
<pdfrwt beam="2">  1       -2 0.88975997E-01 0.10877140E+04</pdfrwt>
<totfact> 0.64694630E+01</totfact>
</mgrwt>
</event>
<event>
12    1  0.1489025E-007  0.3765765E+04  0.7818608E-02  0.8053542E-01
         -2   -1    0    0    0  501 -0.00000000000E+00  0.00000000000E+00  0.10335988862E+04  0.10335988862E+04  0.00000000000E+00 0.  1.
          2   -1    0    0  501    0  0.00000000000E+00 -0.00000000000E+00 -0.34300021922E+04  0.34300021922E+04  0.00000000000E+00 0. -1.
         23    2    1    2    0    0 -0.10270101506E+04  0.29846696178E+03  0.54146601301E+03  0.12021972772E+04  0.90887146372E+02 0.  0.
        254    2    1    2    0    0  0.10270101506E+04 -0.29846696178E+03 -0.29378693190E+04  0.32614038011E+04  0.92835674275E+03 0.  0.
        -24    2    4    4    0    0  0.66930554061E+03 -0.34058543296E+03 -0.27400143915E+04  0.28421749796E+04  0.79444352398E+02 0.  0.
         24    2    4    4    0    0  0.35770461000E+03  0.42118471177E+02 -0.19785492753E+03  0.41922882158E+03  0.82943829572E+02 0.  0.
         11    1    3    3    0    0 -0.97717345579E+03  0.30162181854E+03  0.50638650213E+03  0.11411708784E+04  0.00000000000E+00 0.  1.
        -11    1    3    3    0    0 -0.49836694828E+02 -0.31548567573E+01  0.35079510888E+02  0.61026398851E+02  0.00000000000E+00 0. -1.
          2    1    6    6  502    0  0.38417234375E+02  0.21654152230E+02 -0.20968033789E+01  0.44149550284E+02  0.00000000000E+00 0. -1.
          1    1    5    5  503    0  0.39190309053E+03 -0.19841665421E+03 -0.14528225339E+04  0.15177781511E+04  0.00000000000E+00 0. -1.
         -2    1    5    5    0  503  0.27740245009E+03 -0.14216877874E+03 -0.12871918575E+04  0.13243968284E+04  0.00000000000E+00 0.  1.
         -1    1    6    6    0  502  0.31928737563E+03  0.20464318947E+02 -0.19575812415E+03  0.37507927130E+03  0.00000000000E+00 0.  1.
<mgrwt>
<rscale>  0 0.37657650E+04</rscale>
<asrwt>0</asrwt>
<pdfrwt beam="1">  1        2 0.52769265E+00 0.37657650E+04</pdfrwt>
<pdfrwt beam="2">  1       -2 0.15901521E+00 0.37657650E+04</pdfrwt>
<totfact> 0.18698750E-01</totfact>
</mgrwt>
</event>
<event>
12    1  0.1489025E-007  0.3583561E+04  0.7818608E-02  0.8094268E-01
          2   -1    0    0  501    0  0.00000000000E+00  0.00000000000E+00  0.20962391583E+04  0.20962391583E+04  0.00000000000E+00 0. -1.
         -2   -1    0    0    0  501 -0.00000000000E+00 -0.00000000000E+00 -0.15315416186E+04  0.15315416186E+04  0.00000000000E+00 0.  1.
         23    2    1    2    0    0  0.27721736908E+03 -0.97067143066E+03  0.16154367531E+04  0.19070734677E+04  0.90778917546E+02 0.  0.
        254    2    1    2    0    0 -0.27721736908E+03  0.97067143066E+03 -0.10507392134E+04  0.17207073092E+04  0.91527496058E+03 0.  0.
        -24    2    4    4    0    0 -0.84039933675E+02  0.10476255976E+04 -0.10641913432E+04  0.14978313747E+04  0.80084385663E+02 0.  0.
         24    2    4    4    0    0 -0.19317743540E+03 -0.76954166963E+02  0.13452129797E+02  0.22287593455E+03  0.79077538159E+02 0.  0.
         13    1    3    3    0    0  0.12091490338E+03 -0.27293857489E+03  0.47888352976E+03  0.56430959109E+03  0.00000000000E+00 0.  1.
        -13    1    3    3    0    0  0.15630246570E+03 -0.69773285577E+03  0.11365532233E+04  0.13427638766E+04  0.00000000000E+00 0. -1.
          4    1    6    6  502    0 -0.64113525192E+02  0.72329519170E+01 -0.14843254589E+02  0.66205603334E+02  0.00000000000E+00 0. -1.
          1    1    5    5  503    0  0.15399827160E+02  0.15829589991E+03 -0.15249813179E+03  0.22034161387E+03  0.00000000000E+00 0. -1.
         -2    1    5    5    0  503 -0.99439760835E+02  0.88932969772E+03 -0.91169321137E+03  0.12774897608E+04  0.00000000000E+00 0.  1.
         -3    1    6    6    0  502 -0.12906391021E+03 -0.84187118880E+02  0.28295384386E+02  0.15667033121E+03  0.00000000000E+00 0.  1.
<mgrwt>
<rscale>  0 0.35835611E+04</rscale>
<asrwt>0</asrwt>
<pdfrwt beam="1">  1        2 0.32249833E+00 0.35835611E+04</pdfrwt>
<pdfrwt beam="2">  1       -2 0.23562179E+00 0.35835611E+04</pdfrwt>
<totfact> 0.38003260E-01</totfact>
</mgrwt>
</event>
<event>
12    1  0.1489025E-007  0.1462781E+04  0.7818608E-02  0.8909588E-01
         -1   -1    0    0    0  501 -0.00000000000E+00  0.00000000000E+00  0.24738957202E+03  0.24738957202E+03  0.00000000000E+00 0.  1.
          1   -1    0    0  501    0  0.00000000000E+00 -0.00000000000E+00 -0.21623055111E+04  0.21623055111E+04  0.00000000000E+00 0. -1.
         23    2    1    2    0    0  0.29937767800E+03 -0.34971251486E+03 -0.65422695102E+03  0.80533347230E+03  0.92861515331E+02 0.  0.
        254    2    1    2    0    0 -0.29937767800E+03  0.34971251486E+03 -0.12606889881E+04  0.16043616108E+04  0.87904130537E+03 0.  0.
        -24    2    4    4    0    0 -0.20112588257E+03 -0.25782922972E+03 -0.25082281312E+03  0.41908844648E+03  0.76128247411E+02 0.  0.
         24    2    4    4    0    0 -0.98251795436E+02  0.60754174458E+03 -0.10098661750E+04  0.11852731644E+04  0.79261567824E+02 0.  0.
         13    1    3    3    0    0  0.27900552544E+03 -0.35017249492E+03 -0.63722767353E+03  0.77879648647E+03  0.00000000000E+00 0. -1.
        -13    1    3    3    0    0  0.20372152564E+02  0.45998006264E+00 -0.16999277491E+02  0.26536985831E+02  0.00000000000E+00 0.  1.
          4    1    6    6  502    0 -0.26814945935E+02  0.12731910858E+03 -0.27894639069E+03  0.30779909943E+03  0.00000000000E+00 0. -1.
          1    1    5    5  503    0 -0.15127014474E+02 -0.68142998484E+00 -0.26248031089E+02  0.30302640970E+02  0.00000000000E+00 0. -1.
         -2    1    5    5    0  503 -0.18599886809E+03 -0.25714779973E+03 -0.22457478203E+03  0.38878580551E+03  0.00000000000E+00 0.  1.
         -3    1    6    6    0  502 -0.71436849501E+02  0.48022263600E+03 -0.73091978428E+03  0.87747406494E+03  0.00000000000E+00 0.  1.
<mgrwt>
<rscale>  0 0.14627807E+04</rscale>
<asrwt>0</asrwt>
<pdfrwt beam="1">  1        1 0.33266238E+00 0.14627807E+04</pdfrwt>
<pdfrwt beam="2">  1       -1 0.38059935E-01 0.14627807E+04</pdfrwt>
<totfact> 0.14976222E+01</totfact>
</mgrwt>
</event>
<event>
12    1  0.1489025E-007  0.1460686E+04  0.7818608E-02  0.8911026E-01
          1   -1    0    0  501    0  0.00000000000E+00  0.00000000000E+00  0.73411513348E+03  0.73411513348E+03  0.00000000000E+00 0. -1.
         -1   -1    0    0    0  501 -0.00000000000E+00 -0.00000000000E+00 -0.72658983091E+03  0.72658983091E+03  0.00000000000E+00 0.  1.
         23    2    1    2    0    0  0.24073243606E+03 -0.36606433692E+03 -0.10093987216E+03  0.45905618153E+03  0.92674243835E+02 0.  0.
        254    2    1    2    0    0 -0.24073243606E+03  0.36606433692E+03  0.10846517473E+03  0.10016487829E+04  0.89419258863E+03 0.  0.
        -24    2    4    4    0    0 -0.22443268666E+03  0.58380123794E+03 -0.15515610523E+03  0.64944831535E+03  0.80720388072E+02 0.  0.
         24    2    4    4    0    0 -0.16299749395E+02 -0.21773690102E+03  0.26362127996E+03  0.35220046752E+03  0.82909288853E+02 0.  0.
         13    1    3    3    0    0  0.93527119141E+02 -0.14052397463E+03 -0.85663227247E+02  0.18929473834E+03  0.00000000000E+00 0. -1.
        -13    1    3    3    0    0  0.14720531691E+03 -0.22554036229E+03 -0.15276644917E+02  0.26976144319E+03  0.00000000000E+00 0.  1.
          4    1    6    6  502    0  0.17620857359E+02 -0.13363546256E+03  0.20093694570E+03  0.24195988844E+03  0.00000000000E+00 0. -1.
          3    1    5    5  503    0 -0.56276952814E+02  0.68812080016E+02 -0.21548773365E+02  0.91468832985E+02  0.00000000000E+00 0. -1.
         -4    1    5    5    0  503 -0.16815573385E+03  0.51498915793E+03 -0.13360733186E+03  0.55797948236E+03  0.00000000000E+00 0.  1.
         -3    1    6    6    0  502 -0.33920606755E+02 -0.84101438465E+02  0.62684334256E+02  0.11024057908E+03  0.00000000000E+00 0.  1.
<mgrwt>
<rscale>  0 0.14606856E+04</rscale>
<asrwt>0</asrwt>
<pdfrwt beam="1">  1        1 0.11294079E+00 0.14606856E+04</pdfrwt>
<pdfrwt beam="2">  1       -1 0.11178305E+00 0.14606856E+04</pdfrwt>
<totfact> 0.18058257E+01</totfact>
</mgrwt>
</event>
<event>
12    1  0.1489025E-007  0.1065469E+04  0.7818608E-02  0.9239518E-01
          1   -1    0    0  501    0  0.00000000000E+00  0.00000000000E+00  0.46691570505E+03  0.46691570505E+03  0.00000000000E+00 0. -1.
         -1   -1    0    0    0  501 -0.00000000000E+00 -0.00000000000E+00 -0.60783122499E+03  0.60783122499E+03  0.00000000000E+00 0.  1.
         23    2    1    2    0    0 -0.24340904722E+02  0.36602065524E+02 -0.14429400774E+03  0.17892895748E+03  0.96242507827E+02 0.  0.
        254    2    1    2    0    0  0.24340904722E+02 -0.36602065524E+02  0.33784877994E+01  0.89581797256E+03  0.89473249350E+03 0.  0.
        -24    2    4    4    0    0  0.95651747422E+02 -0.43716970355E+03 -0.10661082147E+03  0.46666231909E+03  0.78366104391E+02 0.  0.
         24    2    4    4    0    0 -0.71310842700E+02  0.40056763802E+03  0.10998930927E+03  0.42915565347E+03  0.80853310571E+02 0.  0.
         13    1    3    3    0    0  0.30086325881E+02  0.41113510212E+02 -0.75739395226E+02  0.91279590907E+02  0.00000000000E+00 0. -1.
        -13    1    3    3    0    0 -0.54427230602E+02 -0.45114446873E+01 -0.68554612510E+02  0.87649366572E+02  0.00000000000E+00 0.  1.
          4    1    6    6  502    0 -0.76764409374E+02  0.21880969311E+03  0.46128965917E+02  0.23642829323E+03  0.00000000000E+00 0. -1.
          1    1    5    5  503    0  0.90975406403E+02 -0.25121878008E+03 -0.46642726538E+02  0.27122489557E+03  0.00000000000E+00 0. -1.
         -4    1    5    5    0  503  0.46763410190E+01 -0.18595092347E+03 -0.59968094933E+02  0.19543742352E+03  0.00000000000E+00 0.  1.
         -3    1    6    6    0  502  0.54535666737E+01  0.18175794492E+03  0.63860343353E+02  0.19272736023E+03  0.00000000000E+00 0.  1.
<mgrwt>
<rscale>  0 0.10654688E+04</rscale>
<asrwt>0</asrwt>
<pdfrwt beam="1">  1        1 0.71833185E-01 0.10654688E+04</pdfrwt>
<pdfrwt beam="2">  1       -1 0.93512497E-01 0.10654688E+04</pdfrwt>
<totfact> 0.53981601E+01</totfact>
</mgrwt>
</event>
<event>
12    1  0.1489025E-007  0.1356253E+04  0.7818608E-02  0.8986108E-01
         -2   -1    0    0    0  501 -0.00000000000E+00  0.00000000000E+00  0.69405239302E+03  0.69405239302E+03  0.00000000000E+00 0.  1.
          2   -1    0    0  501    0  0.00000000000E+00 -0.00000000000E+00 -0.66256642768E+03  0.66256642768E+03  0.00000000000E+00 0. -1.
         23    2    1    2    0    0  0.30508904516E+03 -0.12759030625E+03  0.17357531550E+03  0.38443642278E+03  0.91128268288E+02 0.  0.
        254    2    1    2    0    0 -0.30508904516E+03  0.12759030625E+03 -0.14208935016E+03  0.97218239791E+03  0.90310055900E+03 0.  0.
        -24    2    4    4    0    0  0.17257570620E+03  0.93707482545E+02 -0.37743322345E+03  0.43298750785E+03  0.80367139649E+02 0.  0.
         24    2    4    4    0    0 -0.47766475137E+03  0.33882823710E+02  0.23534387329E+03  0.53919489006E+03  0.77670652966E+02 0.  0.
         13    1    3    3    0    0  0.73481016971E+01  0.54018168570E+00 -0.96135850796E+01  0.12112283554E+02  0.00000000000E+00 0.  1.
        -13    1    3    3    0    0  0.29774094346E+03 -0.12813048794E+03  0.18318890058E+03  0.37232413923E+03  0.00000000000E+00 0. -1.
          2    1    6    6  502    0 -0.13021702601E+03 -0.10962878724E+02  0.33600449454E+02  0.13492830977E+03  0.00000000000E+00 0. -1.
          1    1    5    5  503    0  0.16595374063E+02  0.33257718800E+02 -0.31464419943E+02  0.48697967333E+02  0.00000000000E+00 0. -1.
         -2    1    5    5    0  503  0.15598033214E+03  0.60449763744E+02 -0.34596880351E+03  0.38428954052E+03  0.00000000000E+00 0.  1.
         -1    1    6    6    0  502 -0.34744772536E+03  0.44845702434E+02  0.20174342384E+03  0.40426658030E+03  0.00000000000E+00 0.  1.
<mgrwt>
<rscale>  0 0.13562534E+04</rscale>
<asrwt>0</asrwt>
<pdfrwt beam="1">  1        2 0.10193330E+00 0.13562534E+04</pdfrwt>
<pdfrwt beam="2">  1       -2 0.10677729E+00 0.13562534E+04</pdfrwt>
<totfact> 0.30266307E+01</totfact>
</mgrwt>
</event>
<event>
12    1  0.1489025E-007  0.2469011E+04  0.7818608E-02  0.8414109E-01
          4   -1    0    0  501    0  0.00000000000E+00  0.00000000000E+00  0.13378125312E+04  0.13378125312E+04  0.00000000000E+00 0. -1.
         -4   -1    0    0    0  501 -0.00000000000E+00 -0.00000000000E+00 -0.11391757576E+04  0.11391757576E+04  0.00000000000E+00 0.  1.
         23    2    1    2    0    0  0.28064312748E+03  0.47050646390E+03 -0.82778223833E+03  0.99676110111E+03  0.90401111759E+02 0.  0.
        254    2    1    2    0    0 -0.28064312748E+03 -0.47050646390E+03  0.10264190119E+04  0.14802271877E+04  0.91509542767E+03 0.  0.
        -24    2    4    4    0    0 -0.23458864951E+03 -0.72144835585E+03  0.57393014648E+03  0.95450565772E+03  0.78521799180E+02 0.  0.
         24    2    4    4    0    0 -0.46054477975E+02  0.25094189195E+03  0.45248886541E+03  0.52572153001E+03  0.80895647074E+02 0.  0.
         13    1    3    3    0    0  0.64707020213E+02  0.19182615570E+03 -0.31676149203E+03  0.37592833799E+03  0.00000000000E+00 0.  1.
        -13    1    3    3    0    0  0.21593610727E+03  0.27868030820E+03 -0.51102074631E+03  0.62083276311E+03  0.00000000000E+00 0. -1.
          4    1    6    6  502    0 -0.13209807782E+02  0.21681429387E+03  0.39884967109E+03  0.45416296324E+03  0.00000000000E+00 0. -1.
          3    1    5    5  503    0 -0.19958695279E+03 -0.66321301882E+03  0.50081379776E+03  0.85469346557E+03  0.00000000000E+00 0. -1.
         -4    1    5    5    0  503 -0.35001696718E+02 -0.58235337024E+02  0.73116348723E+02  0.99812192151E+02  0.00000000000E+00 0.  1.
         -3    1    6    6    0  502 -0.32844670193E+02  0.34127598077E+02  0.53639194321E+02  0.71558566769E+02  0.00000000000E+00 0.  1.
<mgrwt>
<rscale>  0 0.24690108E+04</rscale>
<asrwt>0</asrwt>
<pdfrwt beam="1">  1        4 0.20581731E+00 0.24690108E+04</pdfrwt>
<pdfrwt beam="2">  1       -4 0.17525781E+00 0.24690108E+04</pdfrwt>
<totfact> 0.41707109E-02</totfact>
</mgrwt>
</event>
<event>
12    1  0.1489025E-007  0.2344995E+04  0.7818608E-02  0.8460389E-01
          1   -1    0    0  501    0  0.00000000000E+00  0.00000000000E+00  0.19694208065E+04  0.19694208065E+04  0.00000000000E+00 0. -1.
         -1   -1    0    0    0  501 -0.00000000000E+00 -0.00000000000E+00 -0.69804809828E+03  0.69804809828E+03  0.00000000000E+00 0.  1.
         23    2    1    2    0    0 -0.10289210520E+03 -0.59115015063E+03 -0.36171697936E+03  0.70684685827E+03  0.93530861161E+02 0.  0.
        254    2    1    2    0    0  0.10289210520E+03  0.59115015063E+03  0.16330896876E+04  0.19606220465E+04  0.90388693743E+03 0.  0.
        -24    2    4    4    0    0 -0.20627633952E+03 -0.14127535411E+03  0.24113336260E+03  0.35568098255E+03  0.76518029636E+02 0.  0.
         24    2    4    4    0    0  0.30916844473E+03  0.73242550474E+03  0.13919563249E+04  0.16049410639E+04  0.79127497906E+02 0.  0.
         13    1    3    3    0    0 -0.60702418595E+02 -0.52062199894E+03 -0.29871848572E+03  0.60329493875E+03  0.00000000000E+00 0.  1.
        -13    1    3    3    0    0 -0.42189686610E+02 -0.70528151688E+02 -0.62998493641E+02  0.10355191953E+03  0.00000000000E+00 0. -1.
          2    1    6    6  502    0  0.84591926746E+02  0.29956444084E+03  0.54026097436E+03  0.62351950146E+03  0.00000000000E+00 0. -1.
          1    1    5    5  503    0 -0.14057377331E+03 -0.63803204180E+02  0.17995990769E+03  0.23710209400E+03  0.00000000000E+00 0. -1.
         -4    1    5    5    0  503 -0.65702566213E+02 -0.77472149930E+02  0.61173454916E+02  0.11857888854E+03  0.00000000000E+00 0.  1.
         -1    1    6    6    0  502  0.22457651798E+03  0.43286106390E+03  0.85169535059E+03  0.98142156247E+03  0.00000000000E+00 0.  1.
<mgrwt>
<rscale>  0 0.23449951E+04</rscale>
<asrwt>0</asrwt>
<pdfrwt beam="1">  1        1 0.30298781E+00 0.23449951E+04</pdfrwt>
<pdfrwt beam="2">  1       -1 0.10739202E+00 0.23449951E+04</pdfrwt>
<totfact> 0.22726429E+00</totfact>
</mgrwt>
</event>
<event>
12    1  0.1489025E-007  0.1501031E+04  0.7818608E-02  0.8883767E-01
         -1   -1    0    0    0  501 -0.00000000000E+00  0.00000000000E+00  0.87812959732E+03  0.87812959732E+03  0.00000000000E+00 0.  1.
          1   -1    0    0  501    0  0.00000000000E+00 -0.00000000000E+00 -0.64144710361E+03  0.64144710361E+03  0.00000000000E+00 0. -1.
         23    2    1    2    0    0  0.32940769575E+03 -0.12950305099E+03 -0.24232706709E+03  0.44215501954E+03  0.10722958369E+03 0.  0.
        254    2    1    2    0    0 -0.32940769575E+03  0.12950305099E+03  0.47900956080E+03  0.10774216814E+04  0.89783453374E+03 0.  0.
        -24    2    4    4    0    0 -0.31541811689E+02  0.30739236408E+03  0.61746724900E+03  0.69498915033E+03  0.79114879192E+02 0.  0.
         24    2    4    4    0    0 -0.29786588406E+03 -0.17788931308E+03 -0.13845768820E+03  0.38243253107E+03  0.81947646730E+02 0.  0.
         11    1    3    3    0    0  0.14574105507E+03 -0.89274233062E+02 -0.62490854380E+02  0.18197651140E+03  0.00000000000E+00 0.  1.
        -11    1    3    3    0    0  0.18366664068E+03 -0.40228817931E+02 -0.17983621271E+03  0.26017850813E+03  0.00000000000E+00 0. -1.
          2    1    6    6  502    0 -0.16285834291E+03 -0.70632186976E+02 -0.33727148217E+02  0.18069107953E+03  0.00000000000E+00 0. -1.
          1    1    5    5  503    0 -0.56195207368E+02  0.24910400364E+03  0.50691941902E+03  0.56760726153E+03  0.00000000000E+00 0. -1.
         -2    1    5    5    0  503  0.24653395680E+02  0.58288360433E+02  0.11054782998E+03  0.12738188880E+03  0.00000000000E+00 0.  1.
         -1    1    6    6    0  502 -0.13500754115E+03 -0.10725712611E+03 -0.10473053998E+03  0.20174145155E+03  0.00000000000E+00 0.  1.
<mgrwt>
<rscale>  0 0.15010312E+04</rscale>
<asrwt>0</asrwt>
<pdfrwt beam="1">  1        1 0.98684170E-01 0.15010312E+04</pdfrwt>
<pdfrwt beam="2">  1       -1 0.13509686E+00 0.15010312E+04</pdfrwt>
<totfact> 0.13816622E+01</totfact>
</mgrwt>
</event>
<event>
12    1  0.1991231E-007  0.1560798E+04  0.7818608E-02  0.8845000E-01
          1   -1    0    0  501    0  0.00000000000E+00  0.00000000000E+00  0.68595247169E+03  0.68595247169E+03  0.00000000000E+00 0. -1.
         -1   -1    0    0    0  501 -0.00000000000E+00 -0.00000000000E+00 -0.88784926999E+03  0.88784926999E+03  0.00000000000E+00 0.  1.
         23    2    1    2    0    0  0.14624181683E+03  0.47016561749E+03  0.96792619404E+02  0.51045538054E+03  0.93560181095E+02 0.  0.
        254    2    1    2    0    0 -0.14624181683E+03 -0.47016561749E+03 -0.29868941771E+03  0.10633463611E+04  0.89389470221E+03 0.  0.
        -24    2    4    4    0    0 -0.50171369355E+03 -0.19205525978E+03 -0.26043906272E+03  0.60279653758E+03  0.83266483190E+02 0.  0.
         24    2    4    4    0    0  0.35547187671E+03 -0.27811035772E+03 -0.38250354986E+02  0.46054982357E+03  0.83291200802E+02 0.  0.
         13    1    3    3    0    0 -0.12520457879E+02  0.43808506508E+02  0.16555931545E+02  0.48477272792E+02  0.00000000000E+00 0.  1.
        -13    1    3    3    0    0  0.15876227471E+03  0.42635711098E+03  0.80236687859E+02  0.46197810775E+03  0.00000000000E+00 0. -1.
          2    1    6    6  502    0  0.31470674596E+03 -0.22131966234E+03 -0.55041882113E+02  0.38865452226E+03  0.00000000000E+00 0. -1.
          3    1    5    5  503    0 -0.47936264039E+03 -0.19997404308E+03 -0.24344433459E+03  0.57362296237E+03  0.00000000000E+00 0. -1.
         -4    1    5    5    0  503 -0.22351053153E+02  0.79187833087E+01 -0.16994728129E+02  0.29173575206E+02  0.00000000000E+00 0.  1.
         -1    1    6    6    0  502  0.40765130756E+02 -0.56790695372E+02  0.16791527127E+02  0.71895301304E+02  0.00000000000E+00 0.  1.
<mgrwt>
<rscale>  0 0.15607977E+04</rscale>
<asrwt>0</asrwt>
<pdfrwt beam="1">  1        1 0.10553115E+00 0.15607977E+04</pdfrwt>
<pdfrwt beam="2">  1       -1 0.13659219E+00 0.15607977E+04</pdfrwt>
<totfact> 0.12089846E+01</totfact>
</mgrwt>
</event>
<event>
12    1  0.1489025E-007  0.2763815E+04  0.7818608E-02  0.8314591E-01
         -1   -1    0    0    0  501 -0.00000000000E+00  0.00000000000E+00  0.72673373745E+03  0.72673373745E+03  0.00000000000E+00 0.  1.
          1   -1    0    0  501    0  0.00000000000E+00 -0.00000000000E+00 -0.26277411961E+04  0.26277411961E+04  0.00000000000E+00 0. -1.
         23    2    1    2    0    0  0.12269347320E+04  0.35573072933E+02 -0.69412977308E+03  0.14131374017E+04  0.92232826049E+02 0.  0.
        254    2    1    2    0    0 -0.12269347320E+04 -0.35573072933E+02 -0.12068776855E+04  0.19413375318E+04  0.89755411221E+03 0.  0.
        -24    2    4    4    0    0 -0.37787576784E+03 -0.23674324725E+03 -0.90995282043E+03  0.10160898455E+04  0.74746087935E+02 0.  0.
         24    2    4    4    0    0 -0.84905896416E+03  0.20117017432E+03 -0.29692486510E+03  0.92524768629E+03  0.80921825301E+02 0.  0.
         11    1    3    3    0    0  0.99285116837E+02 -0.92724846423E+01 -0.32152924352E+02  0.10477272518E+03  0.00000000000E+00 0.  1.
        -11    1    3    3    0    0  0.11276496152E+04  0.44845557575E+02 -0.66197684873E+03  0.13083646766E+04  0.00000000000E+00 0. -1.
          2    1    6    6  502    0 -0.31905204907E+03  0.10766982461E+03 -0.13972398484E+03  0.36456795401E+03  0.00000000000E+00 0. -1.
          1    1    5    5  503    0 -0.68254599974E+02 -0.26335676296E+02 -0.10093155360E+03  0.12465727727E+03  0.00000000000E+00 0. -1.
         -2    1    5    5    0  503 -0.30962116786E+03 -0.21040757095E+03 -0.80902126683E+03  0.89143256822E+03  0.00000000000E+00 0.  1.
         -1    1    6    6    0  502 -0.53000691509E+03  0.93500349708E+02 -0.15720088025E+03  0.56067973228E+03  0.00000000000E+00 0.  1.
<mgrwt>
<rscale>  0 0.27638149E+04</rscale>
<asrwt>0</asrwt>
<pdfrwt beam="1">  1        1 0.40426787E+00 0.27638149E+04</pdfrwt>
<pdfrwt beam="2">  1       -1 0.11180519E+00 0.27638149E+04</pdfrwt>
<totfact> 0.70316026E-01</totfact>
</mgrwt>
</event>
<event>
12    1  0.1489025E-007  0.2072922E+04  0.7818608E-02  0.8573266E-01
          1   -1    0    0  501    0  0.00000000000E+00  0.00000000000E+00  0.98932138693E+03  0.98932138693E+03  0.00000000000E+00 0. -1.
         -1   -1    0    0    0  501 -0.00000000000E+00 -0.00000000000E+00 -0.10858471455E+04  0.10858471455E+04  0.00000000000E+00 0.  1.
         23    2    1    2    0    0 -0.14433335565E+03  0.23591796407E+03 -0.83508682819E+03  0.88396496544E+03  0.86802339712E+02 0.  0.
        254    2    1    2    0    0  0.14433335565E+03 -0.23591796407E+03  0.73856106960E+03  0.11912035670E+04  0.89275085057E+03 0.  0.
        -24    2    4    4    0    0 -0.25145697437E+03  0.98191923387E+02 -0.52512044718E+01  0.28152475868E+03  0.79726725906E+02 0.  0.
         24    2    4    4    0    0  0.39579033002E+03 -0.33410988746E+03  0.74381227408E+03  0.90967880833E+03  0.77326793638E+02 0.  0.
         13    1    3    3    0    0  0.84848038194E+01  0.19828094441E+02 -0.33754374458E+02  0.40056248202E+02  0.00000000000E+00 0. -1.
        -13    1    3    3    0    0 -0.15281815947E+03  0.21608986963E+03 -0.80133245374E+03  0.84390871724E+03  0.00000000000E+00 0.  1.
          2    1    6    6  502    0  0.35205631362E+03 -0.26571171656E+03  0.60230871202E+03  0.74654011872E+03  0.00000000000E+00 0. -1.
          3    1    5    5  503    0 -0.26388647342E+02  0.36953646026E+02 -0.15684157559E+02  0.48040872822E+02  0.00000000000E+00 0. -1.
         -4    1    5    5    0  503 -0.22506832703E+03  0.61238277361E+02  0.10432953087E+02  0.23348388586E+03  0.00000000000E+00 0.  1.
         -1    1    6    6    0  502  0.43734016400E+02 -0.68398170904E+02  0.14150356205E+03  0.16313868961E+03  0.00000000000E+00 0.  1.
<mgrwt>
<rscale>  0 0.20729224E+04</rscale>
<asrwt>0</asrwt>
<pdfrwt beam="1">  1        1 0.15220329E+00 0.20729224E+04</pdfrwt>
<pdfrwt beam="2">  1       -1 0.16705341E+00 0.20729224E+04</pdfrwt>
<totfact> 0.36790907E+00</totfact>
</mgrwt>
</event>
<event>
12    1  0.1489025E-007  0.1606953E+04  0.7818608E-02  0.8816288E-01
         -2   -1    0    0    0  501 -0.00000000000E+00  0.00000000000E+00  0.86924268517E+03  0.86924268517E+03  0.00000000000E+00 0. -1.
          2   -1    0    0  501    0  0.00000000000E+00 -0.00000000000E+00 -0.74268651341E+03  0.74268651341E+03  0.00000000000E+00 0.  1.
         23    2    1    2    0    0  0.15960712173E+03  0.10764434617E+02 -0.48659368278E+03  0.52001609764E+03  0.89738638943E+02 0.  0.
        254    2    1    2    0    0 -0.15960712173E+03 -0.10764434617E+02  0.61314985454E+03  0.10919131009E+04  0.88923066159E+03 0.  0.
        -24    2    4    4    0    0  0.10993531905E+03  0.20750817962E+03 -0.12129127300E+03  0.27593265007E+03  0.79258031062E+02 0.  0.
         24    2    4    4    0    0 -0.26954244078E+03 -0.21827261424E+03  0.73444112754E+03  0.81598045086E+03  0.78257682484E+02 0.  0.
         11    1    3    3    0    0  0.16940123109E+03  0.29528069494E+01 -0.46674543186E+03  0.49654485631E+03  0.00000000000E+00 0.  1.
        -11    1    3    3    0    0 -0.97941093571E+01  0.78116276679E+01 -0.19848250917E+02  0.23471241326E+02  0.00000000000E+00 0. -1.
          2    1    6    6  502    0 -0.26182857242E+02 -0.52654197101E+02  0.16087411297E+03  0.17128481167E+03  0.00000000000E+00 0. -1.
          3    1    5    5  503    0  0.33737057198E+02  0.14616291586E+03 -0.71887085597E+02  0.16634163663E+03  0.00000000000E+00 0. -1.
         -4    1    5    5    0  503  0.76198261850E+02  0.61345263757E+02 -0.49404187403E+02  0.10959101344E+03  0.00000000000E+00 0.  1.
         -1    1    6    6    0  502 -0.24335958354E+03 -0.16561841713E+03  0.57356701457E+03  0.64469563919E+03  0.00000000000E+00 0.  1.
<mgrwt>
<rscale>  0 0.16069534E+04</rscale>
<asrwt>0</asrwt>
<pdfrwt beam="1">  1        2 0.11425946E+00 0.16069534E+04</pdfrwt>
<pdfrwt beam="2">  1       -2 0.13372964E+00 0.16069534E+04</pdfrwt>
<totfact> 0.14707204E+01</totfact>
</mgrwt>
</event>
<event>
12    1  0.1489025E-007  0.2595884E+04  0.7818608E-02  0.8369601E-01
         -3   -1    0    0    0  501 -0.00000000000E+00  0.00000000000E+00  0.85111187894E+03  0.85111187894E+03  0.00000000000E+00 0.  1.
          3   -1    0    0  501    0  0.00000000000E+00 -0.00000000000E+00 -0.19793554288E+04  0.19793554288E+04  0.00000000000E+00 0. -1.
         23    2    1    2    0    0 -0.41549854195E+03 -0.53231430259E+03  0.50571369667E+03  0.84866689875E+03  0.92149915553E+02 0.  0.
        254    2    1    2    0    0  0.41549854195E+03  0.53231430259E+03 -0.16339572465E+04  0.19818004090E+04  0.89538763810E+03 0.  0.
        -24    2    4    4    0    0  0.54968569380E+03  0.56259191126E+03 -0.77110451669E+03  0.11043846321E+04  0.79995120457E+02 0.  0.
         24    2    4    4    0    0 -0.13418715185E+03 -0.30277608670E+02 -0.86285272985E+03  0.87741577693E+03  0.80129188742E+02 0.  0.
         13    1    3    3    0    0 -0.40089354732E+03 -0.50161977853E+03  0.50077510651E+03  0.81431796358E+03  0.00000000000E+00 0.  1.
        -13    1    3    3    0    0 -0.14604994624E+02 -0.30694524054E+02  0.49385901584E+01  0.34348935175E+02  0.00000000000E+00 0. -1.
          4    1    6    6  502    0 -0.34675395201E+01 -0.10749118275E+02 -0.12476234376E+02  0.16829254238E+02  0.00000000000E+00 0. -1.
          3    1    5    5  503    0  0.14647251507E+03  0.11652900468E+03 -0.21877433389E+03  0.28791564003E+03  0.00000000000E+00 0. -1.
         -4    1    5    5    0  503  0.40321317873E+03  0.44606290658E+03 -0.55233018280E+03  0.81646899204E+03  0.00000000000E+00 0.  1.
         -3    1    6    6    0  502 -0.13071961233E+03 -0.19528490395E+02 -0.85037649547E+03  0.86058652269E+03  0.00000000000E+00 0.  1.
<mgrwt>
<rscale>  0 0.25958836E+04</rscale>
<asrwt>0</asrwt>
<pdfrwt beam="1">  1        3 0.30451622E+00 0.25958836E+04</pdfrwt>
<pdfrwt beam="2">  1       -3 0.13094029E+00 0.25958836E+04</pdfrwt>
<totfact> 0.38349497E-02</totfact>
</mgrwt>
</event>
<event>
12    1  0.1489025E-007  0.1390374E+04  0.7818608E-02  0.8960816E-01
         -2   -1    0    0    0  501 -0.00000000000E+00  0.00000000000E+00  0.16192224285E+03  0.16192224285E+03  0.00000000000E+00 0.  1.
          2   -1    0    0  501    0  0.00000000000E+00 -0.00000000000E+00 -0.29846728262E+04  0.29846728262E+04  0.00000000000E+00 0. -1.
         23    2    1    2    0    0 -0.77087393568E+02  0.28987291391E+03 -0.14048727619E+04  0.14394175921E+04  0.91031613514E+02 0.  0.
        254    2    1    2    0    0  0.77087393568E+02 -0.28987291391E+03 -0.14178778214E+04  0.17071774770E+04  0.90227969556E+03 0.  0.
        -24    2    4    4    0    0  0.33089839349E+03  0.17515908311E+03 -0.81730835662E+03  0.90246086281E+03  0.79172014606E+02 0.  0.
         24    2    4    4    0    0 -0.25381099992E+03 -0.46503199702E+03 -0.60056946480E+03  0.80471661418E+03  0.78805870098E+02 0.  0.
         13    1    3    3    0    0  0.14754531023E+01  0.14781459008E+03 -0.56620442622E+03  0.58518269137E+03  0.00000000000E+00 0.  1.
        -13    1    3    3    0    0 -0.78562846671E+02  0.14205832384E+03 -0.83866833573E+03  0.85423490071E+03  0.00000000000E+00 0. -1.
          2    1    6    6  502    0 -0.23328215546E+03 -0.45683138759E+03 -0.58255737308E+03  0.77620137443E+03  0.00000000000E+00 0. -1.
          3    1    5    5  503    0  0.31809284739E+03  0.16341555158E+03 -0.72349271010E+03  0.80704981484E+03  0.00000000000E+00 0. -1.
         -4    1    5    5    0  503  0.12805546097E+02  0.11743531523E+02 -0.93815646520E+02  0.95411047974E+02  0.00000000000E+00 0.  1.
         -1    1    6    6    0  502 -0.20528844460E+02 -0.82006094310E+01 -0.18012091714E+02  0.28515239747E+02  0.00000000000E+00 0.  1.
<mgrwt>
<rscale>  0 0.13903739E+04</rscale>
<asrwt>0</asrwt>
<pdfrwt beam="1">  1        2 0.45918041E+00 0.13903739E+04</pdfrwt>
<pdfrwt beam="2">  1       -2 0.24911116E-01 0.13903739E+04</pdfrwt>
<totfact> 0.25263943E+01</totfact>
</mgrwt>
</event>
<event>
12    1  0.1489025E-007  0.1340086E+04  0.7818608E-02  0.8998367E-01
          2   -1    0    0  501    0  0.00000000000E+00  0.00000000000E+00  0.28156549276E+04  0.28156549276E+04  0.00000000000E+00 0. -1.
         -2   -1    0    0    0  501 -0.00000000000E+00 -0.00000000000E+00 -0.15945059553E+03  0.15945059553E+03  0.00000000000E+00 0.  1.
         23    2    1    2    0    0  0.16412268346E+03 -0.18937976840E+03  0.13075492390E+04  0.13344458941E+04  0.90883882995E+02 0.  0.
        254    2    1    2    0    0 -0.16412268346E+03  0.18937976840E+03  0.13486550931E+04  0.16406596290E+04  0.90005139080E+03 0.  0.
        -24    2    4    4    0    0 -0.50303701221E+02 -0.26589085462E+03  0.10297165946E+04  0.10678553609E+04  0.82282425678E+02 0.  0.
         24    2    4    4    0    0 -0.11381898224E+03  0.45527062302E+03  0.31893849850E+03  0.57280426811E+03  0.78465679372E+02 0.  0.
         13    1    3    3    0    0  0.32716202436E+02 -0.74459924805E+02  0.60936688597E+03  0.61477038967E+03  0.00000000000E+00 0. -1.
        -13    1    3    3    0    0  0.13140648103E+03 -0.11491984360E+03  0.69818235299E+03  0.71967550448E+03  0.00000000000E+00 0.  1.
          2    1    6    6  502    0 -0.41930142707E+02  0.60970513609E+02  0.36676517411E+02  0.82587573681E+02  0.00000000000E+00 0. -1.
          3    1    5    5  503    0  0.86712271305E+01  0.34794916228E+00  0.17264839534E+02  0.19323196751E+02  0.00000000000E+00 0. -1.
         -4    1    5    5    0  503 -0.58974928351E+02 -0.26623880378E+03  0.10124517551E+04  0.10485321641E+04  0.00000000000E+00 0.  1.
         -1    1    6    6    0  502 -0.71888839535E+02  0.39430010941E+03  0.28226198108E+03  0.49021669443E+03  0.00000000000E+00 0.  1.
<mgrwt>
<rscale>  0 0.13400863E+04</rscale>
<asrwt>0</asrwt>
<pdfrwt beam="1">  1        2 0.43317765E+00 0.13400863E+04</pdfrwt>
<pdfrwt beam="2">  1       -2 0.24530863E-01 0.13400863E+04</pdfrwt>
<totfact> 0.33093393E+01</totfact>
</mgrwt>
</event>
<event>
12    1  0.1489025E-007  0.1479221E+04  0.7818608E-02  0.8898389E-01
          2   -1    0    0  501    0  0.00000000000E+00  0.00000000000E+00  0.17020918344E+04  0.17020918344E+04  0.00000000000E+00 0. -1.
         -2   -1    0    0    0  501 -0.00000000000E+00 -0.00000000000E+00 -0.32138317322E+03  0.32138317322E+03  0.00000000000E+00 0.  1.
         23    2    1    2    0    0  0.96743737326E+02  0.91390257057E+02 -0.16328025082E+03  0.22967143896E+03  0.91525951334E+02 0.  0.
        254    2    1    2    0    0 -0.96743737326E+02 -0.91390257057E+02  0.15439889120E+04  0.17938035686E+04  0.90339246883E+03 0.  0.
        -24    2    4    4    0    0 -0.43117488444E+03  0.10800430539E+03  0.48321980315E+03  0.66106368871E+03  0.76987735535E+02 0.  0.
         24    2    4    4    0    0  0.33443114711E+03 -0.19939456245E+03  0.10607691088E+04  0.11327398799E+04  0.79159014870E+02 0.  0.
         13    1    3    3    0    0  0.63679969200E+02  0.20193628500E+02 -0.26306240370E+02  0.71797906597E+02  0.00000000000E+00 0. -1.
        -13    1    3    3    0    0  0.33063768127E+02  0.71196628557E+02 -0.13697401045E+03  0.15787353236E+03  0.00000000000E+00 0.  1.
          4    1    6    6  502    0  0.67513775576E+02 -0.57256072006E+02  0.33479798187E+03  0.34630341659E+03  0.00000000000E+00 0. -1.
          3    1    5    5  503    0 -0.37569553278E+03  0.10574479332E+03  0.38495610963E+03  0.54819731941E+03  0.00000000000E+00 0. -1.
         -4    1    5    5    0  503 -0.55479351658E+02  0.22595120689E+01  0.98263693522E+02  0.11286636930E+03  0.00000000000E+00 0.  1.
         -3    1    6    6    0  502  0.26691737154E+03 -0.14213849044E+03  0.72597112693E+03  0.78643646331E+03  0.00000000000E+00 0.  1.
<mgrwt>
<rscale>  0 0.14792210E+04</rscale>
<asrwt>0</asrwt>
<pdfrwt beam="1">  1        2 0.26186028E+00 0.14792210E+04</pdfrwt>
<pdfrwt beam="2">  1       -2 0.49443566E-01 0.14792210E+04</pdfrwt>
<totfact> 0.36639561E+01</totfact>
</mgrwt>
</event>
<event>
12    1  0.1489025E-007  0.2080348E+04  0.7818608E-02  0.8569950E-01
          1   -1    0    0  501    0  0.00000000000E+00  0.00000000000E+00  0.89629843433E+03  0.89629843433E+03  0.00000000000E+00 0.  1.
         -1   -1    0    0    0  501 -0.00000000000E+00 -0.00000000000E+00 -0.12071442329E+04  0.12071442329E+04  0.00000000000E+00 0. -1.
         23    2    1    2    0    0  0.11265806853E+03 -0.82557817264E+03 -0.28878813478E+03  0.88653936047E+03  0.91007094899E+02 0.  0.
        254    2    1    2    0    0 -0.11265806853E+03  0.82557817264E+03 -0.22057663743E+02  0.12169033067E+04  0.88662052639E+03 0.  0.
        -24    2    4    4    0    0  0.22968308851E+03  0.46072118471E+03  0.31456932076E+03  0.60869172783E+03  0.80829640462E+02 0.  0.
         24    2    4    4    0    0 -0.34234115704E+03  0.36485698793E+03 -0.33662698450E+03  0.60821157889E+03  0.79281199222E+02 0.  0.
         11    1    3    3    0    0  0.43408151848E+02 -0.10021616082E+03 -0.45857691162E+02  0.11845030340E+03  0.00000000000E+00 0. -1.
        -11    1    3    3    0    0  0.69249916682E+02 -0.72536201182E+03 -0.24293044362E+03  0.76808905707E+03  0.00000000000E+00 0.  1.
          4    1    6    6  502    0 -0.37775882264E+02  0.84383415131E+02 -0.57518610042E+02  0.10888511621E+03  0.00000000000E+00 0. -1.
          3    1    5    5  503    0  0.74517054850E+00  0.38789552759E+02  0.39777948651E+02  0.55565005905E+02  0.00000000000E+00 0. -1.
         -4    1    5    5    0  503  0.22893791796E+03  0.42193163195E+03  0.27479137211E+03  0.55312672192E+03  0.00000000000E+00 0.  1.
         -3    1    6    6    0  502 -0.30456527478E+03  0.28047357280E+03 -0.27910837446E+03  0.49932646268E+03  0.00000000000E+00 0.  1.
<mgrwt>
<rscale>  0 0.20803476E+04</rscale>
<asrwt>0</asrwt>
<pdfrwt beam="1">  1        1 0.13789207E+00 0.20803476E+04</pdfrwt>
<pdfrwt beam="2">  1       -1 0.18571450E+00 0.20803476E+04</pdfrwt>
<totfact> 0.31980025E+00</totfact>
</mgrwt>
</event>
<event>
12    1  0.2361778E-007  0.2457958E+04  0.7818608E-02  0.8418118E-01
          1   -1    0    0  501    0  0.00000000000E+00  0.00000000000E+00  0.22081105555E+04  0.22081105555E+04  0.00000000000E+00 0. -1.
         -1   -1    0    0    0  501 -0.00000000000E+00 -0.00000000000E+00 -0.68401879366E+03  0.68401879366E+03  0.00000000000E+00 0.  1.
         23    2    1    2    0    0 -0.78013426995E+03  0.21204834434E+03  0.14752905206E+04  0.16847115574E+04  0.90536909934E+02 0.  0.
        254    2    1    2    0    0  0.78013426995E+03 -0.21204834434E+03  0.48801241227E+02  0.12074177917E+04  0.89548991235E+03 0.  0.
        -24    2    4    4    0    0  0.27402306277E+03  0.40236097626E+02 -0.39143946400E+03  0.48603755719E+03  0.79372983732E+02 0.  0.
         24    2    4    4    0    0  0.50611120718E+03 -0.25228444197E+03  0.44024070522E+03  0.72138023453E+03  0.82350291636E+02 0.  0.
         13    1    3    3    0    0 -0.76002583530E+03  0.19420269684E+03  0.14003779429E+04  0.16051206624E+04  0.00000000000E+00 0. -1.
        -13    1    3    3    0    0 -0.20108434648E+02  0.17845647506E+02  0.74912577715E+02  0.79590895075E+02  0.00000000000E+00 0.  1.
          4    1    6    6  502    0  0.30714571440E+03 -0.17674831019E+03  0.23155746638E+03  0.42331703871E+03  0.00000000000E+00 0. -1.
          1    1    5    5  503    0  0.13060154275E+03  0.55548887055E+02 -0.22238317885E+03  0.26381190280E+03  0.00000000000E+00 0. -1.
         -2    1    5    5    0  503  0.14342152001E+03 -0.15312789429E+02 -0.16905628515E+03  0.22222565439E+03  0.00000000000E+00 0.  1.
         -3    1    6    6    0  502  0.19896549279E+03 -0.75536131773E+02  0.20868323885E+03  0.29806319581E+03  0.00000000000E+00 0.  1.
<mgrwt>
<rscale>  0 0.24579578E+04</rscale>
<asrwt>0</asrwt>
<pdfrwt beam="1">  1        1 0.33970931E+00 0.24579578E+04</pdfrwt>
<pdfrwt beam="2">  1       -1 0.10523366E+00 0.24579578E+04</pdfrwt>
<totfact> 0.16239248E+00</totfact>
</mgrwt>
</event>
<event>
12    1  0.1489025E-007  0.2177675E+04  0.7818608E-02  0.8527778E-01
          1   -1    0    0  501    0  0.00000000000E+00  0.00000000000E+00  0.23119452880E+04  0.23119452880E+04  0.00000000000E+00 0. -1.
         -1   -1    0    0    0  501 -0.00000000000E+00 -0.00000000000E+00 -0.51280064007E+03  0.51280064007E+03  0.00000000000E+00 0.  1.
         23    2    1    2    0    0 -0.10892038605E+03  0.26634989839E+03  0.18719840345E+04  0.18961711238E+04  0.91295052872E+02 0.  0.
        254    2    1    2    0    0  0.10892038605E+03 -0.26634989839E+03 -0.72839386515E+02  0.92857480426E+03  0.87985207394E+03 0.  0.
        -24    2    4    4    0    0  0.57690577452E+02 -0.23147109554E+03 -0.46192403020E+03  0.52621606494E+03  0.81378538506E+02 0.  0.
         24    2    4    4    0    0  0.51229808595E+02 -0.34878802852E+02  0.38908464369E+03  0.40235873932E+03  0.81637436114E+02 0.  0.
         11    1    3    3    0    0 -0.23680889734E+02  0.15122575659E+02  0.35952701854E+03  0.36062328529E+03  0.00000000000E+00 0.  1.
        -11    1    3    3    0    0 -0.85239496313E+02  0.25122732273E+03  0.15124570159E+04  0.15355478385E+04  0.00000000000E+00 0. -1.
          4    1    6    6  502    0  0.50956487158E+02 -0.32703626789E+02  0.13155668107E+03  0.14482144566E+03  0.00000000000E+00 0. -1.
          3    1    5    5  503    0 -0.14947131375E+02 -0.10396661763E+03 -0.20482920968E+03  0.23019009417E+03  0.00000000000E+00 0. -1.
         -4    1    5    5    0  503  0.72637708827E+02 -0.12750447790E+03 -0.25709482052E+03  0.29602597077E+03  0.00000000000E+00 0.  1.
         -3    1    6    6    0  502  0.27332143703E+00 -0.21751760629E+01  0.25752796261E+03  0.25753729365E+03  0.00000000000E+00 0.  1.
<mgrwt>
<rscale>  0 0.21776749E+04</rscale>
<asrwt>0</asrwt>
<pdfrwt beam="1">  1        1 0.35568388E+00 0.21776749E+04</pdfrwt>
<pdfrwt beam="2">  1       -1 0.78892408E-01 0.21776749E+04</pdfrwt>
<totfact> 0.26807080E+00</totfact>
</mgrwt>
</event>
<event>
12    1  0.1489025E-007  0.1499118E+04  0.7818608E-02  0.8885040E-01
          1   -1    0    0  501    0  0.00000000000E+00  0.00000000000E+00  0.53530332082E+03  0.53530332082E+03  0.00000000000E+00 0. -1.
         -1   -1    0    0    0  501 -0.00000000000E+00 -0.00000000000E+00 -0.10495704330E+04  0.10495704330E+04  0.00000000000E+00 0.  1.
         23    2    1    2    0    0 -0.42968974713E+03  0.94729841680E+01  0.26006660657E+02  0.44024550573E+03  0.91742807317E+02 0.  0.
        254    2    1    2    0    0  0.42968974713E+03 -0.94729841680E+01 -0.54027377281E+03  0.11446282481E+04  0.91299236604E+03 0.  0.
        -24    2    4    4    0    0  0.44781312117E+03  0.31049844116E+02 -0.77136951874E+03  0.89610586005E+03  0.80585939561E+02 0.  0.
         24    2    4    4    0    0 -0.18123374032E+02 -0.40522828284E+02  0.23109574593E+03  0.24852238801E+03  0.79922320155E+02 0.  0.
         11    1    3    3    0    0 -0.31985287493E+03  0.38271227873E+02  0.44521721924E+02  0.32519645171E+03  0.00000000000E+00 0. -1.
        -11    1    3    3    0    0 -0.10983687221E+03 -0.28798243705E+02 -0.18515061267E+02  0.11504905402E+03  0.00000000000E+00 0.  1.
          2    1    6    6  502    0  0.18152340394E+02 -0.42731964339E+02  0.17953237494E+03  0.18543840457E+03  0.00000000000E+00 0. -1.
          3    1    5    5  503    0  0.35439144746E+03  0.50098030996E+02 -0.64694349665E+03  0.73935038960E+03  0.00000000000E+00 0. -1.
         -4    1    5    5    0  503  0.93421673702E+02 -0.19048186880E+02 -0.12442602210E+03  0.15675547045E+03  0.00000000000E+00 0.  1.
         -1    1    6    6    0  502 -0.36275714426E+02  0.22091360550E+01  0.51563370987E+02  0.63083983441E+02  0.00000000000E+00 0.  1.
<mgrwt>
<rscale>  0 0.14991178E+04</rscale>
<asrwt>0</asrwt>
<pdfrwt beam="1">  1        1 0.82354357E-01 0.14991178E+04</pdfrwt>
<pdfrwt beam="2">  1       -1 0.16147238E+00 0.14991178E+04</pdfrwt>
<totfact> 0.11105041E+01</totfact>
</mgrwt>
</event>
<event>
12    1  0.1489025E-007  0.1214895E+04  0.7818608E-02  0.9099918E-01
          2   -1    0    0  501    0  0.00000000000E+00  0.00000000000E+00  0.38902912053E+04  0.38902912053E+04  0.00000000000E+00 0. -1.
         -2   -1    0    0    0  501 -0.00000000000E+00 -0.00000000000E+00 -0.94849568178E+02  0.94849568178E+02  0.00000000000E+00 0.  1.
         23    2    1    2    0    0 -0.25420663979E+03 -0.34529568370E+01  0.72051958607E+03  0.76943580938E+03  0.90829798122E+02 0.  0.
        254    2    1    2    0    0  0.25420663979E+03  0.34529568370E+01  0.30749220511E+04  0.32157049641E+04  0.90607938804E+03 0.  0.
        -24    2    4    4    0    0  0.46215994235E+03 -0.13032168582E+02  0.78176167583E+03  0.91183169359E+03  0.80771714768E+02 0.  0.
         24    2    4    4    0    0 -0.20795330256E+03  0.16485125419E+02  0.22931603752E+04  0.23038732705E+04  0.75704720126E+02 0.  0.
         11    1    3    3    0    0 -0.23960623965E+03  0.11623992258E+02  0.70047828674E+03  0.74041616505E+03  0.00000000000E+00 0.  1.
        -11    1    3    3    0    0 -0.14600400140E+02 -0.15076949095E+02  0.20041299325E+02  0.29019644327E+02  0.00000000000E+00 0. -1.
          2    1    6    6  502    0 -0.82405103486E+02 -0.28928457750E+02  0.79849079584E+03  0.80325276706E+03  0.00000000000E+00 0. -1.
          1    1    5    5  503    0  0.19903380418E+03  0.14534543805E+01  0.41444677515E+03  0.45976374060E+03  0.00000000000E+00 0. -1.
         -2    1    5    5    0  503  0.26312613817E+03 -0.14485622963E+02  0.36731490068E+03  0.45206795299E+03  0.00000000000E+00 0.  1.
         -1    1    6    6    0  502 -0.12554819907E+03  0.45413583169E+02  0.14946695794E+04  0.15006205034E+04  0.00000000000E+00 0.  1.
<mgrwt>
<rscale>  0 0.12148950E+04</rscale>
<asrwt>0</asrwt>
<pdfrwt beam="1">  1        2 0.59850622E+00 0.12148950E+04</pdfrwt>
<pdfrwt beam="2">  1       -2 0.14592244E-01 0.12148950E+04</pdfrwt>
<totfact> 0.15724138E+01</totfact>
</mgrwt>
</event>
<event>
12    1  0.1489025E-007  0.1452194E+04  0.7818608E-02  0.8916881E-01
         -2   -1    0    0    0  501 -0.00000000000E+00  0.00000000000E+00  0.32133294471E+03  0.32133294471E+03  0.00000000000E+00 0. -1.
          2   -1    0    0  501    0  0.00000000000E+00 -0.00000000000E+00 -0.16407174336E+04  0.16407174336E+04  0.00000000000E+00 0.  1.
         23    2    1    2    0    0  0.18714555062E+03 -0.69663275655E+02 -0.94479033396E+03  0.97015256423E+03  0.93224426281E+02 0.  0.
        254    2    1    2    0    0 -0.18714555062E+03  0.69663275655E+02 -0.37459415496E+03  0.99189781411E+03  0.89647312487E+03 0.  0.
        -24    2    4    4    0    0  0.29216371851E+03  0.64821686127E+02 -0.39949643345E+03  0.50530377740E+03  0.78568554184E+02 0.  0.
         24    2    4    4    0    0 -0.47930926913E+03  0.48415895279E+01  0.24902278496E+02  0.48659403671E+03  0.79955091305E+02 0.  0.
         11    1    3    3    0    0  0.12471477477E+03 -0.15815226838E+01 -0.62321275729E+03  0.63557093791E+03  0.00000000000E+00 0.  1.
        -11    1    3    3    0    0  0.62430775855E+02 -0.68081752971E+02 -0.32157757666E+03  0.33458162633E+03  0.00000000000E+00 0. -1.
          4    1    6    6  502    0 -0.75142746215E+02 -0.21690045923E+02  0.23110761750E+02  0.81553649272E+02  0.00000000000E+00 0. -1.
          3    1    5    5  503    0  0.43264102012E+02 -0.30737601487E+00 -0.10890843173E+03  0.11718755695E+03  0.00000000000E+00 0. -1.
         -4    1    5    5    0  503  0.24889961649E+03  0.65129062142E+02 -0.29058800173E+03  0.38811622045E+03  0.00000000000E+00 0.  1.
         -3    1    6    6    0  502 -0.40416652291E+03  0.26531635451E+02  0.17915167465E+01  0.40504038744E+03  0.00000000000E+00 0.  1.
<mgrwt>
<rscale>  0 0.14521936E+04</rscale>
<asrwt>0</asrwt>
<pdfrwt beam="1">  1        2 0.25241806E+00 0.14521936E+04</pdfrwt>
<pdfrwt beam="2">  1       -2 0.49435838E-01 0.14521936E+04</pdfrwt>
<totfact> 0.39732971E+01</totfact>
</mgrwt>
</event>
<event>
12    1  0.1489025E-007  0.1687351E+04  0.7818608E-02  0.8768612E-01
         -2   -1    0    0    0  501 -0.00000000000E+00  0.00000000000E+00  0.88243577373E+03  0.88243577373E+03  0.00000000000E+00 0. -1.
          2   -1    0    0  501    0  0.00000000000E+00 -0.00000000000E+00 -0.80661768736E+03  0.80661768736E+03  0.00000000000E+00 0.  1.
         23    2    1    2    0    0 -0.40647851875E+03 -0.20988939509E+02 -0.41159090024E+03  0.58595812998E+03  0.90964493853E+02 0.  0.
        254    2    1    2    0    0  0.40647851875E+03  0.20988939509E+02  0.48740898661E+03  0.11030953311E+04  0.90199028126E+03 0.  0.
        -24    2    4    4    0    0 -0.13625545786E+03 -0.27863303249E+03  0.32693199034E+03  0.45777865652E+03  0.80466486623E+02 0.  0.
         24    2    4    4    0    0  0.54273397661E+03  0.29962197200E+03  0.16047699627E+03  0.64531667459E+03  0.79669622144E+02 0.  0.
         11    1    3    3    0    0 -0.22731346991E+03 -0.13730699071E+02 -0.16570432843E+03  0.28163428442E+03  0.00000000000E+00 0.  1.
        -11    1    3    3    0    0 -0.17916504884E+03 -0.72582404376E+01 -0.24588657181E+03  0.30432384556E+03  0.00000000000E+00 0. -1.
          2    1    6    6  502    0  0.49688947643E+03  0.27246182609E+03  0.16900621817E+03  0.59135243319E+03  0.00000000000E+00 0. -1.
          3    1    5    5  503    0 -0.96025554141E+02 -0.20151631938E+03  0.28267437320E+03  0.36018680610E+03  0.00000000000E+00 0. -1.
         -4    1    5    5    0  503 -0.40229903720E+02 -0.77116713112E+02  0.44257617142E+02  0.97591850426E+02  0.00000000000E+00 0.  1.
         -1    1    6    6    0  502  0.45844500187E+02  0.27160145905E+02 -0.85292219028E+01  0.53964241394E+02  0.00000000000E+00 0.  1.
<mgrwt>
<rscale>  0 0.16873509E+04</rscale>
<asrwt>0</asrwt>
<pdfrwt beam="1">  1        2 0.12409503E+00 0.16873509E+04</pdfrwt>
<pdfrwt beam="2">  1       -2 0.13575935E+00 0.16873509E+04</pdfrwt>
<totfact> 0.12616584E+01</totfact>
</mgrwt>
</event>
<event>
12    1  0.1489025E-007  0.2296870E+04  0.7818608E-02  0.8479156E-01
          2   -1    0    0  501    0  0.00000000000E+00  0.00000000000E+00  0.72751093735E+03  0.72751093735E+03  0.00000000000E+00 0. -1.
         -2   -1    0    0    0  501 -0.00000000000E+00 -0.00000000000E+00 -0.18128975335E+04  0.18128975335E+04  0.00000000000E+00 0.  1.
         23    2    1    2    0    0 -0.56402145737E+03 -0.65275100762E+03 -0.10616659142E+04  0.13707663715E+04  0.87531991564E+02 0.  0.
        254    2    1    2    0    0  0.56402145737E+03  0.65275100762E+03 -0.23720681936E+02  0.11696420993E+04  0.78949090398E+03 0.  0.
        -24    2    4    4    0    0  0.58622850021E+03  0.89450318910E+02  0.20774068271E+02  0.59850308797E+03  0.78161182084E+02 0.  0.
         24    2    4    4    0    0 -0.22207042840E+02  0.56330068871E+03 -0.44494750207E+02  0.57113901137E+03  0.80119715791E+02 0.  0.
         13    1    3    3    0    0 -0.40895172355E+03 -0.41558197667E+03 -0.73970834618E+03  0.94186959232E+03  0.00000000000E+00 0.  1.
        -13    1    3    3    0    0 -0.15506973382E+03 -0.23716903095E+03 -0.32195756801E+03  0.42889677917E+03  0.00000000000E+00 0. -1.
          4    1    6    6  502    0  0.88516414755E+01  0.48588993997E+03 -0.36136692539E+02  0.48731226731E+03  0.00000000000E+00 0. -1.
          1    1    5    5  503    0  0.22547325674E+03 -0.49396021003E+00 -0.77933428147E+01  0.22560844332E+03  0.00000000000E+00 0. -1.
         -2    1    5    5    0  503  0.36075524346E+03  0.89944279120E+02  0.28567411086E+02  0.37289464465E+03  0.00000000000E+00 0.  1.
         -3    1    6    6    0  502 -0.31058684315E+02  0.77410748739E+02 -0.83580576679E+01  0.83826744060E+02  0.00000000000E+00 0.  1.
<mgrwt>
<rscale>  0 0.22968699E+04</rscale>
<asrwt>0</asrwt>
<pdfrwt beam="1">  1        2 0.11192476E+00 0.22968699E+04</pdfrwt>
<pdfrwt beam="2">  1       -2 0.27890731E+00 0.22968699E+04</pdfrwt>
<totfact> 0.15127861E+00</totfact>
</mgrwt>
</event>
<event>
12    1  0.1489025E-007  0.1080625E+04  0.7818608E-02  0.9224284E-01
         -2   -1    0    0    0  501 -0.00000000000E+00  0.00000000000E+00  0.23724579802E+03  0.23724579802E+03  0.00000000000E+00 0.  1.
          2   -1    0    0  501    0  0.00000000000E+00 -0.00000000000E+00 -0.12305288175E+04  0.12305288175E+04  0.00000000000E+00 0. -1.
         23    2    1    2    0    0 -0.58861719073E+02  0.13058125505E+03 -0.17930130558E+03  0.24806920303E+03  0.94197691932E+02 0.  0.
        254    2    1    2    0    0  0.58861719073E+02 -0.13058125505E+03 -0.81398171390E+03  0.12197054125E+04  0.89699436818E+03 0.  0.
        -24    2    4    4    0    0  0.12020235071E+03 -0.27870753221E+03 -0.94603376479E+03  0.99677847061E+03  0.80379983335E+02 0.  0.
         24    2    4    4    0    0 -0.61340631642E+02  0.14812627716E+03  0.13205205089E+03  0.22292694188E+03  0.80960547163E+02 0.  0.
         11    1    3    3    0    0 -0.73473039147E+02  0.11575020250E+03 -0.18113382278E+03  0.22716922902E+03  0.00000000000E+00 0. -1.
        -11    1    3    3    0    0  0.14611320074E+02  0.14831052555E+02  0.18325172000E+01  0.20899974007E+02  0.00000000000E+00 0.  1.
          2    1    6    6  502    0 -0.59114099586E+02  0.15368025562E+03  0.13773882513E+03  0.21467203285E+03  0.00000000000E+00 0. -1.
          3    1    5    5  503    0  0.11103362100E+03 -0.23666300127E+03 -0.87960847569E+03  0.91763223116E+03  0.00000000000E+00 0. -1.
         -4    1    5    5    0  503  0.91687297137E+01 -0.42044530942E+02 -0.66425289098E+02  0.79146239446E+02  0.00000000000E+00 0.  1.
         -1    1    6    6    0  502 -0.22265320561E+01 -0.55539784683E+01 -0.56867742418E+01  0.82549090304E+01  0.00000000000E+00 0.  1.
<mgrwt>
<rscale>  0 0.10806254E+04</rscale>
<asrwt>0</asrwt>
<pdfrwt beam="1">  1        2 0.18931212E+00 0.10806254E+04</pdfrwt>
<pdfrwt beam="2">  1       -2 0.36499354E-01 0.10806254E+04</pdfrwt>
<totfact> 0.12746873E+02</totfact>
</mgrwt>
</event>
<event>
12    1  0.1489025E-007  0.1502964E+04  0.7818608E-02  0.8882484E-01
          1   -1    0    0  501    0  0.00000000000E+00  0.00000000000E+00  0.13376126344E+04  0.13376126344E+04  0.00000000000E+00 0. -1.
         -1   -1    0    0    0  501 -0.00000000000E+00 -0.00000000000E+00 -0.42218890609E+03  0.42218890609E+03  0.00000000000E+00 0.  1.
         23    2    1    2    0    0 -0.15454174388E+03 -0.11503500727E+03 -0.20973225996E+03  0.29934803894E+03  0.92224855948E+02 0.  0.
        254    2    1    2    0    0  0.15454174388E+03  0.11503500727E+03  0.11251559883E+04  0.14604535016E+04  0.91095127684E+03 0.  0.
        -24    2    4    4    0    0  0.20006388839E+03  0.14449563809E+03 -0.64183003819E+02  0.26731649108E+03  0.80212839142E+02 0.  0.
         24    2    4    4    0    0 -0.45522144510E+02 -0.29460630822E+02  0.11893389921E+04  0.11931370105E+04  0.78156850189E+02 0.  0.
         13    1    3    3    0    0 -0.29256835966E+02 -0.66848563165E+02 -0.40879451976E+02  0.83641033242E+02  0.00000000000E+00 0. -1.
        -13    1    3    3    0    0 -0.12528490791E+03 -0.48186444103E+02 -0.16885280798E+03  0.21570700570E+03  0.00000000000E+00 0.  1.
          2    1    6    6  502    0 -0.27169815240E+02  0.32797305870E+01  0.98496523836E+03  0.98534535888E+03  0.00000000000E+00 0. -1.
          1    1    5    5  503    0  0.63073360319E+02  0.51211060706E+02 -0.60920059142E+02  0.10154838810E+03  0.00000000000E+00 0. -1.
         -2    1    5    5    0  503  0.13699052807E+03  0.93284577384E+02 -0.32629446768E+01  0.16576810298E+03  0.00000000000E+00 0.  1.
         -1    1    6    6    0  502 -0.18352329270E+02 -0.32740361409E+02  0.20437375375E+03  0.20779165161E+03  0.00000000000E+00 0.  1.
<mgrwt>
<rscale>  0 0.15029640E+04</rscale>
<asrwt>0</asrwt>
<pdfrwt beam="1">  1        1 0.20578656E+00 0.15029640E+04</pdfrwt>
<pdfrwt beam="2">  1       -1 0.64952140E-01 0.15029640E+04</pdfrwt>
<totfact> 0.19764435E+01</totfact>
</mgrwt>
</event>
<event>
12    1  0.1489025E-007  0.2321031E+04  0.7818608E-02  0.8469675E-01
         -1   -1    0    0    0  501 -0.00000000000E+00  0.00000000000E+00  0.14520839681E+04  0.14520839681E+04  0.00000000000E+00 0.  1.
          1   -1    0    0  501    0  0.00000000000E+00 -0.00000000000E+00 -0.92749177959E+03  0.92749177959E+03  0.00000000000E+00 0. -1.
         23    2    1    2    0    0 -0.44493852208E+03 -0.52466642363E+03  0.94458846492E+03  0.11722331199E+04  0.92940705903E+02 0.  0.
        254    2    1    2    0    0  0.44493852208E+03  0.52466642363E+03 -0.41999627640E+03  0.12073426278E+04  0.89890722780E+03 0.  0.
        -24    2    4    4    0    0 -0.24082466205E+03  0.19325989950E+03  0.27698305025E+02  0.32025701763E+03  0.80320947668E+02 0.  0.
         24    2    4    4    0    0  0.68576318413E+03  0.33140652413E+03 -0.44769458143E+03  0.88708561017E+03  0.79931299107E+02 0.  0.
         13    1    3    3    0    0 -0.18462560745E+02 -0.54431049417E+02  0.56640913073E+02  0.80695714407E+02  0.00000000000E+00 0. -1.
        -13    1    3    3    0    0 -0.42647596134E+03 -0.47023537421E+03  0.88794755184E+03  0.10915374055E+04  0.00000000000E+00 0.  1.
          2    1    6    6  502    0  0.20873433840E+03  0.67184388010E+02 -0.15144120644E+03  0.26649241083E+03  0.00000000000E+00 0. -1.
          1    1    5    5  503    0 -0.51647458943E+01  0.27708876569E+02 -0.97717280433E+01  0.29831914284E+02  0.00000000000E+00 0. -1.
         -2    1    5    5    0  503 -0.23565991616E+03  0.16555102293E+03  0.37470033068E+02  0.29042510335E+03  0.00000000000E+00 0.  1.
         -1    1    6    6    0  502  0.47702884573E+03  0.26422213612E+03 -0.29625337499E+03  0.62059319934E+03  0.00000000000E+00 0.  1.
<mgrwt>
<rscale>  0 0.23210308E+04</rscale>
<asrwt>0</asrwt>
<pdfrwt beam="1">  1        1 0.14269104E+00 0.23210308E+04</pdfrwt>
<pdfrwt beam="2">  1       -1 0.22339753E+00 0.23210308E+04</pdfrwt>
<totfact> 0.16282856E+00</totfact>
</mgrwt>
</event>
<event>
12    1  0.1489025E-007  0.1665851E+04  0.7818608E-02  0.8781084E-01
          2   -1    0    0  501    0  0.00000000000E+00  0.00000000000E+00  0.18751166968E+04  0.18751166968E+04  0.00000000000E+00 0. -1.
         -2   -1    0    0    0  501 -0.00000000000E+00 -0.00000000000E+00 -0.36998494750E+03  0.36998494750E+03  0.00000000000E+00 0.  1.
         23    2    1    2    0    0 -0.15376450174E+03 -0.54244980364E+03  0.31989222285E+03  0.65457576783E+03  0.90791465094E+02 0.  0.
        254    2    1    2    0    0  0.15376450174E+03  0.54244980364E+03  0.11852395264E+04  0.15905258764E+04  0.89837882721E+03 0.  0.
        -24    2    4    4    0    0 -0.35979374222E+03  0.16752032819E+03  0.33415042692E+03  0.52506219761E+03  0.80741601759E+02 0.  0.
         24    2    4    4    0    0  0.51355824396E+03  0.37492947544E+03  0.85108909950E+03  0.10654636788E+04  0.80907441702E+02 0.  0.
         13    1    3    3    0    0 -0.15813123250E+03 -0.51032927154E+03  0.31877479429E+03  0.62214051592E+03  0.00000000000E+00 0.  1.
        -13    1    3    3    0    0  0.43667307592E+01 -0.32120532099E+02  0.11174285609E+01  0.32435251910E+02  0.00000000000E+00 0. -1.
          2    1    6    6  502    0  0.17270458714E+03  0.13634320022E+03  0.23387920834E+03  0.32111653143E+03  0.00000000000E+00 0. -1.
          3    1    5    5  503    0 -0.95028550830E+02  0.11413286555E+02  0.10206396078E+03  0.13992047982E+03  0.00000000000E+00 0. -1.
         -4    1    5    5    0  503 -0.26476519139E+03  0.15610704164E+03  0.23208646614E+03  0.38514171779E+03  0.00000000000E+00 0.  1.
         -1    1    6    6    0  502  0.34085365681E+03  0.23858627523E+03  0.61720989117E+03  0.74434714740E+03  0.00000000000E+00 0.  1.
<mgrwt>
<rscale>  0 0.16658511E+04</rscale>
<asrwt>0</asrwt>
<pdfrwt beam="1">  1        2 0.28847948E+00 0.16658511E+04</pdfrwt>
<pdfrwt beam="2">  1       -2 0.56920763E-01 0.16658511E+04</pdfrwt>
<totfact> 0.21642590E+01</totfact>
</mgrwt>
</event>
<event>
12    1  0.1489025E-007  0.1269047E+04  0.7818608E-02  0.9054478E-01
         -1   -1    0    0    0  501 -0.00000000000E+00  0.00000000000E+00  0.30094607537E+03  0.30094607537E+03  0.00000000000E+00 0.  1.
          1   -1    0    0  501    0  0.00000000000E+00 -0.00000000000E+00 -0.13378478879E+04  0.13378478879E+04  0.00000000000E+00 0. -1.
         23    2    1    2    0    0  0.73214100331E+02 -0.40400794116E+02 -0.67519306498E+03  0.68645779709E+03  0.91357011457E+02 0.  0.
        254    2    1    2    0    0 -0.73214100331E+02  0.40400794116E+02 -0.36170874752E+03  0.95233616616E+03  0.87699397186E+03 0.  0.
        -24    2    4    4    0    0  0.39129251834E+03  0.65026538135E+01 -0.23949975319E+03  0.46436590991E+03  0.71578258571E+02 0.  0.
         24    2    4    4    0    0 -0.46450661867E+03  0.33898140303E+02 -0.12220899433E+03  0.48797025624E+03  0.79148278440E+02 0.  0.
         13    1    3    3    0    0  0.48753998678E+02 -0.67908191680E+02 -0.53599400738E+03  0.54247400936E+03  0.00000000000E+00 0. -1.
        -13    1    3    3    0    0  0.24460101652E+02  0.27507397563E+02 -0.13919905760E+03  0.14398378773E+03  0.00000000000E+00 0.  1.
          4    1    6    6  502    0 -0.63192886407E+02  0.28044603062E+02 -0.26598918481E+01  0.69187539904E+02  0.00000000000E+00 0. -1.
          1    1    5    5  503    0  0.61998393614E+02  0.25011213919E+02 -0.54192396719E+02  0.86059151138E+02  0.00000000000E+00 0. -1.
         -2    1    5    5    0  503  0.32929412472E+03 -0.18508560105E+02 -0.18530735647E+03  0.37830675878E+03  0.00000000000E+00 0.  1.
         -3    1    6    6    0  502 -0.40131373226E+03  0.58535372410E+01 -0.11954910249E+03  0.41878271634E+03  0.00000000000E+00 0.  1.
<mgrwt>
<rscale>  0 0.12690470E+04</rscale>
<asrwt>0</asrwt>
<pdfrwt beam="1">  1        1 0.20582276E+00 0.12690470E+04</pdfrwt>
<pdfrwt beam="2">  1       -1 0.46299395E-01 0.12690470E+04</pdfrwt>
<totfact> 0.38855819E+01</totfact>
</mgrwt>
</event>
<event>
12    1  0.1489025E-007  0.1549077E+04  0.7818608E-02  0.8852458E-01
          2   -1    0    0  501    0  0.00000000000E+00  0.00000000000E+00  0.46323146580E+04  0.46323146580E+04  0.00000000000E+00 0. -1.
         -2   -1    0    0    0  501 -0.00000000000E+00 -0.00000000000E+00 -0.12950537943E+03  0.12950537943E+03  0.00000000000E+00 0.  1.
         23    2    1    2    0    0 -0.37323570544E+03  0.31147455268E+03  0.19694070674E+04  0.20306789346E+04  0.93656016761E+02 0.  0.
        254    2    1    2    0    0  0.37323570544E+03 -0.31147455268E+03  0.25334022112E+04  0.27311411028E+04  0.89704162181E+03 0.  0.
        -24    2    4    4    0    0  0.65074152956E+03 -0.20913333159E+03  0.20130946234E+04  0.21274877427E+04  0.80329595030E+02 0.  0.
         24    2    4    4    0    0 -0.27750582412E+03 -0.10234122109E+03  0.52030758781E+03  0.60365336019E+03  0.78703147208E+02 0.  0.
         13    1    3    3    0    0 -0.97247566072E+02  0.13209919496E+03  0.57426148596E+03  0.59722988930E+03  0.00000000000E+00 0. -1.
        -13    1    3    3    0    0 -0.27598813936E+03  0.17937535772E+03  0.13951455815E+04  0.14334490453E+04  0.00000000000E+00 0.  1.
          2    1    6    6  502    0 -0.24851819228E+03 -0.11529962993E+03  0.45692971393E+03  0.53276642164E+03  0.00000000000E+00 0. -1.
          3    1    5    5  503    0  0.57598683626E+03 -0.15673128706E+03  0.17482566467E+04  0.18473567156E+04  0.00000000000E+00 0. -1.
         -4    1    5    5    0  503  0.74754693292E+02 -0.52402044527E+02  0.26483797665E+03  0.28013102705E+03  0.00000000000E+00 0.  1.
         -1    1    6    6    0  502 -0.28987631840E+02  0.12958408836E+02  0.63377873882E+02  0.70886938550E+02  0.00000000000E+00 0.  1.
<mgrwt>
<rscale>  0 0.15490767E+04</rscale>
<asrwt>0</asrwt>
<pdfrwt beam="1">  1        2 0.71266367E+00 0.15490767E+04</pdfrwt>
<pdfrwt beam="2">  1       -2 0.19923908E-01 0.15490767E+04</pdfrwt>
<totfact> 0.19445413E+00</totfact>
</mgrwt>
</event>
<event>
12    1  0.1489025E-007  0.1780564E+04  0.7818608E-02  0.8716704E-01
         -2   -1    0    0    0  501 -0.00000000000E+00  0.00000000000E+00  0.76179651463E+03  0.76179651463E+03  0.00000000000E+00 0.  1.
          2   -1    0    0  501    0  0.00000000000E+00 -0.00000000000E+00 -0.10404379853E+04  0.10404379853E+04  0.00000000000E+00 0. -1.
         23    2    1    2    0    0 -0.82979346196E+02 -0.65660948968E+03 -0.78943917678E+02  0.67267852659E+03  0.90789119188E+02 0.  0.
        254    2    1    2    0    0  0.82979346196E+02  0.65660948968E+03 -0.19969755298E+03  0.11295559733E+04  0.89330621311E+03 0.  0.
        -24    2    4    4    0    0  0.30655669874E+03  0.13407450189E+03  0.22896664444E+03  0.41319725912E+03  0.79707396636E+02 0.  0.
         24    2    4    4    0    0 -0.22357735254E+03  0.52253498779E+03 -0.42866419742E+03  0.71635871421E+03  0.79919754975E+02 0.  0.
         11    1    3    3    0    0 -0.24119090794E+02 -0.12414535292E+03  0.19618996716E+02  0.12797931171E+03  0.00000000000E+00 0. -1.
        -11    1    3    3    0    0 -0.58860255402E+02 -0.53246413676E+03 -0.98562914394E+02  0.54469921488E+03  0.00000000000E+00 0.  1.
          4    1    6    6  502    0 -0.16910554603E+03  0.44248608728E+03 -0.38369803214E+03  0.60960216782E+03  0.00000000000E+00 0. -1.
          1    1    5    5  503    0  0.15512639961E+03  0.60097933481E+02  0.16088911488E+03  0.23143307618E+03  0.00000000000E+00 0. -1.
         -2    1    5    5    0  503  0.15143029913E+03  0.73976568410E+02  0.68077529567E+02  0.18176418294E+03  0.00000000000E+00 0.  1.
         -3    1    6    6    0  502 -0.54471806518E+02  0.80048900506E+02 -0.44966165280E+02  0.10675654639E+03  0.00000000000E+00 0.  1.
<mgrwt>
<rscale>  0 0.17805640E+04</rscale>
<asrwt>0</asrwt>
<pdfrwt beam="1">  1        2 0.16006738E+00 0.17805640E+04</pdfrwt>
<pdfrwt beam="2">  1       -2 0.11719946E+00 0.17805640E+04</pdfrwt>
<totfact> 0.12634966E+01</totfact>
</mgrwt>
</event>
<event>
12    1  0.1489025E-007  0.1527893E+04  0.7818608E-02  0.8866113E-01
         -2   -1    0    0    0  501 -0.00000000000E+00  0.00000000000E+00  0.66854668430E+03  0.66854668430E+03  0.00000000000E+00 0.  1.
          2   -1    0    0  501    0  0.00000000000E+00 -0.00000000000E+00 -0.87295941757E+03  0.87295941757E+03  0.00000000000E+00 0. -1.
         23    2    1    2    0    0  0.27725821498E+03  0.32651410232E+03  0.19375390790E+03  0.47987351099E+03  0.96199963258E+02 0.  0.
        254    2    1    2    0    0 -0.27725821498E+03 -0.32651410232E+03 -0.39816664118E+03  0.10616325909E+04  0.88602680946E+03 0.  0.
        -24    2    4    4    0    0  0.24313254514E+03 -0.23525135254E+03  0.65854540027E+02  0.35401043696E+03  0.80808017282E+02 0.  0.
         24    2    4    4    0    0 -0.52039076011E+03 -0.91262749778E+02 -0.46402118121E+03  0.70762215392E+03  0.79233978810E+02 0.  0.
         11    1    3    3    0    0  0.72707555287E+02  0.12995326312E+03  0.10649368462E+03  0.18307141791E+03  0.00000000000E+00 0. -1.
        -11    1    3    3    0    0  0.20455065969E+03  0.19656083920E+03  0.87260223285E+02  0.29680209307E+03  0.00000000000E+00 0.  1.
          4    1    6    6  502    0 -0.42268688344E+03 -0.68392792348E+02 -0.33212116469E+03  0.54189135767E+03  0.00000000000E+00 0. -1.
          3    1    5    5  503    0  0.87110442767E+02 -0.89623144722E+02 -0.14795825683E+02  0.12585489171E+03  0.00000000000E+00 0. -1.
         -4    1    5    5    0  503  0.15602210237E+03 -0.14562820782E+03  0.80650365710E+02  0.22815554525E+03  0.00000000000E+00 0.  1.
         -3    1    6    6    0  502 -0.97703876677E+02 -0.22869957430E+02 -0.13190001651E+03  0.16573079625E+03  0.00000000000E+00 0.  1.
<mgrwt>
<rscale>  0 0.15278928E+04</rscale>
<asrwt>0</asrwt>
<pdfrwt beam="1">  1        2 0.13430145E+00 0.15278928E+04</pdfrwt>
<pdfrwt beam="2">  1       -2 0.10285334E+00 0.15278928E+04</pdfrwt>
<totfact> 0.22789878E+01</totfact>
</mgrwt>
</event>
<event>
12    1  0.1489025E-007  0.1370804E+04  0.7818608E-02  0.8975228E-01
         -2   -1    0    0    0  501 -0.00000000000E+00  0.00000000000E+00  0.11235867922E+04  0.11235867922E+04  0.00000000000E+00 0.  1.
          2   -1    0    0  501    0  0.00000000000E+00 -0.00000000000E+00 -0.41810370116E+03  0.41810370116E+03  0.00000000000E+00 0. -1.
         23    2    1    2    0    0 -0.32438340105E+03  0.11870258488E+03  0.30704610968E+03  0.47110228010E+03  0.91351794215E+02 0.  0.
        254    2    1    2    0    0  0.32438340105E+03 -0.11870258488E+03  0.39843698132E+03  0.10705882132E+04  0.93171465572E+03 0.  0.
        -24    2    4    4    0    0  0.44392608347E+03  0.28140146535E+03  0.36405535153E+03  0.64421019048E+03  0.78824604368E+02 0.  0.
         24    2    4    4    0    0 -0.11954268241E+03 -0.40010405023E+03  0.34381629793E+02  0.42637802275E+03  0.79008973465E+02 0.  0.
         13    1    3    3    0    0 -0.31284947626E+02  0.33539218776E+02  0.13945274053E+02  0.47938479455E+02  0.00000000000E+00 0. -1.
        -13    1    3    3    0    0 -0.29309845343E+03  0.85163366101E+02  0.29310083563E+03  0.42316380064E+03  0.00000000000E+00 0.  1.
          4    1    6    6  502    0 -0.13472565855E+02 -0.97341854102E+02  0.38511238896E+02  0.10554649266E+03  0.00000000000E+00 0. -1.
          1    1    5    5  503    0  0.27980829558E+03  0.21707253832E+03  0.22359485594E+03  0.41881717822E+03  0.00000000000E+00 0. -1.
         -2    1    5    5    0  503  0.16411778789E+03  0.64328927029E+02  0.14046049559E+03  0.22539301226E+03  0.00000000000E+00 0.  1.
         -3    1    6    6    0  502 -0.10607011656E+03 -0.30276219613E+03 -0.41296091027E+01  0.32083153009E+03  0.00000000000E+00 0.  1.
<mgrwt>
<rscale>  0 0.13708038E+04</rscale>
<asrwt>0</asrwt>
<pdfrwt beam="1">  1        2 0.64323647E-01 0.13708038E+04</pdfrwt>
<pdfrwt beam="2">  1       -2 0.17285950E+00 0.13708038E+04</pdfrwt>
<totfact> 0.14987522E+01</totfact>
</mgrwt>
</event>
<event>
12    1  0.1489025E-007  0.1220948E+04  0.7818608E-02  0.9094716E-01
          2   -1    0    0  501    0  0.00000000000E+00  0.00000000000E+00  0.24292593955E+04  0.24292593955E+04  0.00000000000E+00 0.  1.
         -2   -1    0    0    0  501 -0.00000000000E+00 -0.00000000000E+00 -0.15341227603E+03  0.15341227603E+03  0.00000000000E+00 0. -1.
         23    2    1    2    0    0  0.25500494121E+03  0.30654841398E+02  0.35604421193E+03  0.44746644713E+03  0.86553458147E+02 0.  0.
        254    2    1    2    0    0 -0.25500494121E+03 -0.30654841398E+02  0.19198029075E+04  0.21352052244E+04  0.89860497838E+03 0.  0.
        -24    2    4    4    0    0 -0.14287478651E+03  0.28169399025E+03  0.19993519196E+03  0.38190123200E+03  0.78164961789E+02 0.  0.
         24    2    4    4    0    0 -0.11213015470E+03 -0.31234883165E+03  0.17198677156E+04  0.17533039924E+04  0.77427168710E+02 0.  0.
         13    1    3    3    0    0  0.19718214360E+03  0.44590813463E+02  0.31813667366E+03  0.37693511581E+03  0.00000000000E+00 0.  1.
        -13    1    3    3    0    0  0.57822797605E+02 -0.13935972065E+02  0.37907538263E+02  0.70531331318E+02  0.00000000000E+00 0. -1.
          4    1    6    6  502    0 -0.50362870006E+02 -0.21735306325E+03  0.12657328165E+04  0.12852464104E+04  0.00000000000E+00 0. -1.
          1    1    5    5  503    0 -0.11656564410E+03  0.25674215535E+03  0.19990994602E+03  0.34564153431E+03  0.00000000000E+00 0. -1.
         -2    1    5    5    0  503 -0.26309142411E+02  0.24951834904E+02  0.25245939556E-01  0.36259697694E+02  0.00000000000E+00 0.  1.
         -3    1    6    6    0  502 -0.61767284692E+02 -0.94995768404E+02  0.45413489911E+03  0.46805758199E+03  0.00000000000E+00 0.  1.
<mgrwt>
<rscale>  0 0.12209475E+04</rscale>
<asrwt>0</asrwt>
<pdfrwt beam="1">  1        2 0.37373218E+00 0.12209475E+04</pdfrwt>
<pdfrwt beam="2">  1       -2 0.23601890E-01 0.12209475E+04</pdfrwt>
<totfact> 0.60305316E+01</totfact>
</mgrwt>
</event>
<event>
12    1  0.1489025E-007  0.3921358E+04  0.7818608E-02  0.8020602E-01
          1   -1    0    0  501    0  0.00000000000E+00  0.00000000000E+00  0.31931952706E+04  0.31931952706E+04  0.00000000000E+00 0. -1.
         -1   -1    0    0    0  501 -0.00000000000E+00 -0.00000000000E+00 -0.12038920445E+04  0.12038920445E+04  0.00000000000E+00 0.  1.
         23    2    1    2    0    0 -0.88743531515E+03  0.12483720688E+03  0.27556203650E+04  0.28990966549E+04  0.90509952534E+02 0.  0.
        254    2    1    2    0    0  0.88743531515E+03 -0.12483720688E+03 -0.76631713888E+03  0.14979906602E+04  0.92390924553E+03 0.  0.
        -24    2    4    4    0    0  0.76540360141E+02 -0.38963746508E+02 -0.66178360911E+03  0.67213727933E+03  0.80214566638E+02 0.  0.
         24    2    4    4    0    0  0.81089495501E+03 -0.85873460368E+02 -0.10453352977E+03  0.82585338090E+03  0.78623588344E+02 0.  0.
         13    1    3    3    0    0 -0.12130533658E+03  0.42703360099E+02  0.33688982389E+03  0.36060132430E+03  0.00000000000E+00 0.  1.
        -13    1    3    3    0    0 -0.76612997857E+03  0.82133846777E+02  0.24187305411E+04  0.25384953306E+04  0.00000000000E+00 0. -1.
          2    1    6    6  502    0  0.25084924528E+03  0.24599835855E+01 -0.10026356718E+02  0.25106159245E+03  0.00000000000E+00 0. -1.
          3    1    5    5  503    0  0.52749811449E+02  0.14600460064E+02 -0.40911998937E+03  0.41276492310E+03  0.00000000000E+00 0. -1.
         -4    1    5    5    0  503  0.23790548692E+02 -0.53564206572E+02 -0.25266361974E+03  0.25937235623E+03  0.00000000000E+00 0.  1.
         -1    1    6    6    0  502  0.56004570973E+03 -0.88333443953E+02 -0.94507173056E+02  0.57479178845E+03  0.00000000000E+00 0.  1.
<mgrwt>
<rscale>  0 0.39213581E+04</rscale>
<asrwt>0</asrwt>
<pdfrwt beam="1">  1        1 0.49126081E+00 0.39213581E+04</pdfrwt>
<pdfrwt beam="2">  1       -1 0.18521416E+00 0.39213581E+04</pdfrwt>
<totfact> 0.64650302E-02</totfact>
</mgrwt>
</event>
<event>
12    1  0.1489025E-007  0.1321229E+04  0.7818608E-02  0.9012898E-01
          2   -1    0    0  501    0  0.00000000000E+00  0.00000000000E+00  0.65221081611E+03  0.65221081611E+03  0.00000000000E+00 0.  1.
         -2   -1    0    0    0  501 -0.00000000000E+00 -0.00000000000E+00 -0.66912658234E+03  0.66912658234E+03  0.00000000000E+00 0. -1.
         23    2    1    2    0    0 -0.33304461923E+03 -0.62145734940E+02  0.36769805392E+02  0.35241996213E+03  0.89816481515E+02 0.  0.
        254    2    1    2    0    0  0.33304461923E+03  0.62145734940E+02 -0.53685571628E+02  0.96891743632E+03  0.90616667729E+03 0.  0.
        -24    2    4    4    0    0  0.69245890996E+02 -0.33402644456E+03 -0.26794282798E+03  0.44081444289E+03  0.78456069957E+02 0.  0.
         24    2    4    4    0    0  0.26379872824E+03  0.39617217950E+03  0.21425725635E+03  0.52810299343E+03  0.80277237994E+02 0.  0.
         13    1    3    3    0    0 -0.28382180838E+03 -0.55959083864E+02 -0.22641775877E+01  0.28929459808E+03  0.00000000000E+00 0. -1.
        -13    1    3    3    0    0 -0.49222810857E+02 -0.61866510756E+01  0.39033982979E+02  0.63125364058E+02  0.00000000000E+00 0.  1.
          4    1    6    6  502    0  0.82454788397E+02  0.64880719335E+02  0.42402765896E+02  0.11316489927E+03  0.00000000000E+00 0. -1.
          3    1    5    5  503    0  0.11014855654E+02 -0.23385843444E+03 -0.18281880976E+03  0.29704176744E+03  0.00000000000E+00 0. -1.
         -4    1    5    5    0  503  0.58231035342E+02 -0.10016801012E+03 -0.85124018220E+02  0.14377267545E+03  0.00000000000E+00 0.  1.
         -1    1    6    6    0  502  0.18134393984E+03  0.33129146016E+03  0.17185449046E+03  0.41493809416E+03  0.00000000000E+00 0.  1.
<mgrwt>
<rscale>  0 0.13212291E+04</rscale>
<asrwt>0</asrwt>
<pdfrwt beam="1">  1        2 0.10034013E+00 0.13212291E+04</pdfrwt>
<pdfrwt beam="2">  1       -2 0.10294255E+00 0.13212291E+04</pdfrwt>
<totfact> 0.33784335E+01</totfact>
</mgrwt>
</event>
<event>
12    1  0.1489025E-007  0.1332284E+04  0.7818608E-02  0.9004348E-01
          2   -1    0    0  501    0  0.00000000000E+00  0.00000000000E+00  0.10810108965E+04  0.10810108965E+04  0.00000000000E+00 0. -1.
         -2   -1    0    0    0  501 -0.00000000000E+00 -0.00000000000E+00 -0.41049090430E+03  0.41049090430E+03  0.00000000000E+00 0.  1.
         23    2    1    2    0    0  0.39786805128E+02  0.14533619121E+03  0.53084614453E+03  0.55912062280E+03  0.90070213383E+02 0.  0.
        254    2    1    2    0    0 -0.39786805128E+02 -0.14533619121E+03  0.13967384770E+03  0.93238117803E+03  0.90946153249E+03 0.  0.
        -24    2    4    4    0    0  0.28485272336E+02  0.28615331770E+03 -0.21111064810E+03  0.36652948672E+03  0.84148837914E+02 0.  0.
         24    2    4    4    0    0 -0.68272077464E+02 -0.43148950891E+03  0.35078449579E+03  0.56585169131E+03  0.79335371747E+02 0.  0.
         13    1    3    3    0    0  0.22207123439E+02 -0.61429997803E+01  0.72118603101E+02  0.75709878424E+02  0.00000000000E+00 0.  1.
        -13    1    3    3    0    0  0.17579681689E+02  0.15147919099E+03  0.45872754143E+03  0.48341074438E+03  0.00000000000E+00 0. -1.
          4    1    6    6  502    0 -0.37214575934E+02 -0.19685410164E+03  0.11146046664E+03  0.22925945481E+03  0.00000000000E+00 0. -1.
          3    1    5    5  503    0  0.47687063711E+02  0.10757689434E+03 -0.61502981103E+02  0.13277598023E+03  0.00000000000E+00 0. -1.
         -4    1    5    5    0  503 -0.19201791375E+02  0.17857642336E+03 -0.14960766700E+03  0.23375350649E+03  0.00000000000E+00 0.  1.
         -3    1    6    6    0  502 -0.31057501530E+02 -0.23463540727E+03  0.23932402915E+03  0.33659223651E+03  0.00000000000E+00 0.  1.
<mgrwt>
<rscale>  0 0.13322840E+04</rscale>
<asrwt>0</asrwt>
<pdfrwt beam="1">  1        2 0.16630937E+00 0.13322840E+04</pdfrwt>
<pdfrwt beam="2">  1       -2 0.63152447E-01 0.13322840E+04</pdfrwt>
<totfact> 0.50850598E+01</totfact>
</mgrwt>
</event>
<event>
12    1  0.1489025E-007  0.2561649E+04  0.7818608E-02  0.8381346E-01
         -2   -1    0    0    0  501 -0.00000000000E+00  0.00000000000E+00  0.78151640346E+03  0.78151640346E+03  0.00000000000E+00 0. -1.
          2   -1    0    0  501    0  0.00000000000E+00 -0.00000000000E+00 -0.20991394135E+04  0.20991394135E+04  0.00000000000E+00 0.  1.
         23    2    1    2    0    0  0.86920079746E+03  0.23060531317E+02 -0.13656068133E+04  0.16215208880E+04  0.91685370615E+02 0.  0.
        254    2    1    2    0    0 -0.86920079746E+03 -0.23060531317E+02  0.47983803247E+02  0.12591349290E+04  0.90943746880E+03 0.  0.
        -24    2    4    4    0    0 -0.84201467667E+03 -0.29540023594E+03  0.22509553060E+03  0.92374661678E+03  0.79936218296E+02 0.  0.
         24    2    4    4    0    0 -0.27186120790E+02  0.27233970463E+03 -0.17711172736E+03  0.33538831222E+03  0.78795660599E+02 0.  0.
         13    1    3    3    0    0  0.31576402138E+03 -0.31315594239E+02 -0.46089332122E+03  0.55956254090E+03  0.00000000000E+00 0. -1.
        -13    1    3    3    0    0  0.55343677608E+03  0.54376125557E+02 -0.90471349207E+03  0.10619583471E+04  0.00000000000E+00 0.  1.
          2    1    6    6  502    0 -0.21673891105E+02  0.26803598321E+03 -0.18379086360E+03  0.32571786471E+03  0.00000000000E+00 0. -1.
          3    1    5    5  503    0 -0.62057794479E+03 -0.21893069499E+03  0.12928621319E+03  0.67064339234E+03  0.00000000000E+00 0. -1.
         -2    1    5    5    0  503 -0.22143673188E+03 -0.76469540958E+02  0.95809317416E+02  0.25310322444E+03  0.00000000000E+00 0.  1.
         -1    1    6    6    0  502 -0.55122296855E+01  0.43037214157E+01  0.66791362408E+01  0.96704475105E+01  0.00000000000E+00 0.  1.
<mgrwt>
<rscale>  0 0.25616494E+04</rscale>
<asrwt>0</asrwt>
<pdfrwt beam="1">  1        2 0.32294452E+00 0.25616494E+04</pdfrwt>
<pdfrwt beam="2">  1       -2 0.12023329E+00 0.25616494E+04</pdfrwt>
<totfact> 0.27582509E+00</totfact>
</mgrwt>
</event>
<event>
12    1  0.1489025E-007  0.1278579E+04  0.7818608E-02  0.9046727E-01
          2   -1    0    0  501    0  0.00000000000E+00  0.00000000000E+00  0.12667910578E+04  0.12667910578E+04  0.00000000000E+00 0.  1.
         -2   -1    0    0    0  501 -0.00000000000E+00 -0.00000000000E+00 -0.32261919449E+03  0.32261919449E+03  0.00000000000E+00 0. -1.
         23    2    1    2    0    0 -0.21006326872E+03 -0.83940873189E+02  0.50290797918E+03  0.55926513245E+03  0.93211618365E+02 0.  0.
        254    2    1    2    0    0  0.21006326872E+03  0.83940873189E+02  0.44126388416E+03  0.10301451199E+04  0.90294656845E+03 0.  0.
        -24    2    4    4    0    0  0.24494407601E+03 -0.11064421944E+03  0.66431753738E+03  0.72113559999E+03  0.80492356286E+02 0.  0.
         24    2    4    4    0    0 -0.34880807297E+02  0.19458509263E+03 -0.22305365323E+03  0.30900951989E+03  0.81571576977E+02 0.  0.
         13    1    3    3    0    0 -0.77180117816E+02 -0.14588288801E+02  0.27877805336E+03  0.28963216636E+03  0.00000000000E+00 0.  1.
        -13    1    3    3    0    0 -0.13288315090E+03 -0.69352584388E+02  0.22412992582E+03  0.26963296609E+03  0.00000000000E+00 0. -1.
          2    1    6    6  502    0  0.11458358039E+02 -0.62101347840E+00 -0.44878358643E+01  0.12321537949E+02  0.00000000000E+00 0. -1.
          3    1    5    5  503    0  0.17267328838E+02  0.11677478844E+02  0.70335499786E+02  0.73359434891E+02  0.00000000000E+00 0. -1.
         -4    1    5    5    0  503  0.22767674718E+03 -0.12232169828E+03  0.59398203760E+03  0.64777616509E+03  0.00000000000E+00 0.  1.
         -1    1    6    6    0  502 -0.46339165336E+02  0.19520610611E+03 -0.21856581736E+03  0.29668798194E+03  0.00000000000E+00 0.  1.
<mgrwt>
<rscale>  0 0.12785791E+04</rscale>
<asrwt>0</asrwt>
<pdfrwt beam="1">  1        2 0.19489093E+00 0.12785791E+04</pdfrwt>
<pdfrwt beam="2">  1       -2 0.49633723E-01 0.12785791E+04</pdfrwt>
<totfact> 0.65176092E+01</totfact>
</mgrwt>
</event>
<event>
12    1  0.1489025E-007  0.1725788E+04  0.7818608E-02  0.8746791E-01
         -1   -1    0    0    0  501 -0.00000000000E+00  0.00000000000E+00  0.57873826126E+03  0.57873826126E+03  0.00000000000E+00 0.  1.
          1   -1    0    0  501    0  0.00000000000E+00 -0.00000000000E+00 -0.12865684585E+04  0.12865684585E+04  0.00000000000E+00 0. -1.
         23    2    1    2    0    0  0.30911920089E+03 -0.15854840203E+03 -0.81202364540E+03  0.88790616266E+03  0.91119025822E+02 0.  0.
        254    2    1    2    0    0 -0.30911920089E+03  0.15854840203E+03  0.10419344812E+03  0.97740055714E+03  0.90761406904E+03 0.  0.
        -24    2    4    4    0    0  0.15853033694E+03 -0.27389755960E+03  0.73679314996E+02  0.33454657980E+03  0.79630595316E+02 0.  0.
         24    2    4    4    0    0 -0.46764953783E+03  0.43244596163E+03  0.30514133124E+02  0.64285397734E+03  0.81391178225E+02 0.  0.
         13    1    3    3    0    0  0.10734454105E+03 -0.10294442565E+03 -0.37249672766E+03  0.40109128311E+03  0.00000000000E+00 0. -1.
        -13    1    3    3    0    0  0.20177465984E+03 -0.55603976375E+02 -0.43952691773E+03  0.48681487956E+03  0.00000000000E+00 0.  1.
          2    1    6    6  502    0 -0.20939202215E+01  0.59831677217E+01  0.91546167828E+01  0.11135071007E+02  0.00000000000E+00 0. -1.
          1    1    5    5  503    0  0.49706369280E+01  0.44498881878E+01 -0.33292817924E+01  0.74560615346E+01  0.00000000000E+00 0. -1.
         -2    1    5    5    0  503  0.15355970001E+03 -0.27834744779E+03  0.77008596789E+02  0.32709051827E+03  0.00000000000E+00 0.  1.
         -1    1    6    6    0  502 -0.46555561761E+03  0.42646279391E+03  0.21359516341E+02  0.63171890633E+03  0.00000000000E+00 0.  1.
<mgrwt>
<rscale>  0 0.17257884E+04</rscale>
<asrwt>0</asrwt>
<pdfrwt beam="1">  1        1 0.19793361E+00 0.17257884E+04</pdfrwt>
<pdfrwt beam="2">  1       -1 0.89036655E-01 0.17257884E+04</pdfrwt>
<totfact> 0.10863489E+01</totfact>
</mgrwt>
</event>
<event>
12    1  0.1489025E-007  0.2115166E+04  0.7818608E-02  0.8554592E-01
          2   -1    0    0  501    0  0.00000000000E+00  0.00000000000E+00  0.23688834201E+04  0.23688834201E+04  0.00000000000E+00 0. -1.
         -2   -1    0    0    0  501 -0.00000000000E+00 -0.00000000000E+00 -0.47215552587E+03  0.47215552587E+03  0.00000000000E+00 0.  1.
         23    2    1    2    0    0 -0.12357745691E+03  0.70785511647E+03  0.14042749123E+03  0.73773074938E+03  0.90534659210E+02 0.  0.
        254    2    1    2    0    0  0.12357745691E+03 -0.70785511647E+03  0.17563004030E+04  0.21033081966E+04  0.90718466176E+03 0.  0.
        -24    2    4    4    0    0  0.15310860535E+02 -0.86234554688E+03  0.16690762095E+04  0.18804776386E+04  0.80662825013E+02 0.  0.
         24    2    4    4    0    0  0.10826659637E+03  0.15449043042E+03  0.87224193465E+02  0.22283055800E+03  0.80352029681E+02 0.  0.
         11    1    3    3    0    0 -0.78791682309E+02  0.60955993024E+03  0.13669952813E+03  0.62964926646E+03  0.00000000000E+00 0.  1.
        -11    1    3    3    0    0 -0.44785774597E+02  0.98295186222E+02  0.37279630985E+01  0.10808148292E+03  0.00000000000E+00 0. -1.
          4    1    6    6  502    0  0.81514106143E+02  0.46985849092E+02  0.35408841136E+02  0.10052863048E+03  0.00000000000E+00 0. -1.
          1    1    5    5  503    0  0.38186945994E+02 -0.57196829671E+03  0.10495365161E+04  0.11958816304E+04  0.00000000000E+00 0. -1.
         -2    1    5    5    0  503 -0.22876085459E+02 -0.29037725017E+03  0.61953969340E+03  0.68459600817E+03  0.00000000000E+00 0.  1.
         -3    1    6    6    0  502  0.26752490228E+02  0.10750458132E+03  0.51815352329E+02  0.12230192752E+03  0.00000000000E+00 0.  1.
<mgrwt>
<rscale>  0 0.21151656E+04</rscale>
<asrwt>0</asrwt>
<pdfrwt beam="1">  1        2 0.36444360E+00 0.21151656E+04</pdfrwt>
<pdfrwt beam="2">  1       -2 0.72639313E-01 0.21151656E+04</pdfrwt>
<totfact> 0.65342304E+00</totfact>
</mgrwt>
</event>
<event>
12    1  0.1489025E-007  0.2693638E+04  0.7818608E-02  0.8337072E-01
          2   -1    0    0  501    0  0.00000000000E+00  0.00000000000E+00  0.30468212638E+04  0.30468212638E+04  0.00000000000E+00 0. -1.
         -2   -1    0    0    0  501 -0.00000000000E+00 -0.00000000000E+00 -0.59534862729E+03  0.59534862729E+03  0.00000000000E+00 0.  1.
         23    2    1    2    0    0  0.24597242379E+02 -0.20931382864E+03 -0.49797658135E+03  0.54937570193E+03  0.97034442879E+02 0.  0.
        254    2    1    2    0    0 -0.24597242379E+02  0.20931382864E+03  0.29494492179E+04  0.30927941892E+04  0.90648105588E+03 0.  0.
        -24    2    4    4    0    0  0.16022974178E+02  0.22539099543E+03  0.29863284499E+04  0.29959846483E+04  0.81905833240E+02 0.  0.
         24    2    4    4    0    0 -0.40620216557E+02 -0.16077166791E+02 -0.36879232041E+02  0.96809540894E+02  0.78125105869E+02 0.  0.
         13    1    3    3    0    0 -0.31065605164E+01 -0.11945573485E+03 -0.16732605517E+03  0.20561452294E+03  0.00000000000E+00 0. -1.
        -13    1    3    3    0    0  0.27703802895E+02 -0.89858093793E+02 -0.33065052618E+03  0.34376117899E+03  0.00000000000E+00 0.  1.
          2    1    6    6  502    0 -0.51629209074E+02 -0.73595568310E+01 -0.53727976499E+02  0.74876122796E+02  0.00000000000E+00 0. -1.
          1    1    5    5  503    0  0.46862633957E+02  0.94886212331E+02  0.14056941377E+04  0.14096721280E+04  0.00000000000E+00 0. -1.
         -2    1    5    5    0  503 -0.30839659778E+02  0.13050478310E+03  0.15806343122E+04  0.15863125203E+04  0.00000000000E+00 0.  1.
         -1    1    6    6    0  502  0.11008992517E+02 -0.87176099600E+01  0.16848744458E+02  0.21933418098E+02  0.00000000000E+00 0.  1.
<mgrwt>
<rscale>  0 0.26936376E+04</rscale>
<asrwt>0</asrwt>
<pdfrwt beam="1">  1        2 0.46874172E+00 0.26936376E+04</pdfrwt>
<pdfrwt beam="2">  1       -2 0.91592098E-01 0.26936376E+04</pdfrwt>
<totfact> 0.14486564E+00</totfact>
</mgrwt>
</event>
<event>
12    1  0.1489025E-007  0.1984724E+04  0.7818608E-02  0.8613796E-01
          2   -1    0    0  501    0  0.00000000000E+00  0.00000000000E+00  0.17342969966E+04  0.17342969966E+04  0.00000000000E+00 0. -1.
         -2   -1    0    0    0  501 -0.00000000000E+00 -0.00000000000E+00 -0.56782813492E+03  0.56782813492E+03  0.00000000000E+00 0.  1.
         23    2    1    2    0    0 -0.10136470332E+03  0.60649944791E+03 -0.10589275336E+03  0.63068274069E+03  0.91820808093E+02 0.  0.
        254    2    1    2    0    0  0.10136470332E+03 -0.60649944791E+03  0.12723616151E+04  0.16714423909E+04  0.89258008215E+03 0.  0.
        -24    2    4    4    0    0  0.21094704077E+03  0.61023915273E+02  0.61301011368E+01  0.23361914633E+03  0.79484307539E+02 0.  0.
         24    2    4    4    0    0 -0.10958233745E+03 -0.66752336319E+03  0.12662315139E+04  0.14378232445E+04  0.79985664629E+02 0.  0.
         13    1    3    3    0    0 -0.71841292613E+02  0.38934317022E+03 -0.11197002492E+03  0.41144448228E+03  0.00000000000E+00 0.  1.
        -13    1    3    3    0    0 -0.29523410708E+02  0.21715627769E+03  0.60772715632E+01  0.21923825841E+03  0.00000000000E+00 0. -1.
          4    1    6    6  502    0 -0.14391682791E+02 -0.11811443840E+03  0.16446263701E+03  0.20299285718E+03  0.00000000000E+00 0. -1.
          1    1    5    5  503    0  0.36714387816E+02  0.44899251365E+02  0.85459179559E+01  0.58625265539E+02  0.00000000000E+00 0. -1.
         -2    1    5    5    0  503  0.17423265296E+03  0.16124663908E+02 -0.24158168190E+01  0.17499388079E+03  0.00000000000E+00 0.  1.
         -3    1    6    6    0  502 -0.95190654661E+02 -0.54940892478E+03  0.11017688769E+04  0.12348303874E+04  0.00000000000E+00 0.  1.
<mgrwt>
<rscale>  0 0.19847243E+04</rscale>
<asrwt>0</asrwt>
<pdfrwt beam="1">  1        2 0.26681492E+00 0.19847243E+04</pdfrwt>
<pdfrwt beam="2">  1       -2 0.87358176E-01 0.19847243E+04</pdfrwt>
<totfact> 0.98808859E+00</totfact>
</mgrwt>
</event>
<event>
12    1  0.1489025E-007  0.3448625E+04  0.7818608E-02  0.8126074E-01
          2   -1    0    0  501    0  0.00000000000E+00  0.00000000000E+00  0.17706096754E+04  0.17706096754E+04  0.00000000000E+00 0. -1.
         -2   -1    0    0    0  501 -0.00000000000E+00 -0.00000000000E+00 -0.16792255197E+04  0.16792255197E+04  0.00000000000E+00 0.  1.
         23    2    1    2    0    0 -0.67327033963E+03  0.99007424076E+03  0.11109376782E+04  0.16357864813E+04  0.89860643583E+02 0.  0.
        254    2    1    2    0    0  0.67327033963E+03 -0.99007424076E+03 -0.10195535224E+04  0.18140487138E+04  0.90429165558E+03 0.  0.
        -24    2    4    4    0    0  0.45948865290E+02  0.12419686454E+03 -0.31793077781E+03  0.35326553864E+03  0.78615532366E+02 0.  0.
         24    2    4    4    0    0  0.62732147434E+03 -0.11142711053E+04 -0.70162274463E+03  0.14607831751E+04  0.80502674912E+02 0.  0.
         11    1    3    3    0    0 -0.65136834332E+03  0.97960851707E+03  0.10883894327E+04  0.16026556469E+04  0.00000000000E+00 0. -1.
        -11    1    3    3    0    0 -0.21901996303E+02  0.10465723695E+02  0.22548245449E+02  0.33130834390E+02  0.00000000000E+00 0.  1.
          2    1    6    6  502    0  0.59415307852E+03 -0.10154044783E+04 -0.63298132609E+03  0.13359376836E+04  0.00000000000E+00 0. -1.
          3    1    5    5  503    0  0.65048321121E+02  0.91982004675E+02 -0.26906902702E+03  0.29170209901E+03  0.00000000000E+00 0. -1.
         -4    1    5    5    0  503 -0.19099455831E+02  0.32214859863E+02 -0.48861750795E+02  0.61563439635E+02  0.00000000000E+00 0.  1.
         -1    1    6    6    0  502  0.33168395814E+02 -0.98866627051E+02 -0.68641418539E+02  0.12484549157E+03  0.00000000000E+00 0.  1.
<mgrwt>
<rscale>  0 0.34486246E+04</rscale>
<asrwt>0</asrwt>
<pdfrwt beam="1">  1        2 0.27240149E+00 0.34486246E+04</pdfrwt>
<pdfrwt beam="2">  1       -2 0.25834239E+00 0.34486246E+04</pdfrwt>
<totfact> 0.42223641E-01</totfact>
</mgrwt>
</event>
<event>
12    1  0.1489025E-007  0.1545274E+04  0.7818608E-02  0.8854892E-01
         -2   -1    0    0    0  501 -0.00000000000E+00  0.00000000000E+00  0.18555537809E+03  0.18555537809E+03  0.00000000000E+00 0.  1.
          2   -1    0    0  501    0  0.00000000000E+00 -0.00000000000E+00 -0.32171938681E+04  0.32171938681E+04  0.00000000000E+00 0. -1.
         23    2    1    2    0    0  0.22997944405E+03 -0.16759803385E+03 -0.19284056255E+04  0.19513801826E+04  0.90314532439E+02 0.  0.
        254    2    1    2    0    0 -0.22997944405E+03  0.16759803385E+03 -0.11032328644E+04  0.14513690636E+04  0.89909385487E+03 0.  0.
        -24    2    4    4    0    0 -0.23341062032E+03 -0.16097820999E+03 -0.10728312116E+04  0.11119142901E+04  0.70654640178E+02 0.  0.
         24    2    4    4    0    0  0.34311762683E+01  0.32857624384E+03 -0.30401652838E+02  0.33945477347E+03  0.79568597740E+02 0.  0.
         11    1    3    3    0    0  0.13775473041E+03 -0.10379879489E+03 -0.86149135620E+03  0.87858859109E+03  0.00000000000E+00 0. -1.
        -11    1    3    3    0    0  0.92224713637E+02 -0.63799238958E+02 -0.10669142693E+04  0.10727915915E+04  0.00000000000E+00 0.  1.
          2    1    6    6  502    0  0.11485702630E+02  0.32601492021E+03 -0.37568440021E+02  0.32837331994E+03  0.00000000000E+00 0. -1.
          1    1    5    5  503    0 -0.16691758801E+03 -0.15077717322E+03 -0.82309926694E+03  0.85328051683E+03  0.00000000000E+00 0. -1.
         -2    1    5    5    0  503 -0.66493032305E+02 -0.10201036768E+02 -0.24973194464E+03  0.25863377326E+03  0.00000000000E+00 0.  1.
         -1    1    6    6    0  502 -0.80545263616E+01  0.25613236301E+01  0.71667871829E+01  0.11081453523E+02  0.00000000000E+00 0.  1.
<mgrwt>
<rscale>  0 0.15452736E+04</rscale>
<asrwt>0</asrwt>
<pdfrwt beam="1">  1        2 0.49495288E+00 0.15452736E+04</pdfrwt>
<pdfrwt beam="2">  1       -2 0.28546983E-01 0.15452736E+04</pdfrwt>
<totfact> 0.13810669E+01</totfact>
</mgrwt>
</event>
<event>
12    1  0.1489025E-007  0.1282282E+04  0.7818608E-02  0.9043735E-01
         -1   -1    0    0    0  501 -0.00000000000E+00  0.00000000000E+00  0.16806906950E+04  0.16806906950E+04  0.00000000000E+00 0. -1.
          1   -1    0    0  501    0  0.00000000000E+00 -0.00000000000E+00 -0.24457893174E+03  0.24457893174E+03  0.00000000000E+00 0.  1.
         23    2    1    2    0    0  0.24892925487E+03 -0.22390448078E+03  0.34902353658E+03  0.49274358143E+03  0.94232783613E+02 0.  0.
        254    2    1    2    0    0 -0.24892925487E+03  0.22390448078E+03  0.10870882266E+04  0.14325260453E+04  0.87078761327E+03 0.  0.
        -24    2    4    4    0    0  0.11500987486E+02 -0.75304979689E+02 -0.11962838365E+03  0.15992269739E+03  0.73899974883E+02 0.  0.
         24    2    4    4    0    0 -0.26043024236E+03  0.29920946047E+03  0.12067166103E+04  0.12726033479E+04  0.77486070349E+02 0.  0.
         11    1    3    3    0    0  0.16103610614E+02  0.53180873867E+01  0.38162002686E+02  0.41760588805E+02  0.00000000000E+00 0.  1.
        -11    1    3    3    0    0  0.23282564426E+03 -0.22922256817E+03  0.31086153389E+03  0.45098299263E+03  0.00000000000E+00 0. -1.
          2    1    6    6  502    0 -0.18983705157E+03  0.21925180683E+03  0.76331334912E+03  0.81655173131E+03  0.00000000000E+00 0. -1.
          3    1    5    5  503    0 -0.29950092678E+02 -0.16595729135E+02 -0.40238637470E+02  0.52835350121E+02  0.00000000000E+00 0. -1.
         -4    1    5    5    0  503  0.41451080164E+02 -0.58709250554E+02 -0.79389746181E+02  0.10708734727E+03  0.00000000000E+00 0.  1.
         -1    1    6    6    0  502 -0.70593190792E+02  0.79957653640E+02  0.44340326117E+03  0.45605161657E+03  0.00000000000E+00 0.  1.
<mgrwt>
<rscale>  0 0.12822816E+04</rscale>
<asrwt>0</asrwt>
<pdfrwt beam="1">  1        1 0.37627529E-01 0.12822816E+04</pdfrwt>
<pdfrwt beam="2">  1       -1 0.25856779E+00 0.12822816E+04</pdfrwt>
<totfact> 0.69164368E+00</totfact>
</mgrwt>
</event>
<event>
12    1  0.1489025E-007  0.2411363E+04  0.7818608E-02  0.8435261E-01
          2   -1    0    0  501    0  0.00000000000E+00  0.00000000000E+00  0.10455231808E+04  0.10455231808E+04  0.00000000000E+00 0. -1.
         -2   -1    0    0    0  501 -0.00000000000E+00 -0.00000000000E+00 -0.13903741735E+04  0.13903741735E+04  0.00000000000E+00 0.  1.
         23    2    1    2    0    0  0.79478506883E+03  0.10794434742E+02 -0.82198242672E+03  0.11471503496E+04  0.92189962728E+02 0.  0.
        254    2    1    2    0    0 -0.79478506883E+03 -0.10794434742E+02  0.47713143398E+03  0.12887470047E+04  0.89521763359E+03 0.  0.
        -24    2    4    4    0    0 -0.78380893939E+03  0.30031245715E+03  0.47509946882E+03  0.96763241994E+03  0.77775121012E+02 0.  0.
         24    2    4    4    0    0 -0.10976129435E+02 -0.31110689189E+03  0.20319651537E+01  0.32111458480E+03  0.78755787664E+02 0.  0.
         11    1    3    3    0    0  0.10685810179E+03  0.31410698583E+02 -0.99892130142E+02  0.14961190984E+03  0.00000000000E+00 0. -1.
        -11    1    3    3    0    0  0.68792696704E+03 -0.20616263842E+02 -0.72209029658E+03  0.99753843972E+03  0.00000000000E+00 0.  1.
          4    1    6    6  502    0 -0.35015935709E+02 -0.21651847955E+03 -0.22501154771E+02  0.22048281046E+03  0.00000000000E+00 0. -1.
          1    1    5    5  503    0 -0.82346856500E+02  0.55860414865E+02  0.68426066342E+02  0.12076223449E+03  0.00000000000E+00 0. -1.
         -2    1    5    5    0  503 -0.70146208289E+03  0.24445204229E+03  0.40667340248E+03  0.84687018545E+03  0.00000000000E+00 0.  1.
         -3    1    6    6    0  502  0.24039806274E+02 -0.94588412341E+02  0.24533119925E+02  0.10063177435E+03  0.00000000000E+00 0.  1.
<mgrwt>
<rscale>  0 0.24113635E+04</rscale>
<asrwt>0</asrwt>
<pdfrwt beam="1">  1        2 0.16084972E+00 0.24113635E+04</pdfrwt>
<pdfrwt beam="2">  1       -2 0.21390372E+00 0.24113635E+04</pdfrwt>
<totfact> 0.22874069E+00</totfact>
</mgrwt>
</event>
<event>
12    1  0.1489025E-007  0.1803339E+04  0.7818608E-02  0.8704526E-01
         -1   -1    0    0    0  501 -0.00000000000E+00  0.00000000000E+00  0.10973023183E+04  0.10973023183E+04  0.00000000000E+00 0.  1.
          1   -1    0    0  501    0  0.00000000000E+00 -0.00000000000E+00 -0.74091504411E+03  0.74091504411E+03  0.00000000000E+00 0. -1.
         23    2    1    2    0    0 -0.52405244296E+03 -0.34142277732E+03 -0.16290556575E+03  0.65287210447E+03  0.92213261507E+02 0.  0.
        254    2    1    2    0    0  0.52405244296E+03  0.34142277732E+03  0.51929283989E+03  0.11853452579E+04  0.86265743550E+03 0.  0.
        -24    2    4    4    0    0  0.68946227571E+03  0.57117502562E+02  0.21168797552E+03  0.72774729157E+03  0.78636395335E+02 0.  0.
         24    2    4    4    0    0 -0.16540983276E+03  0.28430527476E+03  0.30760486436E+03  0.45759796633E+03  0.81149517443E+02 0.  0.
         11    1    3    3    0    0 -0.13690570862E+03 -0.57554161146E+02 -0.91870239188E+01  0.14879534914E+03  0.00000000000E+00 0.  1.
        -11    1    3    3    0    0 -0.38714673434E+03 -0.28386861617E+03 -0.15371854183E+03  0.50407675532E+03  0.00000000000E+00 0. -1.
          4    1    6    6  502    0 -0.63834300592E+02  0.43063327019E+02  0.72438313708E+02  0.10571933295E+03  0.00000000000E+00 0. -1.
          1    1    5    5  503    0  0.74852244699E+02  0.26878395358E+02  0.39249142956E+02  0.88689356161E+02  0.00000000000E+00 0. -1.
         -2    1    5    5    0  503  0.61461003102E+03  0.30239107203E+02  0.17243883257E+03  0.63905793541E+03  0.00000000000E+00 0.  1.
         -1    1    6    6    0  502 -0.10157553216E+03  0.24124194774E+03  0.23516655065E+03  0.35187863338E+03  0.00000000000E+00 0.  1.
<mgrwt>
<rscale>  0 0.18033389E+04</rscale>
<asrwt>0</asrwt>
<pdfrwt beam="1">  1        1 0.11398693E+00 0.18033389E+04</pdfrwt>
<pdfrwt beam="2">  1       -1 0.16881574E+00 0.18033389E+04</pdfrwt>
<totfact> 0.59118490E+00</totfact>
</mgrwt>
</event>
<event>
12    1  0.1489025E-007  0.1974871E+04  0.7818608E-02  0.8618460E-01
         -1   -1    0    0    0  501 -0.00000000000E+00  0.00000000000E+00  0.56784302233E+03  0.56784302233E+03  0.00000000000E+00 0.  1.
          1   -1    0    0  501    0  0.00000000000E+00 -0.00000000000E+00 -0.17170741388E+04  0.17170741388E+04  0.00000000000E+00 0. -1.
         23    2    1    2    0    0 -0.33968242552E+03 -0.65513312050E+03 -0.20272598837E+03  0.77084525006E+03  0.92309357065E+02 0.  0.
        254    2    1    2    0    0  0.33968242552E+03  0.65513312050E+03 -0.94650512806E+03  0.15140719110E+04  0.92301583873E+03 0.  0.
        -24    2    4    4    0    0 -0.66726071764E+02 -0.33347528878E+02  0.13065607870E+03  0.17003202128E+03  0.79217744383E+02 0.  0.
         24    2    4    4    0    0  0.40640849728E+03  0.68848064938E+03 -0.10771612068E+04  0.13440398897E+04  0.83627080947E+02 0.  0.
         11    1    3    3    0    0 -0.22711128761E+03 -0.35390920498E+03 -0.14006172742E+03  0.44322516830E+03  0.00000000000E+00 0. -1.
        -11    1    3    3    0    0 -0.11257113791E+03 -0.30122391552E+03 -0.62664260947E+02  0.32762008176E+03  0.00000000000E+00 0.  1.
          4    1    6    6  502    0  0.11825176742E+03  0.23137100273E+03 -0.29152647063E+03  0.39051722687E+03  0.00000000000E+00 0. -1.
          1    1    5    5  503    0 -0.27716009945E+02 -0.36998608668E+02  0.16085313325E+02  0.48947028055E+02  0.00000000000E+00 0. -1.
         -2    1    5    5    0  503 -0.39010061819E+02  0.36510797900E+01  0.11457076537E+03  0.12108499322E+03  0.00000000000E+00 0.  1.
         -3    1    6    6    0  502  0.28815672986E+03  0.45710964665E+03 -0.78563473612E+03  0.95352266288E+03  0.00000000000E+00 0.  1.
<mgrwt>
<rscale>  0 0.19748707E+04</rscale>
<asrwt>0</asrwt>
<pdfrwt beam="1">  1        1 0.26416525E+00 0.19748707E+04</pdfrwt>
<pdfrwt beam="2">  1       -1 0.87360464E-01 0.19748707E+04</pdfrwt>
<totfact> 0.55624372E+00</totfact>
</mgrwt>
</event>
<event>
12    1  0.1489025E-007  0.1178934E+04  0.7818608E-02  0.9131498E-01
         -2   -1    0    0    0  501 -0.00000000000E+00  0.00000000000E+00  0.21617745196E+03  0.21617745196E+03  0.00000000000E+00 0.  1.
          2   -1    0    0  501    0  0.00000000000E+00 -0.00000000000E+00 -0.16073428458E+04  0.16073428458E+04  0.00000000000E+00 0. -1.
         23    2    1    2    0    0  0.20238731612E+03  0.75353875341E+02 -0.46242926628E+03  0.51866425008E+03  0.92373945155E+02 0.  0.
        254    2    1    2    0    0 -0.20238731612E+03 -0.75353875341E+02 -0.92873612755E+03  0.13048560477E+04  0.89076353667E+03 0.  0.
        -24    2    4    4    0    0  0.89688221089E+02  0.35956744188E+03 -0.46205496722E+03  0.59851341910E+03  0.85969749611E+02 0.  0.
         24    2    4    4    0    0 -0.29207553721E+03 -0.43492131722E+03 -0.46668116033E+03  0.70634262857E+03  0.81632909535E+02 0.  0.
         13    1    3    3    0    0  0.60705108046E+02  0.55333169756E+02 -0.10260677453E+03  0.13143447036E+03  0.00000000000E+00 0.  1.
        -13    1    3    3    0    0  0.14168220808E+03  0.20020705585E+02 -0.35982249175E+03  0.38722977972E+03  0.00000000000E+00 0. -1.
          4    1    6    6  502    0 -0.17079025056E+03 -0.31635953595E+03 -0.29561322479E+03  0.46544585544E+03  0.00000000000E+00 0. -1.
          1    1    5    5  503    0  0.10028102980E+03  0.30874623741E+03 -0.36519275829E+03  0.48861669513E+03  0.00000000000E+00 0. -1.
         -2    1    5    5    0  503 -0.10592808714E+02  0.50821204466E+02 -0.96862208930E+02  0.10989672397E+03  0.00000000000E+00 0.  1.
         -3    1    6    6    0  502 -0.12128528665E+03 -0.11856178127E+03 -0.17106793555E+03  0.24089677314E+03  0.00000000000E+00 0.  1.
<mgrwt>
<rscale>  0 0.11789339E+04</rscale>
<asrwt>0</asrwt>
<pdfrwt beam="1">  1        2 0.24728351E+00 0.11789339E+04</pdfrwt>
<pdfrwt beam="2">  1       -2 0.33258071E-01 0.11789339E+04</pdfrwt>
<totfact> 0.92133045E+01</totfact>
</mgrwt>
</event>
<event>
12    1  0.1489025E-007  0.1486152E+04  0.7818608E-02  0.8893714E-01
          2   -1    0    0  501    0  0.00000000000E+00  0.00000000000E+00  0.22478017081E+04  0.22478017081E+04  0.00000000000E+00 0. -1.
         -2   -1    0    0    0  501 -0.00000000000E+00 -0.00000000000E+00 -0.24564542473E+03  0.24564542473E+03  0.00000000000E+00 0.  1.
         23    2    1    2    0    0  0.20011128705E+03 -0.37435352149E+03  0.50747891357E+03  0.66749384533E+03  0.88476548211E+02 0.  0.
        254    2    1    2    0    0 -0.20011128705E+03  0.37435352149E+03  0.14946773698E+04  0.18259532875E+04  0.95909326038E+03 0.  0.
        -24    2    4    4    0    0  0.10858860286E+02 -0.25932645258E+03  0.85694476141E+03  0.89899064412E+03  0.80384888212E+02 0.  0.
         24    2    4    4    0    0 -0.21097014734E+03  0.63367997407E+03  0.63773260840E+03  0.92696264340E+03  0.80611102374E+02 0.  0.
         13    1    3    3    0    0  0.57891133462E+02 -0.12914270668E+03  0.23486033129E+03  0.27420539243E+03  0.00000000000E+00 0. -1.
        -13    1    3    3    0    0  0.14222015359E+03 -0.24521081481E+03  0.27261858228E+03  0.39328845291E+03  0.00000000000E+00 0.  1.
          4    1    6    6  502    0 -0.15876658179E+03  0.53321538033E+03  0.56165744970E+03  0.79055964994E+03  0.00000000000E+00 0. -1.
          3    1    5    5  503    0  0.32484408223E+01 -0.26115363272E+03  0.80107103996E+03  0.84257141141E+03  0.00000000000E+00 0. -1.
         -4    1    5    5    0  503  0.76104194635E+01  0.18271801425E+01  0.55873721443E+02  0.56419232710E+02  0.00000000000E+00 0.  1.
         -3    1    6    6    0  502 -0.52203565550E+02  0.10046459374E+03  0.76075158704E+02  0.13640299346E+03  0.00000000000E+00 0.  1.
<mgrwt>
<rscale>  0 0.14861524E+04</rscale>
<asrwt>0</asrwt>
<pdfrwt beam="1">  1        2 0.34581563E+00 0.14861524E+04</pdfrwt>
<pdfrwt beam="2">  1       -2 0.37791605E-01 0.14861524E+04</pdfrwt>
<totfact> 0.31054949E+01</totfact>
</mgrwt>
</event>
<event>
12    1  0.1825125E-007  0.1462277E+04  0.7818608E-02  0.8909933E-01
          2   -1    0    0  501    0  0.00000000000E+00  0.00000000000E+00  0.20109952093E+04  0.20109952093E+04  0.00000000000E+00 0. -1.
         -2   -1    0    0    0  501 -0.00000000000E+00 -0.00000000000E+00 -0.26582050631E+03  0.26582050631E+03  0.00000000000E+00 0.  1.
         23    2    1    2    0    0  0.29013587166E+03 -0.17671087856E+03  0.99512207101E+03  0.10558873648E+04  0.96044949029E+02 0.  0.
        254    2    1    2    0    0 -0.29013587166E+03  0.17671087856E+03  0.75005263200E+03  0.12209283509E+04  0.90148850716E+03 0.  0.
        -24    2    4    4    0    0 -0.52170475640E+02  0.34643928128E+03  0.83248308487E+03  0.90696701747E+03  0.82578145092E+02 0.  0.
         24    2    4    4    0    0 -0.23796539602E+03 -0.16972840272E+03 -0.82430452866E+02  0.31396133339E+03  0.79634658988E+02 0.  0.
         13    1    3    3    0    0  0.24870575769E+03 -0.14419066897E+03  0.92194658445E+03  0.96572822653E+03  0.00000000000E+00 0. -1.
        -13    1    3    3    0    0  0.41430113964E+02 -0.32520209589E+02  0.73175486560E+02  0.90159138240E+02  0.00000000000E+00 0.  1.
          2    1    6    6  502    0 -0.23278080878E+03 -0.14614774554E+03 -0.89057609028E+02  0.28892442989E+03  0.00000000000E+00 0. -1.
          1    1    5    5  503    0 -0.16846201952E+02  0.28827065194E+03  0.71638255946E+03  0.77239092097E+03  0.00000000000E+00 0. -1.
         -2    1    5    5    0  503 -0.35324273689E+02  0.58168629342E+02  0.11610052541E+03  0.13457609651E+03  0.00000000000E+00 0.  1.
         -1    1    6    6    0  502 -0.51845872388E+01 -0.23580657185E+02  0.66271561615E+01  0.25036903501E+02  0.00000000000E+00 0.  1.
<mgrwt>
<rscale>  0 0.14622774E+04</rscale>
<asrwt>0</asrwt>
<pdfrwt beam="1">  1        2 0.30938387E+00 0.14622774E+04</pdfrwt>
<pdfrwt beam="2">  1       -2 0.40895464E-01 0.14622774E+04</pdfrwt>
<totfact> 0.36161131E+01</totfact>
</mgrwt>
</event>
<event>
12    1  0.1489025E-007  0.3964869E+04  0.7818608E-02  0.8011671E-01
         -1   -1    0    0    0  501 -0.00000000000E+00  0.00000000000E+00  0.16005121394E+04  0.16005121394E+04  0.00000000000E+00 0.  1.
          1   -1    0    0  501    0  0.00000000000E+00 -0.00000000000E+00 -0.24554930312E+04  0.24554930312E+04  0.00000000000E+00 0. -1.
         23    2    1    2    0    0  0.11726582850E+04 -0.11822853201E+04 -0.13297402126E+04  0.21330022137E+04  0.92538528606E+02 0.  0.
        254    2    1    2    0    0 -0.11726582850E+04  0.11822853201E+04  0.47475932073E+03  0.19230029568E+04  0.83643166355E+03 0.  0.
        -24    2    4    4    0    0 -0.28192439237E+03  0.24759963079E+03  0.49854925906E+03  0.62947870352E+03  0.83097137751E+02 0.  0.
         24    2    4    4    0    0 -0.89073389266E+03  0.93468568931E+03 -0.23789938332E+02  0.12935242533E+04  0.74798578773E+02 0.  0.
         11    1    3    3    0    0  0.22666826857E+01 -0.50987520823E+01  0.72618379417E+00  0.56269410959E+01  0.00000000000E+00 0.  1.
        -11    1    3    3    0    0  0.11703916023E+04 -0.11771865680E+04 -0.13304663964E+04  0.21273752726E+04  0.00000000000E+00 0. -1.
          4    1    6    6  502    0 -0.33535556579E+03  0.39687452707E+03  0.99910699132E+01  0.51968506542E+03  0.00000000000E+00 0. -1.
          3    1    5    5  503    0  0.52563711689E+01  0.85865311712E+00  0.10607719216E+02  0.11869727462E+02  0.00000000000E+00 0. -1.
         -4    1    5    5    0  503 -0.28718076354E+03  0.24674097767E+03  0.48794153984E+03  0.61760897606E+03  0.00000000000E+00 0.  1.
         -3    1    6    6    0  502 -0.55537832687E+03  0.53781116225E+03 -0.33781008245E+02  0.77383918789E+03  0.00000000000E+00 0.  1.
<mgrwt>
<rscale>  0 0.39648689E+04</rscale>
<asrwt>0</asrwt>
<pdfrwt beam="1">  1        1 0.37776816E+00 0.39648689E+04</pdfrwt>
<pdfrwt beam="2">  1       -1 0.24623264E+00 0.39648689E+04</pdfrwt>
<totfact> 0.84242847E-02</totfact>
</mgrwt>
</event>
<event>
12    1  0.1489025E-007  0.1699330E+04  0.7818608E-02  0.8761747E-01
         -2   -1    0    0    0  501 -0.00000000000E+00  0.00000000000E+00  0.19799165763E+04  0.19799165763E+04  0.00000000000E+00 0.  1.
          2   -1    0    0  501    0  0.00000000000E+00 -0.00000000000E+00 -0.36462661646E+03  0.36462661646E+03  0.00000000000E+00 0. -1.
         23    2    1    2    0    0  0.26006334264E+03  0.48461782695E+02 -0.17056827696E+03  0.32549642292E+03  0.82902941209E+02 0.  0.
        254    2    1    2    0    0 -0.26006334264E+03 -0.48461782695E+02  0.17858582368E+04  0.20190467698E+04  0.90403469527E+03 0.  0.
        -24    2    4    4    0    0 -0.12366202740E+03 -0.89580642589E+00 -0.65145213064E+02  0.16063283560E+03  0.79157498674E+02 0.  0.
         24    2    4    4    0    0 -0.13640131524E+03 -0.47565976269E+02  0.18510034498E+04  0.18584139342E+04  0.81367921643E+02 0.  0.
         13    1    3    3    0    0  0.23095559487E+02 -0.18197001133E+02 -0.79186713695E+01  0.30450633401E+02  0.00000000000E+00 0.  1.
        -13    1    3    3    0    0  0.23696778316E+03  0.66658783828E+02 -0.16264960559E+03  0.29504578952E+03  0.00000000000E+00 0. -1.
          4    1    6    6  502    0 -0.11002876431E+03 -0.95598210156E+01  0.98428902542E+03  0.99046585238E+03  0.00000000000E+00 0. -1.
          3    1    5    5  503    0 -0.66383978951E+02 -0.36609162060E+02 -0.16917142958E+02  0.77674018397E+02  0.00000000000E+00 0. -1.
         -4    1    5    5    0  503 -0.57278048453E+02  0.35713355634E+02 -0.48228070106E+02  0.82958817201E+02  0.00000000000E+00 0.  1.
         -3    1    6    6    0  502 -0.26372550933E+02 -0.38006155253E+02  0.86671442440E+03  0.86794808182E+03  0.00000000000E+00 0.  1.
<mgrwt>
<rscale>  0 0.16993296E+04</rscale>
<asrwt>0</asrwt>
<pdfrwt beam="1">  1        2 0.56096403E-01 0.16993296E+04</pdfrwt>
<pdfrwt beam="2">  1       -2 0.30460255E+00 0.16993296E+04</pdfrwt>
<totfact> 0.25077393E+00</totfact>
</mgrwt>
</event>
<event>
12    1  0.1489025E-007  0.2384178E+04  0.7818608E-02  0.8445451E-01
          2   -1    0    0  501    0  0.00000000000E+00  0.00000000000E+00  0.35413181044E+04  0.35413181044E+04  0.00000000000E+00 0. -1.
         -2   -1    0    0    0  501 -0.00000000000E+00 -0.00000000000E+00 -0.40128444667E+03  0.40128444667E+03  0.00000000000E+00 0.  1.
         23    2    1    2    0    0  0.45521337376E+03  0.87911766422E+03  0.98091793153E+03  0.13962423617E+04  0.85003887906E+02 0.  0.
        254    2    1    2    0    0 -0.45521337376E+03 -0.87911766422E+03  0.21591157262E+04  0.25463601894E+04  0.91766138185E+03 0.  0.
        -24    2    4    4    0    0 -0.55886917395E+03 -0.32062145646E+03  0.16722535481E+04  0.17940629212E+04  0.84243483171E+02 0.  0.
         24    2    4    4    0    0  0.10365580019E+03 -0.55849620775E+03  0.48686217813E+03  0.75229726812E+03  0.79081351446E+02 0.  0.
         13    1    3    3    0    0  0.45292258755E+03  0.84655279522E+03  0.93729925093E+03  0.13417601839E+04  0.00000000000E+00 0.  1.
        -13    1    3    3    0    0  0.22907862157E+01  0.32564869003E+02  0.43618680596E+02  0.54482177743E+02  0.00000000000E+00 0. -1.
          4    1    6    6  502    0  0.11532782714E+03 -0.52933749936E+03  0.46590600572E+03  0.71453978343E+03  0.00000000000E+00 0. -1.
          1    1    5    5  503    0 -0.53862972749E+03 -0.28742910331E+03  0.15564110572E+04  0.16718710631E+04  0.00000000000E+00 0. -1.
         -2    1    5    5    0  503 -0.20239446461E+02 -0.33192353152E+02  0.11584249084E+03  0.12219185810E+03  0.00000000000E+00 0.  1.
         -3    1    6    6    0  502 -0.11672026948E+02 -0.29158708392E+02  0.20956172411E+02  0.37757484693E+02  0.00000000000E+00 0.  1.
<mgrwt>
<rscale>  0 0.23841777E+04</rscale>
<asrwt>0</asrwt>
<pdfrwt beam="1">  1        2 0.54481815E+00 0.23841777E+04</pdfrwt>
<pdfrwt beam="2">  1       -2 0.61736071E-01 0.23841777E+04</pdfrwt>
<totfact> 0.16725288E+00</totfact>
</mgrwt>
</event>
<event>
12    1  0.1489025E-007  0.2963611E+04  0.7818608E-02  0.8254199E-01
          2   -1    0    0  501    0  0.00000000000E+00  0.00000000000E+00  0.14636686240E+04  0.14636686240E+04  0.00000000000E+00 0. -1.
         -2   -1    0    0    0  501 -0.00000000000E+00 -0.00000000000E+00 -0.15001675689E+04  0.15001675689E+04  0.00000000000E+00 0.  1.
         23    2    1    2    0    0  0.93281689449E+03 -0.77694302365E+03 -0.59040840093E+03  0.13538381874E+04  0.10250822980E+03 0.  0.
        254    2    1    2    0    0 -0.93281689449E+03  0.77694302365E+03  0.55390945608E+03  0.16099980055E+04  0.90082743721E+03 0.  0.
        -24    2    4    4    0    0 -0.28452102119E+03 -0.18432965068E+03  0.97326317553E+02  0.36141579809E+03  0.78862763102E+02 0.  0.
         24    2    4    4    0    0 -0.64829587330E+03  0.96127267433E+03  0.45658313853E+03  0.12485822074E+04  0.78464467071E+02 0.  0.
         13    1    3    3    0    0  0.65976233803E+02 -0.43374585909E+02 -0.13440729488E+02  0.80092891937E+02  0.00000000000E+00 0. -1.
        -13    1    3    3    0    0  0.86684066069E+03 -0.73356843774E+03 -0.57696767144E+03  0.12737452955E+04  0.00000000000E+00 0.  1.
          2    1    6    6  502    0 -0.53920087281E+03  0.75627171967E+03  0.34351456963E+03  0.99029629645E+03  0.00000000000E+00 0. -1.
          3    1    5    5  503    0 -0.62047049688E+02 -0.14844594409E+02 -0.40618760018E+01  0.63927280521E+02  0.00000000000E+00 0. -1.
         -4    1    5    5    0  503 -0.22247397150E+03 -0.16948505627E+03  0.10138819355E+03  0.29748851757E+03  0.00000000000E+00 0.  1.
         -1    1    6    6    0  502 -0.10909500049E+03  0.20500095466E+03  0.11306856890E+03  0.25828591099E+03  0.00000000000E+00 0.  1.
<mgrwt>
<rscale>  0 0.29636114E+04</rscale>
<asrwt>0</asrwt>
<pdfrwt beam="1">  1        2 0.22517979E+00 0.29636114E+04</pdfrwt>
<pdfrwt beam="2">  1       -2 0.23079501E+00 0.29636114E+04</pdfrwt>
<totfact> 0.96595681E-01</totfact>
</mgrwt>
</event>
<event>
12    1  0.1489025E-007  0.2254139E+04  0.7818608E-02  0.8496226E-01
         -2   -1    0    0    0  501 -0.00000000000E+00  0.00000000000E+00  0.84692661592E+03  0.84692661592E+03  0.00000000000E+00 0. -1.
          2   -1    0    0  501    0  0.00000000000E+00 -0.00000000000E+00 -0.14998765478E+04  0.14998765478E+04  0.00000000000E+00 0.  1.
         23    2    1    2    0    0 -0.55764677473E+03  0.76916084844E+03 -0.20796673865E+03  0.97690788966E+03  0.92306686400E+02 0.  0.
        254    2    1    2    0    0  0.55764677473E+03 -0.76916084844E+03 -0.44498319325E+03  0.13698952741E+04  0.88092263197E+03 0.  0.
        -24    2    4    4    0    0  0.78310442750E+03 -0.61161531895E+03 -0.26397161274E+03  0.10309200128E+04  0.76086908218E+02 0.  0.
         24    2    4    4    0    0 -0.22545765277E+03 -0.15754552949E+03 -0.18101158051E+03  0.33897526133E+03  0.80543705265E+02 0.  0.
         13    1    3    3    0    0 -0.94606569944E+01  0.45774548567E+02 -0.13839963192E+02  0.48747901580E+02  0.00000000000E+00 0.  1.
        -13    1    3    3    0    0 -0.54818611774E+03  0.72338629987E+03 -0.19412677545E+03  0.92815998808E+03  0.00000000000E+00 0. -1.
          2    1    6    6  502    0 -0.23131308651E+03 -0.15619901840E+03 -0.17109208081E+03  0.32737803447E+03  0.00000000000E+00 0. -1.
          3    1    5    5  503    0  0.57147708597E+03 -0.40555917161E+03 -0.19930190250E+03  0.72855030698E+03  0.00000000000E+00 0. -1.
         -4    1    5    5    0  503  0.21162734153E+03 -0.20605614735E+03 -0.64669710243E+02  0.30236970577E+03  0.00000000000E+00 0.  1.
         -3    1    6    6    0  502  0.58554337375E+01 -0.13465110839E+01 -0.99194997004E+01  0.11597226852E+02  0.00000000000E+00 0.  1.
<mgrwt>
<rscale>  0 0.22541387E+04</rscale>
<asrwt>0</asrwt>
<pdfrwt beam="1">  1        2 0.23075024E+00 0.22541387E+04</pdfrwt>
<pdfrwt beam="2">  1       -2 0.13029640E+00 0.22541387E+04</pdfrwt>
<totfact> 0.49896225E+00</totfact>
</mgrwt>
</event>
<event>
12    1  0.1489025E-007  0.1961482E+04  0.7818608E-02  0.8624844E-01
          2   -1    0    0  501    0  0.00000000000E+00  0.00000000000E+00  0.11063485867E+04  0.11063485867E+04  0.00000000000E+00 0. -1.
         -2   -1    0    0    0  501 -0.00000000000E+00 -0.00000000000E+00 -0.86939437889E+03  0.86939437889E+03  0.00000000000E+00 0.  1.
         23    2    1    2    0    0 -0.41224860003E+03 -0.57790386419E+03 -0.21059083067E+03  0.74611006270E+03  0.91705742565E+02 0.  0.
        254    2    1    2    0    0  0.41224860003E+03  0.57790386419E+03  0.44754503852E+03  0.12296329029E+04  0.89876511391E+03 0.  0.
        -24    2    4    4    0    0  0.60586194025E+03  0.43067287478E+03  0.42162689584E+02  0.74877990309E+03  0.79660750382E+02 0.  0.
         24    2    4    4    0    0 -0.19361334022E+03  0.14723098941E+03  0.40538234893E+03  0.48085299984E+03  0.87873026983E+02 0.  0.
         11    1    3    3    0    0 -0.21472338429E+03 -0.25515112732E+03 -0.59930273029E+02  0.33882129089E+03  0.00000000000E+00 0.  1.
        -11    1    3    3    0    0 -0.19752521574E+03 -0.32275273687E+03 -0.15066055765E+03  0.40728877181E+03  0.00000000000E+00 0. -1.
          4    1    6    6  502    0 -0.50997584352E+02  0.73888701542E+02  0.90461592510E+02  0.12745035718E+03  0.00000000000E+00 0. -1.
          1    1    5    5  503    0  0.33669519495E+03  0.27932198243E+03  0.28284012530E+01  0.43748419860E+03  0.00000000000E+00 0. -1.
         -2    1    5    5    0  503  0.26916674530E+03  0.15135089235E+03  0.39334288331E+02  0.31129570449E+03  0.00000000000E+00 0.  1.
         -3    1    6    6    0  502 -0.14261575587E+03  0.73342287865E+02  0.31492075642E+03  0.35340264266E+03  0.00000000000E+00 0.  1.
<mgrwt>
<rscale>  0 0.19614823E+04</rscale>
<asrwt>0</asrwt>
<pdfrwt beam="1">  1        2 0.17020747E+00 0.19614823E+04</pdfrwt>
<pdfrwt beam="2">  1       -2 0.13375298E+00 0.19614823E+04</pdfrwt>
<totfact> 0.81291525E+00</totfact>
</mgrwt>
</event>
<event>
12    1  0.1489025E-007  0.2032005E+04  0.7818608E-02  0.8591802E-01
         -2   -1    0    0    0  501 -0.00000000000E+00  0.00000000000E+00  0.27634052241E+03  0.27634052241E+03  0.00000000000E+00 0. -1.
          2   -1    0    0  501    0  0.00000000000E+00 -0.00000000000E+00 -0.37354672983E+04  0.37354672983E+04  0.00000000000E+00 0.  1.
         23    2    1    2    0    0  0.79395535678E+03  0.18509891167E+02 -0.10739599734E+04  0.13388559012E+04  0.91855185415E+02 0.  0.
        254    2    1    2    0    0 -0.79395535678E+03 -0.18509891167E+02 -0.23851668025E+04  0.26729519195E+04  0.90826403849E+03 0.  0.
        -24    2    4    4    0    0 -0.60150977980E+03 -0.41041808446E+03 -0.17563808589E+04  0.19031176051E+04  0.82011451573E+02 0.  0.
         24    2    4    4    0    0 -0.19244557698E+03  0.39190819329E+03 -0.62878594362E+03  0.76983431440E+03  0.81521633089E+02 0.  0.
         11    1    3    3    0    0  0.61589324673E+02  0.23708654908E+02 -0.70721819419E+02  0.96731178909E+02  0.00000000000E+00 0.  1.
        -11    1    3    3    0    0  0.73236603210E+03 -0.51987637404E+01 -0.10032381540E+04  0.12421247223E+04  0.00000000000E+00 0. -1.
          4    1    6    6  502    0 -0.14950074824E+03  0.36182913947E+03 -0.54636144861E+03  0.67214703184E+03  0.00000000000E+00 0. -1.
          3    1    5    5  503    0 -0.60133879645E+03 -0.41301950127E+03 -0.17536745001E+04  0.18993598155E+04  0.00000000000E+00 0. -1.
         -4    1    5    5    0  503 -0.17098334924E+00  0.26014168102E+01 -0.27063588100E+01  0.37577896075E+01  0.00000000000E+00 0.  1.
         -3    1    6    6    0  502 -0.42944828741E+02  0.30079053822E+02 -0.82424495016E+02  0.97687282555E+02  0.00000000000E+00 0.  1.
<mgrwt>
<rscale>  0 0.20320049E+04</rscale>
<asrwt>0</asrwt>
<pdfrwt beam="1">  1        2 0.57468725E+00 0.20320049E+04</pdfrwt>
<pdfrwt beam="2">  1       -2 0.42513928E-01 0.20320049E+04</pdfrwt>
<totfact> 0.26892869E+00</totfact>
</mgrwt>
</event>
<event>
12    1  0.1552397E-007  0.2000550E+04  0.7818608E-02  0.8606364E-01
          1   -1    0    0  501    0  0.00000000000E+00  0.00000000000E+00  0.19800708087E+04  0.19800708087E+04  0.00000000000E+00 0. -1.
         -1   -1    0    0    0  501 -0.00000000000E+00 -0.00000000000E+00 -0.50531013330E+03  0.50531013330E+03  0.00000000000E+00 0.  1.
         23    2    1    2    0    0  0.41339256135E+03  0.18599611277E+03 -0.22408790484E+03  0.51383786161E+03  0.91246891344E+02 0.  0.
        254    2    1    2    0    0 -0.41339256135E+03 -0.18599611277E+03  0.16988485802E+04  0.19715430804E+04  0.89185629756E+03 0.  0.
        -24    2    4    4    0    0 -0.38136664498E+03  0.17011208234E+03  0.28614361408E+03  0.51215069562E+03  0.77727271145E+02 0.  0.
         24    2    4    4    0    0 -0.32025916366E+02 -0.35610819511E+03  0.14127049661E+04  0.14593923847E+04  0.79070255881E+02 0.  0.
         11    1    3    3    0    0  0.17833360618E+02 -0.73067368720E+00 -0.30843926218E+02  0.35635802495E+02  0.00000000000E+00 0. -1.
        -11    1    3    3    0    0  0.39555920073E+03  0.18672678646E+03 -0.19324397863E+03  0.47820205911E+03  0.00000000000E+00 0.  1.
          4    1    6    6  502    0 -0.31780540499E+02 -0.31875632745E+03  0.11403805353E+04  0.11845181993E+04  0.00000000000E+00 0. -1.
          3    1    5    5  503    0 -0.22063124536E+03  0.13978983816E+03  0.17576298792E+03  0.31482054127E+03  0.00000000000E+00 0. -1.
         -4    1    5    5    0  503 -0.16073539963E+03  0.30322244181E+02  0.11038062615E+03  0.19733015435E+03  0.00000000000E+00 0.  1.
         -3    1    6    6    0  502 -0.24537586683E+00 -0.37351867662E+02  0.27232443080E+03  0.27487418547E+03  0.00000000000E+00 0.  1.
<mgrwt>
<rscale>  0 0.20005498E+04</rscale>
<asrwt>0</asrwt>
<pdfrwt beam="1">  1        1 0.30462627E+00 0.20005498E+04</pdfrwt>
<pdfrwt beam="2">  1       -1 0.77740022E-01 0.20005498E+04</pdfrwt>
<totfact> 0.47272495E+00</totfact>
</mgrwt>
</event>
<event>
12    1  0.1489025E-007  0.1566522E+04  0.7818608E-02  0.8841383E-01
         -2   -1    0    0    0  501 -0.00000000000E+00  0.00000000000E+00  0.10009258855E+04  0.10009258855E+04  0.00000000000E+00 0.  1.
          2   -1    0    0  501    0  0.00000000000E+00 -0.00000000000E+00 -0.61293034277E+03  0.61293034277E+03  0.00000000000E+00 0. -1.
         23    2    1    2    0    0  0.49128104512E+03 -0.14868896364E+03  0.12990001562E+03  0.54385898978E+03  0.12427032428E+03 0.  0.
        254    2    1    2    0    0 -0.49128104512E+03  0.14868896364E+03  0.25809552713E+03  0.10699972385E+04  0.90267121152E+03 0.  0.
        -24    2    4    4    0    0 -0.20400969974E+03 -0.27691907035E+03 -0.17441421428E+03  0.39403926454E+03  0.80885689396E+02 0.  0.
         24    2    4    4    0    0 -0.28727134538E+03  0.42560803399E+03  0.43250974142E+03  0.67595797397E+03  0.78660547170E+02 0.  0.
         13    1    3    3    0    0  0.69044685936E+02 -0.65831355386E+02  0.44099919924E+02  0.10509871048E+03  0.00000000000E+00 0.  1.
        -13    1    3    3    0    0  0.42223635918E+03 -0.82857608259E+02  0.85800095693E+02  0.43876027929E+03  0.00000000000E+00 0. -1.
          2    1    6    6  502    0 -0.18518215510E+03  0.30019977109E+03  0.33870184438E+03  0.48901050348E+03  0.00000000000E+00 0. -1.
          1    1    5    5  503    0 -0.10681203781E+03 -0.81019310649E+02 -0.77367800948E+02  0.15478603536E+03  0.00000000000E+00 0. -1.
         -2    1    5    5    0  503 -0.97197661935E+02 -0.19589975970E+03 -0.97046413335E+02  0.23925322919E+03  0.00000000000E+00 0.  1.
         -1    1    6    6    0  502 -0.10208919028E+03  0.12540826290E+03  0.93807897040E+02  0.18694747049E+03  0.00000000000E+00 0.  1.
<mgrwt>
<rscale>  0 0.15665221E+04</rscale>
<asrwt>0</asrwt>
<pdfrwt beam="1">  1        2 0.94296976E-01 0.15665221E+04</pdfrwt>
<pdfrwt beam="2">  1       -2 0.15398860E+00 0.15665221E+04</pdfrwt>
<totfact> 0.12970488E+01</totfact>
</mgrwt>
</event>
<event>
12    1  0.1489025E-007  0.1434937E+04  0.7818608E-02  0.8928910E-01
         -2   -1    0    0    0  501 -0.00000000000E+00  0.00000000000E+00  0.19729377630E+03  0.19729377630E+03  0.00000000000E+00 0.  1.
          2   -1    0    0  501    0  0.00000000000E+00 -0.00000000000E+00 -0.26091098340E+04  0.26091098340E+04  0.00000000000E+00 0. -1.
         23    2    1    2    0    0  0.30211077753E+03  0.25085126572E+03 -0.38690158730E+03  0.55878520999E+03  0.91382674729E+02 0.  0.
        254    2    1    2    0    0 -0.30211077753E+03 -0.25085126572E+03 -0.20249144704E+04  0.22476184003E+04  0.89292361462E+03 0.  0.
        -24    2    4    4    0    0 -0.21381689465E+03 -0.28906042150E+03 -0.20793839862E+04  0.21117638765E+04  0.80220423444E+02 0.  0.
         24    2    4    4    0    0 -0.88293882874E+02  0.38209155781E+02  0.54469515780E+02  0.13585452382E+03  0.78954253555E+02 0.  0.
         13    1    3    3    0    0  0.11171828238E+03  0.38994647836E+02 -0.11501436424E+03  0.16501473013E+03  0.00000000000E+00 0. -1.
        -13    1    3    3    0    0  0.19039249514E+03  0.21185661788E+03 -0.27188722307E+03  0.39377047987E+03  0.00000000000E+00 0.  1.
          2    1    6    6  502    0 -0.26378635527E+02  0.49053910854E+02  0.51056357931E+01  0.55930189515E+02  0.00000000000E+00 0. -1.
          3    1    5    5  503    0 -0.73562534819E+02 -0.77208201872E+02 -0.43580929896E+03  0.44866724643E+03  0.00000000000E+00 0. -1.
         -4    1    5    5    0  503 -0.14025435983E+03 -0.21185221963E+03 -0.16435746872E+04  0.16630966301E+04  0.00000000000E+00 0.  1.
         -3    1    6    6    0  502 -0.61915247347E+02 -0.10844755073E+02  0.49363879987E+02  0.79924334304E+02  0.00000000000E+00 0.  1.
<mgrwt>
<rscale>  0 0.14349371E+04</rscale>
<asrwt>0</asrwt>
<pdfrwt beam="1">  1        2 0.40140149E+00 0.14349371E+04</pdfrwt>
<pdfrwt beam="2">  1       -2 0.30352891E-01 0.14349371E+04</pdfrwt>
<totfact> 0.29403513E+01</totfact>
</mgrwt>
</event>
<event>
12    1  0.1489025E-007  0.2870732E+04  0.7818608E-02  0.8281639E-01
          2   -1    0    0  501    0  0.00000000000E+00  0.00000000000E+00  0.14120374928E+04  0.14120374928E+04  0.00000000000E+00 0.  1.
         -2   -1    0    0    0  501 -0.00000000000E+00 -0.00000000000E+00 -0.14590800908E+04  0.14590800908E+04  0.00000000000E+00 0. -1.
         23    2    1    2    0    0 -0.46316010094E+03  0.91346184787E+01 -0.12280308230E+04  0.13156485104E+04  0.90942730501E+02 0.  0.
        254    2    1    2    0    0  0.46316010094E+03 -0.91346184787E+01  0.11809882250E+04  0.15554690732E+04  0.90008340154E+03 0.  0.
        -24    2    4    4    0    0  0.43006786996E+03 -0.35560562656E+03  0.10153276539E+04  0.11617938362E+04  0.86376725263E+02 0.  0.
         24    2    4    4    0    0  0.33092230980E+02  0.34647100808E+03  0.16566057112E+03  0.39367523701E+03  0.79996951285E+02 0.  0.
         13    1    3    3    0    0 -0.33835487304E+03  0.77096326466E+01 -0.77369887252E+03  0.84448410517E+03  0.00000000000E+00 0. -1.
        -13    1    3    3    0    0 -0.12480522789E+03  0.14249858321E+01 -0.45433195048E+03  0.47116440520E+03  0.00000000000E+00 0.  1.
          4    1    6    6  502    0  0.19944552771E+02  0.28245128086E+03  0.98075673368E+02  0.29965872080E+03  0.00000000000E+00 0. -1.
          3    1    5    5  503    0  0.16250094068E+03 -0.18527531963E+03  0.40878968201E+03  0.47732850732E+03  0.00000000000E+00 0. -1.
         -4    1    5    5    0  503  0.26756692927E+03 -0.17033030693E+03  0.60653797186E+03  0.68446532886E+03  0.00000000000E+00 0.  1.
         -1    1    6    6    0  502  0.13147678209E+02  0.64019727228E+02  0.67584897748E+02  0.94016516210E+02  0.00000000000E+00 0.  1.
<mgrwt>
<rscale>  0 0.28707322E+04</rscale>
<asrwt>0</asrwt>
<pdfrwt beam="1">  1        2 0.21723654E+00 0.28707322E+04</pdfrwt>
<pdfrwt beam="2">  1       -2 0.22447386E+00 0.28707322E+04</pdfrwt>
<totfact> 0.11411612E+00</totfact>
</mgrwt>
</event>
<event>
12    1  0.1868666E-007  0.2583065E+04  0.7818608E-02  0.8373976E-01
          1   -1    0    0  501    0  0.00000000000E+00  0.00000000000E+00  0.20659133164E+04  0.20659133164E+04  0.00000000000E+00 0. -1.
         -1   -1    0    0    0  501 -0.00000000000E+00 -0.00000000000E+00 -0.80741841029E+03  0.80741841029E+03  0.00000000000E+00 0.  1.
         23    2    1    2    0    0  0.10337689396E+04 -0.19384147532E+03  0.75126503519E+03  0.12956316678E+04  0.89495962671E+02 0.  0.
        254    2    1    2    0    0 -0.10337689396E+04  0.19384147532E+03  0.50722987094E+03  0.15777000589E+04  0.10609442002E+04 0.  0.
        -24    2    4    4    0    0 -0.34151967422E+03  0.41214969340E+03  0.63745516981E+03  0.83613987785E+03  0.79232216728E+02 0.  0.
         24    2    4    4    0    0 -0.69224926542E+03 -0.21830821808E+03 -0.13022529887E+03  0.74156018109E+03  0.78008654404E+02 0.  0.
         13    1    3    3    0    0  0.19214499217E+03 -0.50619717792E+02  0.10394826475E+03  0.22424829005E+03  0.00000000000E+00 0. -1.
        -13    1    3    3    0    0  0.84162394746E+03 -0.14322175753E+03  0.64731677043E+03  0.10713833777E+04  0.00000000000E+00 0.  1.
          2    1    6    6  502    0 -0.36391611222E+03 -0.10551109120E+03 -0.10648177330E+03  0.39358086227E+03  0.00000000000E+00 0. -1.
          1    1    5    5  503    0 -0.26208178143E+03  0.26661156322E+03  0.46898986833E+03  0.59976668997E+03  0.00000000000E+00 0. -1.
         -2    1    5    5    0  503 -0.79437892785E+02  0.14553813018E+03  0.16846530148E+03  0.23637318788E+03  0.00000000000E+00 0.  1.
         -1    1    6    6    0  502 -0.32833315320E+03 -0.11279712688E+03 -0.23743525567E+02  0.34797931882E+03  0.00000000000E+00 0.  1.
<mgrwt>
<rscale>  0 0.25830652E+04</rscale>
<asrwt>0</asrwt>
<pdfrwt beam="1">  1        1 0.31783282E+00 0.25830652E+04</pdfrwt>
<pdfrwt beam="2">  1       -1 0.12421822E+00 0.25830652E+04</pdfrwt>
<totfact> 0.13475087E+00</totfact>
</mgrwt>
</event>
<event>
12    1  0.1489025E-007  0.2019311E+04  0.7818608E-02  0.8597645E-01
          1   -1    0    0  501    0  0.00000000000E+00  0.00000000000E+00  0.55330035465E+03  0.55330035465E+03  0.00000000000E+00 0. -1.
         -1   -1    0    0    0  501 -0.00000000000E+00 -0.00000000000E+00 -0.18424071662E+04  0.18424071662E+04  0.00000000000E+00 0.  1.
         23    2    1    2    0    0  0.37487400530E+03  0.27577660540E+03 -0.12947407979E+04  0.13788154315E+04  0.90526264554E+02 0.  0.
        254    2    1    2    0    0 -0.37487400530E+03 -0.27577660540E+03  0.56339863033E+01  0.10168920894E+04  0.90413191718E+03 0.  0.
        -24    2    4    4    0    0 -0.26964723011E+03 -0.57949377298E+03 -0.13342498310E+03  0.65784780115E+03  0.80242393604E+02 0.  0.
         24    2    4    4    0    0 -0.10522677519E+03  0.30371716758E+03  0.13905896940E+03  0.35904428821E+03  0.79111388707E+02 0.  0.
         11    1    3    3    0    0  0.33647384669E+03  0.26852791074E+03 -0.12304105690E+04  0.13035459550E+04  0.00000000000E+00 0.  1.
        -11    1    3    3    0    0  0.38400158611E+02  0.72486946665E+01 -0.64330228830E+02  0.75269476530E+02  0.00000000000E+00 0. -1.
          2    1    6    6  502    0 -0.94124083085E+02  0.16975323652E+03  0.60323223968E+02  0.20325942949E+03  0.00000000000E+00 0. -1.
          3    1    5    5  503    0 -0.27169383498E+03 -0.54120055676E+03 -0.12103115926E+03  0.61754685985E+03  0.00000000000E+00 0. -1.
         -4    1    5    5    0  503  0.20466048649E+01 -0.38293216227E+02 -0.12393823841E+02  0.40300941303E+02  0.00000000000E+00 0.  1.
         -1    1    6    6    0  502 -0.11102692101E+02  0.13396393106E+03  0.78735745432E+02  0.15578485872E+03  0.00000000000E+00 0.  1.
<mgrwt>
<rscale>  0 0.20193113E+04</rscale>
<asrwt>0</asrwt>
<pdfrwt beam="1">  1        1 0.85123130E-01 0.20193113E+04</pdfrwt>
<pdfrwt beam="2">  1       -1 0.28344726E+00 0.20193113E+04</pdfrwt>
<totfact> 0.15065788E+00</totfact>
</mgrwt>
</event>
<event>
12    1  0.1489025E-007  0.1278829E+04  0.7818608E-02  0.9046524E-01
         -1   -1    0    0    0  501 -0.00000000000E+00  0.00000000000E+00  0.12933219893E+04  0.12933219893E+04  0.00000000000E+00 0.  1.
          1   -1    0    0  501    0  0.00000000000E+00 -0.00000000000E+00 -0.31612483623E+03  0.31612483623E+03  0.00000000000E+00 0. -1.
         23    2    1    2    0    0 -0.89972772922E+02  0.81548421379E+02  0.60736634742E+03  0.62618155692E+03  0.92001181270E+02 0.  0.
        254    2    1    2    0    0  0.89972772922E+02 -0.81548421379E+02  0.36983080567E+03  0.98326526863E+03  0.90293439340E+03 0.  0.
        -24    2    4    4    0    0 -0.42569295153E+02  0.19450895154E+03 -0.22400221993E+03  0.31034953790E+03  0.80585135221E+02 0.  0.
         24    2    4    4    0    0  0.13254206807E+03 -0.27605737292E+03  0.59383302560E+03  0.67291573073E+03  0.80017781910E+02 0.  0.
         11    1    3    3    0    0 -0.59007889851E+02  0.49981442103E+02  0.17210880436E+03  0.18868364041E+03  0.00000000000E+00 0. -1.
        -11    1    3    3    0    0 -0.30964883070E+02  0.31566979276E+02  0.43525754306E+03  0.43749791651E+03  0.00000000000E+00 0.  1.
          2    1    6    6  502    0 -0.10130939990E+02 -0.24283711999E+02  0.37393539723E+02  0.45723204465E+02  0.00000000000E+00 0. -1.
          1    1    5    5  503    0 -0.56083233725E+02  0.79865641257E+02 -0.82935948564E+02  0.12807115726E+03  0.00000000000E+00 0. -1.
         -2    1    5    5    0  503  0.13513938572E+02  0.11464331029E+03 -0.14106627137E+03  0.18227838063E+03  0.00000000000E+00 0.  1.
         -1    1    6    6    0  502  0.14267300806E+03 -0.25177366092E+03  0.55643948588E+03  0.62719252627E+03  0.00000000000E+00 0.  1.
<mgrwt>
<rscale>  0 0.12788295E+04</rscale>
<asrwt>0</asrwt>
<pdfrwt beam="1">  1        1 0.48634591E-01 0.12788295E+04</pdfrwt>
<pdfrwt beam="2">  1       -1 0.19897261E+00 0.12788295E+04</pdfrwt>
<totfact> 0.12326283E+01</totfact>
</mgrwt>
</event>
<event>
12    1  0.1489025E-007  0.1753105E+04  0.7818608E-02  0.8731643E-01
          1   -1    0    0  501    0  0.00000000000E+00  0.00000000000E+00  0.10564860539E+04  0.10564860539E+04  0.00000000000E+00 0. -1.
         -1   -1    0    0    0  501 -0.00000000000E+00 -0.00000000000E+00 -0.72726379761E+03  0.72726379761E+03  0.00000000000E+00 0.  1.
         23    2    1    2    0    0  0.44108267162E+03  0.35060765845E+03  0.45148638965E+03  0.72747073582E+03  0.88848511908E+02 0.  0.
        254    2    1    2    0    0 -0.44108267162E+03 -0.35060765845E+03 -0.12226413340E+03  0.10562791157E+04  0.88504090216E+03 0.  0.
        -24    2    4    4    0    0 -0.51377023192E+03 -0.20066874859E+03  0.27276542415E+03  0.62065798617E+03  0.81163793168E+02 0.  0.
         24    2    4    4    0    0  0.72687560300E+02 -0.14993890986E+03 -0.39502955755E+03  0.43562112949E+03  0.77150884685E+02 0.  0.
         13    1    3    3    0    0  0.43216489518E+03  0.32582615920E+03  0.41287029362E+03  0.68072833201E+03  0.00000000000E+00 0. -1.
        -13    1    3    3    0    0  0.89177764441E+01  0.24781499245E+02  0.38616096029E+02  0.46742403812E+02  0.00000000000E+00 0.  1.
          4    1    6    6  502    0 -0.16471290482E+02 -0.24072293865E+02 -0.70740048936E+02  0.76517535673E+02  0.00000000000E+00 0. -1.
          3    1    5    5  503    0 -0.21255121841E+03 -0.86385643341E+02  0.15834941095E+03  0.27877416626E+03  0.00000000000E+00 0. -1.
         -4    1    5    5    0  503 -0.30121901351E+03 -0.11428310524E+03  0.11441601320E+03  0.34188381992E+03  0.00000000000E+00 0.  1.
         -3    1    6    6    0  502  0.89158850782E+02 -0.12586661599E+03 -0.32428950861E+03  0.35910359381E+03  0.00000000000E+00 0.  1.
<mgrwt>
<rscale>  0 0.17531047E+04</rscale>
<asrwt>0</asrwt>
<pdfrwt beam="1">  1        1 0.16253632E+00 0.17531047E+04</pdfrwt>
<pdfrwt beam="2">  1       -1 0.11188674E+00 0.17531047E+04</pdfrwt>
<totfact> 0.95021884E+00</totfact>
</mgrwt>
</event>
<event>
12    1  0.1489025E-007  0.1672055E+04  0.7818608E-02  0.8777465E-01
         -2   -1    0    0    0  501 -0.00000000000E+00  0.00000000000E+00  0.33525843789E+03  0.33525843789E+03  0.00000000000E+00 0. -1.
          2   -1    0    0  501    0  0.00000000000E+00 -0.00000000000E+00 -0.20847846941E+04  0.20847846941E+04  0.00000000000E+00 0.  1.
         23    2    1    2    0    0  0.32886012099E+03  0.20315806134E+03 -0.12681365522E+04  0.13288642552E+04  0.91036897870E+02 0.  0.
        254    2    1    2    0    0 -0.32886012099E+03 -0.20315806134E+03 -0.48138970403E+03  0.10911788768E+04  0.89972946873E+03 0.  0.
        -24    2    4    4    0    0 -0.12900445704E+03  0.26350360679E+03  0.95338554516E+02  0.31880062866E+03  0.80424499546E+02 0.  0.
         24    2    4    4    0    0 -0.19985566396E+03 -0.46666166813E+03 -0.57672825855E+03  0.77237824811E+03  0.78976420737E+02 0.  0.
         13    1    3    3    0    0 -0.35098587077E+01 -0.14616875415E+01 -0.28658640510E+01  0.47611779400E+01  0.00000000000E+00 0. -1.
        -13    1    3    3    0    0  0.33236997970E+03  0.20461974888E+03 -0.12652706881E+04  0.13241030773E+04  0.00000000000E+00 0.  1.
          2    1    6    6  502    0 -0.18078551287E+03 -0.35550497077E+03 -0.47756582745E+03  0.62220278483E+03  0.00000000000E+00 0. -1.
          1    1    5    5  503    0 -0.10556520121E+03  0.25744570557E+03  0.96647923034E+02  0.29455580804E+03  0.00000000000E+00 0. -1.
         -2    1    5    5    0  503 -0.23439255824E+02  0.60579012212E+01 -0.13093685177E+01  0.24244820616E+02  0.00000000000E+00 0.  1.
         -1    1    6    6    0  502 -0.19070151089E+02 -0.11115669736E+03 -0.99162431102E+02  0.15017546328E+03  0.00000000000E+00 0.  1.
<mgrwt>
<rscale>  0 0.16720546E+04</rscale>
<asrwt>0</asrwt>
<pdfrwt beam="1">  1        2 0.32073610E+00 0.16720546E+04</pdfrwt>
<pdfrwt beam="2">  1       -2 0.51578222E-01 0.16720546E+04</pdfrwt>
<totfact> 0.20295698E+01</totfact>
</mgrwt>
</event>
<event>
12    1  0.1489025E-007  0.2161980E+04  0.7818608E-02  0.8534422E-01
          2   -1    0    0  501    0  0.00000000000E+00  0.00000000000E+00  0.19569392381E+04  0.19569392381E+04  0.00000000000E+00 0.  1.
         -2   -1    0    0    0  501 -0.00000000000E+00 -0.00000000000E+00 -0.59712606439E+03  0.59712606439E+03  0.00000000000E+00 0. -1.
         23    2    1    2    0    0 -0.74462658623E+03  0.11840195003E+03 -0.40335841445E+01  0.75940837538E+03  0.90537484507E+02 0.  0.
        254    2    1    2    0    0  0.74462658623E+03 -0.11840195003E+03  0.13638467578E+04  0.17946569271E+04  0.89007175691E+03 0.  0.
        -24    2    4    4    0    0  0.62816050821E+03 -0.27659367345E+03  0.38055223557E+03  0.78880402474E+03  0.79385774443E+02 0.  0.
         24    2    4    4    0    0  0.11646607802E+03  0.15819172342E+03  0.98329452227E+03  0.10058529024E+04  0.79265219232E+02 0.  0.
         13    1    3    3    0    0 -0.30949763387E+03  0.51919483170E+02 -0.46241781423E+02  0.31721084542E+03  0.00000000000E+00 0. -1.
        -13    1    3    3    0    0 -0.43512895236E+03  0.66482466857E+02  0.42208197279E+02  0.44219752995E+03  0.00000000000E+00 0.  1.
          2    1    6    6  502    0  0.90536950446E+02  0.11388767556E+03  0.86124342706E+03  0.87344580982E+03  0.00000000000E+00 0. -1.
          3    1    5    5  503    0  0.42674920252E+03 -0.22426662351E+03  0.24880402327E+03  0.54250699743E+03  0.00000000000E+00 0. -1.
         -4    1    5    5    0  503  0.20141130569E+03 -0.52327049940E+02  0.13174821230E+03  0.24629702730E+03  0.00000000000E+00 0.  1.
         -1    1    6    6    0  502  0.25929127575E+02  0.44304047861E+02  0.12205109521E+03  0.13240709254E+03  0.00000000000E+00 0.  1.
<mgrwt>
<rscale>  0 0.21619800E+04</rscale>
<asrwt>0</asrwt>
<pdfrwt beam="1">  1        2 0.30106757E+00 0.21619800E+04</pdfrwt>
<pdfrwt beam="2">  1       -2 0.91865549E-01 0.21619800E+04</pdfrwt>
<totfact> 0.65232311E+00</totfact>
</mgrwt>
</event>
<event>
12    1  0.1489025E-007  0.1912775E+04  0.7818608E-02  0.8648524E-01
          2   -1    0    0  501    0  0.00000000000E+00  0.00000000000E+00  0.44584741816E+03  0.44584741816E+03  0.00000000000E+00 0.  1.
         -2   -1    0    0    0  501 -0.00000000000E+00 -0.00000000000E+00 -0.20515464256E+04  0.20515464256E+04  0.00000000000E+00 0. -1.
         23    2    1    2    0    0 -0.27728154948E+03 -0.51650997490E+02 -0.15179770572E+04  0.15466831348E+04  0.91768676835E+02 0.  0.
        254    2    1    2    0    0  0.27728154948E+03  0.51650997490E+02 -0.87721950310E+02  0.95071070904E+03  0.90366079283E+03 0.  0.
        -24    2    4    4    0    0  0.35668428705E+03 -0.23895751520E+03  0.23999329189E+03  0.49833851598E+03  0.80125661666E+02 0.  0.
         24    2    4    4    0    0 -0.79402737571E+02  0.29060851269E+03 -0.32771524220E+03  0.45237219306E+03  0.80530855579E+02 0.  0.
         13    1    3    3    0    0 -0.19299077667E+03 -0.66494445790E+02 -0.90333521381E+03  0.92611093272E+03  0.00000000000E+00 0. -1.
        -13    1    3    3    0    0 -0.84290772819E+02  0.14843448300E+02 -0.61464184336E+03  0.62057220204E+03  0.00000000000E+00 0.  1.
          2    1    6    6  502    0 -0.24904073796E+02  0.60836001882E+02 -0.12465388613E+03  0.14092488547E+03  0.00000000000E+00 0. -1.
          3    1    5    5  503    0 -0.10787298430E+01 -0.11302305236E+02  0.58040021882E+00  0.11368492694E+02  0.00000000000E+00 0. -1.
         -4    1    5    5    0  503  0.35776301690E+03 -0.22765520997E+03  0.23941289167E+03  0.48697002329E+03  0.00000000000E+00 0.  1.
         -1    1    6    6    0  502 -0.54498663775E+02  0.22977251081E+03 -0.20306135607E+03  0.31144730759E+03  0.00000000000E+00 0.  1.
<mgrwt>
<rscale>  0 0.19127746E+04</rscale>
<asrwt>0</asrwt>
<pdfrwt beam="1">  1        2 0.68591912E-01 0.19127746E+04</pdfrwt>
<pdfrwt beam="2">  1       -2 0.31562252E+00 0.19127746E+04</pdfrwt>
<totfact> 0.16787824E+00</totfact>
</mgrwt>
</event>
<event>
12    1  0.1489025E-007  0.1856134E+04  0.7818608E-02  0.8677005E-01
          2   -1    0    0  501    0  0.00000000000E+00  0.00000000000E+00  0.14482467904E+04  0.14482467904E+04  0.00000000000E+00 0. -1.
         -2   -1    0    0    0  501 -0.00000000000E+00 -0.00000000000E+00 -0.59472470995E+03  0.59472470995E+03  0.00000000000E+00 0.  1.
         23    2    1    2    0    0 -0.49627008924E+03  0.21902304738E+03  0.82471752908E+03  0.99136637529E+03  0.91614357635E+02 0.  0.
        254    2    1    2    0    0  0.49627008924E+03 -0.21902304738E+03  0.28804551334E+02  0.10516051250E+04  0.90043797124E+03 0.  0.
        -24    2    4    4    0    0  0.60743162045E+03 -0.46358405667E+03 -0.15839201104E+02  0.76843802806E+03  0.79766982880E+02 0.  0.
         24    2    4    4    0    0 -0.11116153121E+03  0.24456100929E+03  0.44643752438E+02  0.28316709696E+03  0.77611641406E+02 0.  0.
         13    1    3    3    0    0 -0.15466604102E+03  0.28942860686E+02  0.27471544660E+03  0.31658782357E+03  0.00000000000E+00 0. -1.
        -13    1    3    3    0    0 -0.34160404822E+03  0.19008018669E+03  0.55000208247E+03  0.67477855171E+03  0.00000000000E+00 0.  1.
          4    1    6    6  502    0 -0.60730255705E+02  0.19671170287E+03  0.54470858688E+02  0.21295711411E+03  0.00000000000E+00 0. -1.
          1    1    5    5  503    0  0.49702270733E+03 -0.41561230807E+03 -0.13928589107E+02  0.64804256636E+03  0.00000000000E+00 0. -1.
         -4    1    5    5    0  503  0.11040891312E+03 -0.47971748603E+02 -0.19106119965E+01  0.12039546170E+03  0.00000000000E+00 0.  1.
         -3    1    6    6    0  502 -0.50431275510E+02  0.47849306420E+02 -0.98271062496E+01  0.70209982849E+02  0.00000000000E+00 0.  1.
<mgrwt>
<rscale>  0 0.18561338E+04</rscale>
<asrwt>0</asrwt>
<pdfrwt beam="1">  1        2 0.22280720E+00 0.18561338E+04</pdfrwt>
<pdfrwt beam="2">  1       -2 0.91496109E-01 0.18561338E+04</pdfrwt>
<totfact> 0.12985511E+01</totfact>
</mgrwt>
</event>
<event>
12    1  0.1489025E-007  0.1655635E+04  0.7818608E-02  0.8787080E-01
         -2   -1    0    0    0  501 -0.00000000000E+00  0.00000000000E+00  0.48975702056E+03  0.48975702056E+03  0.00000000000E+00 0.  1.
          2   -1    0    0  501    0  0.00000000000E+00 -0.00000000000E+00 -0.13992284005E+04  0.13992284005E+04  0.00000000000E+00 0. -1.
         23    2    1    2    0    0  0.27886156594E+03 -0.28647760985E+02 -0.89849157208E+03  0.94550958617E+03  0.90093314336E+02 0.  0.
        254    2    1    2    0    0 -0.27886156594E+03  0.28647760985E+02 -0.10979807835E+02  0.94347583486E+03  0.90080054819E+03 0.  0.
        -24    2    4    4    0    0 -0.33335103843E+03 -0.35881476875E+03 -0.15350357754E+03  0.51957703169E+03  0.80783602583E+02 0.  0.
         24    2    4    4    0    0  0.54489472497E+02  0.38746252973E+03  0.14252376970E+03  0.42389880317E+03  0.79251850724E+02 0.  0.
         13    1    3    3    0    0  0.15274254056E+03 -0.54247085113E+02 -0.42563563296E+03  0.45545441263E+03  0.00000000000E+00 0.  1.
        -13    1    3    3    0    0  0.12611902537E+03  0.25599324128E+02 -0.47285593912E+03  0.49005517354E+03  0.00000000000E+00 0. -1.
          2    1    6    6  502    0  0.43947319241E+02  0.29171009172E+03  0.14238835082E+03  0.32756768297E+03  0.00000000000E+00 0. -1.
          3    1    5    5  503    0 -0.15144702114E+03 -0.17568098040E+03 -0.11400090917E+03  0.25844963605E+03  0.00000000000E+00 0. -1.
         -4    1    5    5    0  503 -0.18190401730E+03 -0.18313378835E+03 -0.39502668373E+02  0.26112739564E+03  0.00000000000E+00 0.  1.
         -3    1    6    6    0  502  0.10542153256E+02  0.95752438014E+02  0.13541888022E+00  0.96331120201E+02  0.00000000000E+00 0.  1.
<mgrwt>
<rscale>  0 0.16556351E+04</rscale>
<asrwt>0</asrwt>
<pdfrwt beam="1">  1        2 0.21526591E+00 0.16556351E+04</pdfrwt>
<pdfrwt beam="2">  1       -2 0.75347234E-01 0.16556351E+04</pdfrwt>
<totfact> 0.21860508E+01</totfact>
</mgrwt>
</event>
<event>
12    1  0.1489025E-007  0.2551405E+04  0.7818608E-02  0.8384898E-01
         -2   -1    0    0    0  501 -0.00000000000E+00  0.00000000000E+00  0.85519668833E+03  0.85519668833E+03  0.00000000000E+00 0. -1.
          2   -1    0    0  501    0  0.00000000000E+00 -0.00000000000E+00 -0.19029744928E+04  0.19029744928E+04  0.00000000000E+00 0.  1.
         23    2    1    2    0    0  0.70872502760E+03  0.18515396662E+03  0.44977247283E+03  0.86513132599E+03  0.97896771113E+02 0.  0.
        254    2    1    2    0    0 -0.70872502760E+03 -0.18515396662E+03 -0.14975502773E+04  0.18930398551E+04  0.89686671471E+03 0.  0.
        -24    2    4    4    0    0 -0.34981549296E+03 -0.53897788518E+03 -0.83743462085E+03  0.10586738791E+04  0.81397777990E+02 0.  0.
         24    2    4    4    0    0 -0.35890953464E+03  0.35382391856E+03 -0.66011565641E+03  0.83436597599E+03  0.80040506384E+02 0.  0.
         11    1    3    3    0    0  0.50276722091E+02  0.34093824806E+02  0.17900038651E+02  0.63328895916E+02  0.00000000000E+00 0.  1.
        -11    1    3    3    0    0  0.65844830551E+03  0.15106014181E+03  0.43187243418E+03  0.80180243008E+03  0.00000000000E+00 0. -1.
          2    1    6    6  502    0 -0.18813480027E+03  0.16285197749E+03 -0.26545092915E+03  0.36384016467E+03  0.00000000000E+00 0. -1.
          1    1    5    5  503    0 -0.97608059584E+02 -0.13102998482E+03 -0.27118785424E+03  0.31660549980E+03  0.00000000000E+00 0. -1.
         -2    1    5    5    0  503 -0.25220743338E+03 -0.40794790035E+03 -0.56624676661E+03  0.74206837930E+03  0.00000000000E+00 0.  1.
         -1    1    6    6    0  502 -0.17077473437E+03  0.19097194107E+03 -0.39466472726E+03  0.47052581132E+03  0.00000000000E+00 0.  1.
<mgrwt>
<rscale>  0 0.25514055E+04</rscale>
<asrwt>0</asrwt>
<pdfrwt beam="1">  1        2 0.29276531E+00 0.25514055E+04</pdfrwt>
<pdfrwt beam="2">  1       -2 0.13156872E+00 0.25514055E+04</pdfrwt>
<totfact> 0.28304624E+00</totfact>
</mgrwt>
</event>
<event>
12    1  0.1489025E-007  0.1956173E+04  0.7818608E-02  0.8627390E-01
          2   -1    0    0  501    0  0.00000000000E+00  0.00000000000E+00  0.19397230877E+04  0.19397230877E+04  0.00000000000E+00 0. -1.
         -2   -1    0    0    0  501 -0.00000000000E+00 -0.00000000000E+00 -0.49319060142E+03  0.49319060142E+03  0.00000000000E+00 0.  1.
         23    2    1    2    0    0 -0.71606943190E+03  0.19023985412E+03  0.80368029420E+03  0.10968460463E+04  0.90678556117E+02 0.  0.
        254    2    1    2    0    0  0.71606943190E+03 -0.19023985412E+03  0.64285219206E+03  0.13360676428E+04  0.90712246801E+03 0.  0.
        -24    2    4    4    0    0  0.87106638274E+03 -0.20982700819E+03  0.29469633232E+03  0.94638362094E+03  0.77537172914E+02 0.  0.
         24    2    4    4    0    0 -0.15499695084E+03  0.19587154071E+02  0.34815585974E+03  0.38968402189E+03  0.78952028887E+02 0.  0.
         11    1    3    3    0    0 -0.56802330002E+03  0.12104843553E+03  0.59062969603E+03  0.82833968331E+03  0.00000000000E+00 0. -1.
        -11    1    3    3    0    0 -0.14804613187E+03  0.69191418591E+02  0.21305059817E+03  0.26850636296E+03  0.00000000000E+00 0.  1.
          2    1    6    6  502    0 -0.16101962864E+03  0.25098768297E+02  0.34371367596E+03  0.38038974752E+03  0.00000000000E+00 0. -1.
          3    1    5    5  503    0  0.73973355230E+03 -0.20256331207E+03  0.23697240734E+03  0.80274126942E+03  0.00000000000E+00 0. -1.
         -4    1    5    5    0  503  0.13133283044E+03 -0.72636961277E+01  0.57723924982E+02  0.14364235152E+03  0.00000000000E+00 0.  1.
         -1    1    6    6    0  502  0.60226777948E+01 -0.55116142264E+01  0.44421837780E+01  0.92942743621E+01  0.00000000000E+00 0.  1.
<mgrwt>
<rscale>  0 0.19561730E+04</rscale>
<asrwt>0</asrwt>
<pdfrwt beam="1">  1        2 0.29841893E+00 0.19561730E+04</pdfrwt>
<pdfrwt beam="2">  1       -2 0.75875478E-01 0.19561730E+04</pdfrwt>
<totfact> 0.10470531E+01</totfact>
</mgrwt>
</event>
<event>
12    1  0.1489025E-007  0.1133959E+04  0.7818608E-02  0.9172711E-01
          1   -1    0    0  501    0  0.00000000000E+00  0.00000000000E+00  0.75399975493E+03  0.75399975493E+03  0.00000000000E+00 0. -1.
         -1   -1    0    0    0  501 -0.00000000000E+00 -0.00000000000E+00 -0.42634698878E+03  0.42634698878E+03  0.00000000000E+00 0.  1.
         23    2    1    2    0    0  0.56960662675E+02 -0.78039160957E+02  0.21221043798E+03  0.25052125758E+03  0.91613332959E+02 0.  0.
        254    2    1    2    0    0 -0.56960662675E+02  0.78039160957E+02  0.11544232817E+03  0.92982548614E+03  0.91755864979E+03 0.  0.
        -24    2    4    4    0    0  0.19611340255E+03  0.22779765417E+03 -0.28847740434E+03  0.42406737154E+03  0.79130808697E+02 0.  0.
         24    2    4    4    0    0 -0.25307406523E+03 -0.14975849321E+03  0.40391973251E+03  0.50575811460E+03  0.78524081608E+02 0.  0.
         13    1    3    3    0    0  0.16507902028E+02 -0.69313550657E+02  0.61149161441E+02  0.93894084366E+02  0.00000000000E+00 0.  1.
        -13    1    3    3    0    0  0.40452760647E+02 -0.87256103009E+01  0.15106127654E+03  0.15662717321E+03  0.00000000000E+00 0. -1.
          2    1    6    6  502    0 -0.22563194073E+03 -0.14217308798E+03  0.39366883945E+03  0.47549775476E+03  0.00000000000E+00 0. -1.
          1    1    5    5  503    0  0.15843818469E+03  0.22093714876E+03 -0.24330160778E+03  0.36484456200E+03  0.00000000000E+00 0. -1.
         -2    1    5    5    0  503  0.37675217857E+02  0.68605054068E+01 -0.45175796561E+02  0.59222809541E+02  0.00000000000E+00 0.  1.
         -1    1    6    6    0  502 -0.27442124494E+02 -0.75854052360E+01  0.10250893060E+02  0.30260359844E+02  0.00000000000E+00 0.  1.
<mgrwt>
<rscale>  0 0.11339586E+04</rscale>
<asrwt>0</asrwt>
<pdfrwt beam="1">  1        1 0.11599996E+00 0.11339586E+04</pdfrwt>
<pdfrwt beam="2">  1       -1 0.65591844E-01 0.11339586E+04</pdfrwt>
<totfact> 0.56913497E+01</totfact>
</mgrwt>
</event>
<event>
12    1  0.1489025E-007  0.1915606E+04  0.7818608E-02  0.8647127E-01
         -2   -1    0    0    0  501 -0.00000000000E+00  0.00000000000E+00  0.39705672488E+03  0.39705672488E+03  0.00000000000E+00 0.  1.
          2   -1    0    0  501    0  0.00000000000E+00 -0.00000000000E+00 -0.23104674209E+04  0.23104674209E+04  0.00000000000E+00 0. -1.
         23    2    1    2    0    0  0.14097141408E+03  0.60611676092E+03 -0.17403217107E+03  0.65266203310E+03  0.91815387723E+02 0.  0.
        254    2    1    2    0    0 -0.14097141408E+03 -0.60611676092E+03 -0.17393785250E+04  0.20548621127E+04  0.89987231409E+03 0.  0.
        -24    2    4    4    0    0  0.37301346624E+02 -0.73252246728E+03 -0.16489963284E+04  0.18065159672E+04  0.79564396023E+02 0.  0.
         24    2    4    4    0    0 -0.17827276070E+03  0.12640570636E+03 -0.90382196603E+02  0.24834614554E+03  0.75810861580E+02 0.  0.
         13    1    3    3    0    0  0.94720484181E+00  0.13662828763E+02  0.96787053655E+01  0.16770433041E+02  0.00000000000E+00 0. -1.
        -13    1    3    3    0    0  0.14002420924E+03  0.59245393216E+03 -0.18371087644E+03  0.63589160006E+03  0.00000000000E+00 0.  1.
          4    1    6    6  502    0 -0.17035643509E+03  0.13662584602E+03 -0.84736494219E+02  0.23423964274E+03  0.00000000000E+00 0. -1.
          1    1    5    5  503    0  0.28153847459E+02 -0.72587309971E+03 -0.16261148404E+04  0.17809923836E+04  0.00000000000E+00 0. -1.
         -2    1    5    5    0  503  0.91474991658E+01 -0.66493675754E+01 -0.22881487951E+02  0.25523583624E+02  0.00000000000E+00 0.  1.
         -3    1    6    6    0  502 -0.79163256181E+01 -0.10220139663E+02 -0.56457023834E+01  0.14106502806E+02  0.00000000000E+00 0.  1.
<mgrwt>
<rscale>  0 0.19156060E+04</rscale>
<asrwt>0</asrwt>
<pdfrwt beam="1">  1        2 0.35545652E+00 0.19156060E+04</pdfrwt>
<pdfrwt beam="2">  1       -2 0.61085651E-01 0.19156060E+04</pdfrwt>
<totfact> 0.10432721E+01</totfact>
</mgrwt>
</event>
<event>
12    1  0.1489025E-007  0.1602305E+04  0.7818608E-02  0.8819133E-01
         -4   -1    0    0    0  501 -0.00000000000E+00  0.00000000000E+00  0.31959101565E+03  0.31959101565E+03  0.00000000000E+00 0. -1.
          4   -1    0    0  501    0  0.00000000000E+00 -0.00000000000E+00 -0.20083331641E+04  0.20083331641E+04  0.00000000000E+00 0.  1.
         23    2    1    2    0    0  0.16597154381E+03 -0.18779867505E+03  0.11970121554E+03  0.29216978742E+03  0.90663708166E+02 0.  0.
        254    2    1    2    0    0 -0.16597154381E+03  0.18779867505E+03 -0.18084433640E+04  0.20357543924E+04  0.90056296251E+03 0.  0.
        -24    2    4    4    0    0 -0.40437426379E+03  0.31098273921E+03 -0.58359677092E+03  0.77920337713E+03  0.79648619532E+02 0.  0.
         24    2    4    4    0    0  0.23840271999E+03 -0.12318406416E+03 -0.12248465931E+04  0.12565510152E+04  0.81615603244E+02 0.  0.
         13    1    3    3    0    0  0.91061695365E+02 -0.62932755567E+02  0.92027937330E+02  0.14395105187E+03  0.00000000000E+00 0.  1.
        -13    1    3    3    0    0  0.74909848441E+02 -0.12486591948E+03  0.27673278208E+02  0.14821873555E+03  0.00000000000E+00 0. -1.
          4    1    6    6  502    0 -0.15998553266E+01  0.47195738870E+01 -0.67389851115E+02  0.67573855507E+02  0.00000000000E+00 0. -1.
          1    1    5    5  503    0 -0.12531863120E+03  0.60632248517E+02 -0.19109240303E+03  0.23642617322E+03  0.00000000000E+00 0. -1.
         -2    1    5    5    0  503 -0.27905563259E+03  0.25035049070E+03 -0.39250436789E+03  0.54277720392E+03  0.00000000000E+00 0.  1.
         -3    1    6    6    0  502  0.24000257532E+03 -0.12790363805E+03 -0.11574567420E+04  0.11889771597E+04  0.00000000000E+00 0.  1.
<mgrwt>
<rscale>  0 0.16023049E+04</rscale>
<asrwt>0</asrwt>
<pdfrwt beam="1">  1        4 0.30897433E+00 0.16023049E+04</pdfrwt>
<pdfrwt beam="2">  1       -4 0.49167849E-01 0.16023049E+04</pdfrwt>
<totfact> 0.20920551E-01</totfact>
</mgrwt>
</event>
<event>
12    1  0.1489025E-007  0.1970644E+04  0.7818608E-02  0.8620470E-01
          2   -1    0    0  501    0  0.00000000000E+00  0.00000000000E+00  0.15694745795E+04  0.15694745795E+04  0.00000000000E+00 0. -1.
         -2   -1    0    0    0  501 -0.00000000000E+00 -0.00000000000E+00 -0.61858852685E+03  0.61858852685E+03  0.00000000000E+00 0.  1.
         23    2    1    2    0    0  0.19318741517E+03  0.61533791156E+03 -0.97622999725E+02  0.65869321205E+03  0.91566231395E+02 0.  0.
        254    2    1    2    0    0 -0.19318741517E+03 -0.61533791156E+03  0.10485090524E+04  0.15293698943E+04  0.90754554589E+03 0.  0.
        -24    2    4    4    0    0 -0.27377918805E+03 -0.28310461414E+03 -0.22476303859E+02  0.40250589809E+03  0.80015919703E+02 0.  0.
         24    2    4    4    0    0  0.80591772881E+02 -0.33223329742E+03  0.10709853562E+04  0.11268639962E+04  0.77063836521E+02 0.  0.
         11    1    3    3    0    0  0.20024022849E+03  0.60602430691E+03 -0.10173877068E+03  0.64630672836E+03  0.00000000000E+00 0.  1.
        -11    1    3    3    0    0 -0.70528133211E+01  0.93136046578E+01  0.41157709562E+01  0.12386483683E+02  0.00000000000E+00 0. -1.
          2    1    6    6  502    0  0.31660804910E+02 -0.80392275387E+02  0.38238033217E+03  0.39202046240E+03  0.00000000000E+00 0. -1.
          1    1    5    5  503    0 -0.15397206082E+03 -0.19935407725E+03  0.12501323033E+02  0.25220175794E+03  0.00000000000E+00 0. -1.
         -2    1    5    5    0  503 -0.11980712723E+03 -0.83750536892E+02 -0.34977626892E+02  0.15030414015E+03  0.00000000000E+00 0.  1.
         -3    1    6    6    0  502  0.48930967971E+02 -0.25184102204E+03  0.68860502404E+03  0.73484353378E+03  0.00000000000E+00 0.  1.
<mgrwt>
<rscale>  0 0.19706435E+04</rscale>
<asrwt>0</asrwt>
<pdfrwt beam="1">  1        2 0.24145763E+00 0.19706435E+04</pdfrwt>
<pdfrwt beam="2">  1       -2 0.95167466E-01 0.19706435E+04</pdfrwt>
<totfact> 0.10027513E+01</totfact>
</mgrwt>
</event>
<event>
12    1  0.1489025E-007  0.2148081E+04  0.7818608E-02  0.8540354E-01
          2   -1    0    0  501    0  0.00000000000E+00  0.00000000000E+00  0.31439994482E+04  0.31439994482E+04  0.00000000000E+00 0. -1.
         -2   -1    0    0    0  501 -0.00000000000E+00 -0.00000000000E+00 -0.36690929024E+03  0.36690929024E+03  0.00000000000E+00 0.  1.
         23    2    1    2    0    0  0.78419203359E+03  0.40909797355E+03  0.11651071674E+04  0.14652660153E+04  0.84920470862E+02 0.  0.
        254    2    1    2    0    0 -0.78419203359E+03 -0.40909797355E+03  0.16119829905E+04  0.20456427232E+04  0.89657497827E+03 0.  0.
        -24    2    4    4    0    0 -0.49196844974E+03  0.22994430652E+03  0.63223974432E+03  0.83729009878E+03  0.80126622183E+02 0.  0.
         24    2    4    4    0    0 -0.29222358384E+03 -0.63904228007E+03  0.97974324619E+03  0.12083526244E+04  0.80309263078E+02 0.  0.
         13    1    3    3    0    0  0.40432529467E+02  0.44266477530E+02  0.86278535920E+02  0.10506329631E+03  0.00000000000E+00 0. -1.
        -13    1    3    3    0    0  0.74375950412E+03  0.36483149602E+03  0.10788286315E+04  0.13602027190E+04  0.00000000000E+00 0.  1.
          2    1    6    6  502    0 -0.25248896172E+03 -0.49468118579E+03  0.80846911224E+03  0.98085802072E+03  0.00000000000E+00 0. -1.
          1    1    5    5  503    0 -0.24350368358E+03  0.15779647247E+03  0.33949915635E+03  0.44660211353E+03  0.00000000000E+00 0. -1.
         -2    1    5    5    0  503 -0.24846476616E+03  0.72147834045E+02  0.29274058797E+03  0.39068798526E+03  0.00000000000E+00 0.  1.
         -1    1    6    6    0  502 -0.39734622123E+02 -0.14436109428E+03  0.17127413395E+03  0.22749460367E+03  0.00000000000E+00 0.  1.
<mgrwt>
<rscale>  0 0.21480806E+04</rscale>
<asrwt>0</asrwt>
<pdfrwt beam="1">  1        2 0.48369221E+00 0.21480806E+04</pdfrwt>
<pdfrwt beam="2">  1       -2 0.56447585E-01 0.21480806E+04</pdfrwt>
<totfact> 0.38196154E+00</totfact>
</mgrwt>
</event>
<event>
12    1  0.1489025E-007  0.1899758E+04  0.7818608E-02  0.8654977E-01
          4   -1    0    0  501    0  0.00000000000E+00  0.00000000000E+00  0.14179405165E+04  0.14179405165E+04  0.00000000000E+00 0. -1.
         -4   -1    0    0    0  501 -0.00000000000E+00 -0.00000000000E+00 -0.63632455710E+03  0.63632455710E+03  0.00000000000E+00 0.  1.
         23    2    1    2    0    0  0.49091880198E+03  0.36959813178E+03 -0.13188885119E+03  0.63505436607E+03  0.91078700237E+02 0.  0.
        254    2    1    2    0    0 -0.49091880198E+03 -0.36959813178E+03  0.91350481058E+03  0.14192107075E+04  0.89558022771E+03 0.  0.
        -24    2    4    4    0    0  0.78437313060E+02 -0.48604590106E+03  0.41516624124E+03  0.64897188213E+03  0.80052894466E+02 0.  0.
         24    2    4    4    0    0 -0.56935611504E+03  0.11644776928E+03  0.49833856934E+03  0.77023882540E+03  0.84853106941E+02 0.  0.
         13    1    3    3    0    0  0.36006090022E+02  0.44072155213E+02 -0.36457107418E+02  0.67586345256E+02  0.00000000000E+00 0. -1.
        -13    1    3    3    0    0  0.45491271196E+03  0.32552597657E+03 -0.95431743772E+02  0.56746802081E+03  0.00000000000E+00 0.  1.
          2    1    6    6  502    0 -0.42897839060E+03  0.52385310564E+02  0.34880309218E+03  0.55536499483E+03  0.00000000000E+00 0. -1.
          3    1    5    5  503    0  0.60151895766E+02 -0.41077484172E+03  0.30888934367E+03  0.51746192883E+03  0.00000000000E+00 0. -1.
         -4    1    5    5    0  503  0.18285417294E+02 -0.75271059333E+02  0.10627689757E+03  0.13150995330E+03  0.00000000000E+00 0.  1.
         -1    1    6    6    0  502 -0.14037772444E+03  0.64062458713E+02  0.14953547716E+03  0.21487383057E+03  0.00000000000E+00 0.  1.
<mgrwt>
<rscale>  0 0.18997583E+04</rscale>
<asrwt>0</asrwt>
<pdfrwt beam="1">  1        4 0.21814469E+00 0.18997583E+04</pdfrwt>
<pdfrwt beam="2">  1       -4 0.97896086E-01 0.18997583E+04</pdfrwt>
<totfact> 0.16317229E-01</totfact>
</mgrwt>
</event>
<event>
12    1  0.1489025E-007  0.1451528E+04  0.7818608E-02  0.8917342E-01
         -1   -1    0    0    0  501 -0.00000000000E+00  0.00000000000E+00  0.56602761759E+03  0.56602761759E+03  0.00000000000E+00 0.  1.
          1   -1    0    0  501    0  0.00000000000E+00 -0.00000000000E+00 -0.93057873476E+03  0.93057873476E+03  0.00000000000E+00 0. -1.
         23    2    1    2    0    0 -0.25893654582E+02  0.21315294556E+03  0.27867540880E+03  0.36401150575E+03  0.93486540741E+02 0.  0.
        254    2    1    2    0    0  0.25893654582E+02 -0.21315294556E+03 -0.64322652597E+03  0.11325948466E+04  0.90715272324E+03 0.  0.
        -24    2    4    4    0    0  0.27677896449E+02 -0.56471045757E+03 -0.42123727851E+03  0.70943589376E+03  0.78704991670E+02 0.  0.
         24    2    4    4    0    0 -0.17842418666E+01  0.35155751200E+03 -0.22198924747E+03  0.42315895284E+03  0.78666419855E+02 0.  0.
         13    1    3    3    0    0  0.10689945458E+02  0.86838093347E+01 -0.29355273539E+01  0.14081931661E+02  0.00000000000E+00 0. -1.
        -13    1    3    3    0    0 -0.36583600040E+02  0.20446913623E+03  0.28161093616E+03  0.34992957409E+03  0.00000000000E+00 0.  1.
          2    1    6    6  502    0  0.10257004988E+02  0.89646161050E+02 -0.97735820041E+02  0.13301853578E+03  0.00000000000E+00 0. -1.
          1    1    5    5  503    0  0.15397728451E+02 -0.29492762020E+02 -0.11243821685E+02  0.35118892054E+02  0.00000000000E+00 0. -1.
         -2    1    5    5    0  503  0.12280167998E+02 -0.53521769555E+03 -0.40999345682E+03  0.67431700171E+03  0.00000000000E+00 0.  1.
         -1    1    6    6    0  502 -0.12041246855E+02  0.26191135095E+03 -0.12425342743E+03  0.29014041706E+03  0.00000000000E+00 0.  1.
<mgrwt>
<rscale>  0 0.14515278E+04</rscale>
<asrwt>0</asrwt>
<pdfrwt beam="1">  1        1 0.14316596E+00 0.14515278E+04</pdfrwt>
<pdfrwt beam="2">  1       -1 0.87081172E-01 0.14515278E+04</pdfrwt>
<totfact> 0.21677463E+01</totfact>
</mgrwt>
</event>
<event>
12    1  0.1489025E-007  0.1721573E+04  0.7818608E-02  0.8749155E-01
         -2   -1    0    0    0  501 -0.00000000000E+00  0.00000000000E+00  0.23548669658E+04  0.23548669658E+04  0.00000000000E+00 0.  1.
          2   -1    0    0  501    0  0.00000000000E+00 -0.00000000000E+00 -0.31464782178E+03  0.31464782178E+03  0.00000000000E+00 0. -1.
         23    2    1    2    0    0 -0.25730877751E+03 -0.45807749633E+03  0.12474924963E+04  0.13578156985E+04  0.10669181337E+03 0.  0.
        254    2    1    2    0    0  0.25730877751E+03  0.45807749633E+03  0.79272664769E+03  0.13116990891E+04  0.90338040863E+03 0.  0.
        -24    2    4    4    0    0  0.56359554451E+03  0.28214775850E+03  0.68445322302E+03  0.93380751768E+03  0.79202084328E+02 0.  0.
         24    2    4    4    0    0 -0.30628676700E+03  0.17592973783E+03  0.10827342467E+03  0.37789157140E+03  0.79473573917E+02 0.  0.
         13    1    3    3    0    0 -0.24181777817E+03 -0.43432986321E+03  0.12236442863E+04  0.13207662955E+04  0.00000000000E+00 0.  1.
        -13    1    3    3    0    0 -0.15490999343E+02 -0.23747633122E+02  0.23848209961E+02  0.37049402936E+02  0.00000000000E+00 0. -1.
          4    1    6    6  502    0 -0.33241367047E+02  0.51715343871E+02  0.26709151453E+02  0.67028680773E+02  0.00000000000E+00 0. -1.
          1    1    5    5  503    0  0.10548398646E+03  0.23132793182E+02  0.97752841824E+02  0.14566267746E+03  0.00000000000E+00 0. -1.
         -2    1    5    5    0  503  0.45811155805E+03  0.25901496532E+03  0.58670038120E+03  0.78814484022E+03  0.00000000000E+00 0.  1.
         -3    1    6    6    0  502 -0.27304539995E+03  0.12421439396E+03  0.81564273216E+02  0.31086289062E+03  0.00000000000E+00 0.  1.
<mgrwt>
<rscale>  0 0.17215734E+04</rscale>
<asrwt>0</asrwt>
<pdfrwt beam="1">  1        2 0.48407359E-01 0.17215734E+04</pdfrwt>
<pdfrwt beam="2">  1       -2 0.36228721E+00 0.17215734E+04</pdfrwt>
<totfact> 0.12923077E+00</totfact>
</mgrwt>
</event>
<event>
12    1  0.1489025E-007  0.2059653E+04  0.7818608E-02  0.8579228E-01
          1   -1    0    0  501    0  0.00000000000E+00  0.00000000000E+00  0.20961573632E+04  0.20961573632E+04  0.00000000000E+00 0. -1.
         -1   -1    0    0    0  501 -0.00000000000E+00 -0.00000000000E+00 -0.50594631044E+03  0.50594631044E+03  0.00000000000E+00 0.  1.
         23    2    1    2    0    0 -0.38193982886E+03  0.52523146422E+03 -0.82210772419E+01  0.65665476013E+03  0.96859506536E+02 0.  0.
        254    2    1    2    0    0  0.38193982886E+03 -0.52523146422E+03  0.15984321300E+04  0.19454489135E+04  0.89891049441E+03 0.  0.
        -24    2    4    4    0    0 -0.13457510457E+03 -0.54479999480E+03  0.65007903233E+03  0.86249597422E+03  0.79869043804E+02 0.  0.
         24    2    4    4    0    0  0.51651493343E+03  0.19568530581E+02  0.94835309765E+03  0.10829529393E+04  0.79011815565E+02 0.  0.
         13    1    3    3    0    0 -0.73114573057E+02  0.67670074682E+02 -0.30465273711E+02  0.10417827366E+03  0.00000000000E+00 0. -1.
        -13    1    3    3    0    0 -0.30882525580E+03  0.45756138954E+03  0.22244196469E+02  0.55247648646E+03  0.00000000000E+00 0.  1.
          2    1    6    6  502    0  0.49960377069E+03  0.33756461889E+02  0.91181160802E+03  0.10402614262E+04  0.00000000000E+00 0. -1.
          3    1    5    5  503    0 -0.10886728456E+03 -0.50953715550E+03  0.57750770653E+03  0.77781446990E+03  0.00000000000E+00 0. -1.
         -2    1    5    5    0  503 -0.25707820013E+02 -0.35262839307E+02  0.72571325796E+02  0.84681504319E+02  0.00000000000E+00 0.  1.
         -3    1    6    6    0  502  0.16911162747E+02 -0.14187931308E+02  0.36541489627E+02  0.42691513025E+02  0.00000000000E+00 0.  1.
<mgrwt>
<rscale>  0 0.20596535E+04</rscale>
<asrwt>0</asrwt>
<pdfrwt beam="1">  1        1 0.32248574E+00 0.20596535E+04</pdfrwt>
<pdfrwt beam="2">  1       -1 0.77837895E-01 0.20596535E+04</pdfrwt>
<totfact> 0.39119146E+00</totfact>
</mgrwt>
</event>
<event>
12    1  0.1489025E-007  0.2846577E+04  0.7818608E-02  0.8288952E-01
         -1   -1    0    0    0  501 -0.00000000000E+00  0.00000000000E+00  0.57764114938E+03  0.57764114938E+03  0.00000000000E+00 0.  1.
          1   -1    0    0  501    0  0.00000000000E+00 -0.00000000000E+00 -0.35069364044E+04  0.35069364044E+04  0.00000000000E+00 0. -1.
         23    2    1    2    0    0  0.52733941773E+03 -0.42584791442E+03 -0.28700040971E+04  0.29504063185E+04  0.92415470177E+02 0.  0.
        254    2    1    2    0    0 -0.52733941773E+03  0.42584791442E+03 -0.59291157865E+02  0.11341712352E+04  0.90741150626E+03 0.  0.
        -24    2    4    4    0    0  0.36658341465E+02  0.33932366319E+03 -0.34569296068E+03  0.49079544060E+03  0.69943970811E+02 0.  0.
         24    2    4    4    0    0 -0.56399775920E+03  0.86524251226E+02  0.28640180282E+03  0.64337579462E+03  0.79539311123E+02 0.  0.
         11    1    3    3    0    0  0.22122970516E+03 -0.20450604804E+03 -0.14537867048E+04  0.14846754154E+04  0.00000000000E+00 0. -1.
        -11    1    3    3    0    0  0.30610971258E+03 -0.22134186638E+03 -0.14162173924E+04  0.14657309031E+04  0.00000000000E+00 0.  1.
          4    1    6    6  502    0 -0.22616803492E+01  0.79856925051E+01  0.80274142928E+01  0.11546681905E+02  0.00000000000E+00 0. -1.
          3    1    5    5  503    0 -0.12964632016E+02  0.15600492066E+03 -0.13068915361E+03  0.20392467194E+03  0.00000000000E+00 0. -1.
         -4    1    5    5    0  503  0.49622973482E+02  0.18331874253E+03 -0.21500380707E+03  0.28687076867E+03  0.00000000000E+00 0.  1.
         -3    1    6    6    0  502 -0.56173607885E+03  0.78538558721E+02  0.27837438852E+03  0.63182911271E+03  0.00000000000E+00 0.  1.
<mgrwt>
<rscale>  0 0.28465774E+04</rscale>
<asrwt>0</asrwt>
<pdfrwt beam="1">  1        1 0.53952868E+00 0.28465774E+04</pdfrwt>
<pdfrwt beam="2">  1       -1 0.88867869E-01 0.28465774E+04</pdfrwt>
<totfact> 0.26418539E-01</totfact>
</mgrwt>
</event>
<event>
12    1  0.1496645E-007  0.2428201E+04  0.7818608E-02  0.8429020E-01
         -1   -1    0    0    0  501 -0.00000000000E+00  0.00000000000E+00  0.57595297799E+03  0.57595297799E+03  0.00000000000E+00 0.  1.
          1   -1    0    0  501    0  0.00000000000E+00 -0.00000000000E+00 -0.25593061777E+04  0.25593061777E+04  0.00000000000E+00 0. -1.
         23    2    1    2    0    0  0.70967571185E+02 -0.80402334719E+03 -0.17187181225E+04  0.19009665232E+04  0.90508555371E+02 0.  0.
        254    2    1    2    0    0 -0.70967571185E+02  0.80402334719E+03 -0.26463507724E+03  0.12342926326E+04  0.89552031785E+03 0.  0.
        -24    2    4    4    0    0  0.29800694548E+03  0.53631012336E+03 -0.41651700604E+03  0.74625302641E+03  0.83489371341E+02 0.  0.
         24    2    4    4    0    0 -0.36897451666E+03  0.26771322383E+03  0.15188192879E+03  0.48803960615E+03  0.85451581131E+02 0.  0.
         13    1    3    3    0    0  0.80034746553E+02 -0.75230916589E+03 -0.15596933707E+04  0.17334987893E+04  0.00000000000E+00 0. -1.
        -13    1    3    3    0    0 -0.90671753674E+01 -0.51714181305E+02 -0.15902475179E+03  0.16746773390E+03  0.00000000000E+00 0.  1.
          2    1    6    6  502    0 -0.27106162394E+03  0.23957600231E+03  0.12391343766E+03  0.38239456702E+03  0.00000000000E+00 0. -1.
          3    1    5    5  503    0  0.27255477373E+03  0.49444404657E+03 -0.40785858546E+03  0.69649813037E+03  0.00000000000E+00 0. -1.
         -4    1    5    5    0  503  0.25452171749E+02  0.41866076798E+02 -0.86584205741E+01  0.49754896041E+02  0.00000000000E+00 0.  1.
         -1    1    6    6    0  502 -0.97912892723E+02  0.28137221523E+02  0.27968491131E+02  0.10564503913E+03  0.00000000000E+00 0.  1.
<mgrwt>
<rscale>  0 0.24282010E+04</rscale>
<asrwt>0</asrwt>
<pdfrwt beam="1">  1        1 0.39373942E+00 0.24282010E+04</pdfrwt>
<pdfrwt beam="2">  1       -1 0.88608150E-01 0.24282010E+04</pdfrwt>
<totfact> 0.13764544E+00</totfact>
</mgrwt>
</event>
<event>
12    1  0.1489025E-007  0.1607006E+04  0.7818608E-02  0.8816255E-01
          2   -1    0    0  501    0  0.00000000000E+00  0.00000000000E+00  0.93611973948E+03  0.93611973948E+03  0.00000000000E+00 0. -1.
         -2   -1    0    0    0  501 -0.00000000000E+00 -0.00000000000E+00 -0.68967392310E+03  0.68967392310E+03  0.00000000000E+00 0.  1.
         23    2    1    2    0    0 -0.19943287666E+03  0.46032629438E+03  0.29703472570E+03  0.59000118527E+03  0.90542811743E+02 0.  0.
        254    2    1    2    0    0  0.19943287666E+03 -0.46032629438E+03 -0.50588909322E+02  0.10357924773E+04  0.90478342641E+03 0.  0.
        -24    2    4    4    0    0 -0.26486742347E+03  0.54541242901E+02  0.13840301997E+03  0.31251290406E+03  0.73344529956E+02 0.  0.
         24    2    4    4    0    0  0.46430030013E+03 -0.51486753728E+03 -0.18899192929E+03  0.72327957325E+03  0.82170810475E+02 0.  0.
         13    1    3    3    0    0 -0.20164428949E+03  0.39248467927E+03  0.24705762012E+03  0.50570951208E+03  0.00000000000E+00 0. -1.
        -13    1    3    3    0    0  0.22114128331E+01  0.67841615104E+02  0.49977105578E+02  0.84291673187E+02  0.00000000000E+00 0.  1.
          4    1    6    6  502    0  0.17508197261E+03 -0.23634962240E+03 -0.49824242952E+02  0.29832414640E+03  0.00000000000E+00 0. -1.
          3    1    5    5  503    0 -0.62212679127E+02 -0.17099146784E+02  0.41655514735E+02  0.76798308397E+02  0.00000000000E+00 0. -1.
         -4    1    5    5    0  503 -0.20265474435E+03  0.71640389685E+02  0.96747505230E+02  0.23571459566E+03  0.00000000000E+00 0.  1.
         -3    1    6    6    0  502  0.28921832753E+03 -0.27851791488E+03 -0.13916768634E+03  0.42495542684E+03  0.00000000000E+00 0.  1.
<mgrwt>
<rscale>  0 0.16070064E+04</rscale>
<asrwt>0</asrwt>
<pdfrwt beam="1">  1        2 0.14401842E+00 0.16070064E+04</pdfrwt>
<pdfrwt beam="2">  1       -2 0.10610368E+00 0.16070064E+04</pdfrwt>
<totfact> 0.19054233E+01</totfact>
</mgrwt>
</event>
<event>
12    1  0.1489025E-007  0.1901470E+04  0.7818608E-02  0.8654125E-01
          2   -1    0    0  501    0  0.00000000000E+00  0.00000000000E+00  0.24363247701E+04  0.24363247701E+04  0.00000000000E+00 0. -1.
         -2   -1    0    0    0  501 -0.00000000000E+00 -0.00000000000E+00 -0.37100853161E+03  0.37100853161E+03  0.00000000000E+00 0.  1.
         23    2    1    2    0    0 -0.52063929926E+03  0.50760567676E+03  0.92866715622E+03  0.11829561620E+04  0.90740240514E+02 0.  0.
        254    2    1    2    0    0  0.52063929926E+03 -0.50760567676E+03  0.11366490823E+04  0.16243771397E+04  0.90437887672E+03 0.  0.
        -24    2    4    4    0    0  0.60213899722E+03 -0.27364143038E+02  0.87505893387E+03  0.10655558370E+04  0.79755474148E+02 0.  0.
         24    2    4    4    0    0 -0.81499697955E+02 -0.48024153373E+03  0.26159014841E+03  0.55882130272E+03  0.81103089598E+02 0.  0.
         11    1    3    3    0    0 -0.42459102192E+02  0.22867460974E+02  0.95174703710E+02  0.10669545612E+03  0.00000000000E+00 0. -1.
        -11    1    3    3    0    0 -0.47818019707E+03  0.48473821579E+03  0.83349245251E+03  0.10762607059E+04  0.00000000000E+00 0.  1.
          2    1    6    6  502    0 -0.32115271935E+02 -0.26141564094E+03  0.18466779940E+03  0.32167021023E+03  0.00000000000E+00 0. -1.
          1    1    5    5  503    0  0.63079130428E+02  0.18695896854E+01  0.54763463822E+02  0.83555424904E+02  0.00000000000E+00 0. -1.
         -2    1    5    5    0  503  0.53905986679E+03 -0.29233732724E+02  0.82029547005E+03  0.98200041207E+03  0.00000000000E+00 0.  1.
         -1    1    6    6    0  502 -0.49384426020E+02 -0.21882589279E+03  0.76922349018E+02  0.23715109249E+03  0.00000000000E+00 0.  1.
<mgrwt>
<rscale>  0 0.19014702E+04</rscale>
<asrwt>0</asrwt>
<pdfrwt beam="1">  1        2 0.37481919E+00 0.19014702E+04</pdfrwt>
<pdfrwt beam="2">  1       -2 0.57078237E-01 0.19014702E+04</pdfrwt>
<totfact> 0.10215130E+01</totfact>
</mgrwt>
</event>
<event>
12    1  0.1489025E-007  0.3432344E+04  0.7818608E-02  0.8130013E-01
         -2   -1    0    0    0  501 -0.00000000000E+00  0.00000000000E+00  0.11428825679E+04  0.11428825679E+04  0.00000000000E+00 0.  1.
          2   -1    0    0  501    0  0.00000000000E+00 -0.00000000000E+00 -0.25770330993E+04  0.25770330993E+04  0.00000000000E+00 0. -1.
         23    2    1    2    0    0  0.54506669439E+03 -0.45837682722E+03  0.88261565293E+03  0.11372774698E+04  0.84750430113E+02 0.  0.
        254    2    1    2    0    0 -0.54506669439E+03  0.45837682722E+03 -0.23167661843E+04  0.25826381975E+04  0.89185620431E+03 0.  0.
        -24    2    4    4    0    0 -0.82005392516E+01  0.23138687771E+03 -0.62190416547E+02  0.25265452618E+03  0.79746634214E+02 0.  0.
         24    2    4    4    0    0 -0.53686615514E+03  0.22698994951E+03 -0.22545757678E+04  0.23299836713E+04  0.77215996763E+02 0.  0.
         11    1    3    3    0    0  0.33648714205E+03 -0.24951883659E+03  0.56937763907E+03  0.70687632755E+03  0.00000000000E+00 0.  1.
        -11    1    3    3    0    0  0.20857955234E+03 -0.20885799063E+03  0.31323801386E+03  0.43040114222E+03  0.00000000000E+00 0. -1.
          2    1    6    6  502    0 -0.16865059507E+03  0.10127889662E+03 -0.66545965693E+03  0.69392866573E+03  0.00000000000E+00 0. -1.
          1    1    5    5  503    0 -0.17537516089E+02  0.79183015883E+02  0.13818995322E+02  0.82270767024E+02  0.00000000000E+00 0. -1.
         -2    1    5    5    0  503  0.93369768373E+01  0.15220386182E+03 -0.76009411870E+02  0.17038375915E+03  0.00000000000E+00 0.  1.
         -1    1    6    6    0  502 -0.36821556006E+03  0.12571105289E+03 -0.15891161109E+04  0.16360550056E+04  0.00000000000E+00 0.  1.
<mgrwt>
<rscale>  0 0.34323439E+04</rscale>
<asrwt>0</asrwt>
<pdfrwt beam="1">  1        2 0.39646662E+00 0.34323439E+04</pdfrwt>
<pdfrwt beam="2">  1       -2 0.17582809E+00 0.34323439E+04</pdfrwt>
<totfact> 0.50274236E-01</totfact>
</mgrwt>
</event>
<event>
12    1  0.1489025E-007  0.1851500E+04  0.7818608E-02  0.8679382E-01
         -2   -1    0    0    0  501 -0.00000000000E+00  0.00000000000E+00  0.10854353826E+04  0.10854353826E+04  0.00000000000E+00 0.  1.
          2   -1    0    0  501    0  0.00000000000E+00 -0.00000000000E+00 -0.78955672675E+03  0.78955672675E+03  0.00000000000E+00 0. -1.
         23    2    1    2    0    0 -0.39229712250E+03 -0.16521542615E+03 -0.45393930779E+03  0.62899799487E+03  0.91566440559E+02 0.  0.
        254    2    1    2    0    0  0.39229712250E+03  0.16521542615E+03  0.74981796367E+03  0.12459941145E+04  0.89948940260E+03 0.  0.
        -24    2    4    4    0    0  0.48495464474E+03  0.46001778524E+03  0.47254671035E+03  0.82277757415E+03  0.82856338697E+02 0.  0.
         24    2    4    4    0    0 -0.92657522242E+02 -0.29480235909E+03  0.27727125332E+03  0.42321654036E+03  0.82091685103E+02 0.  0.
         13    1    3    3    0    0 -0.67845182496E+02 -0.25173460683E+02 -0.13403616619E+03  0.15232322790E+03  0.00000000000E+00 0. -1.
        -13    1    3    3    0    0 -0.32445194000E+03 -0.14004196547E+03 -0.31990314160E+03  0.47667476698E+03  0.00000000000E+00 0.  1.
          4    1    6    6  502    0 -0.10244248115E+03 -0.22533327257E+03  0.23498710929E+03  0.34130409784E+03  0.00000000000E+00 0. -1.
          3    1    5    5  503    0  0.28943922127E+03  0.31963866075E+03  0.27541834953E+03  0.51166317389E+03  0.00000000000E+00 0. -1.
         -4    1    5    5    0  503  0.19551542347E+03  0.14037912449E+03  0.19712836083E+03  0.31111440026E+03  0.00000000000E+00 0.  1.
         -3    1    6    6    0  502  0.97849589073E+01 -0.69469086522E+02  0.42284144029E+02  0.81912442518E+02  0.00000000000E+00 0.  1.
<mgrwt>
<rscale>  0 0.18514997E+04</rscale>
<asrwt>0</asrwt>
<pdfrwt beam="1">  1        2 0.12147027E+00 0.18514997E+04</pdfrwt>
<pdfrwt beam="2">  1       -2 0.16699006E+00 0.18514997E+04</pdfrwt>
<totfact> 0.73778401E+00</totfact>
</mgrwt>
</event>
<event>
12    1  0.1489025E-007  0.1251322E+04  0.7818608E-02  0.9069083E-01
         -2   -1    0    0    0  501 -0.00000000000E+00  0.00000000000E+00  0.26176923299E+03  0.26176923299E+03  0.00000000000E+00 0.  1.
          2   -1    0    0  501    0  0.00000000000E+00 -0.00000000000E+00 -0.14954081345E+04  0.14954081345E+04  0.00000000000E+00 0. -1.
         23    2    1    2    0    0  0.14726730969E+03  0.18944303025E+03 -0.53793078037E+03  0.59566608683E+03  0.88725646300E+02 0.  0.
        254    2    1    2    0    0 -0.14726730969E+03 -0.18944303025E+03 -0.69570812114E+03  0.11615112807E+04  0.89862246971E+03 0.  0.
        -24    2    4    4    0    0  0.21297324276E+03  0.89902564920E+02 -0.65232255862E+03  0.69672349631E+03  0.80366886926E+02 0.  0.
         24    2    4    4    0    0 -0.36024055245E+03 -0.27934559517E+03 -0.43385562519E+02  0.46478778435E+03  0.79612563579E+02 0.  0.
         11    1    3    3    0    0  0.10964964907E+03  0.81658894799E+02 -0.23412324018E+03  0.27111789360E+03  0.00000000000E+00 0. -1.
        -11    1    3    3    0    0  0.37617660620E+02  0.10778413545E+03 -0.30380754020E+03  0.32454819322E+03  0.00000000000E+00 0.  1.
          2    1    6    6  502    0 -0.35605045423E+03 -0.26004975462E+03 -0.50525057530E+02  0.44379114713E+03  0.00000000000E+00 0. -1.
          3    1    5    5  503    0  0.14379419404E+03  0.97820828758E+02 -0.43329754574E+03  0.46689661374E+03  0.00000000000E+00 0. -1.
         -4    1    5    5    0  503  0.69179048718E+02 -0.79182638383E+01 -0.21902501288E+03  0.22982688257E+03  0.00000000000E+00 0.  1.
         -1    1    6    6    0  502 -0.41900982208E+01 -0.19295840548E+02  0.71394950117E+01  0.20996637221E+02  0.00000000000E+00 0.  1.
<mgrwt>
<rscale>  0 0.12513222E+04</rscale>
<asrwt>0</asrwt>
<pdfrwt beam="1">  1        2 0.23006280E+00 0.12513222E+04</pdfrwt>
<pdfrwt beam="2">  1       -2 0.40272189E-01 0.12513222E+04</pdfrwt>
<totfact> 0.73255926E+01</totfact>
</mgrwt>
</event>
<event>
12    1  0.1489025E-007  0.1808499E+04  0.7818608E-02  0.8701793E-01
         -2   -1    0    0    0  501 -0.00000000000E+00  0.00000000000E+00  0.27148115807E+03  0.27148115807E+03  0.00000000000E+00 0.  1.
          2   -1    0    0  501    0  0.00000000000E+00 -0.00000000000E+00 -0.30118755475E+04  0.30118755475E+04  0.00000000000E+00 0. -1.
         23    2    1    2    0    0 -0.61081937888E+03 -0.94522579172E+02 -0.15550810617E+04  0.16761569325E+04  0.95865124413E+02 0.  0.
        254    2    1    2    0    0  0.61081937888E+03  0.94522579172E+02 -0.11853133277E+04  0.16071997731E+04  0.89223796953E+03 0.  0.
        -24    2    4    4    0    0 -0.14783735318E+03 -0.58182270366E+02 -0.62101003097E+03  0.64594574720E+03  0.79695609594E+02 0.  0.
         24    2    4    4    0    0  0.75865673206E+03  0.15270484954E+03 -0.56430329670E+03  0.96125402588E+03  0.81806377741E+02 0.  0.
         13    1    3    3    0    0 -0.20813468145E+03 -0.44971938098E+02 -0.42308627311E+03  0.47365020356E+03  0.00000000000E+00 0.  1.
        -13    1    3    3    0    0 -0.40268469743E+03 -0.49550641074E+02 -0.11319947886E+04  0.12025067289E+04  0.00000000000E+00 0. -1.
          4    1    6    6  502    0  0.76425782105E+02  0.99283888145E+01 -0.28758414357E+02  0.82258856490E+02  0.00000000000E+00 0. -1.
          3    1    5    5  503    0 -0.81617962804E+02 -0.63504724957E+02 -0.27912495063E+03  0.29766605451E+03  0.00000000000E+00 0. -1.
         -4    1    5    5    0  503 -0.66219390372E+02  0.53224545911E+01 -0.34188508034E+03  0.34827969269E+03  0.00000000000E+00 0.  1.
         -3    1    6    6    0  502  0.68223094996E+03  0.14277646072E+03 -0.53554488234E+03  0.87899516939E+03  0.00000000000E+00 0.  1.
<mgrwt>
<rscale>  0 0.18084993E+04</rscale>
<asrwt>0</asrwt>
<pdfrwt beam="1">  1        2 0.46336547E+00 0.18084993E+04</pdfrwt>
<pdfrwt beam="2">  1       -2 0.41766332E-01 0.18084993E+04</pdfrwt>
<totfact> 0.88050569E+00</totfact>
</mgrwt>
</event>
<event>
12    1  0.1489025E-007  0.2390979E+04  0.7818608E-02  0.8442889E-01
         -1   -1    0    0    0  501 -0.00000000000E+00  0.00000000000E+00  0.55973801543E+03  0.55973801543E+03  0.00000000000E+00 0.  1.
          1   -1    0    0  501    0  0.00000000000E+00 -0.00000000000E+00 -0.25533281613E+04  0.25533281613E+04  0.00000000000E+00 0. -1.
         23    2    1    2    0    0  0.28471780504E+03 -0.67220631176E+03  0.84106651660E+02  0.74034590252E+03  0.90069819874E+02 0.  0.
        254    2    1    2    0    0 -0.28471780504E+03  0.67220631176E+03 -0.20776967975E+04  0.23727202742E+04  0.88320550444E+03 0.  0.
        -24    2    4    4    0    0  0.10818469003E+03  0.27963370458E+03 -0.16173052372E+04  0.16469617539E+04  0.83113491860E+02 0.  0.
         24    2    4    4    0    0 -0.39290249507E+03  0.39257260718E+03 -0.46039156035E+03  0.72575852036E+03  0.79242781902E+02 0.  0.
         13    1    3    3    0    0  0.24072650005E+02 -0.17545578362E+02  0.11671909775E+02  0.31993331744E+02  0.00000000000E+00 0. -1.
        -13    1    3    3    0    0  0.26064515503E+03 -0.65466073340E+03  0.72434741885E+02  0.70835257078E+03  0.00000000000E+00 0.  1.
          4    1    6    6  502    0 -0.24176831578E+03  0.22659009427E+03 -0.22522690570E+03  0.40065215385E+03  0.00000000000E+00 0. -1.
          3    1    5    5  503    0  0.37112754829E+02  0.15497414156E+03 -0.66024701845E+03  0.67920576153E+03  0.00000000000E+00 0. -1.
         -4    1    5    5    0  503  0.71071935205E+02  0.12465956302E+03 -0.95705821874E+03  0.96775599233E+03  0.00000000000E+00 0.  1.
         -3    1    6    6    0  502 -0.15113417929E+03  0.16598251291E+03 -0.23516465465E+03  0.32510636650E+03  0.00000000000E+00 0.  1.
<mgrwt>
<rscale>  0 0.23909787E+04</rscale>
<asrwt>0</asrwt>
<pdfrwt beam="1">  1        1 0.39281972E+00 0.23909787E+04</pdfrwt>
<pdfrwt beam="2">  1       -1 0.86113541E-01 0.23909787E+04</pdfrwt>
<totfact> 0.14842455E+00</totfact>
</mgrwt>
</event>
<event>
12    1  0.1489025E-007  0.2603285E+04  0.7818608E-02  0.8367086E-01
         -2   -1    0    0    0  501 -0.00000000000E+00  0.00000000000E+00  0.87079729330E+03  0.87079729330E+03  0.00000000000E+00 0.  1.
          2   -1    0    0  501    0  0.00000000000E+00 -0.00000000000E+00 -0.19456580060E+04  0.19456580060E+04  0.00000000000E+00 0. -1.
         23    2    1    2    0    0  0.37183221817E+03 -0.78473022746E+03  0.32958697230E+03  0.93320578490E+03  0.90469532461E+02 0.  0.
        254    2    1    2    0    0 -0.37183221817E+03  0.78473022746E+03 -0.14044476850E+04  0.18832495144E+04  0.90559080451E+03 0.  0.
        -24    2    4    4    0    0 -0.28744473405E+03  0.42791761315E+03 -0.14147385809E+04  0.15078384386E+04  0.79709132695E+02 0.  0.
         24    2    4    4    0    0 -0.84387484125E+02  0.35681261431E+03  0.10290895936E+02  0.37541107577E+03  0.79944256001E+02 0.  0.
         11    1    3    3    0    0  0.91866615150E+02 -0.28444361403E+03  0.93389686667E+02  0.31316014772E+03  0.00000000000E+00 0. -1.
        -11    1    3    3    0    0  0.27996560302E+03 -0.50028661343E+03  0.23619728563E+03  0.62004563719E+03  0.00000000000E+00 0.  1.
          2    1    6    6  502    0 -0.47954578643E+02  0.23431133969E+03 -0.30846829871E+02  0.24114927417E+03  0.00000000000E+00 0. -1.
          3    1    5    5  503    0 -0.17250750864E+03  0.31892839225E+03 -0.94973573120E+03  0.10165983076E+04  0.00000000000E+00 0. -1.
         -4    1    5    5    0  503 -0.11493722541E+03  0.10898922090E+03 -0.46500284972E+03  0.49124013100E+03  0.00000000000E+00 0.  1.
         -1    1    6    6    0  502 -0.36432905482E+02  0.12250127462E+03  0.41137725806E+02  0.13426180160E+03  0.00000000000E+00 0.  1.
<mgrwt>
<rscale>  0 0.26032854E+04</rscale>
<asrwt>0</asrwt>
<pdfrwt beam="1">  1        2 0.29933200E+00 0.26032854E+04</pdfrwt>
<pdfrwt beam="2">  1       -2 0.13396882E+00 0.26032854E+04</pdfrwt>
<totfact> 0.25485147E+00</totfact>
</mgrwt>
</event>
<event>
12    1  0.1489025E-007  0.1761377E+04  0.7818608E-02  0.8727113E-01
         -2   -1    0    0    0  501 -0.00000000000E+00  0.00000000000E+00  0.34357076464E+03  0.34357076464E+03  0.00000000000E+00 0.  1.
          2   -1    0    0  501    0  0.00000000000E+00 -0.00000000000E+00 -0.22575043633E+04  0.22575043633E+04  0.00000000000E+00 0. -1.
         23    2    1    2    0    0  0.44121241225E+03  0.79324653806E+02 -0.13772282816E+04  0.14511348219E+04  0.89853984269E+02 0.  0.
        254    2    1    2    0    0 -0.44121241225E+03 -0.79324653806E+02 -0.53670531706E+03  0.11499403060E+04  0.91287968346E+03 0.  0.
        -24    2    4    4    0    0 -0.22378769095E+03  0.11238462550E+03 -0.74144144637E+03  0.78596426022E+03  0.72754142652E+02 0.  0.
         24    2    4    4    0    0 -0.21742472131E+03 -0.19170927931E+03  0.20473612931E+03  0.36397604574E+03  0.80843812490E+02 0.  0.
         11    1    3    3    0    0  0.27295104912E+03  0.80987376930E+02 -0.95749459270E+03  0.99892798814E+03  0.00000000000E+00 0. -1.
        -11    1    3    3    0    0  0.16826136314E+03 -0.16627231242E+01 -0.41973368886E+03  0.45220683381E+03  0.00000000000E+00 0.  1.
          4    1    6    6  502    0 -0.29506405231E+02 -0.17544955336E+02 -0.25306583002E+01  0.34421761123E+02  0.00000000000E+00 0. -1.
          1    1    5    5  503    0 -0.29224712008E+02  0.36192620200E+02 -0.20622330020E+03  0.21140491739E+03  0.00000000000E+00 0. -1.
         -2    1    5    5    0  503 -0.19456297894E+03  0.76192005305E+02 -0.53521814617E+03  0.57455934283E+03  0.00000000000E+00 0.  1.
         -3    1    6    6    0  502 -0.18791831608E+03 -0.17416432397E+03  0.20726678761E+03  0.32955428462E+03  0.00000000000E+00 0.  1.
<mgrwt>
<rscale>  0 0.17613773E+04</rscale>
<asrwt>0</asrwt>
<pdfrwt beam="1">  1        2 0.34730837E+00 0.17613773E+04</pdfrwt>
<pdfrwt beam="2">  1       -2 0.52857040E-01 0.17613773E+04</pdfrwt>
<totfact> 0.15328174E+01</totfact>
</mgrwt>
</event>
<event>
12    1  0.1489025E-007  0.1637572E+04  0.7818608E-02  0.8797793E-01
         -1   -1    0    0    0  501 -0.00000000000E+00  0.00000000000E+00  0.64110437681E+03  0.64110437681E+03  0.00000000000E+00 0. -1.
          1   -1    0    0  501    0  0.00000000000E+00 -0.00000000000E+00 -0.10457118179E+04  0.10457118179E+04  0.00000000000E+00 0.  1.
         23    2    1    2    0    0  0.34337165351E+03 -0.20698468422E+03 -0.55263417894E+03  0.68927551763E+03  0.94601540890E+02 0.  0.
        254    2    1    2    0    0 -0.34337165351E+03  0.20698468422E+03  0.14802673782E+03  0.99754067710E+03  0.90134828753E+03 0.  0.
        -24    2    4    4    0    0 -0.24333253446E+03  0.53681115134E+03  0.22489340568E+03  0.63536499778E+03  0.75727814964E+02 0.  0.
         24    2    4    4    0    0 -0.10003911905E+03 -0.32982646711E+03 -0.76866667862E+02  0.36217567932E+03  0.80432669451E+02 0.  0.
         13    1    3    3    0    0  0.17857026720E+02 -0.41359213165E+02 -0.42946393148E+02  0.62240265113E+02  0.00000000000E+00 0. -1.
        -13    1    3    3    0    0  0.32551462679E+03 -0.16562547106E+03 -0.50968778579E+03  0.62703525252E+03  0.00000000000E+00 0.  1.
          4    1    6    6  502    0 -0.63241519809E+02 -0.24853016680E+03 -0.21933861563E+02  0.25738653407E+03  0.00000000000E+00 0. -1.
          1    1    5    5  503    0 -0.17787901276E+03  0.38164797422E+03  0.12354247781E+03  0.43881529511E+03  0.00000000000E+00 0. -1.
         -2    1    5    5    0  503 -0.65453521701E+02  0.15516317712E+03  0.10135092787E+03  0.19654970267E+03  0.00000000000E+00 0.  1.
         -3    1    6    6    0  502 -0.36797599244E+02 -0.81296300310E+02 -0.54932806299E+02  0.10478914525E+03  0.00000000000E+00 0.  1.
<mgrwt>
<rscale>  0 0.16375719E+04</rscale>
<asrwt>0</asrwt>
<pdfrwt beam="1">  1        1 0.16087874E+00 0.16375719E+04</pdfrwt>
<pdfrwt beam="2">  1       -1 0.98631444E-01 0.16375719E+04</pdfrwt>
<totfact> 0.13122799E+01</totfact>
</mgrwt>
</event>
<event>
12    1  0.1489025E-007  0.1422857E+04  0.7818608E-02  0.8937437E-01
          2   -1    0    0  501    0  0.00000000000E+00  0.00000000000E+00  0.53296315067E+03  0.53296315067E+03  0.00000000000E+00 0. -1.
         -2   -1    0    0    0  501 -0.00000000000E+00 -0.00000000000E+00 -0.94965442253E+03  0.94965442253E+03  0.00000000000E+00 0.  1.
         23    2    1    2    0    0 -0.24387678384E+03  0.85321701415E+02 -0.48230364091E+03  0.55464793711E+03  0.90894739540E+02 0.  0.
        254    2    1    2    0    0  0.24387678384E+03 -0.85321701415E+02  0.65612369052E+02  0.92796963610E+03  0.88885712245E+03 0.  0.
        -24    2    4    4    0    0  0.89747203253E+02  0.32668571762E+03 -0.20584076954E+03  0.40497806282E+03  0.82817210587E+02 0.  0.
         24    2    4    4    0    0  0.15412958058E+03 -0.41200741904E+03  0.27145313860E+03  0.52299157328E+03  0.79544568076E+02 0.  0.
         13    1    3    3    0    0 -0.25182560383E+02  0.15770167037E+02 -0.13599641933E+03  0.13920447402E+03  0.00000000000E+00 0. -1.
        -13    1    3    3    0    0 -0.21869422345E+03  0.69551534379E+02 -0.34630722158E+03  0.41544346309E+03  0.00000000000E+00 0.  1.
          4    1    6    6  502    0  0.70545833955E+02 -0.93508763028E+02  0.59393429092E+02  0.13133233749E+03  0.00000000000E+00 0. -1.
          3    1    5    5  503    0  0.73633253255E+02  0.11584567509E+03 -0.77911475318E+02  0.15783622654E+03  0.00000000000E+00 0. -1.
         -2    1    5    5    0  503  0.16113949998E+02  0.21084004253E+03 -0.12792929423E+03  0.24714183628E+03  0.00000000000E+00 0.  1.
         -3    1    6    6    0  502  0.83583746628E+02 -0.31849865601E+03  0.21205970951E+03  0.39165923579E+03  0.00000000000E+00 0.  1.
<mgrwt>
<rscale>  0 0.14228574E+04</rscale>
<asrwt>0</asrwt>
<pdfrwt beam="1">  1        2 0.81994331E-01 0.14228574E+04</pdfrwt>
<pdfrwt beam="2">  1       -2 0.14610068E+00 0.14228574E+04</pdfrwt>
<totfact> 0.17821318E+01</totfact>
</mgrwt>
</event>
<event>
12    1  0.1489025E-007  0.1645269E+04  0.7818608E-02  0.8793210E-01
         -1   -1    0    0    0  501 -0.00000000000E+00  0.00000000000E+00  0.84019158141E+03  0.84019158141E+03  0.00000000000E+00 0.  1.
          1   -1    0    0  501    0  0.00000000000E+00 -0.00000000000E+00 -0.80544459179E+03  0.80544459179E+03  0.00000000000E+00 0. -1.
         23    2    1    2    0    0  0.57069616433E+03 -0.24186711877E+02  0.95937621443E+02  0.58601618296E+03  0.89060824520E+02 0.  0.
        254    2    1    2    0    0 -0.57069616433E+03  0.24186711877E+02 -0.61190631827E+02  0.10596199902E+04  0.89037695460E+03 0.  0.
        -24    2    4    4    0    0 -0.48051232588E+03 -0.28416559394E+03 -0.31193666042E+03  0.64432246895E+03  0.78770449953E+02 0.  0.
         24    2    4    4    0    0 -0.90183838455E+02  0.30835230582E+03  0.25074602859E+03  0.41529752129E+03  0.79901133389E+02 0.  0.
         11    1    3    3    0    0  0.55411447596E+03 -0.19128527537E+02  0.10804102726E+03  0.56487309779E+03  0.00000000000E+00 0.  1.
        -11    1    3    3    0    0  0.16581688376E+02 -0.50581843403E+01 -0.12103405817E+02  0.21143085172E+02  0.00000000000E+00 0. -1.
          4    1    6    6  502    0 -0.28741460549E+02  0.51629588904E+02  0.85281245122E+02  0.10375247840E+03  0.00000000000E+00 0. -1.
          3    1    5    5  503    0 -0.11709810390E+03 -0.60800246847E+02 -0.11268003739E+03  0.17350915474E+03  0.00000000000E+00 0. -1.
         -4    1    5    5    0  503 -0.36341422198E+03 -0.22336534709E+03 -0.19925662303E+03  0.47081331421E+03  0.00000000000E+00 0.  1.
         -3    1    6    6    0  502 -0.61442377906E+02  0.25672271691E+03  0.16546478347E+03  0.31154504289E+03  0.00000000000E+00 0.  1.
<mgrwt>
<rscale>  0 0.16452693E+04</rscale>
<asrwt>0</asrwt>
<pdfrwt beam="1">  1        1 0.12391455E+00 0.16452693E+04</pdfrwt>
<pdfrwt beam="2">  1       -1 0.12926024E+00 0.16452693E+04</pdfrwt>
<totfact> 0.10758609E+01</totfact>
</mgrwt>
</event>
<event>
12    1  0.1489025E-007  0.1599451E+04  0.7818608E-02  0.8820885E-01
         -2   -1    0    0    0  501 -0.00000000000E+00  0.00000000000E+00  0.31377284050E+03  0.31377284050E+03  0.00000000000E+00 0.  1.
          2   -1    0    0  501    0  0.00000000000E+00 -0.00000000000E+00 -0.20382932647E+04  0.20382932647E+04  0.00000000000E+00 0. -1.
         23    2    1    2    0    0  0.47148364069E+03  0.38661186784E+02 -0.20982523541E+03  0.52544759252E+03  0.90978196650E+02 0.  0.
        254    2    1    2    0    0 -0.47148364069E+03 -0.38661186784E+02 -0.15146951888E+04  0.18266185127E+04  0.90467793446E+03 0.  0.
        -24    2    4    4    0    0 -0.65921097837E+03 -0.26573276716E+03 -0.10855461662E+04  0.12999265596E+04  0.78902241775E+02 0.  0.
         24    2    4    4    0    0  0.18772733768E+03  0.22707158038E+03 -0.42914902258E+03  0.52669195310E+03  0.80202705411E+02 0.  0.
         13    1    3    3    0    0  0.43083634816E+03  0.61339272114E+02 -0.19046081583E+03  0.47503451197E+03  0.00000000000E+00 0.  1.
        -13    1    3    3    0    0  0.40647292533E+02 -0.22678085331E+02 -0.19364419583E+02  0.50413080548E+02  0.00000000000E+00 0. -1.
          4    1    6    6  502    0  0.53726812829E+02  0.35763754427E+02 -0.14606237240E+03  0.15968667189E+03  0.00000000000E+00 0. -1.
          1    1    5    5  503    0 -0.25103295250E+02 -0.68183247568E+01 -0.72844901292E+02  0.77350143046E+02  0.00000000000E+00 0. -1.
         -2    1    5    5    0  503 -0.63410768312E+03 -0.25891444240E+03 -0.10127012649E+04  0.12225764165E+04  0.00000000000E+00 0.  1.
         -3    1    6    6    0  502  0.13400052485E+03  0.19130782595E+03 -0.28308665018E+03  0.36700528121E+03  0.00000000000E+00 0.  1.
<mgrwt>
<rscale>  0 0.15994512E+04</rscale>
<asrwt>0</asrwt>
<pdfrwt beam="1">  1        2 0.31358357E+00 0.15994512E+04</pdfrwt>
<pdfrwt beam="2">  1       -2 0.48272746E-01 0.15994512E+04</pdfrwt>
<totfact> 0.24804801E+01</totfact>
</mgrwt>
</event>
<event>
12    1  0.1489025E-007  0.1538636E+04  0.7818608E-02  0.8859159E-01
          2   -1    0    0  501    0  0.00000000000E+00  0.00000000000E+00  0.12761740625E+04  0.12761740625E+04  0.00000000000E+00 0. -1.
         -2   -1    0    0    0  501 -0.00000000000E+00 -0.00000000000E+00 -0.46376899433E+03  0.46376899433E+03  0.00000000000E+00 0.  1.
         23    2    1    2    0    0 -0.13804347935E+03  0.45355327042E+03  0.21619918402E+03  0.52871946663E+03  0.89641597046E+02 0.  0.
        254    2    1    2    0    0  0.13804347935E+03 -0.45355327042E+03  0.59620588412E+03  0.12112235902E+04  0.94171893779E+03 0.  0.
        -24    2    4    4    0    0 -0.20902784320E+03  0.67551774329E+02 -0.11569434748E+03  0.25970389450E+03  0.76190874338E+02 0.  0.
         24    2    4    4    0    0  0.34707132255E+03 -0.52110504475E+03  0.71190023160E+03  0.95151969566E+03  0.81109930721E+02 0.  0.
         11    1    3    3    0    0 -0.53115696624E+01  0.72298639048E+02  0.65836944942E+02  0.97927571704E+02  0.00000000000E+00 0. -1.
        -11    1    3    3    0    0 -0.13273190969E+03  0.38125463137E+03  0.15036223908E+03  0.43079189493E+03  0.00000000000E+00 0.  1.
          2    1    6    6  502    0  0.26246805993E+03 -0.34298844492E+03  0.52512334680E+03  0.67991549857E+03  0.00000000000E+00 0. -1.
          1    1    5    5  503    0 -0.13754081351E+03  0.14998605373E+02 -0.42654733534E+02  0.14478211159E+03  0.00000000000E+00 0. -1.
         -2    1    5    5    0  503 -0.71487029687E+02  0.52553168956E+02 -0.73039613951E+02  0.11492178291E+03  0.00000000000E+00 0.  1.
         -1    1    6    6    0  502  0.84603262620E+02 -0.17811659983E+03  0.18677688480E+03  0.27160419709E+03  0.00000000000E+00 0.  1.
<mgrwt>
<rscale>  0 0.15386357E+04</rscale>
<asrwt>0</asrwt>
<pdfrwt beam="1">  1        2 0.19633447E+00 0.15386357E+04</pdfrwt>
<pdfrwt beam="2">  1       -2 0.71349077E-01 0.15386357E+04</pdfrwt>
<totfact> 0.29321078E+01</totfact>
</mgrwt>
</event>
<event>
12    1  0.1489025E-007  0.1426115E+04  0.7818608E-02  0.8935129E-01
          1   -1    0    0  501    0  0.00000000000E+00  0.00000000000E+00  0.11582338604E+04  0.11582338604E+04  0.00000000000E+00 0. -1.
         -1   -1    0    0    0  501 -0.00000000000E+00 -0.00000000000E+00 -0.43898824879E+03  0.43898824879E+03  0.00000000000E+00 0.  1.
         23    2    1    2    0    0 -0.15009631492E+03  0.27507988337E+03  0.53991622315E+03  0.62983280159E+03  0.83558266834E+02 0.  0.
        254    2    1    2    0    0  0.15009631492E+03 -0.27507988337E+03  0.17932938847E+03  0.96738930762E+03  0.89748827120E+03 0.  0.
        -24    2    4    4    0    0  0.15552629896E+03 -0.54460092607E+03  0.31930441724E+03  0.65497396586E+03  0.79101117243E+02 0.  0.
         24    2    4    4    0    0 -0.54299840374E+01  0.26952104270E+03 -0.13997502876E+03  0.31241534175E+03  0.73070239501E+02 0.  0.
         13    1    3    3    0    0 -0.17510174461E+02  0.58075654226E+02  0.17365037666E+03  0.18393977584E+03  0.00000000000E+00 0.  1.
        -13    1    3    3    0    0 -0.13258614046E+03  0.21700422914E+03  0.36626584649E+03  0.44589302575E+03  0.00000000000E+00 0. -1.
          4    1    6    6  502    0  0.15727612748E+02  0.90109159346E+02 -0.14872696199E+02  0.92672625370E+02  0.00000000000E+00 0. -1.
          3    1    5    5  503    0  0.70448195001E+02 -0.24838131277E+03  0.10070171391E+03  0.27712282456E+03  0.00000000000E+00 0. -1.
         -4    1    5    5    0  503  0.85078103954E+02 -0.29621961330E+03  0.21860270333E+03  0.37785114130E+03  0.00000000000E+00 0.  1.
         -3    1    6    6    0  502 -0.21157596785E+02  0.17941188336E+03 -0.12510233257E+03  0.21974271638E+03  0.00000000000E+00 0.  1.
<mgrwt>
<rscale>  0 0.14261151E+04</rscale>
<asrwt>0</asrwt>
<pdfrwt beam="1">  1        1 0.17818982E+00 0.14261151E+04</pdfrwt>
<pdfrwt beam="2">  1       -1 0.67536654E-01 0.14261151E+04</pdfrwt>
<totfact> 0.24782232E+01</totfact>
</mgrwt>
</event>
<event>
12    1  0.1489025E-007  0.1914622E+04  0.7818608E-02  0.8647612E-01
          2   -1    0    0  501    0  0.00000000000E+00  0.00000000000E+00  0.14120725076E+04  0.14120725076E+04  0.00000000000E+00 0. -1.
         -2   -1    0    0    0  501 -0.00000000000E+00 -0.00000000000E+00 -0.64900626639E+03  0.64900626639E+03  0.00000000000E+00 0.  1.
         23    2    1    2    0    0  0.72264072336E+03 -0.41341397039E+02  0.15353009424E+03  0.74555321092E+03  0.91429613978E+02 0.  0.
        254    2    1    2    0    0 -0.72264072336E+03  0.41341397039E+02  0.60953614696E+03  0.13155255631E+04  0.91386786048E+03 0.  0.
        -24    2    4    4    0    0 -0.86451403639E+03  0.19443347487E+03  0.31040157277E+03  0.94215057000E+03  0.78164345514E+02 0.  0.
         24    2    4    4    0    0  0.14187331303E+03 -0.15309207783E+03  0.29913457419E+03  0.37337499305E+03  0.79763216579E+02 0.  0.
         13    1    3    3    0    0  0.23503628257E+03 -0.38555406329E+02  0.86288112649E+02  0.25332629526E+03  0.00000000000E+00 0. -1.
        -13    1    3    3    0    0  0.48760444079E+03 -0.27859907099E+01  0.67241981587E+02  0.49222691567E+03  0.00000000000E+00 0.  1.
          2    1    6    6  502    0  0.57274331873E+00  0.22114082033E+01  0.39046992665E+02  0.39113757137E+02  0.00000000000E+00 0. -1.
          1    1    5    5  503    0 -0.28845665774E+03  0.54841962633E+02  0.14078073694E+03  0.32562877661E+03  0.00000000000E+00 0. -1.
         -2    1    5    5    0  503 -0.57605737864E+03  0.13959151223E+03  0.16962083584E+03  0.61652179339E+03  0.00000000000E+00 0.  1.
         -1    1    6    6    0  502  0.14130056971E+03 -0.15530348603E+03  0.26008758153E+03  0.33426123592E+03  0.00000000000E+00 0.  1.
<mgrwt>
<rscale>  0 0.19146215E+04</rscale>
<asrwt>0</asrwt>
<pdfrwt beam="1">  1        2 0.21724192E+00 0.19146215E+04</pdfrwt>
<pdfrwt beam="2">  1       -2 0.99847118E-01 0.19146215E+04</pdfrwt>
<totfact> 0.11046506E+01</totfact>
</mgrwt>
</event>
<event>
12    1  0.1489025E-007  0.1854057E+04  0.7818608E-02  0.8678070E-01
          2   -1    0    0  501    0  0.00000000000E+00  0.00000000000E+00  0.14605853649E+04  0.14605853649E+04  0.00000000000E+00 0. -1.
         -2   -1    0    0    0  501 -0.00000000000E+00 -0.00000000000E+00 -0.58838149201E+03  0.58838149201E+03  0.00000000000E+00 0.  1.
         23    2    1    2    0    0  0.40691167310E+03 -0.27184361463E+03  0.89010259301E+03  0.10195155893E+04  0.87483428444E+02 0.  0.
        254    2    1    2    0    0 -0.40691167310E+03  0.27184361463E+03 -0.17898720099E+02  0.10294512676E+04  0.90552387473E+03 0.  0.
        -24    2    4    4    0    0 -0.22360830696E+03  0.12268190267E+03 -0.45327540453E+03  0.52697149609E+03  0.84787034111E+02 0.  0.
         24    2    4    4    0    0 -0.18330336614E+03  0.14916171195E+03  0.43537668443E+03  0.50247977153E+03  0.84164856703E+02 0.  0.
         11    1    3    3    0    0  0.23457523422E+03 -0.19974682493E+03  0.59975297308E+03  0.67426104981E+03  0.00000000000E+00 0. -1.
        -11    1    3    3    0    0  0.17233643889E+03 -0.72096789691E+02  0.29034961993E+03  0.34525453950E+03  0.00000000000E+00 0.  1.
          2    1    6    6  502    0 -0.82513127506E+02  0.11874876866E+03  0.22972069314E+03  0.27144296477E+03  0.00000000000E+00 0. -1.
          3    1    5    5  503    0  0.47199214060E-01  0.14102792451E+02 -0.61749727248E+01  0.15395495148E+02  0.00000000000E+00 0. -1.
         -4    1    5    5    0  503 -0.22365550618E+03  0.10857911022E+03 -0.44710043180E+03  0.51157600094E+03  0.00000000000E+00 0.  1.
         -1    1    6    6    0  502 -0.10079023863E+03  0.30412943293E+02  0.20565599129E+03  0.23103680676E+03  0.00000000000E+00 0.  1.
<mgrwt>
<rscale>  0 0.18540565E+04</rscale>
<asrwt>0</asrwt>
<pdfrwt beam="1">  1        2 0.22470544E+00 0.18540565E+04</pdfrwt>
<pdfrwt beam="2">  1       -2 0.90520230E-01 0.18540565E+04</pdfrwt>
<totfact> 0.13100734E+01</totfact>
</mgrwt>
</event>
<event>
12    1  0.1489025E-007  0.1684323E+04  0.7818608E-02  0.8770356E-01
         -2   -1    0    0    0  501 -0.00000000000E+00  0.00000000000E+00  0.22316813110E+04  0.22316813110E+04  0.00000000000E+00 0. -1.
          2   -1    0    0  501    0  0.00000000000E+00 -0.00000000000E+00 -0.31780342952E+03  0.31780342952E+03  0.00000000000E+00 0.  1.
         23    2    1    2    0    0 -0.50166772260E+03 -0.88390602396E+02  0.11483927263E+04  0.12595143969E+04  0.89929193490E+02 0.  0.
        254    2    1    2    0    0  0.50166772260E+03  0.88390602396E+02  0.76548515519E+03  0.12899703436E+04  0.90474999972E+03 0.  0.
        -24    2    4    4    0    0  0.38706125445E+03 -0.29777400708E+03  0.95319937794E+02  0.50362741944E+03  0.77903228949E+02 0.  0.
         24    2    4    4    0    0  0.11460646815E+03  0.38616460948E+03  0.67016521740E+03  0.78634292413E+03  0.83402803095E+02 0.  0.
         13    1    3    3    0    0 -0.33055571201E+03 -0.96343345350E+02  0.81322414502E+03  0.88310963588E+03  0.00000000000E+00 0. -1.
        -13    1    3    3    0    0 -0.17111201058E+03  0.79527429538E+01  0.33516858124E+03  0.37640476104E+03  0.00000000000E+00 0.  1.
          4    1    6    6  502    0  0.69509700653E+01  0.93081363080E+01  0.60218176601E+02  0.61328510332E+02  0.00000000000E+00 0. -1.
          1    1    5    5  503    0  0.12403297093E+03 -0.89789408878E+02 -0.62794796852E+01  0.15325060420E+03  0.00000000000E+00 0. -1.
         -2    1    5    5    0  503  0.26302828352E+03 -0.20798459821E+03  0.10159941748E+03  0.35037681524E+03  0.00000000000E+00 0.  1.
         -3    1    6    6    0  502  0.10765549808E+03  0.37685647317E+03  0.60994704080E+03  0.72501441380E+03  0.00000000000E+00 0.  1.
<mgrwt>
<rscale>  0 0.16843230E+04</rscale>
<asrwt>0</asrwt>
<pdfrwt beam="1">  1        2 0.48892837E-01 0.16843230E+04</pdfrwt>
<pdfrwt beam="2">  1       -2 0.34333558E+00 0.16843230E+04</pdfrwt>
<totfact> 0.16882112E+00</totfact>
</mgrwt>
</event>
<event>
12    1  0.1489025E-007  0.1869231E+04  0.7818608E-02  0.8670325E-01
          2   -1    0    0  501    0  0.00000000000E+00  0.00000000000E+00  0.18023445977E+04  0.18023445977E+04  0.00000000000E+00 0. -1.
         -2   -1    0    0    0  501 -0.00000000000E+00 -0.00000000000E+00 -0.48465001517E+03  0.48465001517E+03  0.00000000000E+00 0.  1.
         23    2    1    2    0    0 -0.33871694601E+03 -0.40501742066E+03  0.11103203922E+04  0.12327216838E+04  0.89571735966E+02 0.  0.
        254    2    1    2    0    0  0.33871694601E+03  0.40501742066E+03  0.20737419035E+03  0.10542729291E+04  0.88866139423E+03 0.  0.
        -24    2    4    4    0    0  0.18775414382E+03  0.21647253975E+03  0.55237301624E+03  0.62728637402E+03  0.79121848922E+02 0.  0.
         24    2    4    4    0    0  0.15096280219E+03  0.18854488091E+03 -0.34499882590E+03  0.42698655504E+03  0.70387417588E+02 0.  0.
         11    1    3    3    0    0 -0.28058087189E+03 -0.37796051711E+03  0.99637190285E+03  0.11019694855E+04  0.00000000000E+00 0. -1.
        -11    1    3    3    0    0 -0.58136074129E+02 -0.27056903553E+02  0.11394848938E+03  0.13075219836E+03  0.00000000000E+00 0.  1.
          4    1    6    6  502    0  0.46332937961E+02  0.30026869520E+02 -0.12300506845E+03  0.13482804196E+03  0.00000000000E+00 0. -1.
          3    1    5    5  503    0  0.31755344513E+02  0.43284390338E+01  0.84928543878E+02  0.90774417403E+02  0.00000000000E+00 0. -1.
         -4    1    5    5    0  503  0.15599879931E+03  0.21214410072E+03  0.46744447236E+03  0.53651195662E+03  0.00000000000E+00 0.  1.
         -3    1    6    6    0  502  0.10462986423E+03  0.15851801139E+03 -0.22199375745E+03  0.29215851309E+03  0.00000000000E+00 0.  1.
<mgrwt>
<rscale>  0 0.18692312E+04</rscale>
<asrwt>0</asrwt>
<pdfrwt beam="1">  1        2 0.27728378E+00 0.18692312E+04</pdfrwt>
<pdfrwt beam="2">  1       -2 0.74561542E-01 0.18692312E+04</pdfrwt>
<totfact> 0.13065020E+01</totfact>
</mgrwt>
</event>
<event>
12    1  0.1489025E-007  0.1190885E+04  0.7818608E-02  0.9120872E-01
          4   -1    0    0  501    0  0.00000000000E+00  0.00000000000E+00  0.19113556717E+04  0.19113556717E+04  0.00000000000E+00 0. -1.
         -4   -1    0    0    0  501 -0.00000000000E+00 -0.00000000000E+00 -0.18549769271E+03  0.18549769271E+03  0.00000000000E+00 0.  1.
         23    2    1    2    0    0  0.63955498401E+02  0.34440848299E+02 -0.41591947879E+02  0.12488224001E+03  0.92677968984E+02 0.  0.
        254    2    1    2    0    0 -0.63955498401E+02 -0.34440848299E+02  0.17674499269E+04  0.19719711244E+04  0.87150122986E+03 0.  0.
        -24    2    4    4    0    0 -0.31785764581E+03  0.17345236067E+03  0.14880898459E+04  0.15336165574E+04  0.80306607569E+02 0.  0.
         24    2    4    4    0    0  0.25390214741E+03 -0.20789320897E+03  0.27936008099E+03  0.43835456702E+03  0.80167230060E+02 0.  0.
         11    1    3    3    0    0  0.15357377470E+02  0.57027635481E+02 -0.35572113323E+01  0.59166324913E+02  0.00000000000E+00 0. -1.
        -11    1    3    3    0    0  0.48598120931E+02 -0.22586787182E+02 -0.38034736546E+02  0.65715915099E+02  0.00000000000E+00 0.  1.
          2    1    6    6  502    0  0.49421447470E+02 -0.10450165719E+02  0.22706044351E+02  0.55382757999E+02  0.00000000000E+00 0. -1.
          3    1    5    5  503    0 -0.22578812431E+03  0.10042521661E+03  0.11312078065E+04  0.11578845378E+04  0.00000000000E+00 0. -1.
         -4    1    5    5    0  503 -0.92069521504E+02  0.73027144062E+02  0.35688203937E+03  0.37573201964E+03  0.00000000000E+00 0.  1.
         -3    1    6    6    0  502  0.20448069994E+03 -0.19744304325E+03  0.25665403664E+03  0.38297180902E+03  0.00000000000E+00 0.  1.
<mgrwt>
<rscale>  0 0.11908855E+04</rscale>
<asrwt>0</asrwt>
<pdfrwt beam="1">  1        4 0.29405470E+00 0.11908855E+04</pdfrwt>
<pdfrwt beam="2">  1       -4 0.28538108E-01 0.11908855E+04</pdfrwt>
<totfact> 0.79512875E-01</totfact>
</mgrwt>
</event>
<event>
12    1  0.1489025E-007  0.1567864E+04  0.7818608E-02  0.8840537E-01
         -2   -1    0    0    0  501 -0.00000000000E+00  0.00000000000E+00  0.66410311594E+03  0.66410311594E+03  0.00000000000E+00 0.  1.
          2   -1    0    0  501    0  0.00000000000E+00 -0.00000000000E+00 -0.92538208793E+03  0.92538208793E+03  0.00000000000E+00 0. -1.
         23    2    1    2    0    0 -0.29546627766E+03 -0.82371597087E+02  0.33527601896E+03  0.46383565060E+03  0.92995164578E+02 0.  0.
        254    2    1    2    0    0  0.29546627766E+03  0.82371597087E+02 -0.59655499095E+03  0.11256495533E+04  0.90394892461E+03 0.  0.
        -24    2    4    4    0    0 -0.17271200850E+03  0.32241533128E+03 -0.42483921054E+03  0.56623846685E+03  0.79728055337E+02 0.  0.
         24    2    4    4    0    0  0.46817828616E+03 -0.24004373419E+03 -0.17171578041E+03  0.55941108642E+03  0.81501855221E+02 0.  0.
         13    1    3    3    0    0 -0.20896145290E+02  0.18585210055E+02  0.30443829211E+02  0.41338670247E+02  0.00000000000E+00 0. -1.
        -13    1    3    3    0    0 -0.27457013237E+03 -0.10095680714E+03  0.30483218975E+03  0.42249698035E+03  0.00000000000E+00 0.  1.
          2    1    6    6  502    0  0.74114174810E+02 -0.73719932602E+02 -0.28604136170E+02  0.10837774669E+03  0.00000000000E+00 0. -1.
          3    1    5    5  503    0 -0.93392925394E+02  0.11478615882E+03 -0.21171317781E+03  0.25830325284E+03  0.00000000000E+00 0. -1.
         -4    1    5    5    0  503 -0.79319083106E+02  0.20762917246E+03 -0.21312603273E+03  0.30793521401E+03  0.00000000000E+00 0.  1.
         -1    1    6    6    0  502  0.39406411135E+03 -0.16632380159E+03 -0.14311164424E+03  0.45103333973E+03  0.00000000000E+00 0.  1.
<mgrwt>
<rscale>  0 0.15678637E+04</rscale>
<asrwt>0</asrwt>
<pdfrwt beam="1">  1        2 0.14236647E+00 0.15678637E+04</pdfrwt>
<pdfrwt beam="2">  1       -2 0.10216971E+00 0.15678637E+04</pdfrwt>
<totfact> 0.21271975E+01</totfact>
</mgrwt>
</event>
<event>
12    1  0.1489025E-007  0.1503970E+04  0.7818608E-02  0.8881817E-01
         -1   -1    0    0    0  501 -0.00000000000E+00  0.00000000000E+00  0.35769071440E+03  0.35769071440E+03  0.00000000000E+00 0.  1.
          1   -1    0    0  501    0  0.00000000000E+00 -0.00000000000E+00 -0.15809236661E+04  0.15809236661E+04  0.00000000000E+00 0. -1.
         23    2    1    2    0    0 -0.10216067751E+03  0.47645275051E+03 -0.44010264369E+03  0.66287637720E+03  0.90943537289E+02 0.  0.
        254    2    1    2    0    0  0.10216067751E+03 -0.47645275051E+03 -0.78313030803E+03  0.12757380033E+04  0.88134575863E+03 0.  0.
        -24    2    4    4    0    0  0.13878404691E+03  0.11604930571E+03 -0.62603037986E+03  0.65639411800E+03  0.78808302868E+02 0.  0.
         24    2    4    4    0    0 -0.36623369404E+02 -0.59250205622E+03 -0.15709992817E+03  0.61934388532E+03  0.80662897526E+02 0.  0.
         13    1    3    3    0    0 -0.54041178815E+02  0.32686082213E+03 -0.24332741505E+03  0.41105556433E+03  0.00000000000E+00 0.  1.
        -13    1    3    3    0    0 -0.48119498691E+02  0.14959192838E+03 -0.19677522863E+03  0.25182081287E+03  0.00000000000E+00 0. -1.
          4    1    6    6  502    0 -0.32639696624E+02 -0.81544871334E+02 -0.29805974778E+02  0.92754040176E+02  0.00000000000E+00 0. -1.
          3    1    5    5  503    0  0.71526252612E+02  0.67160279442E+02 -0.20548108672E+03  0.22770372186E+03  0.00000000000E+00 0. -1.
         -4    1    5    5    0  503  0.67257794299E+02  0.48889026272E+02 -0.42054929314E+03  0.42869039614E+03  0.00000000000E+00 0.  1.
         -3    1    6    6    0  502 -0.39836727809E+01 -0.51095718489E+03 -0.12729395340E+03  0.52658984514E+03  0.00000000000E+00 0.  1.
<mgrwt>
<rscale>  0 0.15039704E+04</rscale>
<asrwt>0</asrwt>
<pdfrwt beam="1">  1        1 0.24321903E+00 0.15039704E+04</pdfrwt>
<pdfrwt beam="2">  1       -1 0.55029340E-01 0.15039704E+04</pdfrwt>
<totfact> 0.18562354E+01</totfact>
</mgrwt>
</event>
<event>
12    1  0.1489025E-007  0.1809737E+04  0.7818608E-02  0.8701138E-01
          1   -1    0    0  501    0  0.00000000000E+00  0.00000000000E+00  0.19669640351E+04  0.19669640351E+04  0.00000000000E+00 0. -1.
         -1   -1    0    0    0  501 -0.00000000000E+00 -0.00000000000E+00 -0.41626950960E+03  0.41626950960E+03  0.00000000000E+00 0.  1.
         23    2    1    2    0    0  0.26817442803E+03  0.40015985063E+03 -0.40660758329E+02  0.49181301801E+03  0.90450635783E+02 0.  0.
        254    2    1    2    0    0 -0.26817442803E+03 -0.40015985063E+03  0.15913552838E+04  0.18914205267E+04  0.90167318883E+03 0.  0.
        -24    2    4    4    0    0 -0.13730743059E+03 -0.15644798341E+03 -0.46899143987E+02  0.22815519617E+03  0.80783425413E+02 0.  0.
         24    2    4    4    0    0 -0.13086699744E+03 -0.24371186722E+03  0.16382544278E+04  0.16632653305E+04  0.77796813415E+02 0.  0.
         11    1    3    3    0    0  0.18489072489E+03  0.24802919769E+03 -0.66604216317E+02  0.31644775981E+03  0.00000000000E+00 0.  1.
        -11    1    3    3    0    0  0.83283703146E+02  0.15213065294E+03  0.25943457988E+02  0.17536525821E+03  0.00000000000E+00 0. -1.
          4    1    6    6  502    0  0.84955485996E+00 -0.56671951313E+02  0.25510850516E+03  0.26132887559E+03  0.00000000000E+00 0. -1.
          3    1    5    5  503    0 -0.82433715861E+02 -0.14547748784E+03 -0.38285137489E+02  0.17153649387E+03  0.00000000000E+00 0. -1.
         -2    1    5    5    0  503 -0.54873714730E+02 -0.10970495578E+02 -0.86140064979E+01  0.56618702293E+02  0.00000000000E+00 0.  1.
         -3    1    6    6    0  502 -0.13171655230E+03 -0.18703991590E+03  0.13831459226E+04  0.14019364549E+04  0.00000000000E+00 0.  1.
<mgrwt>
<rscale>  0 0.18097372E+04</rscale>
<asrwt>0</asrwt>
<pdfrwt beam="1">  1        1 0.30260985E+00 0.18097372E+04</pdfrwt>
<pdfrwt beam="2">  1       -1 0.64041464E-01 0.18097372E+04</pdfrwt>
<totfact> 0.73158572E+00</totfact>
</mgrwt>
</event>
<event>
12    1  0.1489025E-007  0.1484962E+04  0.7818608E-02  0.8894515E-01
         -1   -1    0    0    0  501 -0.00000000000E+00  0.00000000000E+00  0.37218852348E+03  0.37218852348E+03  0.00000000000E+00 0.  1.
          1   -1    0    0  501    0  0.00000000000E+00 -0.00000000000E+00 -0.14811800871E+04  0.14811800871E+04  0.00000000000E+00 0. -1.
         23    2    1    2    0    0 -0.33500111904E+03 -0.18405299567E+03 -0.66542514769E+03  0.77314708174E+03  0.94151621582E+02 0.  0.
        254    2    1    2    0    0  0.33500111904E+03  0.18405299567E+03 -0.44356641596E+03  0.10802215289E+04  0.90775885075E+03 0.  0.
        -24    2    4    4    0    0  0.13636089625E+03  0.27960129572E+03 -0.67664472177E+03  0.74935418854E+03  0.83141095703E+02 0.  0.
         24    2    4    4    0    0  0.19864022279E+03 -0.95548300050E+02  0.23307830582E+03  0.33086734033E+03  0.80995583238E+02 0.  0.
         13    1    3    3    0    0 -0.84563431220E+02 -0.63540242232E+02 -0.26858975370E+03  0.28866726880E+03  0.00000000000E+00 0.  1.
        -13    1    3    3    0    0 -0.25043768782E+03 -0.12051275343E+03 -0.39683539399E+03  0.48447981294E+03  0.00000000000E+00 0. -1.
          2    1    6    6  502    0  0.12949388932E+03 -0.98049592585E+02  0.13712636645E+03  0.21257005987E+03  0.00000000000E+00 0. -1.
          1    1    5    5  503    0 -0.13103923897E+01  0.45946399952E+02 -0.58990406129E+02  0.74784067902E+02  0.00000000000E+00 0. -1.
         -2    1    5    5    0  503  0.13767128864E+03  0.23365489576E+03 -0.61765431564E+03  0.67457012064E+03  0.00000000000E+00 0.  1.
         -1    1    6    6    0  502  0.69146333474E+02  0.25012925343E+01  0.95951939368E+02  0.11829728047E+03  0.00000000000E+00 0.  1.
<mgrwt>
<rscale>  0 0.14849623E+04</rscale>
<asrwt>0</asrwt>
<pdfrwt beam="1">  1        1 0.22787386E+00 0.14849623E+04</pdfrwt>
<pdfrwt beam="2">  1       -1 0.57259772E-01 0.14849623E+04</pdfrwt>
<totfact> 0.20165073E+01</totfact>
</mgrwt>
</event>
<event>
12    1  0.1489025E-007  0.1438057E+04  0.7818608E-02  0.8926722E-01
          2   -1    0    0  501    0  0.00000000000E+00  0.00000000000E+00  0.20923549821E+04  0.20923549821E+04  0.00000000000E+00 0. -1.
         -2   -1    0    0    0  501 -0.00000000000E+00 -0.00000000000E+00 -0.24709097992E+03  0.24709097992E+03  0.00000000000E+00 0.  1.
         23    2    1    2    0    0 -0.28733778960E+03 -0.56791007439E+02  0.11001499741E+04  0.11421481294E+04  0.91565059785E+02 0.  0.
        254    2    1    2    0    0  0.28733778960E+03  0.56791007439E+02  0.74511402813E+03  0.11972978326E+04  0.89024657330E+03 0.  0.
        -24    2    4    4    0    0  0.69529918850E+02  0.37746507360E+03  0.46837021612E+02  0.39472698090E+03  0.79381304181E+02 0.  0.
         24    2    4    4    0    0  0.21780787075E+03 -0.32067406617E+03  0.69827700652E+03  0.80257085174E+03  0.79101636859E+02 0.  0.
         11    1    3    3    0    0 -0.24566012386E+01 -0.11887645323E+02  0.14832139374E+02  0.19166203572E+02  0.00000000000E+00 0.  1.
        -11    1    3    3    0    0 -0.28488118836E+03 -0.44903362115E+02  0.10853178347E+04  0.11229819258E+04  0.00000000000E+00 0. -1.
          2    1    6    6  502    0  0.18454409977E+03 -0.24593823096E+03  0.60393388199E+03  0.67770072453E+03  0.00000000000E+00 0. -1.
          3    1    5    5  503    0  0.80245170155E+02  0.36615771769E+03  0.51726333704E+02  0.37839975576E+03  0.00000000000E+00 0. -1.
         -4    1    5    5    0  503 -0.10715251305E+02  0.11307355913E+02 -0.48893120918E+01  0.16327225147E+02  0.00000000000E+00 0.  1.
         -1    1    6    6    0  502  0.33263770981E+02 -0.74735835206E+02  0.94343124522E+02  0.12487012721E+03  0.00000000000E+00 0.  1.
<mgrwt>
<rscale>  0 0.14380571E+04</rscale>
<asrwt>0</asrwt>
<pdfrwt beam="1">  1        2 0.32190075E+00 0.14380571E+04</pdfrwt>
<pdfrwt beam="2">  1       -2 0.38013998E-01 0.14380571E+04</pdfrwt>
<totfact> 0.37656194E+01</totfact>
</mgrwt>
</event>
<event>
12    1  0.1489025E-007  0.1740286E+04  0.7818608E-02  0.8738715E-01
         -2   -1    0    0    0  501 -0.00000000000E+00  0.00000000000E+00  0.12820139904E+04  0.12820139904E+04  0.00000000000E+00 0.  1.
          2   -1    0    0  501    0  0.00000000000E+00 -0.00000000000E+00 -0.59059359125E+03  0.59059359125E+03  0.00000000000E+00 0. -1.
         23    2    1    2    0    0  0.47958482763E+02  0.39366001641E+03  0.78351272460E+03  0.88279113373E+03  0.90331454029E+02 0.  0.
        254    2    1    2    0    0 -0.47958482763E+02 -0.39366001641E+03 -0.92092325485E+02  0.98981644789E+03  0.90221249133E+03 0.  0.
        -24    2    4    4    0    0  0.18137782659E+03 -0.55734829247E+03  0.14914108429E+03  0.61002616221E+03  0.79710855341E+02 0.  0.
         24    2    4    4    0    0 -0.22933630936E+03  0.16368827606E+03 -0.24123340977E+03  0.37979028568E+03  0.81597233973E+02 0.  0.
         11    1    3    3    0    0  0.74461499839E+02  0.27896751286E+03  0.54152367739E+03  0.61368989022E+03  0.00000000000E+00 0.  1.
        -11    1    3    3    0    0 -0.26503017076E+02  0.11469250354E+03  0.24198904721E+03  0.26910124350E+03  0.00000000000E+00 0. -1.
          2    1    6    6  502    0 -0.10854245632E+02 -0.57076542796E+01  0.88839359462E+00  0.12295576798E+02  0.00000000000E+00 0. -1.
          1    1    5    5  503    0  0.37896917723E+01  0.16431265060E+01  0.41342765971E+01  0.58441313662E+01  0.00000000000E+00 0. -1.
         -2    1    5    5    0  503  0.17758813482E+03 -0.55899141898E+03  0.14500680769E+03  0.60418203085E+03  0.00000000000E+00 0.  1.
         -1    1    6    6    0  502 -0.21848206372E+03  0.16939593034E+03 -0.24212180337E+03  0.36749470888E+03  0.00000000000E+00 0.  1.
<mgrwt>
<rscale>  0 0.17402865E+04</rscale>
<asrwt>0</asrwt>
<pdfrwt beam="1">  1        2 0.90860553E-01 0.17402865E+04</pdfrwt>
<pdfrwt beam="2">  1       -2 0.19723292E+00 0.17402865E+04</pdfrwt>
<totfact> 0.66454098E+00</totfact>
</mgrwt>
</event>
<event>
12    1  0.1489025E-007  0.1438623E+04  0.7818608E-02  0.8926326E-01
          2   -1    0    0  501    0  0.00000000000E+00  0.00000000000E+00  0.36608554505E+04  0.36608554505E+04  0.00000000000E+00 0. -1.
         -2   -1    0    0    0  501 -0.00000000000E+00 -0.00000000000E+00 -0.14133562672E+03  0.14133562672E+03  0.00000000000E+00 0.  1.
         23    2    1    2    0    0  0.38506881348E+03  0.71810069727E+02  0.60744647449E+03  0.72809210891E+03  0.87705316083E+02 0.  0.
        254    2    1    2    0    0 -0.38506881348E+03 -0.71810069727E+02  0.29120733493E+04  0.30740989683E+04  0.90359205290E+03 0.  0.
        -24    2    4    4    0    0 -0.50315513883E+03 -0.34150437937E+03  0.24044429096E+04  0.24813904377E+04  0.78501363016E+02 0.  0.
         24    2    4    4    0    0  0.11808632535E+03  0.26969430964E+03  0.50763043966E+03  0.59270853056E+03  0.83278677019E+02 0.  0.
         13    1    3    3    0    0  0.33145763687E+03  0.54880702430E+02  0.45491589385E+03  0.56553030601E+03  0.00000000000E+00 0.  1.
        -13    1    3    3    0    0  0.53611176612E+02  0.16929367298E+02  0.15253058064E+03  0.16256180291E+03  0.00000000000E+00 0. -1.
          4    1    6    6  502    0  0.27083562085E+02  0.13733578236E+03  0.29209124364E+03  0.32390111309E+03  0.00000000000E+00 0. -1.
          1    1    5    5  503    0 -0.21611836628E+03 -0.11697204051E+03  0.10905728765E+04  0.11179171729E+04  0.00000000000E+00 0. -1.
         -4    1    5    5    0  503 -0.28703677255E+03 -0.22453233886E+03  0.13138700331E+04  0.13634732648E+04  0.00000000000E+00 0.  1.
         -3    1    6    6    0  502  0.91002763266E+02  0.13235852729E+03  0.21553919601E+03  0.26880741747E+03  0.00000000000E+00 0.  1.
<mgrwt>
<rscale>  0 0.14386234E+04</rscale>
<asrwt>0</asrwt>
<pdfrwt beam="1">  1        2 0.56320846E+00 0.14386234E+04</pdfrwt>
<pdfrwt beam="2">  1       -2 0.21743945E-01 0.14386234E+04</pdfrwt>
<totfact> 0.11374423E+01</totfact>
</mgrwt>
</event>
<event>
12    1  0.1489025E-007  0.1165629E+04  0.7818608E-02  0.9143485E-01
          1   -1    0    0  501    0  0.00000000000E+00  0.00000000000E+00  0.42679156660E+03  0.42679156660E+03  0.00000000000E+00 0. -1.
         -1   -1    0    0    0  501 -0.00000000000E+00 -0.00000000000E+00 -0.79587519177E+03  0.79587519177E+03  0.00000000000E+00 0.  1.
         23    2    1    2    0    0 -0.36201691457E+01 -0.13233887767E+03  0.11141500285E+03  0.19586057181E+03  0.91768058509E+02 0.  0.
        254    2    1    2    0    0  0.36201691457E+01  0.13233887767E+03 -0.48049862802E+03  0.10268061866E+04  0.89773343988E+03 0.  0.
        -24    2    4    4    0    0  0.30321111711E+03  0.30021211828E+03 -0.40470560766E+01  0.43403175018E+03  0.79390704714E+02 0.  0.
         24    2    4    4    0    0 -0.29959094797E+03 -0.16787324061E+03 -0.47645157194E+03  0.59277443639E+03  0.80245068453E+02 0.  0.
         11    1    3    3    0    0 -0.25365528360E+02 -0.12922164142E+03  0.70379072238E+02  0.14931462236E+03  0.00000000000E+00 0. -1.
        -11    1    3    3    0    0  0.21745359215E+02 -0.31172362472E+01  0.41035930615E+02  0.46545949454E+02  0.00000000000E+00 0.  1.
          2    1    6    6  502    0 -0.20251772605E+03 -0.11640602017E+03 -0.38261949231E+03  0.44828725924E+03  0.00000000000E+00 0. -1.
          3    1    5    5  503    0  0.23957971496E+03  0.21828104117E+03  0.28371274577E+02  0.32534594200E+03  0.00000000000E+00 0. -1.
         -4    1    5    5    0  503  0.63631402147E+02  0.81931077113E+02 -0.32418330654E+02  0.10868580817E+03  0.00000000000E+00 0.  1.
         -1    1    6    6    0  502 -0.97073221917E+02 -0.51467220441E+02 -0.93832079629E+02  0.14448717715E+03  0.00000000000E+00 0.  1.
<mgrwt>
<rscale>  0 0.11656291E+04</rscale>
<asrwt>0</asrwt>
<pdfrwt beam="1">  1        1 0.65660241E-01 0.11656291E+04</pdfrwt>
<pdfrwt beam="2">  1       -1 0.12244234E+00 0.11656291E+04</pdfrwt>
<totfact> 0.32158054E+01</totfact>
</mgrwt>
</event>
<event>
12    1  0.1489025E-007  0.1973396E+04  0.7818608E-02  0.8619161E-01
         -2   -1    0    0    0  501 -0.00000000000E+00  0.00000000000E+00  0.70185843577E+03  0.70185843577E+03  0.00000000000E+00 0.  1.
          2   -1    0    0  501    0  0.00000000000E+00 -0.00000000000E+00 -0.13871357926E+04  0.13871357926E+04  0.00000000000E+00 0. -1.
         23    2    1    2    0    0  0.70102266270E+02 -0.22404597043E+03 -0.10209788936E+04  0.10518753305E+04  0.94513942066E+02 0.  0.
        254    2    1    2    0    0 -0.70102266270E+02  0.22404597043E+03  0.33570153679E+03  0.10371188978E+04  0.95279019819E+03 0.  0.
        -24    2    4    4    0    0 -0.27604412553E+03 -0.18431593344E+03  0.44431317463E+03  0.56025936515E+03  0.79395443988E+02 0.  0.
         24    2    4    4    0    0  0.20594185926E+03  0.40836190386E+03 -0.10861163785E+03  0.47685953265E+03  0.80168772489E+02 0.  0.
         11    1    3    3    0    0  0.23248176270E+01 -0.39914073981E+02 -0.67795604202E+02  0.78706937610E+02  0.00000000000E+00 0.  1.
        -11    1    3    3    0    0  0.67777448643E+02 -0.18413189644E+03 -0.95318328940E+03  0.97316839294E+03  0.00000000000E+00 0. -1.
          2    1    6    6  502    0  0.58396142263E+02  0.54363008533E+02 -0.68811599531E+01  0.80079938126E+02  0.00000000000E+00 0. -1.
          3    1    5    5  503    0 -0.34548654430E+02 -0.57849352658E+02  0.69559449497E+02  0.96843554975E+02  0.00000000000E+00 0. -1.
         -4    1    5    5    0  503 -0.24149547110E+03 -0.12646658078E+03  0.37475372513E+03  0.46341581017E+03  0.00000000000E+00 0.  1.
         -1    1    6    6    0  502  0.14754571699E+03  0.35399889533E+03 -0.10173047789E+03  0.39677959452E+03  0.00000000000E+00 0.  1.
<mgrwt>
<rscale>  0 0.19733960E+04</rscale>
<asrwt>0</asrwt>
<pdfrwt beam="1">  1        2 0.21340551E+00 0.19733960E+04</pdfrwt>
<pdfrwt beam="2">  1       -2 0.10797822E+00 0.19733960E+04</pdfrwt>
<totfact> 0.94186197E+00</totfact>
</mgrwt>
</event>
<event>
12    1  0.2390191E-007  0.1736853E+04  0.7818608E-02  0.8740620E-01
          1   -1    0    0  501    0  0.00000000000E+00  0.00000000000E+00  0.14460302351E+04  0.14460302351E+04  0.00000000000E+00 0. -1.
         -1   -1    0    0    0  501 -0.00000000000E+00 -0.00000000000E+00 -0.52154148229E+03  0.52154148229E+03  0.00000000000E+00 0.  1.
         23    2    1    2    0    0  0.91985882808E+02 -0.42011731519E+03 -0.18503808798E+03  0.47694350900E+03  0.90972829006E+02 0.  0.
        254    2    1    2    0    0 -0.91985882808E+02  0.42011731519E+03  0.11095268408E+04  0.14906282084E+04  0.89775424479E+03 0.  0.
        -24    2    4    4    0    0 -0.14011739146E+03 -0.23873539604E+03  0.55364746266E+03  0.62400108328E+03  0.78894653219E+02 0.  0.
         24    2    4    4    0    0  0.48131508653E+02  0.65885271123E+03  0.55587937812E+03  0.86662712511E+03  0.75080981129E+02 0.  0.
         13    1    3    3    0    0  0.97609196860E+02 -0.42024591039E+03 -0.17527793868E+03  0.46567857617E+03  0.00000000000E+00 0.  1.
        -13    1    3    3    0    0 -0.56233140519E+01  0.12859519551E+00 -0.97601492908E+01  0.11264932837E+02  0.00000000000E+00 0. -1.
          2    1    6    6  502    0  0.38678955970E+02  0.65074879654E+03  0.54038682449E+03  0.84675142628E+03  0.00000000000E+00 0. -1.
          3    1    5    5  503    0 -0.11752244422E+03 -0.23472602883E+03  0.48305892096E+03  0.54977609499E+03  0.00000000000E+00 0. -1.
         -2    1    5    5    0  503 -0.22594947242E+02 -0.40093672102E+01  0.70588541706E+02  0.74224988289E+02  0.00000000000E+00 0.  1.
         -1    1    6    6    0  502  0.94525526831E+01  0.81039146892E+01  0.15492553638E+02  0.19875698824E+02  0.00000000000E+00 0.  1.
<mgrwt>
<rscale>  0 0.17368532E+04</rscale>
<asrwt>0</asrwt>
<pdfrwt beam="1">  1        1 0.22246619E+00 0.17368532E+04</pdfrwt>
<pdfrwt beam="2">  1       -1 0.80237152E-01 0.17368532E+04</pdfrwt>
<totfact> 0.10488680E+01</totfact>
</mgrwt>
</event>
<event>
12    1  0.1489025E-007  0.2152878E+04  0.7818608E-02  0.8538301E-01
         -2   -1    0    0    0  501 -0.00000000000E+00  0.00000000000E+00  0.10083332690E+04  0.10083332690E+04  0.00000000000E+00 0.  1.
          2   -1    0    0  501    0  0.00000000000E+00 -0.00000000000E+00 -0.11491451037E+04  0.11491451037E+04  0.00000000000E+00 0. -1.
         23    2    1    2    0    0  0.15253121713E+03  0.74827362032E+03  0.36755565981E+03  0.85225210326E+03  0.89762472071E+02 0.  0.
        254    2    1    2    0    0 -0.15253121713E+03 -0.74827362032E+03 -0.50836749453E+03  0.13052262695E+04  0.92843897054E+03 0.  0.
        -24    2    4    4    0    0  0.19912072840E+03 -0.74865956243E+03 -0.53381664781E+03  0.94416869597E+03  0.79712659400E+02 0.  0.
         24    2    4    4    0    0 -0.35165194553E+03  0.38594210991E+00  0.25449153279E+02  0.36105757353E+03  0.77818200014E+02 0.  0.
         13    1    3    3    0    0 -0.10828343309E+02  0.86746042931E+02  0.37457340816E+02  0.95106158392E+02  0.00000000000E+00 0. -1.
        -13    1    3    3    0    0  0.16335956044E+03  0.66152757739E+03  0.33009831899E+03  0.75714594487E+03  0.00000000000E+00 0.  1.
          4    1    6    6  502    0 -0.19937460844E+03  0.24838579580E+02 -0.15418701783E+02  0.20150663982E+03  0.00000000000E+00 0. -1.
          1    1    5    5  503    0 -0.32896931212E+01 -0.61506189354E+02 -0.30890086501E+02  0.68905956591E+02  0.00000000000E+00 0. -1.
         -2    1    5    5    0  503  0.20241042152E+03 -0.68715337308E+03 -0.50292656131E+03  0.87526273938E+03  0.00000000000E+00 0.  1.
         -3    1    6    6    0  502 -0.15227733709E+03 -0.24452637470E+02  0.40867855062E+02  0.15955093371E+03  0.00000000000E+00 0.  1.
<mgrwt>
<rscale>  0 0.21528783E+04</rscale>
<asrwt>0</asrwt>
<pdfrwt beam="1">  1        2 0.17679155E+00 0.21528783E+04</pdfrwt>
<pdfrwt beam="2">  1       -2 0.15512820E+00 0.21528783E+04</pdfrwt>
<totfact> 0.51090310E+00</totfact>
</mgrwt>
</event>
<event>
12    1  0.1489025E-007  0.1412323E+04  0.7818608E-02  0.8944947E-01
          2   -1    0    0  501    0  0.00000000000E+00  0.00000000000E+00  0.16883965615E+04  0.16883965615E+04  0.00000000000E+00 0. -1.
         -2   -1    0    0    0  501 -0.00000000000E+00 -0.00000000000E+00 -0.29534764672E+03  0.29534764672E+03  0.00000000000E+00 0.  1.
         23    2    1    2    0    0  0.27048067963E+03 -0.28215037417E+03  0.59568767868E+03  0.71839191436E+03  0.92057049624E+02 0.  0.
        254    2    1    2    0    0 -0.27048067963E+03  0.28215037417E+03  0.79736123607E+03  0.12653522938E+04  0.90142268387E+03 0.  0.
        -24    2    4    4    0    0 -0.35613981607E+03 -0.17085155994E+03  0.66724775313E+03  0.77943020693E+03  0.79158444233E+02 0.  0.
         24    2    4    4    0    0  0.85659136440E+02  0.45300193412E+03  0.13011348294E+03  0.48592208689E+03  0.81501632603E+02 0.  0.
         13    1    3    3    0    0  0.19922387129E+03 -0.24919729056E+03  0.43399193905E+03  0.53864500710E+03  0.00000000000E+00 0.  1.
        -13    1    3    3    0    0  0.71256808340E+02 -0.32953083613E+02  0.16169573962E+03  0.17974690725E+03  0.00000000000E+00 0. -1.
          2    1    6    6  502    0  0.63007649866E+02  0.42090473868E+03  0.10209483951E+03  0.43766896079E+03  0.00000000000E+00 0. -1.
          1    1    5    5  503    0 -0.23644248113E+03 -0.15175590845E+03  0.48662082732E+03  0.56190277826E+03  0.00000000000E+00 0. -1.
         -4    1    5    5    0  503 -0.11969733494E+03 -0.19095651497E+02  0.18062692581E+03  0.21752742867E+03  0.00000000000E+00 0.  1.
         -1    1    6    6    0  502  0.22651486574E+02  0.32097195439E+02  0.28018643430E+02  0.48253126103E+02  0.00000000000E+00 0.  1.
<mgrwt>
<rscale>  0 0.14123228E+04</rscale>
<asrwt>0</asrwt>
<pdfrwt beam="1">  1        2 0.25975331E+00 0.14123228E+04</pdfrwt>
<pdfrwt beam="2">  1       -2 0.45438100E-01 0.14123228E+04</pdfrwt>
<totfact> 0.44453280E+01</totfact>
</mgrwt>
</event>
<event>
12    1  0.1489025E-007  0.2746173E+04  0.7818608E-02  0.8320177E-01
         -1   -1    0    0    0  501 -0.00000000000E+00  0.00000000000E+00  0.17030583622E+04  0.17030583622E+04  0.00000000000E+00 0.  1.
          1   -1    0    0  501    0  0.00000000000E+00 -0.00000000000E+00 -0.11070472997E+04  0.11070472997E+04  0.00000000000E+00 0. -1.
         23    2    1    2    0    0  0.11571526032E+04  0.35920224976E+03  0.40557216996E+03  0.12809011793E+04  0.90502169130E+02 0.  0.
        254    2    1    2    0    0 -0.11571526032E+04 -0.35920224976E+03  0.19043889259E+03  0.15292044826E+04  0.91332960887E+03 0.  0.
        -24    2    4    4    0    0 -0.24236550515E+03  0.27236434890E+03  0.18155903202E+03  0.41471764290E+03  0.78125953331E+02 0.  0.
         24    2    4    4    0    0 -0.91478709809E+03 -0.63156659866E+03  0.88798605724E+01  0.11144868397E+04  0.79311163259E+02 0.  0.
         11    1    3    3    0    0  0.76857352659E+03  0.22064545438E+03  0.22578348995E+03  0.83088378649E+03  0.00000000000E+00 0.  1.
        -11    1    3    3    0    0  0.38857907665E+03  0.13855679537E+03  0.17978868001E+03  0.45001739279E+03  0.00000000000E+00 0. -1.
          4    1    6    6  502    0 -0.14369537717E+03 -0.67063667809E+02  0.93108154535E+01  0.15884768882E+03  0.00000000000E+00 0. -1.
          3    1    5    5  503    0 -0.16398012613E+03  0.14059977020E+03  0.13400431191E+03  0.25419467492E+03  0.00000000000E+00 0. -1.
         -4    1    5    5    0  503 -0.78385379024E+02  0.13176457870E+03  0.47554720100E+02  0.16052296798E+03  0.00000000000E+00 0.  1.
         -3    1    6    6    0  502 -0.77109172092E+03 -0.56450293085E+03 -0.43095488110E+00  0.95563915090E+03  0.00000000000E+00 0.  1.
<mgrwt>
<rscale>  0 0.27461727E+04</rscale>
<asrwt>0</asrwt>
<pdfrwt beam="1">  1        1 0.17031497E+00 0.27461727E+04</pdfrwt>
<pdfrwt beam="2">  1       -1 0.26200898E+00 0.27461727E+04</pdfrwt>
<totfact> 0.63420206E-01</totfact>
</mgrwt>
</event>
<event>
12    1  0.1489025E-007  0.1915381E+04  0.7818608E-02  0.8647238E-01
         -2   -1    0    0    0  501 -0.00000000000E+00  0.00000000000E+00  0.10697867778E+04  0.10697867778E+04  0.00000000000E+00 0.  1.
          2   -1    0    0  501    0  0.00000000000E+00 -0.00000000000E+00 -0.85733984284E+03  0.85733984284E+03  0.00000000000E+00 0. -1.
         23    2    1    2    0    0  0.44211702889E+03 -0.60352339257E+03  0.38496355175E+02  0.75460194332E+03  0.90742332413E+02 0.  0.
        254    2    1    2    0    0 -0.44211702889E+03  0.60352339257E+03  0.17395057976E+03  0.11725246773E+04  0.88591611457E+03 0.  0.
        -24    2    4    4    0    0 -0.23561304207E+03 -0.18643708583E+02 -0.27672147750E+03  0.37312113028E+03  0.82362056125E+02 0.  0.
         24    2    4    4    0    0 -0.20650398682E+03  0.62216710115E+03  0.45067205726E+03  0.79940354701E+03  0.78771374518E+02 0.  0.
         13    1    3    3    0    0  0.30544791616E+03 -0.44061261091E+03  0.66020110726E+02  0.54018196693E+03  0.00000000000E+00 0.  1.
        -13    1    3    3    0    0  0.13666911273E+03 -0.16291078166E+03 -0.27523755551E+02  0.21441997639E+03  0.00000000000E+00 0. -1.
          2    1    6    6  502    0 -0.12008007440E+03  0.40738411503E+03  0.24872110072E+03  0.49218210795E+03  0.00000000000E+00 0. -1.
          1    1    5    5  503    0 -0.79972440519E+02 -0.42512687808E+02 -0.12581534625E+03  0.15502393757E+03  0.00000000000E+00 0. -1.
         -2    1    5    5    0  503 -0.15564060155E+03  0.23868979225E+02 -0.15090613126E+03  0.21809719272E+03  0.00000000000E+00 0.  1.
         -1    1    6    6    0  502 -0.86423912425E+02  0.21478298612E+03  0.20195095654E+03  0.30722143905E+03  0.00000000000E+00 0.  1.
<mgrwt>
<rscale>  0 0.19153807E+04</rscale>
<asrwt>0</asrwt>
<pdfrwt beam="1">  1        2 0.13189844E+00 0.19153807E+04</pdfrwt>
<pdfrwt beam="2">  1       -2 0.16458258E+00 0.19153807E+04</pdfrwt>
<totfact> 0.68379466E+00</totfact>
</mgrwt>
</event>
<event>
12    1  0.1489025E-007  0.2039811E+04  0.7818608E-02  0.8588231E-01
         -2   -1    0    0    0  501 -0.00000000000E+00  0.00000000000E+00  0.33930038687E+03  0.33930038687E+03  0.00000000000E+00 0.  1.
          2   -1    0    0  501    0  0.00000000000E+00 -0.00000000000E+00 -0.30657406638E+04  0.30657406638E+04  0.00000000000E+00 0. -1.
         23    2    1    2    0    0 -0.29503760179E+03  0.15103595457E+03  0.14783968846E+03  0.37434754278E+03  0.91763082231E+02 0.  0.
        254    2    1    2    0    0  0.29503760179E+03 -0.15103595457E+03 -0.28742799654E+04  0.30306935079E+04  0.90208579039E+03 0.  0.
        -24    2    4    4    0    0  0.52856549120E+03 -0.27932002251E+03 -0.24514362300E+04  0.25245389616E+04  0.79725939121E+02 0.  0.
         24    2    4    4    0    0 -0.23352788941E+03  0.12828406794E+03 -0.42284373541E+03  0.50615454631E+03  0.80022015445E+02 0.  0.
         11    1    3    3    0    0 -0.16851646292E+03  0.91286463181E+02  0.35507688541E+02  0.19491488547E+03  0.00000000000E+00 0.  1.
        -11    1    3    3    0    0 -0.12652113888E+03  0.59749491388E+02  0.11233199992E+03  0.17943265731E+03  0.00000000000E+00 0. -1.
          2    1    6    6  502    0 -0.20526754048E+03  0.76698407300E+02 -0.34194971307E+03  0.40613669513E+03  0.00000000000E+00 0. -1.
          3    1    5    5  503    0  0.50291086140E+03 -0.24600646936E+03 -0.22347759706E+04  0.23038363996E+04  0.00000000000E+00 0. -1.
         -4    1    5    5    0  503  0.25654629804E+02 -0.33313553156E+02 -0.21666025936E+03  0.22070256192E+03  0.00000000000E+00 0.  1.
         -1    1    6    6    0  502 -0.28260348923E+02  0.51585660643E+02 -0.80894022339E+02  0.10001785118E+03  0.00000000000E+00 0.  1.
<mgrwt>
<rscale>  0 0.20398108E+04</rscale>
<asrwt>0</asrwt>
<pdfrwt beam="1">  1        2 0.47165242E+00 0.20398108E+04</pdfrwt>
<pdfrwt beam="2">  1       -2 0.52200058E-01 0.20398108E+04</pdfrwt>
<totfact> 0.50893243E+00</totfact>
</mgrwt>
</event>
<event>
12    1  0.1489025E-007  0.5264469E+04  0.7818608E-02  0.7788957E-01
         -2   -1    0    0    0  501 -0.00000000000E+00  0.00000000000E+00  0.27669835294E+04  0.27669835294E+04  0.00000000000E+00 0.  1.
          2   -1    0    0  501    0  0.00000000000E+00 -0.00000000000E+00 -0.25040477519E+04  0.25040477519E+04  0.00000000000E+00 0. -1.
         23    2    1    2    0    0  0.63763153937E+03  0.24431754908E+04  0.50612502565E+03  0.25767828829E+04  0.89258194502E+02 0.  0.
        254    2    1    2    0    0 -0.63763153937E+03 -0.24431754908E+04 -0.24318924811E+03  0.26942483984E+04  0.90782870797E+03 0.  0.
        -24    2    4    4    0    0 -0.35490209653E+03 -0.90229934916E+03  0.32549837159E+03  0.10256870377E+04  0.77363401113E+02 0.  0.
         24    2    4    4    0    0 -0.28272944284E+03 -0.15408761416E+04 -0.56868761969E+03  0.16685613607E+04  0.80350381559E+02 0.  0.
         13    1    3    3    0    0  0.18759056565E+03  0.65828937113E+03  0.99964010734E+02  0.69175712494E+03  0.00000000000E+00 0.  1.
        -13    1    3    3    0    0  0.45004097372E+03  0.17848861197E+04  0.40616101491E+03  0.18850257580E+04  0.00000000000E+00 0. -1.
          2    1    6    6  502    0 -0.23681915540E+03 -0.12223474793E+04 -0.41955204298E+03  0.13138647530E+04  0.00000000000E+00 0. -1.
          3    1    5    5  503    0 -0.12405622068E+03 -0.34119202561E+03  0.16030798230E+03  0.39686344430E+03  0.00000000000E+00 0. -1.
         -4    1    5    5    0  503 -0.23084587585E+03 -0.56110732355E+03  0.16519038929E+03  0.62882359343E+03  0.00000000000E+00 0.  1.
         -1    1    6    6    0  502 -0.45910287438E+02 -0.31852866236E+03 -0.14913557671E+03  0.35469660765E+03  0.00000000000E+00 0.  1.
<mgrwt>
<rscale>  0 0.52644692E+04</rscale>
<asrwt>0</asrwt>
<pdfrwt beam="1">  1        2 0.38523811E+00 0.52644692E+04</pdfrwt>
<pdfrwt beam="2">  1       -2 0.42568978E+00 0.52644692E+04</pdfrwt>
<totfact> 0.12435489E-02</totfact>
</mgrwt>
</event>
<event>
12    1  0.1489025E-007  0.1319897E+04  0.7818608E-02  0.9013934E-01
         -2   -1    0    0    0  501 -0.00000000000E+00  0.00000000000E+00  0.24947809633E+03  0.24947809633E+03  0.00000000000E+00 0.  1.
          2   -1    0    0  501    0  0.00000000000E+00 -0.00000000000E+00 -0.17457715071E+04  0.17457715071E+04  0.00000000000E+00 0. -1.
         23    2    1    2    0    0 -0.32202524918E+03 -0.43748292261E+02 -0.56176433070E+03  0.65527741382E+03  0.90527076733E+02 0.  0.
        254    2    1    2    0    0  0.32202524918E+03  0.43748292261E+02 -0.93452908007E+03  0.13399721896E+04  0.90364079879E+03 0.  0.
        -24    2    4    4    0    0  0.48588435769E+03 -0.19658787089E+03 -0.23821689337E+03  0.58120072933E+03  0.79477037322E+02 0.  0.
         24    2    4    4    0    0 -0.16385910851E+03  0.24033616315E+03 -0.69631218670E+03  0.75877146028E+03  0.79197151588E+02 0.  0.
         11    1    3    3    0    0 -0.29876439385E+03 -0.51516891767E+02 -0.55012090337E+03  0.62812989221E+03  0.00000000000E+00 0. -1.
        -11    1    3    3    0    0 -0.23260855333E+02  0.77685995063E+01 -0.11643427335E+02  0.27147521603E+02  0.00000000000E+00 0.  1.
          4    1    6    6  502    0 -0.74162654087E+02  0.16618107947E+03 -0.47618005503E+03  0.50976827602E+03  0.00000000000E+00 0. -1.
          3    1    5    5  503    0  0.48334011333E+03 -0.19780086783E+03 -0.24271413067E+03  0.57589321727E+03  0.00000000000E+00 0. -1.
         -4    1    5    5    0  503  0.25442443675E+01  0.12129969397E+01  0.44972373060E+01  0.53075120692E+01  0.00000000000E+00 0.  1.
         -3    1    6    6    0  502 -0.89696454423E+02  0.74155083675E+02 -0.22013213168E+03  0.24900318425E+03  0.00000000000E+00 0.  1.
<mgrwt>
<rscale>  0 0.13198966E+04</rscale>
<asrwt>0</asrwt>
<pdfrwt beam="1">  1        2 0.26858025E+00 0.13198966E+04</pdfrwt>
<pdfrwt beam="2">  1       -2 0.38381244E-01 0.13198966E+04</pdfrwt>
<totfact> 0.58036405E+01</totfact>
</mgrwt>
</event>
<event>
12    1  0.1489025E-007  0.2813219E+04  0.7818608E-02  0.8299176E-01
          2   -1    0    0  501    0  0.00000000000E+00  0.00000000000E+00  0.39854678744E+04  0.39854678744E+04  0.00000000000E+00 0. -1.
         -2   -1    0    0    0  501 -0.00000000000E+00 -0.00000000000E+00 -0.49644111715E+03  0.49644111715E+03  0.00000000000E+00 0.  1.
         23    2    1    2    0    0 -0.11758022483E+04  0.27194251518E+03  0.21530658275E+04  0.24699386386E+04  0.91873619854E+02 0.  0.
        254    2    1    2    0    0  0.11758022483E+04 -0.27194251518E+03  0.13359609297E+04  0.20119703530E+04  0.89820344955E+03 0.  0.
        -24    2    4    4    0    0  0.56162116508E+03 -0.54369053942E+03  0.47946047316E+03  0.92056858362E+03  0.80910049414E+02 0.  0.
         24    2    4    4    0    0  0.61418108323E+03  0.27174802425E+03  0.85650045658E+03  0.10914017694E+04  0.80618846251E+02 0.  0.
         13    1    3    3    0    0 -0.87910699664E+02 -0.20670213603E+01  0.17627425234E+03  0.19699029349E+03  0.00000000000E+00 0. -1.
        -13    1    3    3    0    0 -0.10878915486E+04  0.27400953654E+03  0.19767915752E+04  0.22729483451E+04  0.00000000000E+00 0.  1.
          4    1    6    6  502    0  0.20871779083E+03  0.13455862894E+03  0.32142958148E+03  0.40618483069E+03  0.00000000000E+00 0. -1.
          1    1    5    5  503    0  0.38908780970E+03 -0.32549895012E+03  0.32367948381E+03  0.60175351966E+03  0.00000000000E+00 0. -1.
         -2    1    5    5    0  503  0.17253335538E+03 -0.21819158931E+03  0.15578098935E+03  0.31881506395E+03  0.00000000000E+00 0.  1.
         -3    1    6    6    0  502  0.40546329240E+03  0.13718939531E+03  0.53507087510E+03  0.68521693867E+03  0.00000000000E+00 0.  1.
<mgrwt>
<rscale>  0 0.28132189E+04</rscale>
<asrwt>0</asrwt>
<pdfrwt beam="1">  1        2 0.61314888E+00 0.28132189E+04</pdfrwt>
<pdfrwt beam="2">  1       -2 0.76375559E-01 0.28132189E+04</pdfrwt>
<totfact> 0.46882538E-01</totfact>
</mgrwt>
</event>
<event>
12    1  0.1489025E-007  0.1406172E+04  0.7818608E-02  0.8949363E-01
         -2   -1    0    0    0  501 -0.00000000000E+00  0.00000000000E+00  0.23620290954E+03  0.23620290954E+03  0.00000000000E+00 0.  1.
          2   -1    0    0  501    0  0.00000000000E+00 -0.00000000000E+00 -0.20928196086E+04  0.20928196086E+04  0.00000000000E+00 0. -1.
         23    2    1    2    0    0 -0.11240668295E+02  0.39362485333E+03 -0.70453187718E+03  0.81225130376E+03  0.91214783458E+02 0.  0.
        254    2    1    2    0    0  0.11240668295E+02 -0.39362485333E+03 -0.11520848219E+04  0.15167712144E+04  0.90455989420E+03 0.  0.
        -24    2    4    4    0    0 -0.35538134171E+03 -0.36359524716E+03 -0.32615128664E+03  0.60907981149E+03  0.78141878614E+02 0.  0.
         24    2    4    4    0    0  0.36662201001E+03 -0.30029606166E+02 -0.82593353523E+03  0.90769140289E+03  0.80149877015E+02 0.  0.
         13    1    3    3    0    0  0.30308655448E+02  0.52941470583E+02 -0.10679507578E+03  0.12299025211E+03  0.00000000000E+00 0. -1.
        -13    1    3    3    0    0 -0.41549323742E+02  0.34068338275E+03 -0.59773680140E+03  0.68926105166E+03  0.00000000000E+00 0.  1.
          4    1    6    6  502    0  0.82012285121E+02 -0.32991010863E+02 -0.25206071589E+03  0.26711238497E+03  0.00000000000E+00 0. -1.
          3    1    5    5  503    0 -0.22908780481E+02 -0.12912414563E+02 -0.39735883932E+00  0.26300200894E+02  0.00000000000E+00 0. -1.
         -4    1    5    5    0  503 -0.33247256123E+03 -0.35068283260E+03 -0.32575392780E+03  0.58277961059E+03  0.00000000000E+00 0.  1.
         -3    1    6    6    0  502  0.28460972488E+03  0.29614046967E+01 -0.57387281934E+03  0.64057901791E+03  0.00000000000E+00 0.  1.
<mgrwt>
<rscale>  0 0.14061722E+04</rscale>
<asrwt>0</asrwt>
<pdfrwt beam="1">  1        2 0.32197226E+00 0.14061722E+04</pdfrwt>
<pdfrwt beam="2">  1       -2 0.36338907E-01 0.14061722E+04</pdfrwt>
<totfact> 0.41163160E+01</totfact>
</mgrwt>
</event>
<event>
12    1  0.1489025E-007  0.2069350E+04  0.7818608E-02  0.8574867E-01
         -1   -1    0    0    0  501 -0.00000000000E+00  0.00000000000E+00  0.18928400972E+04  0.18928400972E+04  0.00000000000E+00 0.  1.
          1   -1    0    0  501    0  0.00000000000E+00 -0.00000000000E+00 -0.56557964942E+03  0.56557964942E+03  0.00000000000E+00 0. -1.
         23    2    1    2    0    0 -0.11153238920E+03 -0.26739315139E+03 -0.39273196399E+03  0.49654334934E+03  0.91533223415E+02 0.  0.
        254    2    1    2    0    0  0.11153238920E+03  0.26739315139E+03  0.17199924117E+04  0.19618763972E+04  0.89813502906E+03 0.  0.
        -24    2    4    4    0    0  0.43605693263E+03  0.36303380882E+02  0.13153341045E+04  0.13884017995E+04  0.78052331770E+02 0.  0.
         24    2    4    4    0    0 -0.32452454342E+03  0.23108977051E+03  0.40465830726E+03  0.57347459776E+03  0.80038161672E+02 0.  0.
         11    1    3    3    0    0 -0.95481857120E+02 -0.25958523938E+03 -0.32629039496E+03  0.42774607349E+03  0.00000000000E+00 0. -1.
        -11    1    3    3    0    0 -0.16050532084E+02 -0.78079120080E+01 -0.66441569021E+02  0.68797275848E+02  0.00000000000E+00 0.  1.
          4    1    6    6  502    0 -0.27376468398E+01 -0.26175402162E+01  0.19409522105E+02  0.19775635902E+02  0.00000000000E+00 0. -1.
          3    1    5    5  503    0  0.21422655604E+02  0.18740014818E+01  0.13905830058E+03  0.14071123984E+03  0.00000000000E+00 0. -1.
         -4    1    5    5    0  503  0.41463427702E+03  0.34429379400E+02  0.11762758039E+04  0.12476905596E+04  0.00000000000E+00 0.  1.
         -3    1    6    6    0  502 -0.32178689658E+03  0.23370731072E+03  0.38524878516E+03  0.55369896186E+03  0.00000000000E+00 0.  1.
<mgrwt>
<rscale>  0 0.20693495E+04</rscale>
<asrwt>0</asrwt>
<pdfrwt beam="1">  1        1 0.87012255E-01 0.20693495E+04</pdfrwt>
<pdfrwt beam="2">  1       -1 0.29120617E+00 0.20693495E+04</pdfrwt>
<totfact> 0.12951463E+00</totfact>
</mgrwt>
</event>
<event>
12    1  0.1489025E-007  0.1149616E+04  0.7818608E-02  0.9158138E-01
          3   -1    0    0  501    0  0.00000000000E+00  0.00000000000E+00  0.23070450668E+03  0.23070450668E+03  0.00000000000E+00 0. -1.
         -3   -1    0    0    0  501 -0.00000000000E+00 -0.00000000000E+00 -0.14321538600E+04  0.14321538600E+04  0.00000000000E+00 0.  1.
         23    2    1    2    0    0 -0.20655642104E+02  0.19314402635E+03 -0.35057553939E+03  0.41090682464E+03  0.90608715095E+02 0.  0.
        254    2    1    2    0    0  0.20655642104E+02 -0.19314402635E+03 -0.85087381392E+03  0.12519515420E+04  0.89758851704E+03 0.  0.
        -24    2    4    4    0    0  0.74515967788E+02 -0.14449549305E+03 -0.10285933715E+04  0.10445799438E+04  0.81922879591E+02 0.  0.
         24    2    4    4    0    0 -0.53860325684E+02 -0.48648533296E+02  0.17771955756E+03  0.20737159822E+03  0.78429102591E+02 0.  0.
         13    1    3    3    0    0  0.14965426222E+02  0.29292896165E+02 -0.15812670701E+02  0.36497647903E+02  0.00000000000E+00 0. -1.
        -13    1    3    3    0    0 -0.35621068326E+02  0.16385113018E+03 -0.33476286869E+03  0.37440917673E+03  0.00000000000E+00 0.  1.
          4    1    6    6  502    0  0.87414312186E+01 -0.43066312838E+02  0.69620900701E+02  0.82329762150E+02  0.00000000000E+00 0. -1.
          3    1    5    5  503    0  0.33685350937E+00  0.48410184758E+01 -0.16300153811E+03  0.16307375741E+03  0.00000000000E+00 0. -1.
         -4    1    5    5    0  503  0.74179114279E+02 -0.14933651153E+03 -0.86559183337E+03  0.88150618640E+03  0.00000000000E+00 0.  1.
         -3    1    6    6    0  502 -0.62601756902E+02 -0.55822204586E+01  0.10809865686E+03  0.12504183607E+03  0.00000000000E+00 0.  1.
<mgrwt>
<rscale>  0 0.11496162E+04</rscale>
<asrwt>0</asrwt>
<pdfrwt beam="1">  1        3 0.35493001E-01 0.11496162E+04</pdfrwt>
<pdfrwt beam="2">  1       -3 0.22033136E+00 0.11496162E+04</pdfrwt>
<totfact> 0.22396235E+00</totfact>
</mgrwt>
</event>
<event>
12    1  0.1489025E-007  0.1402766E+04  0.7818608E-02  0.8951819E-01
          1   -1    0    0  501    0  0.00000000000E+00  0.00000000000E+00  0.97209640587E+03  0.97209640587E+03  0.00000000000E+00 0. -1.
         -1   -1    0    0    0  501 -0.00000000000E+00 -0.00000000000E+00 -0.50605899064E+03  0.50605899064E+03  0.00000000000E+00 0.  1.
         23    2    1    2    0    0  0.79348139344E+02 -0.16625994006E+03  0.52300471031E+03  0.56192728281E+03  0.91048609437E+02 0.  0.
        254    2    1    2    0    0 -0.79348139344E+02  0.16625994006E+03 -0.56967295077E+02  0.91622811370E+03  0.89570653048E+03 0.  0.
        -24    2    4    4    0    0  0.20671834140E+03 -0.27222365547E+03  0.97876835301E+02  0.36440547275E+03  0.79832840432E+02 0.  0.
         24    2    4    4    0    0 -0.28606648074E+03  0.43848359553E+03 -0.15484413038E+03  0.55182264095E+03  0.80184957442E+02 0.  0.
         13    1    3    3    0    0  0.64797328707E+02 -0.69370352312E+02  0.35469280301E+03  0.36717560390E+03  0.00000000000E+00 0. -1.
        -13    1    3    3    0    0  0.14550810637E+02 -0.96889587745E+02  0.16831190729E+03  0.19475167892E+03  0.00000000000E+00 0.  1.
          2    1    6    6  502    0 -0.35223923117E+02  0.11157314203E+03 -0.23507429880E+02  0.11933939016E+03  0.00000000000E+00 0. -1.
          3    1    5    5  503    0  0.54293656676E+02 -0.13366531737E+03  0.28601886082E+02  0.14707918313E+03  0.00000000000E+00 0. -1.
         -4    1    5    5    0  503  0.15242468472E+03 -0.13855833811E+03  0.69274949219E+02  0.21732628962E+03  0.00000000000E+00 0.  1.
         -1    1    6    6    0  502 -0.25084255762E+03  0.32691045350E+03 -0.13133670050E+03  0.43248325080E+03  0.00000000000E+00 0.  1.
<mgrwt>
<rscale>  0 0.14027660E+04</rscale>
<asrwt>0</asrwt>
<pdfrwt beam="1">  1        1 0.14955329E+00 0.14027660E+04</pdfrwt>
<pdfrwt beam="2">  1       -1 0.77855230E-01 0.14027660E+04</pdfrwt>
<totfact> 0.25648663E+01</totfact>
</mgrwt>
</event>
<event>
12    1  0.1489025E-007  0.1441888E+04  0.7818608E-02  0.8924044E-01
         -1   -1    0    0    0  501 -0.00000000000E+00  0.00000000000E+00  0.96063349743E+03  0.96063349743E+03  0.00000000000E+00 0.  1.
          1   -1    0    0  501    0  0.00000000000E+00 -0.00000000000E+00 -0.54106003095E+03  0.54106003095E+03  0.00000000000E+00 0. -1.
         23    2    1    2    0    0 -0.26409738701E+03 -0.30599761328E+03  0.30366826460E+03  0.51382584347E+03  0.91763899967E+02 0.  0.
        254    2    1    2    0    0  0.26409738701E+03  0.30599761328E+03  0.11590520188E+03  0.98786768490E+03  0.89390523989E+03 0.  0.
        -24    2    4    4    0    0  0.21023517250E+03  0.48186169196E+03  0.38206384592E+03  0.65472609491E+03  0.79397475193E+02 0.  0.
         24    2    4    4    0    0  0.53862214507E+02 -0.17586407868E+03 -0.26615864404E+03  0.33314158999E+03  0.79458057272E+02 0.  0.
         13    1    3    3    0    0 -0.20370813260E+03 -0.18474137245E+03  0.16881626626E+03  0.32268453594E+03  0.00000000000E+00 0.  1.
        -13    1    3    3    0    0 -0.60389254409E+02 -0.12125624082E+03  0.13485199834E+03  0.19114130753E+03  0.00000000000E+00 0. -1.
          4    1    6    6  502    0  0.22510822202E+02 -0.46071074784E+02 -0.24012405585E+02  0.56620461584E+02  0.00000000000E+00 0. -1.
          1    1    5    5  503    0  0.64664180348E+02  0.11328903396E+03  0.57754645358E+02  0.14265854512E+03  0.00000000000E+00 0. -1.
         -2    1    5    5    0  503  0.14557099215E+03  0.36857265800E+03  0.32430920056E+03  0.51206754979E+03  0.00000000000E+00 0.  1.
         -3    1    6    6    0  502  0.31351392304E+02 -0.12979300390E+03 -0.24214623845E+03  0.27652112841E+03  0.00000000000E+00 0.  1.
<mgrwt>
<rscale>  0 0.14418882E+04</rscale>
<asrwt>0</asrwt>
<pdfrwt beam="1">  1        1 0.83240005E-01 0.14418882E+04</pdfrwt>
<pdfrwt beam="2">  1       -1 0.14778977E+00 0.14418882E+04</pdfrwt>
<totfact> 0.14011210E+01</totfact>
</mgrwt>
</event>
<event>
12    1  0.1489025E-007  0.1503473E+04  0.7818608E-02  0.8882146E-01
          1   -1    0    0  501    0  0.00000000000E+00  0.00000000000E+00  0.12022027866E+04  0.12022027866E+04  0.00000000000E+00 0. -1.
         -1   -1    0    0    0  501 -0.00000000000E+00 -0.00000000000E+00 -0.47006056138E+03  0.47006056138E+03  0.00000000000E+00 0.  1.
         23    2    1    2    0    0 -0.17251418454E+03 -0.26364304721E+03  0.60238436617E+03  0.68648045205E+03  0.95497048310E+02 0.  0.
        254    2    1    2    0    0  0.17251418454E+03  0.26364304721E+03  0.12975785903E+03  0.98578289590E+03  0.92502000825E+03 0.  0.
        -24    2    4    4    0    0 -0.36556127400E+03  0.20543972091E+03  0.96520951589E+02  0.43741112281E+03  0.78559991609E+02 0.  0.
         24    2    4    4    0    0  0.53807545854E+03  0.58203326301E+02  0.33236907436E+02  0.54837177309E+03  0.81817377332E+02 0.  0.
         13    1    3    3    0    0 -0.18192232104E+03 -0.22736265136E+03  0.52018103887E+03  0.59613573901E+03  0.00000000000E+00 0. -1.
        -13    1    3    3    0    0  0.94081365031E+01 -0.36280395842E+02  0.82203327299E+02  0.90344713038E+02  0.00000000000E+00 0.  1.
          4    1    6    6  502    0  0.22205528429E+03  0.47627029498E+02  0.46826651802E+02  0.23188276895E+03  0.00000000000E+00 0. -1.
          1    1    5    5  503    0 -0.11848392419E+03  0.72205988925E+02 -0.51709512456E+01  0.13884842047E+03  0.00000000000E+00 0. -1.
         -2    1    5    5    0  503 -0.24707734981E+03  0.13323373198E+03  0.10169190283E+03  0.29856270234E+03  0.00000000000E+00 0.  1.
         -3    1    6    6    0  502  0.31602017425E+03  0.10576296803E+02 -0.13589744367E+02  0.31648900414E+03  0.00000000000E+00 0.  1.
<mgrwt>
<rscale>  0 0.15034735E+04</rscale>
<asrwt>0</asrwt>
<pdfrwt beam="1">  1        1 0.18495427E+00 0.15034735E+04</pdfrwt>
<pdfrwt beam="2">  1       -1 0.72317010E-01 0.15034735E+04</pdfrwt>
<totfact> 0.19861253E+01</totfact>
</mgrwt>
</event>
<event>
12    1  0.1489025E-007  0.1959495E+04  0.7818608E-02  0.8625796E-01
         -2   -1    0    0    0  501 -0.00000000000E+00  0.00000000000E+00  0.15458223634E+04  0.15458223634E+04  0.00000000000E+00 0.  1.
          2   -1    0    0  501    0  0.00000000000E+00 -0.00000000000E+00 -0.62096727876E+03  0.62096727876E+03  0.00000000000E+00 0. -1.
         23    2    1    2    0    0 -0.22956009199E+02 -0.32542009693E+03  0.11263019450E+04  0.11761687587E+04  0.91606003527E+02 0.  0.
        254    2    1    2    0    0  0.22956009199E+02  0.32542009693E+03 -0.20144686029E+03  0.99062088348E+03  0.91341320300E+03 0.  0.
        -24    2    4    4    0    0 -0.31240571940E+03  0.43562229798E+03  0.57057197858E+02  0.54499665210E+03  0.80010667811E+02 0.  0.
         24    2    4    4    0    0  0.33536172860E+03 -0.11020220105E+03 -0.25850405815E+03  0.44562423137E+03  0.84525696588E+02 0.  0.
         11    1    3    3    0    0 -0.36469158629E+02 -0.31709207336E+03  0.10224936123E+04  0.10711538496E+04  0.00000000000E+00 0.  1.
        -11    1    3    3    0    0  0.13513149430E+02 -0.83280235710E+01  0.10380833272E+03  0.10501490907E+03  0.00000000000E+00 0. -1.
          2    1    6    6  502    0  0.88656366761E+01 -0.15621088473E+00  0.64676310442E+01  0.10975161358E+02  0.00000000000E+00 0. -1.
          1    1    5    5  503    0 -0.42330795268E+02  0.97637186239E+02  0.34111582841E+02  0.11175203107E+03  0.00000000000E+00 0. -1.
         -2    1    5    5    0  503 -0.27007492413E+03  0.33798511175E+03  0.22945615017E+02  0.43324462103E+03  0.00000000000E+00 0.  1.
         -1    1    6    6    0  502  0.32649609192E+03 -0.11004599017E+03 -0.26497168919E+03  0.43464907002E+03  0.00000000000E+00 0.  1.
<mgrwt>
<rscale>  0 0.19594949E+04</rscale>
<asrwt>0</asrwt>
<pdfrwt beam="1">  1        2 0.95533428E-01 0.19594949E+04</pdfrwt>
<pdfrwt beam="2">  1       -2 0.23781882E+00 0.19594949E+04</pdfrwt>
<totfact> 0.33867672E+00</totfact>
</mgrwt>
</event>
<event>
12    1  0.1489025E-007  0.3104393E+04  0.7818608E-02  0.8214533E-01
          1   -1    0    0  501    0  0.00000000000E+00  0.00000000000E+00  0.20512070952E+04  0.20512070952E+04  0.00000000000E+00 0. -1.
         -1   -1    0    0    0  501 -0.00000000000E+00 -0.00000000000E+00 -0.11745835233E+04  0.11745835233E+04  0.00000000000E+00 0.  1.
         23    2    1    2    0    0 -0.63157545544E+03  0.11306880404E+04 -0.21101342674E+03  0.13151490340E+04  0.88018831957E+02 0.  0.
        254    2    1    2    0    0  0.63157545544E+03 -0.11306880404E+04  0.10876369986E+04  0.19106415844E+04  0.88896232928E+03 0.  0.
        -24    2    4    4    0    0 -0.21582571146E+03 -0.24847652991E+03  0.16514966367E+03  0.37632481930E+03  0.77618519513E+02 0.  0.
         24    2    4    4    0    0  0.84740116691E+03 -0.88221151053E+03  0.92248733490E+03  0.15343167651E+04  0.82214145835E+02 0.  0.
         11    1    3    3    0    0 -0.39660375421E+02  0.83734287376E+02  0.67538620178E+01  0.92897744392E+02  0.00000000000E+00 0. -1.
        -11    1    3    3    0    0 -0.59191508002E+03  0.10469537531E+04 -0.21776728875E+03  0.12222512897E+04  0.00000000000E+00 0.  1.
          4    1    6    6  502    0  0.26424159922E+03 -0.22193150629E+03  0.26343844078E+03  0.43413941116E+03  0.00000000000E+00 0. -1.
          3    1    5    5  503    0 -0.41432022888E+02 -0.10130256485E+02  0.17002322019E+02  0.45916375849E+02  0.00000000000E+00 0. -1.
         -4    1    5    5    0  503 -0.17439368858E+03 -0.23834627342E+03  0.14814734165E+03  0.33040844346E+03  0.00000000000E+00 0.  1.
         -3    1    6    6    0  502  0.58315956769E+03 -0.66028000424E+03  0.65904889412E+03  0.11001773540E+04  0.00000000000E+00 0.  1.
<mgrwt>
<rscale>  0 0.31043931E+04</rscale>
<asrwt>0</asrwt>
<pdfrwt beam="1">  1        1 0.31557032E+00 0.31043931E+04</pdfrwt>
<pdfrwt beam="2">  1       -1 0.18070516E+00 0.31043931E+04</pdfrwt>
<totfact> 0.47725687E-01</totfact>
</mgrwt>
</event>
<event>
12    1  0.1489025E-007  0.1865404E+04  0.7818608E-02  0.8672271E-01
         -2   -1    0    0    0  501 -0.00000000000E+00  0.00000000000E+00  0.10902654844E+04  0.10902654844E+04  0.00000000000E+00 0.  1.
          2   -1    0    0  501    0  0.00000000000E+00 -0.00000000000E+00 -0.79790949599E+03  0.79790949599E+03  0.00000000000E+00 0. -1.
         23    2    1    2    0    0 -0.55589237383E+03 -0.25627464147E+03 -0.23719016767E+03  0.66286129196E+03  0.91830787850E+02 0.  0.
        254    2    1    2    0    0  0.55589237383E+03  0.25627464147E+03  0.52954615604E+03  0.12253136884E+04  0.91993558494E+03 0.  0.
        -24    2    4    4    0    0  0.39523068453E+03  0.19739179672E+03 -0.18453860009E+03  0.48649621834E+03  0.86332265856E+02 0.  0.
         24    2    4    4    0    0  0.16066168930E+03  0.58882844744E+02  0.71408475613E+03  0.73881747005E+03  0.81577247416E+02 0.  0.
         13    1    3    3    0    0 -0.19443529817E+03 -0.12157462060E+03 -0.52797252421E+02  0.23531473267E+03  0.00000000000E+00 0.  1.
        -13    1    3    3    0    0 -0.36145707567E+03 -0.13470002087E+03 -0.18439291525E+03  0.42754655930E+03  0.00000000000E+00 0. -1.
          4    1    6    6  502    0  0.14338464219E+03  0.70294055100E+02  0.68333976966E+03  0.70175041902E+03  0.00000000000E+00 0. -1.
          1    1    5    5  503    0  0.22156184191E+03  0.14350178742E+03 -0.75867094924E+02  0.27466020621E+03  0.00000000000E+00 0. -1.
         -2    1    5    5    0  503  0.17366884263E+03  0.53890009301E+02 -0.10867150516E+03  0.21183601213E+03  0.00000000000E+00 0.  1.
         -3    1    6    6    0  502  0.17277047114E+02 -0.11411210355E+02  0.30744986471E+02  0.37067051028E+02  0.00000000000E+00 0.  1.
<mgrwt>
<rscale>  0 0.18654042E+04</rscale>
<asrwt>0</asrwt>
<pdfrwt beam="1">  1        2 0.12275531E+00 0.18654042E+04</pdfrwt>
<pdfrwt beam="2">  1       -2 0.16773315E+00 0.18654042E+04</pdfrwt>
<totfact> 0.71785583E+00</totfact>
</mgrwt>
</event>
<event>
12    1  0.1489025E-007  0.1346060E+04  0.7818608E-02  0.8993816E-01
         -2   -1    0    0    0  501 -0.00000000000E+00  0.00000000000E+00  0.16770942588E+03  0.16770942588E+03  0.00000000000E+00 0.  1.
          2   -1    0    0  501    0  0.00000000000E+00 -0.00000000000E+00 -0.27009171323E+04  0.27009171323E+04  0.00000000000E+00 0. -1.
         23    2    1    2    0    0 -0.25145935827E+03  0.66629518262E+02 -0.15896463001E+03  0.31839833741E+03  0.91850128515E+02 0.  0.
        254    2    1    2    0    0  0.25145935827E+03 -0.66629518262E+02 -0.23742430764E+04  0.25502282208E+04  0.89384701743E+03 0.  0.
        -24    2    4    4    0    0 -0.12477214375E+03  0.89215380475E+02 -0.19465682170E+04  0.19542290172E+04  0.79722998208E+02 0.  0.
         24    2    4    4    0    0  0.37623150202E+03 -0.15584489874E+03 -0.42767485946E+03  0.59599920357E+03  0.80445569620E+02 0.  0.
         11    1    3    3    0    0 -0.98142444702E+02  0.37952306373E+02 -0.15280910603E+02  0.10632884482E+03  0.00000000000E+00 0. -1.
        -11    1    3    3    0    0 -0.15331691356E+03  0.28677211888E+02 -0.14368371941E+03  0.21206949259E+03  0.00000000000E+00 0.  1.
          2    1    6    6  502    0  0.32737319889E+03 -0.14137331267E+03 -0.33013634254E+03  0.48595229144E+03  0.00000000000E+00 0. -1.
          1    1    5    5  503    0 -0.10846947319E+03  0.10163424314E+03 -0.18147160967E+04  0.18207936890E+04  0.00000000000E+00 0. -1.
         -2    1    5    5    0  503 -0.16302670566E+02 -0.12418862668E+02 -0.13185212023E+03  0.13343532826E+03  0.00000000000E+00 0.  1.
         -1    1    6    6    0  502  0.48858303126E+02 -0.14471586070E+02 -0.97538516916E+02  0.11004691213E+03  0.00000000000E+00 0.  1.
<mgrwt>
<rscale>  0 0.13460598E+04</rscale>
<asrwt>0</asrwt>
<pdfrwt beam="1">  1        2 0.41552571E+00 0.13460598E+04</pdfrwt>
<pdfrwt beam="2">  1       -2 0.25801450E-01 0.13460598E+04</pdfrwt>
<totfact> 0.35324155E+01</totfact>
</mgrwt>
</event>
