<event>
12    1  0.2433511E-007  0.1604955E+04  0.7818608E-02  0.8817510E-01
          1   -1    0    0  501    0  0.00000000000E+00  0.00000000000E+00  0.57224769583E+03  0.57224769583E+03  0.00000000000E+00 0. -1.
         -1   -1    0    0    0  501 -0.00000000000E+00 -0.00000000000E+00 -0.11253345334E+04  0.11253345334E+04  0.00000000000E+00 0.  1.
         23    2    1    2    0    0  0.47436270755E+03 -0.48448252963E+02 -0.47110017052E+03  0.67649757107E+03  0.91358532511E+02 0.  0.
        254    2    1    2    0    0 -0.47436270755E+03  0.48448252963E+02 -0.81986667034E+02  0.10210846581E+04  0.89918010098E+03 0.  0.
        -24    2    4    4    0    0 -0.38186996722E+02 -0.18342478432E+03 -0.38532403854E+03  0.43580164453E+03  0.79659026348E+02 0.  0.
         24    2    4    4    0    0 -0.43617571083E+03  0.23187303728E+03  0.30333737150E+03  0.58528301361E+03  0.80797827569E+02 0.  0.
         11    1    3    3    0    0  0.50818131865E+02  0.23329347683E+02 -0.54969816199E+02  0.78411872076E+02  0.00000000000E+00 0. -1.
        -11    1    3    3    0    0  0.42354457569E+03 -0.71777600646E+02 -0.41613035432E+03  0.59808569899E+03  0.00000000000E+00 0.  1.
          2    1    6    6  502    0 -0.63612313350E+02  0.19755828627E+02  0.13996299715E+02  0.68064054979E+02  0.00000000000E+00 0. -1.
          3    1    5    5  503    0  0.36907897210E+01 -0.87938040589E+02 -0.24951642139E+03  0.26458489272E+03  0.00000000000E+00 0. -1.
         -4    1    5    5    0  503 -0.41877786443E+02 -0.95486743728E+02 -0.13580761714E+03  0.17121675181E+03  0.00000000000E+00 0.  1.
         -1    1    6    6    0  502 -0.37256339748E+03  0.21211720865E+03  0.28934107179E+03  0.51721895863E+03  0.00000000000E+00 0.  1.
<mgrwt>
<rscale>  0 0.16049549E+04</rscale>
<asrwt>0</asrwt>
<pdfrwt beam="1">  1        1 0.88038108E-01 0.16049549E+04</pdfrwt>
<pdfrwt beam="2">  1       -1 0.17312839E+00 0.16049549E+04</pdfrwt>
<totfact> 0.82072067E+00</totfact>
</mgrwt>
</event>
<event>
12    1  0.2433511E-007  0.1427255E+04  0.7818608E-02  0.8934323E-01
         -2   -1    0    0    0  501 -0.00000000000E+00  0.00000000000E+00  0.26392298822E+03  0.26392298822E+03  0.00000000000E+00 0.  1.
          2   -1    0    0  501    0  0.00000000000E+00 -0.00000000000E+00 -0.19295927497E+04  0.19295927497E+04  0.00000000000E+00 0. -1.
         23    2    1    2    0    0 -0.10727470663E+03 -0.27730586549E+03 -0.96793663925E+03  0.10167292516E+04  0.91818449585E+02 0.  0.
        254    2    1    2    0    0  0.10727470663E+03  0.27730586549E+03 -0.69773312228E+03  0.11767864864E+04  0.89977137036E+03 0.  0.
        -24    2    4    4    0    0 -0.18570841960E+03 -0.11816316636E+03 -0.63165051124E+03  0.67371328535E+03  0.80355905281E+02 0.  0.
         24    2    4    4    0    0  0.29298312623E+03  0.39546903185E+03 -0.66082611037E+02  0.50307320104E+03  0.80503830446E+02 0.  0.
         13    1    3    3    0    0 -0.91154451677E+02 -0.23101216826E+03 -0.89524890487E+03  0.92905670312E+03  0.00000000000E+00 0. -1.
        -13    1    3    3    0    0 -0.16120254950E+02 -0.46293697224E+02 -0.72687734379E+02  0.87672548448E+02  0.00000000000E+00 0.  1.
          4    1    6    6  502    0  0.18058473242E+03  0.22378860212E+03 -0.22472566477E+00  0.28756257497E+03  0.00000000000E+00 0. -1.
          1    1    5    5  503    0 -0.41100870715E+02  0.46092171587E+01 -0.16208713722E+03  0.16728050247E+03  0.00000000000E+00 0. -1.
         -2    1    5    5    0  503 -0.14460754889E+03 -0.12277238352E+03 -0.46956337402E+03  0.50643278288E+03  0.00000000000E+00 0.  1.
         -3    1    6    6    0  502  0.11239839380E+03  0.17168042973E+03 -0.65857885372E+02  0.21551062607E+03  0.00000000000E+00 0.  1.
<mgrwt>
<rscale>  0 0.14272545E+04</rscale>
<asrwt>0</asrwt>
<pdfrwt beam="1">  1        2 0.29686042E+00 0.14272545E+04</pdfrwt>
<pdfrwt beam="2">  1       -2 0.40603537E-01 0.14272545E+04</pdfrwt>
<totfact> 0.40800883E+01</totfact>
</mgrwt>
</event>
<event>
12    1  0.2433511E-007  0.1438435E+04  0.7818608E-02  0.8926458E-01
          1   -1    0    0  501    0  0.00000000000E+00  0.00000000000E+00  0.52571529558E+03  0.52571529558E+03  0.00000000000E+00 0. -1.
         -1   -1    0    0    0  501 -0.00000000000E+00 -0.00000000000E+00 -0.98394287247E+03  0.98394287247E+03  0.00000000000E+00 0.  1.
         23    2    1    2    0    0  0.56253366896E+02  0.13176887081E+03  0.28651855463E+03  0.33336100480E+03  0.92245329267E+02 0.  0.
        254    2    1    2    0    0 -0.56253366896E+02 -0.13176887081E+03 -0.74474613152E+03  0.11762971633E+04  0.89916669159E+03 0.  0.
        -24    2    4    4    0    0 -0.25906642805E+03 -0.12268557572E+01 -0.85574618428E+03  0.89768435174E+03  0.80117065220E+02 0.  0.
         24    2    4    4    0    0  0.20281306115E+03 -0.13054201505E+03  0.11100005276E+03  0.27861281151E+03  0.84437737758E+02 0.  0.
         11    1    3    3    0    0  0.23159823422E+02  0.12828429301E+03  0.25985602156E+03  0.29072046573E+03  0.00000000000E+00 0. -1.
        -11    1    3    3    0    0  0.33093543475E+02  0.34845777931E+01  0.26662533074E+02  0.42640539068E+02  0.00000000000E+00 0.  1.
          4    1    6    6  502    0  0.20258217702E+03 -0.11247560774E+03  0.11699937270E+03  0.25957494871E+03  0.00000000000E+00 0. -1.
          3    1    5    5  503    0 -0.10620465985E+03 -0.39616655864E+02 -0.37564242180E+03  0.39237244839E+03  0.00000000000E+00 0. -1.
         -4    1    5    5    0  503 -0.15286176820E+03  0.38389800107E+02 -0.48010376248E+03  0.50531190336E+03  0.00000000000E+00 0.  1.
         -3    1    6    6    0  502  0.23088413126E+00 -0.18066407306E+02 -0.59993199385E+01  0.19037862804E+02  0.00000000000E+00 0.  1.
<mgrwt>
<rscale>  0 0.14384350E+04</rscale>
<asrwt>0</asrwt>
<pdfrwt beam="1">  1        1 0.80879278E-01 0.14384350E+04</pdfrwt>
<pdfrwt beam="2">  1       -1 0.15137582E+00 0.14384350E+04</pdfrwt>
<totfact> 0.13678621E+01</totfact>
</mgrwt>
</event>
<event>
12    1  0.2433511E-007  0.2349209E+04  0.7818608E-02  0.8458767E-01
          3   -1    0    0  501    0  0.00000000000E+00  0.00000000000E+00  0.14233661150E+04  0.14233661150E+04  0.00000000000E+00 0. -1.
         -3   -1    0    0    0  501 -0.00000000000E+00 -0.00000000000E+00 -0.96931916805E+03  0.96931916805E+03  0.00000000000E+00 0.  1.
         23    2    1    2    0    0 -0.75335493554E+03  0.23240250371E+03  0.81998376661E+03  0.11411772311E+04  0.91419432204E+02 0.  0.
        254    2    1    2    0    0  0.75335493554E+03 -0.23240250371E+03 -0.36593681964E+03  0.12515080520E+04  0.90044881342E+03 0.  0.
        -24    2    4    4    0    0  0.69849210855E+03 -0.33028334530E+03  0.83520068452E+02  0.78130550913E+03  0.80525665974E+02 0.  0.
         24    2    4    4    0    0  0.54862826986E+02  0.97880841591E+02 -0.44945688810E+03  0.47020254285E+03  0.80550283143E+02 0.  0.
         11    1    3    3    0    0 -0.52761917768E+03  0.12278019512E+03  0.58675295461E+03  0.79858374809E+03  0.00000000000E+00 0. -1.
        -11    1    3    3    0    0 -0.22573575786E+03  0.10962230859E+03  0.23323081200E+03  0.34259348298E+03  0.00000000000E+00 0.  1.
          2    1    6    6  502    0 -0.16891718166E+02  0.30835854740E+02 -0.18016494695E+03  0.18356358078E+03  0.00000000000E+00 0. -1.
          3    1    5    5  503    0  0.45991169791E+03 -0.17944986994E+03  0.35160149702E+02  0.49493157287E+03  0.00000000000E+00 0. -1.
         -4    1    5    5    0  503  0.23858041064E+03 -0.15083347536E+03  0.48359918750E+02  0.28637393626E+03  0.00000000000E+00 0.  1.
         -1    1    6    6    0  502  0.71754545152E+02  0.67044986851E+02 -0.26929194115E+03  0.28663896208E+03  0.00000000000E+00 0.  1.
<mgrwt>
<rscale>  0 0.23492093E+04</rscale>
<asrwt>0</asrwt>
<pdfrwt beam="1">  1        3 0.21897940E+00 0.23492093E+04</pdfrwt>
<pdfrwt beam="2">  1       -3 0.14912603E+00 0.23492093E+04</pdfrwt>
<totfact> 0.86712106E-02</totfact>
</mgrwt>
</event>
<event>
12    1  0.2433511E-007  0.2047446E+04  0.7818608E-02  0.8584754E-01
         -1   -1    0    0    0  501 -0.00000000000E+00  0.00000000000E+00  0.35844263894E+03  0.35844263894E+03  0.00000000000E+00 0.  1.
          1   -1    0    0  501    0  0.00000000000E+00 -0.00000000000E+00 -0.29237843779E+04  0.29237843779E+04  0.00000000000E+00 0. -1.
         23    2    1    2    0    0  0.74873332807E+03 -0.32176362439E+03 -0.10150215306E+04  0.13050450578E+04  0.93490474829E+02 0.  0.
        254    2    1    2    0    0 -0.74873332807E+03  0.32176362439E+03 -0.15503202084E+04  0.19771819590E+04  0.91739976233E+03 0.  0.
        -24    2    4    4    0    0  0.70799576536E+02  0.19799492017E+03 -0.87483522404E+01  0.22522671877E+03  0.80224514537E+02 0.  0.
         24    2    4    4    0    0 -0.81953290461E+03  0.12376870422E+03 -0.15415718561E+04  0.17519552402E+04  0.77139498542E+02 0.  0.
         11    1    3    3    0    0  0.46133771985E+03 -0.19815732632E+03 -0.55146993270E+03  0.74580017727E+03  0.00000000000E+00 0. -1.
        -11    1    3    3    0    0  0.28739560822E+03 -0.12360629807E+03 -0.46355159786E+03  0.55924488055E+03  0.00000000000E+00 0.  1.
          2    1    6    6  502    0 -0.77148681312E+03  0.11147017070E+03 -0.14064185021E+04  0.16079895848E+04  0.00000000000E+00 0. -1.
          3    1    5    5  503    0  0.19985027736E+02  0.84532436011E+02  0.34691838149E+02  0.93534259529E+02  0.00000000000E+00 0. -1.
         -4    1    5    5    0  503  0.50814548800E+02  0.11346248416E+03 -0.43440190389E+02  0.13169245924E+03  0.00000000000E+00 0.  1.
         -1    1    6    6    0  502 -0.48046091490E+02  0.12298533524E+02 -0.13515335406E+03  0.14396565545E+03  0.00000000000E+00 0.  1.
<mgrwt>
<rscale>  0 0.20474462E+04</rscale>
<asrwt>0</asrwt>
<pdfrwt beam="1">  1        1 0.44981300E+00 0.20474462E+04</pdfrwt>
<pdfrwt beam="2">  1       -1 0.55145019E-01 0.20474462E+04</pdfrwt>
<totfact> 0.20883105E+00</totfact>
</mgrwt>
</event>
<event>
12    1  0.2433511E-007  0.2633187E+04  0.7818608E-02  0.8357015E-01
          1   -1    0    0  501    0  0.00000000000E+00  0.00000000000E+00  0.19314572879E+04  0.19314572879E+04  0.00000000000E+00 0. -1.
         -1   -1    0    0    0  501 -0.00000000000E+00 -0.00000000000E+00 -0.89746671659E+03  0.89746671659E+03  0.00000000000E+00 0.  1.
         23    2    1    2    0    0 -0.31488764848E+02  0.10690841516E+04  0.94411144886E+03  0.14295292420E+04  0.90966808475E+02 0.  0.
        254    2    1    2    0    0  0.31488764848E+02 -0.10690841516E+04  0.89879122487E+02  0.13993947626E+04  0.89793929599E+03 0.  0.
        -24    2    4    4    0    0 -0.27639635401E+03 -0.77889234400E+01  0.57254432692E+01  0.28841209514E+03  0.81811637828E+02 0.  0.
         24    2    4    4    0    0  0.30788511885E+03 -0.10612952282E+04  0.84153679218E+02  0.11109826674E+04  0.77844960257E+02 0.  0.
         11    1    3    3    0    0 -0.37342447830E+02  0.16629843270E+03  0.14086796965E+03  0.22111854739E+03  0.00000000000E+00 0. -1.
        -11    1    3    3    0    0  0.58536829823E+01  0.90278571891E+03  0.80324347921E+03  0.12084106946E+04  0.00000000000E+00 0.  1.
          2    1    6    6  502    0  0.94134323542E+02 -0.43048685367E+03  0.57673784113E+02  0.44441699723E+03  0.00000000000E+00 0. -1.
          3    1    5    5  503    0 -0.51735610139E+02  0.23705989794E+02 -0.19499705619E+02  0.60156344868E+02  0.00000000000E+00 0. -1.
         -4    1    5    5    0  503 -0.22466074387E+03 -0.31494913234E+02  0.25225148888E+02  0.22825575027E+03  0.00000000000E+00 0.  1.
         -1    1    6    6    0  502  0.21375079531E+03 -0.63080837450E+03  0.26479895105E+02  0.66656567019E+03  0.00000000000E+00 0.  1.
<mgrwt>
<rscale>  0 0.26331871E+04</rscale>
<asrwt>0</asrwt>
<pdfrwt beam="1">  1        1 0.29714728E+00 0.26331871E+04</pdfrwt>
<pdfrwt beam="2">  1       -1 0.13807180E+00 0.26331871E+04</pdfrwt>
<totfact> 0.12659021E+00</totfact>
</mgrwt>
</event>
<event>
12    1  0.2433511E-007  0.1279749E+04  0.7818608E-02  0.9045781E-01
          1   -1    0    0  501    0  0.00000000000E+00  0.00000000000E+00  0.26975552844E+04  0.26975552844E+04  0.00000000000E+00 0. -1.
         -1   -1    0    0    0  501 -0.00000000000E+00 -0.00000000000E+00 -0.15178154324E+03  0.15178154324E+03  0.00000000000E+00 0.  1.
         23    2    1    2    0    0  0.18985937315E+03 -0.19335008783E+03  0.99767227410E+03  0.10378742169E+04  0.91662891270E+02 0.  0.
        254    2    1    2    0    0 -0.18985937315E+03  0.19335008783E+03  0.15481014671E+04  0.18114626107E+04  0.90074846636E+03 0.  0.
        -24    2    4    4    0    0  0.14927156859E+03  0.33658568688E+03  0.23141156080E+03  0.44198945209E+03  0.78939467207E+02 0.  0.
         24    2    4    4    0    0 -0.33913094174E+03 -0.14323559906E+03  0.13166899063E+04  0.13694731586E+04  0.79108725503E+02 0.  0.
         11    1    3    3    0    0  0.11566056763E+02  0.10229702964E+02  0.52202972422E+02  0.54438688646E+02  0.00000000000E+00 0. -1.
        -11    1    3    3    0    0  0.17829331639E+03 -0.20357979079E+03  0.94546930168E+03  0.98343552829E+03  0.00000000000E+00 0.  1.
          4    1    6    6  502    0 -0.43508329143E+02 -0.24951689530E+01  0.92447361663E+02  0.10220428196E+03  0.00000000000E+00 0. -1.
          1    1    5    5  503    0  0.29545416290E+02  0.82014103432E+02  0.96332365946E+02  0.12991985804E+03  0.00000000000E+00 0. -1.
         -2    1    5    5    0  503  0.11972615230E+03  0.25457158345E+03  0.13507919486E+03  0.31206959405E+03  0.00000000000E+00 0.  1.
         -3    1    6    6    0  502 -0.29562261260E+03 -0.14074043010E+03  0.12242425446E+04  0.12672688767E+04  0.00000000000E+00 0.  1.
<mgrwt>
<rscale>  0 0.12797486E+04</rscale>
<asrwt>0</asrwt>
<pdfrwt beam="1">  1        1 0.41500847E+00 0.12797486E+04</pdfrwt>
<pdfrwt beam="2">  1       -1 0.23351009E-01 0.12797486E+04</pdfrwt>
<totfact> 0.15368468E+01</totfact>
</mgrwt>
</event>
<event>
12    1  0.2433511E-007  0.3025512E+04  0.7818608E-02  0.8236483E-01
         -1   -1    0    0    0  501 -0.00000000000E+00  0.00000000000E+00  0.21687053150E+04  0.21687053150E+04  0.00000000000E+00 0.  1.
          1   -1    0    0  501    0  0.00000000000E+00 -0.00000000000E+00 -0.10552059430E+04  0.10552059430E+04  0.00000000000E+00 0. -1.
         23    2    1    2    0    0 -0.13182253433E+04 -0.33444021426E+03  0.27516068114E+03  0.13905407905E+04  0.91224870267E+02 0.  0.
        254    2    1    2    0    0  0.13182253433E+04  0.33444021426E+03  0.83833869087E+03  0.18333704676E+04  0.89937044548E+03 0.  0.
        -24    2    4    4    0    0 -0.11748516854E+03  0.19593484849E+02  0.15315495557E+03  0.20977023913E+03  0.79752387638E+02 0.  0.
         24    2    4    4    0    0  0.14357105118E+04  0.31484672941E+03  0.68518373530E+03  0.16236002284E+04  0.78789681632E+02 0.  0.
         11    1    3    3    0    0 -0.83553277256E+03 -0.17921484691E+03  0.14139978351E+03  0.86615637974E+03  0.00000000000E+00 0. -1.
        -11    1    3    3    0    0 -0.48269257071E+03 -0.15522536735E+03  0.13376089763E+03  0.52438441073E+03  0.00000000000E+00 0.  1.
          2    1    6    6  502    0  0.53673942349E+03  0.13635281283E+03  0.22124866872E+03  0.59634911898E+03  0.00000000000E+00 0. -1.
          3    1    5    5  503    0 -0.58935093589E+02  0.31845053778E+02  0.12881022798E+03  0.14518790425E+03  0.00000000000E+00 0. -1.
         -4    1    5    5    0  503 -0.58550074950E+02 -0.12251568928E+02  0.24344727590E+02  0.64582334885E+02  0.00000000000E+00 0.  1.
         -1    1    6    6    0  502  0.89897108833E+03  0.17849391658E+03  0.46393506658E+03  0.10272511095E+04  0.00000000000E+00 0.  1.
<mgrwt>
<rscale>  0 0.30255120E+04</rscale>
<asrwt>0</asrwt>
<pdfrwt beam="1">  1        1 0.16233938E+00 0.30255120E+04</pdfrwt>
<pdfrwt beam="2">  1       -1 0.33364697E+00 0.30255120E+04</pdfrwt>
<totfact> 0.23193931E-01</totfact>
</mgrwt>
</event>
<event>
12    1  0.2433511E-007  0.2243436E+04  0.7818608E-02  0.8500563E-01
          1   -1    0    0  501    0  0.00000000000E+00  0.00000000000E+00  0.15370127260E+04  0.15370127260E+04  0.00000000000E+00 0. -1.
         -1   -1    0    0    0  501 -0.00000000000E+00 -0.00000000000E+00 -0.81863437210E+03  0.81863437210E+03  0.00000000000E+00 0.  1.
         23    2    1    2    0    0 -0.51366933076E+03  0.77050308427E+03  0.43442737610E+03  0.10268967715E+04  0.90877114501E+02 0.  0.
        254    2    1    2    0    0  0.51366933076E+03 -0.77050308427E+03  0.28395097780E+03  0.13287503266E+04  0.90962524616E+03 0.  0.
        -24    2    4    4    0    0 -0.22925331079E+02  0.54331296052E+02  0.32559234719E+03  0.34058366987E+03  0.80680847177E+02 0.  0.
         24    2    4    4    0    0  0.53659466184E+03 -0.82483438033E+03 -0.41641369387E+02  0.98816665674E+03  0.80335246119E+02 0.  0.
         13    1    3    3    0    0 -0.29866779084E+03  0.52032315833E+03  0.29868091703E+03  0.67018574184E+03  0.00000000000E+00 0.  1.
        -13    1    3    3    0    0 -0.21500153993E+03  0.25017992595E+03  0.13574645908E+03  0.35671102965E+03  0.00000000000E+00 0. -1.
          4    1    6    6  502    0  0.46949827762E+03 -0.74198331213E+03 -0.59531474574E+02  0.88006355716E+03  0.00000000000E+00 0. -1.
          1    1    5    5  503    0  0.30240776170E+02  0.23165893779E+02  0.13533896704E+03  0.14059800560E+03  0.00000000000E+00 0. -1.
         -2    1    5    5    0  503 -0.53166107249E+02  0.31165402273E+02  0.19025338014E+03  0.19998566427E+03  0.00000000000E+00 0.  1.
         -3    1    6    6    0  502  0.67096384221E+02 -0.82851068195E+02  0.17890105187E+02  0.10810309959E+03  0.00000000000E+00 0.  1.
<mgrwt>
<rscale>  0 0.22434362E+04</rscale>
<asrwt>0</asrwt>
<pdfrwt beam="1">  1        1 0.23646350E+00 0.22434362E+04</pdfrwt>
<pdfrwt beam="2">  1       -1 0.12594375E+00 0.22434362E+04</pdfrwt>
<totfact> 0.30762906E+00</totfact>
</mgrwt>
</event>
<event>
12    1  0.2433511E-007  0.3834644E+04  0.7818608E-02  0.8038761E-01
         -1   -1    0    0    0  501 -0.00000000000E+00  0.00000000000E+00  0.19539893762E+04  0.19539893762E+04  0.00000000000E+00 0.  1.
          1   -1    0    0  501    0  0.00000000000E+00 -0.00000000000E+00 -0.18813426191E+04  0.18813426191E+04  0.00000000000E+00 0. -1.
         23    2    1    2    0    0  0.99340784197E+03  0.13596280145E+04 -0.63076212759E+03  0.18002725340E+04  0.87594844543E+02 0.  0.
        254    2    1    2    0    0 -0.99340784197E+03 -0.13596280145E+04  0.70340888468E+03  0.20350594613E+04  0.90068611278E+03 0.  0.
        -24    2    4    4    0    0 -0.79436863086E+03 -0.77479075641E+03  0.84392372642E+03  0.13964084796E+04  0.80169496054E+02 0.  0.
         24    2    4    4    0    0 -0.19903921111E+03 -0.58483725809E+03 -0.14051484174E+03  0.63865098167E+03  0.80494904347E+02 0.  0.
         11    1    3    3    0    0  0.78950935090E+02  0.12773228995E+03 -0.80421830589E+02  0.17034218175E+03  0.00000000000E+00 0. -1.
        -11    1    3    3    0    0  0.91445690688E+03  0.12318957246E+04 -0.55034029701E+03  0.16299303523E+04  0.00000000000E+00 0.  1.
          4    1    6    6  502    0 -0.40420084303E+02 -0.11467269397E+03 -0.61303321713E+02  0.13616793753E+03  0.00000000000E+00 0. -1.
          3    1    5    5  503    0 -0.35290275250E+03 -0.38758273470E+03  0.36639030946E+03  0.63953310143E+03  0.00000000000E+00 0. -1.
         -4    1    5    5    0  503 -0.44146587836E+03 -0.38720802171E+03  0.47753341696E+03  0.75687537822E+03  0.00000000000E+00 0.  1.
         -3    1    6    6    0  502 -0.15861912680E+03 -0.47016456413E+03 -0.79211520030E+02  0.50248304414E+03  0.00000000000E+00 0.  1.
<mgrwt>
<rscale>  0 0.38346439E+04</rscale>
<asrwt>0</asrwt>
<pdfrwt beam="1">  1        1 0.28943733E+00 0.38346439E+04</pdfrwt>
<pdfrwt beam="2">  1       -1 0.30061375E+00 0.38346439E+04</pdfrwt>
<totfact> 0.93127008E-02</totfact>
</mgrwt>
</event>
<event>
12    1  0.2433511E-007  0.1396874E+04  0.7818608E-02  0.8956084E-01
         -1   -1    0    0    0  501 -0.00000000000E+00  0.00000000000E+00  0.44796508563E+03  0.44796508563E+03  0.00000000000E+00 0.  1.
          1   -1    0    0  501    0  0.00000000000E+00 -0.00000000000E+00 -0.10889566841E+04  0.10889566841E+04  0.00000000000E+00 0. -1.
         23    2    1    2    0    0  0.23717952262E+02  0.17043416313E+03 -0.58752270350E+03  0.61926223349E+03  0.93233263773E+02 0.  0.
        254    2    1    2    0    0 -0.23717952262E+02 -0.17043416313E+03 -0.53468895009E+02  0.91765953629E+03  0.89979428570E+03 0.  0.
        -24    2    4    4    0    0 -0.43759744891E+03  0.34377420701E+02  0.20701572548E+01  0.44604665035E+03  0.79246415650E+02 0.  0.
         24    2    4    4    0    0  0.41387949665E+03 -0.20481158383E+03 -0.55539052264E+02  0.47161288593E+03  0.78039126311E+02 0.  0.
         11    1    3    3    0    0  0.52750834959E+02  0.14170798793E+03 -0.50554596090E+03  0.52767463746E+03  0.00000000000E+00 0. -1.
        -11    1    3    3    0    0 -0.29032882698E+02  0.28726175207E+02 -0.81976742604E+02  0.91587596037E+02  0.00000000000E+00 0.  1.
          2    1    6    6  502    0  0.37456067522E+03 -0.16178407867E+03 -0.63029699010E+02  0.41284686082E+03  0.00000000000E+00 0. -1.
          1    1    5    5  503    0 -0.35736654810E+03  0.25806949913E+02  0.32598727542E+02  0.35977704958E+03  0.00000000000E+00 0. -1.
         -2    1    5    5    0  503 -0.80230900810E+02  0.85704707876E+01 -0.30528570287E+02  0.86269600776E+02  0.00000000000E+00 0.  1.
         -1    1    6    6    0  502  0.39318821425E+02 -0.43027505160E+02  0.74906467458E+01  0.58766025110E+02  0.00000000000E+00 0.  1.
<mgrwt>
<rscale>  0 0.13968745E+04</rscale>
<asrwt>0</asrwt>
<pdfrwt beam="1">  1        1 0.16753180E+00 0.13968745E+04</pdfrwt>
<pdfrwt beam="2">  1       -1 0.68917706E-01 0.13968745E+04</pdfrwt>
<totfact> 0.26856221E+01</totfact>
</mgrwt>
</event>
<event>
12    1  0.2433511E-007  0.1270417E+04  0.7818608E-02  0.9053359E-01
         -2   -1    0    0    0  501 -0.00000000000E+00  0.00000000000E+00  0.15222897162E+03  0.15222897162E+03  0.00000000000E+00 0. -1.
          2   -1    0    0  501    0  0.00000000000E+00 -0.00000000000E+00 -0.26505473138E+04  0.26505473138E+04  0.00000000000E+00 0.  1.
         23    2    1    2    0    0  0.96825341605E+02  0.28936259362E+03 -0.64585925916E+03  0.72019150740E+03  0.91846433439E+02 0.  0.
        254    2    1    2    0    0 -0.96825341605E+02 -0.28936259362E+03 -0.18524590830E+04  0.20825847780E+04  0.90135944325E+03 0.  0.
        -24    2    4    4    0    0  0.15750413130E+03 -0.10676095713E+03 -0.49234866759E+01  0.20703428589E+03  0.81446310339E+02 0.  0.
         24    2    4    4    0    0 -0.25432947291E+03 -0.18260163650E+03 -0.18475355963E+04  0.18755504921E+04  0.79215088713E+02 0.  0.
         11    1    3    3    0    0  0.38789057917E+02  0.13762492896E+03 -0.40643583883E+03  0.43085415533E+03  0.00000000000E+00 0.  1.
        -11    1    3    3    0    0  0.58036283688E+02  0.15173766466E+03 -0.23942342033E+03  0.28933735207E+03  0.00000000000E+00 0. -1.
          4    1    6    6  502    0 -0.80165066919E+02 -0.89395976299E+02 -0.54090129016E+03  0.55406884430E+03  0.00000000000E+00 0. -1.
          1    1    5    5  503    0  0.18343480633E+02  0.12713112336E+02  0.65638601082E+01  0.23263507185E+02  0.00000000000E+00 0. -1.
         -2    1    5    5    0  503  0.13916065067E+03 -0.11947406946E+03 -0.11487346784E+02  0.18377077870E+03  0.00000000000E+00 0.  1.
         -3    1    6    6    0  502 -0.17416440599E+03 -0.93205660197E+02 -0.13066343062E+04  0.13214816478E+04  0.00000000000E+00 0.  1.
<mgrwt>
<rscale>  0 0.12704174E+04</rscale>
<asrwt>0</asrwt>
<pdfrwt beam="1">  1        2 0.40777651E+00 0.12704174E+04</pdfrwt>
<pdfrwt beam="2">  1       -2 0.23419842E-01 0.12704174E+04</pdfrwt>
<totfact> 0.45364613E+01</totfact>
</mgrwt>
</event>
<event>
12    1  0.2433511E-007  0.1610714E+04  0.7818608E-02  0.8813993E-01
          2   -1    0    0  501    0  0.00000000000E+00  0.00000000000E+00  0.16536534427E+04  0.16536534427E+04  0.00000000000E+00 0. -1.
         -2   -1    0    0    0  501 -0.00000000000E+00 -0.00000000000E+00 -0.39222247436E+03  0.39222247436E+03  0.00000000000E+00 0.  1.
         23    2    1    2    0    0  0.12592420284E+03 -0.33019636518E+03  0.96985592346E+03  0.10360381017E+04  0.88701135259E+02 0.  0.
        254    2    1    2    0    0 -0.12592420284E+03  0.33019636518E+03  0.29157504485E+03  0.10098378154E+04  0.89992769829E+03 0.  0.
        -24    2    4    4    0    0  0.24694302319E+03  0.14202446564E+03 -0.20300591051E+03  0.35808400966E+03  0.76556859462E+02 0.  0.
         24    2    4    4    0    0 -0.37286722603E+03  0.18817189954E+03  0.49458095536E+03  0.65175380572E+03  0.75723641212E+02 0.  0.
         13    1    3    3    0    0  0.85649956519E+02 -0.13152107589E+03  0.34263375700E+03  0.37687080000E+03  0.00000000000E+00 0. -1.
        -13    1    3    3    0    0  0.40274246323E+02 -0.19867528928E+03  0.62722216646E+03  0.65916730167E+03  0.00000000000E+00 0.  1.
          2    1    6    6  502    0 -0.22588723580E+03  0.11019440221E+03  0.23927329763E+03  0.34701521657E+03  0.00000000000E+00 0. -1.
          3    1    5    5  503    0  0.92393158467E+02  0.62952124673E+02 -0.36684206975E+02  0.11766561424E+03  0.00000000000E+00 0. -1.
         -4    1    5    5    0  503  0.15454986472E+03  0.79072340965E+02 -0.16632170353E+03  0.24041839542E+03  0.00000000000E+00 0.  1.
         -1    1    6    6    0  502 -0.14697999023E+03  0.77977497332E+02  0.25530765772E+03  0.30473858914E+03  0.00000000000E+00 0.  1.
<mgrwt>
<rscale>  0 0.16107142E+04</rscale>
<asrwt>0</asrwt>
<pdfrwt beam="1">  1        2 0.25440822E+00 0.16107142E+04</pdfrwt>
<pdfrwt beam="2">  1       -2 0.60341920E-01 0.16107142E+04</pdfrwt>
<totfact> 0.25515382E+01</totfact>
</mgrwt>
</event>
<event>
12    1  0.2433511E-007  0.1683361E+04  0.7818608E-02  0.8770911E-01
          2   -1    0    0  501    0  0.00000000000E+00  0.00000000000E+00  0.44274680019E+03  0.44274680019E+03  0.00000000000E+00 0.  1.
         -2   -1    0    0    0  501 -0.00000000000E+00 -0.00000000000E+00 -0.16000707621E+04  0.16000707621E+04  0.00000000000E+00 0. -1.
         23    2    1    2    0    0  0.22090884944E+03  0.37223354741E+03 -0.91159673883E+03  0.10133384619E+04  0.92128663262E+02 0.  0.
        254    2    1    2    0    0 -0.22090884944E+03 -0.37223354741E+03 -0.24572722312E+03  0.10294791004E+04  0.90115859669E+03 0.  0.
        -24    2    4    4    0    0  0.85395376118E+02  0.16700720670E+03 -0.34080644645E+03  0.39698779568E+03  0.79161219212E+02 0.  0.
         24    2    4    4    0    0 -0.30630422556E+03 -0.53924075412E+03  0.95079223328E+02  0.63249130472E+03  0.80014513312E+02 0.  0.
         13    1    3    3    0    0  0.12210147783E+03  0.28081827499E+03 -0.67300185396E+03  0.73939108048E+03  0.00000000000E+00 0.  1.
        -13    1    3    3    0    0  0.98807371611E+02  0.91415272423E+02 -0.23859488487E+03  0.27394738145E+03  0.00000000000E+00 0. -1.
          4    1    6    6  502    0 -0.19871264155E+03 -0.36695724961E+03  0.10073775240E+03  0.42929294393E+03  0.00000000000E+00 0. -1.
          1    1    5    5  503    0  0.48197682861E+02  0.87039162646E+02 -0.25591205279E+03  0.27457205107E+03  0.00000000000E+00 0. -1.
         -2    1    5    5    0  503  0.37197693257E+02  0.79968044056E+02 -0.84894393660E+02  0.12241574461E+03  0.00000000000E+00 0.  1.
         -3    1    6    6    0  502 -0.10759158401E+03 -0.17228350451E+03 -0.56585290681E+01  0.20319836079E+03  0.00000000000E+00 0.  1.
<mgrwt>
<rscale>  0 0.16833612E+04</rscale>
<asrwt>0</asrwt>
<pdfrwt beam="1">  1        2 0.68114894E-01 0.16833612E+04</pdfrwt>
<pdfrwt beam="2">  1       -2 0.24616473E+00 0.16833612E+04</pdfrwt>
<totfact> 0.45806844E+00</totfact>
</mgrwt>
</event>
<event>
12    1  0.2433511E-007  0.1873728E+04  0.7818608E-02  0.8668045E-01
          1   -1    0    0  501    0  0.00000000000E+00  0.00000000000E+00  0.18354943392E+04  0.18354943392E+04  0.00000000000E+00 0. -1.
         -1   -1    0    0    0  501 -0.00000000000E+00 -0.00000000000E+00 -0.47818943107E+03  0.47818943107E+03  0.00000000000E+00 0.  1.
         23    2    1    2    0    0 -0.70908690390E+03 -0.60289795189E+01  0.63225808162E+03  0.95429136504E+03  0.89895170879E+02 0.  0.
        254    2    1    2    0    0  0.70908690390E+03  0.60289795189E+01  0.72504682646E+03  0.13593924052E+04  0.90521501581E+03 0.  0.
        -24    2    4    4    0    0  0.51513987482E+03 -0.42367887763E+03  0.41332610392E+03  0.78902490430E+03  0.82758379860E+02 0.  0.
         24    2    4    4    0    0  0.19394702907E+03  0.42970785715E+03  0.31172072255E+03  0.57036750089E+03  0.76713653467E+02 0.  0.
         11    1    3    3    0    0 -0.33887783806E+03 -0.79553240524E+01  0.36198641969E+03  0.49591898971E+03  0.00000000000E+00 0. -1.
        -11    1    3    3    0    0 -0.37020906583E+03  0.19263445335E+01  0.27027166193E+03  0.45837237534E+03  0.00000000000E+00 0.  1.
          4    1    6    6  502    0  0.17944474920E+03  0.41955230303E+03  0.28400219028E+03  0.53747725261E+03  0.00000000000E+00 0. -1.
          3    1    5    5  503    0  0.38037477622E+03 -0.26345523627E+03  0.28834480463E+03  0.54519387218E+03  0.00000000000E+00 0. -1.
         -4    1    5    5    0  503  0.13476509860E+03 -0.16022364136E+03  0.12498129928E+03  0.24383103212E+03  0.00000000000E+00 0.  1.
         -3    1    6    6    0  502  0.14502279869E+02  0.10155554123E+02  0.27718532269E+02  0.32890248282E+02  0.00000000000E+00 0.  1.
<mgrwt>
<rscale>  0 0.18737278E+04</rscale>
<asrwt>0</asrwt>
<pdfrwt beam="1">  1        1 0.28238374E+00 0.18737278E+04</pdfrwt>
<pdfrwt beam="2">  1       -1 0.73567606E-01 0.18737278E+04</pdfrwt>
<totfact> 0.67263388E+00</totfact>
</mgrwt>
</event>
<event>
12    1  0.2433511E-007  0.2794296E+04  0.7818608E-02  0.8305041E-01
          2   -1    0    0  501    0  0.00000000000E+00  0.00000000000E+00  0.98585006467E+03  0.98585006467E+03  0.00000000000E+00 0. -1.
         -2   -1    0    0    0  501 -0.00000000000E+00 -0.00000000000E+00 -0.19800398218E+04  0.19800398218E+04  0.00000000000E+00 0.  1.
         23    2    1    2    0    0 -0.15825915741E+03  0.12179105912E+04 -0.68765944498E+03  0.14110406043E+04  0.99034870225E+02 0.  0.
        254    2    1    2    0    0  0.15825915741E+03 -0.12179105912E+04 -0.30653031214E+03  0.15548492822E+04  0.90290823947E+03 0.  0.
        -24    2    4    4    0    0  0.49912469070E+03 -0.43531264931E+03 -0.12882813964E+03  0.67927148479E+03  0.78679736691E+02 0.  0.
         24    2    4    4    0    0 -0.34086553329E+03 -0.78259794192E+03 -0.17770217251E+03  0.87557779739E+03  0.80059769508E+02 0.  0.
         13    1    3    3    0    0  0.25620621248E+01  0.20336224930E+03 -0.87982025626E+02  0.22159333347E+03  0.00000000000E+00 0. -1.
        -13    1    3    3    0    0 -0.16082121954E+03  0.10145483419E+04 -0.59967741935E+03  0.11894472708E+04  0.00000000000E+00 0.  1.
          2    1    6    6  502    0 -0.24697294668E+03 -0.58605087401E+03 -0.97171108443E+02  0.64334554295E+03  0.00000000000E+00 0. -1.
          1    1    5    5  503    0  0.10346945991E+03 -0.10235529341E+03 -0.60696978553E+02  0.15769165618E+03  0.00000000000E+00 0. -1.
         -2    1    5    5    0  503  0.39565523079E+03 -0.33295735590E+03 -0.68131161086E+02  0.52157982861E+03  0.00000000000E+00 0.  1.
         -1    1    6    6    0  502 -0.93892586607E+02 -0.19654706791E+03 -0.80531064063E+02  0.23223225444E+03  0.00000000000E+00 0.  1.
<mgrwt>
<rscale>  0 0.27942959E+04</rscale>
<asrwt>0</asrwt>
<pdfrwt beam="1">  1        2 0.15166924E+00 0.27942959E+04</pdfrwt>
<pdfrwt beam="2">  1       -2 0.30462151E+00 0.27942959E+04</pdfrwt>
<totfact> 0.66682198E-01</totfact>
</mgrwt>
</event>
<event>
12    1  0.2765699E-007  0.2351562E+04  0.7818608E-02  0.8457864E-01
          1   -1    0    0  501    0  0.00000000000E+00  0.00000000000E+00  0.18316730079E+04  0.18316730079E+04  0.00000000000E+00 0. -1.
         -1   -1    0    0    0  501 -0.00000000000E+00 -0.00000000000E+00 -0.75475339539E+03  0.75475339539E+03  0.00000000000E+00 0.  1.
         23    2    1    2    0    0 -0.44544321014E+03  0.88689033804E+03  0.31358624289E+03  0.10449808854E+04  0.93030070548E+02 0.  0.
        254    2    1    2    0    0  0.44544321014E+03 -0.88689033804E+03  0.76333336965E+03  0.15414455179E+04  0.89910084317E+03 0.  0.
        -24    2    4    4    0    0  0.41338659282E+03 -0.49039583276E+03  0.90455136701E+03  0.11116628151E+04  0.78768591655E+02 0.  0.
         24    2    4    4    0    0  0.32056617321E+02 -0.39649450528E+03 -0.14121799735E+03  0.42978270277E+03  0.80840147154E+02 0.  0.
         13    1    3    3    0    0 -0.17406560375E+03  0.25847948881E+03  0.80162029093E+02  0.32177077470E+03  0.00000000000E+00 0. -1.
        -13    1    3    3    0    0 -0.27137760640E+03  0.62841084923E+03  0.23342421380E+03  0.72321011074E+03  0.00000000000E+00 0.  1.
          4    1    6    6  502    0  0.37285093554E+02 -0.17733649840E+03 -0.99140928784E+02  0.20656073109E+03  0.00000000000E+00 0. -1.
          3    1    5    5  503    0  0.29319404952E+03 -0.39932903285E+03  0.69509187144E+03  0.85356847230E+03  0.00000000000E+00 0. -1.
         -4    1    5    5    0  503  0.12019254330E+03 -0.91066799915E+02  0.20945949556E+03  0.25809434281E+03  0.00000000000E+00 0.  1.
         -3    1    6    6    0  502 -0.52284762325E+01 -0.21915800688E+03 -0.42077068568E+02  0.22322197168E+03  0.00000000000E+00 0.  1.
<mgrwt>
<rscale>  0 0.23515624E+04</rscale>
<asrwt>0</asrwt>
<pdfrwt beam="1">  1        1 0.28179585E+00 0.23515624E+04</pdfrwt>
<pdfrwt beam="2">  1       -1 0.11611591E+00 0.23515624E+04</pdfrwt>
<totfact> 0.23394222E+00</totfact>
</mgrwt>
</event>
<event>
12    1  0.2433511E-007  0.1167867E+04  0.7818608E-02  0.9141457E-01
         -2   -1    0    0    0  501 -0.00000000000E+00  0.00000000000E+00  0.37882348872E+03  0.37882348872E+03  0.00000000000E+00 0.  1.
          2   -1    0    0  501    0  0.00000000000E+00 -0.00000000000E+00 -0.90009859433E+03  0.90009859433E+03  0.00000000000E+00 0. -1.
         23    2    1    2    0    0  0.14706567626E+03 -0.16235232178E+03 -0.16023732197E+03  0.28569432921E+03  0.89211327029E+02 0.  0.
        254    2    1    2    0    0 -0.14706567626E+03  0.16235232178E+03 -0.36103778364E+03  0.99322775384E+03  0.89898081196E+03 0.  0.
        -24    2    4    4    0    0  0.35201628322E+03  0.16914134687E+03 -0.26329640588E+03  0.47882738720E+03  0.86176623921E+02 0.  0.
         24    2    4    4    0    0 -0.49908195947E+03 -0.67890250892E+01 -0.97741377762E+02  0.51440036664E+03  0.76977055962E+02 0.  0.
         11    1    3    3    0    0  0.34111708582E+02 -0.35736067371E+02  0.39807748701E+01  0.49563310443E+02  0.00000000000E+00 0.  1.
        -11    1    3    3    0    0  0.11295396768E+03 -0.12661625441E+03 -0.16421809684E+03  0.23613101877E+03  0.00000000000E+00 0. -1.
          4    1    6    6  502    0 -0.21142269762E+03  0.76430379006E+01 -0.43119606382E+01  0.21160474026E+03  0.00000000000E+00 0. -1.
          1    1    5    5  503    0  0.82299448793E+02  0.52205099663E+02 -0.11110506110E+03  0.14779345826E+03  0.00000000000E+00 0. -1.
         -2    1    5    5    0  503  0.26971683442E+03  0.11693624721E+03 -0.15219134478E+03  0.33103392894E+03  0.00000000000E+00 0.  1.
         -3    1    6    6    0  502 -0.28765926186E+03 -0.14432062990E+02 -0.93429417124E+02  0.30279562639E+03  0.00000000000E+00 0.  1.
<mgrwt>
<rscale>  0 0.11678673E+04</rscale>
<asrwt>0</asrwt>
<pdfrwt beam="1">  1        2 0.13847671E+00 0.11678673E+04</pdfrwt>
<pdfrwt beam="2">  1       -2 0.58280537E-01 0.11678673E+04</pdfrwt>
<totfact> 0.79843132E+01</totfact>
</mgrwt>
</event>
<event>
12    1  0.2433511E-007  0.1531915E+04  0.7818608E-02  0.8863503E-01
          1   -1    0    0  501    0  0.00000000000E+00  0.00000000000E+00  0.98756287624E+03  0.98756287624E+03  0.00000000000E+00 0. -1.
         -1   -1    0    0    0  501 -0.00000000000E+00 -0.00000000000E+00 -0.59407934171E+03  0.59407934171E+03  0.00000000000E+00 0.  1.
         23    2    1    2    0    0  0.17104443612E+03 -0.41271277795E+03  0.35332611302E+03  0.57684848774E+03  0.91251298387E+02 0.  0.
        254    2    1    2    0    0 -0.17104443612E+03  0.41271277795E+03  0.40157421515E+02  0.10047937302E+04  0.89911611350E+03 0.  0.
        -24    2    4    4    0    0 -0.44012789264E+03  0.47142852520E+03 -0.14115884933E+03  0.66546511895E+03  0.83430135679E+02 0.  0.
         24    2    4    4    0    0  0.26908345652E+03 -0.58715747258E+02  0.18131627085E+03  0.33932861126E+03  0.80092888577E+02 0.  0.
         13    1    3    3    0    0  0.30077423697E+02 -0.17865556799E+02  0.14808674108E+02  0.37988503061E+02  0.00000000000E+00 0. -1.
        -13    1    3    3    0    0  0.14096701242E+03 -0.39484722115E+03  0.33851743891E+03  0.53885998467E+03  0.00000000000E+00 0.  1.
          2    1    6    6  502    0  0.12524898636E+03 -0.40381002147E+02  0.13142987416E+03  0.18598856347E+03  0.00000000000E+00 0. -1.
          3    1    5    5  503    0 -0.56463297357E+02  0.95173119130E+02 -0.45482896354E+02  0.11964414074E+03  0.00000000000E+00 0. -1.
         -4    1    5    5    0  503 -0.38366459528E+03  0.37625540607E+03 -0.95675952978E+02  0.54582097820E+03  0.00000000000E+00 0.  1.
         -1    1    6    6    0  502  0.14383447016E+03 -0.18334745111E+02  0.49886396685E+02  0.15334004780E+03  0.00000000000E+00 0.  1.
<mgrwt>
<rscale>  0 0.15319148E+04</rscale>
<asrwt>0</asrwt>
<pdfrwt beam="1">  1        1 0.15193275E+00 0.15319148E+04</pdfrwt>
<pdfrwt beam="2">  1       -1 0.91396822E-01 0.15319148E+04</pdfrwt>
<totfact> 0.17435282E+01</totfact>
</mgrwt>
</event>
<event>
12    1  0.2433511E-007  0.2992965E+04  0.7818608E-02  0.8245743E-01
         -2   -1    0    0    0  501 -0.00000000000E+00  0.00000000000E+00  0.13625184381E+04  0.13625184381E+04  0.00000000000E+00 0.  1.
          2   -1    0    0  501    0  0.00000000000E+00 -0.00000000000E+00 -0.16436175960E+04  0.16436175960E+04  0.00000000000E+00 0. -1.
         23    2    1    2    0    0 -0.43923364094E+03 -0.16570471311E+03 -0.14094799757E+04  0.14884343529E+04  0.91753898243E+02 0.  0.
        254    2    1    2    0    0  0.43923364094E+03  0.16570471311E+03  0.11283808177E+04  0.15177016812E+04  0.89988381471E+03 0.  0.
        -24    2    4    4    0    0  0.61357220824E+03  0.37594563404E+03  0.88153001920E+03  0.11406944842E+04  0.79263843920E+02 0.  0.
         24    2    4    4    0    0 -0.17433856730E+03 -0.21024092094E+03  0.24685079853E+03  0.37700719703E+03  0.81264561719E+02 0.  0.
         13    1    3    3    0    0 -0.37936952615E+03 -0.10656384543E+03 -0.11479505214E+04  0.12136999176E+04  0.00000000000E+00 0. -1.
        -13    1    3    3    0    0 -0.59864114794E+02 -0.59140867673E+02 -0.26152945430E+03  0.27473443529E+03  0.00000000000E+00 0.  1.
          2    1    6    6  502    0 -0.18131355435E+02 -0.78210533354E+02  0.64330310286E+02  0.10287867806E+03  0.00000000000E+00 0. -1.
          1    1    5    5  503    0  0.22070267632E+03  0.17988920499E+03  0.35775894306E+03  0.45723217160E+03  0.00000000000E+00 0. -1.
         -2    1    5    5    0  503  0.39286953192E+03  0.19605642905E+03  0.52377107614E+03  0.68346231255E+03  0.00000000000E+00 0.  1.
         -1    1    6    6    0  502 -0.15620721187E+03 -0.13203038758E+03  0.18252048824E+03  0.27412851897E+03  0.00000000000E+00 0.  1.
<mgrwt>
<rscale>  0 0.29929646E+04</rscale>
<asrwt>0</asrwt>
<pdfrwt beam="1">  1        2 0.25286425E+00 0.29929646E+04</pdfrwt>
<pdfrwt beam="2">  1       -2 0.20961822E+00 0.29929646E+04</pdfrwt>
<totfact> 0.10400135E+00</totfact>
</mgrwt>
</event>
<event>
12    1  0.2433511E-007  0.1758419E+04  0.7818608E-02  0.8728730E-01
         -2   -1    0    0    0  501 -0.00000000000E+00  0.00000000000E+00  0.67355451438E+03  0.67355451438E+03  0.00000000000E+00 0.  1.
          2   -1    0    0  501    0  0.00000000000E+00 -0.00000000000E+00 -0.11476568128E+04  0.11476568128E+04  0.00000000000E+00 0. -1.
         23    2    1    2    0    0  0.50798719912E+03  0.38455214181E+03 -0.27788179388E+03  0.70100178623E+03  0.90850804543E+02 0.  0.
        254    2    1    2    0    0 -0.50798719912E+03 -0.38455214181E+03 -0.19622050454E+03  0.11202095410E+04  0.90024195914E+03 0.  0.
        -24    2    4    4    0    0  0.32160752578E+02 -0.49558205781E+03 -0.24742667859E+03  0.56069306015E+03  0.80751819714E+02 0.  0.
         24    2    4    4    0    0 -0.54014795170E+03  0.11102991600E+03  0.51206174047E+02  0.55951648081E+03  0.79681667054E+02 0.  0.
         13    1    3    3    0    0  0.23779692170E+03  0.23108419164E+03 -0.12155847351E+03  0.35316248679E+03  0.00000000000E+00 0.  1.
        -13    1    3    3    0    0  0.27019027742E+03  0.15346795018E+03 -0.15632332037E+03  0.34783929944E+03  0.00000000000E+00 0. -1.
          4    1    6    6  502    0 -0.19837903214E+03  0.79190080532E+02  0.28850584194E+02  0.21554040330E+03  0.00000000000E+00 0. -1.
          3    1    5    5  503    0 -0.15528476645E+01 -0.34377773233E+03 -0.13749918559E+03  0.37025878331E+03  0.00000000000E+00 0. -1.
         -2    1    5    5    0  503  0.33713600243E+02 -0.15180432549E+03 -0.10992749300E+03  0.19043427684E+03  0.00000000000E+00 0.  1.
         -3    1    6    6    0  502 -0.34176891956E+03  0.31839835469E+02  0.22355589852E+02  0.34397607751E+03  0.00000000000E+00 0.  1.
<mgrwt>
<rscale>  0 0.17584191E+04</rscale>
<asrwt>0</asrwt>
<pdfrwt beam="1">  1        2 0.17656259E+00 0.17584191E+04</pdfrwt>
<pdfrwt beam="2">  1       -2 0.10362377E+00 0.17584191E+04</pdfrwt>
<totfact> 0.14641008E+01</totfact>
</mgrwt>
</event>
<event>
12    1  0.2433511E-007  0.2414288E+04  0.7818608E-02  0.8434174E-01
          2   -1    0    0  501    0  0.00000000000E+00  0.00000000000E+00  0.29767508646E+04  0.29767508646E+04  0.00000000000E+00 0. -1.
         -2   -1    0    0    0  501 -0.00000000000E+00 -0.00000000000E+00 -0.48952584058E+03  0.48952584058E+03  0.00000000000E+00 0.  1.
         23    2    1    2    0    0 -0.66081094151E+03  0.67469334348E+03  0.16740237961E+04  0.19242702500E+04  0.92618123512E+02 0.  0.
        254    2    1    2    0    0  0.66081094151E+03 -0.67469334348E+03  0.81320122789E+03  0.15420064552E+04  0.90807789462E+03 0.  0.
        -24    2    4    4    0    0  0.40151422221E+03 -0.85791134086E+03  0.74494809749E+03  0.12077858303E+04  0.81076534561E+02 0.  0.
         24    2    4    4    0    0  0.25929671930E+03  0.18321799738E+03  0.68253130401E+02  0.33422062493E+03  0.79001981713E+02 0.  0.
         13    1    3    3    0    0 -0.32069082406E+03  0.38552079965E+03  0.93015876775E+03  0.10567233436E+04  0.00000000000E+00 0. -1.
        -13    1    3    3    0    0 -0.34012011745E+03  0.28917254383E+03  0.74386502838E+03  0.86754690643E+03  0.00000000000E+00 0.  1.
          4    1    6    6  502    0  0.20078218837E+03  0.15123873208E+03  0.85203189101E+02  0.26541707684E+03  0.00000000000E+00 0. -1.
          1    1    5    5  503    0  0.30899131003E+03 -0.71839079512E+03  0.58935474220E+03  0.97923438274E+03  0.00000000000E+00 0. -1.
         -2    1    5    5    0  503  0.92522912183E+02 -0.13952054574E+03  0.15559335529E+03  0.22855144754E+03  0.00000000000E+00 0.  1.
         -3    1    6    6    0  502  0.58514530928E+02  0.31979265303E+02 -0.16950058700E+02  0.68803548085E+02  0.00000000000E+00 0.  1.
<mgrwt>
<rscale>  0 0.24142879E+04</rscale>
<asrwt>0</asrwt>
<pdfrwt beam="1">  1        2 0.45796166E+00 0.24142879E+04</pdfrwt>
<pdfrwt beam="2">  1       -2 0.75311669E-01 0.24142879E+04</pdfrwt>
<totfact> 0.25595827E+00</totfact>
</mgrwt>
</event>
<event>
12    1  0.2433511E-007  0.3893642E+04  0.7818608E-02  0.8026353E-01
         -2   -1    0    0    0  501 -0.00000000000E+00  0.00000000000E+00  0.10894469716E+04  0.10894469716E+04  0.00000000000E+00 0.  1.
          2   -1    0    0  501    0  0.00000000000E+00 -0.00000000000E+00 -0.34789329341E+04  0.34789329341E+04  0.00000000000E+00 0. -1.
         23    2    1    2    0    0  0.14324598660E+04 -0.11370050898E+04 -0.13827690443E+04  0.22946744769E+04  0.93588904872E+02 0.  0.
        254    2    1    2    0    0 -0.14324598660E+04  0.11370050898E+04 -0.10067169182E+04  0.22737054288E+04  0.90085269691E+03 0.  0.
        -24    2    4    4    0    0 -0.46097166193E+03  0.56652163577E+03  0.37126686353E+02  0.73571238228E+03  0.80328585845E+02 0.  0.
         24    2    4    4    0    0 -0.97148820402E+03  0.57048345407E+03 -0.10438436046E+04  0.15379930465E+04  0.81070576305E+02 0.  0.
         13    1    3    3    0    0  0.74900261122E+03 -0.63486304816E+03 -0.78488556201E+03  0.12570208220E+04  0.00000000000E+00 0. -1.
        -13    1    3    3    0    0  0.68345725473E+03 -0.50214204168E+03 -0.59788348229E+03  0.10376536549E+04  0.00000000000E+00 0.  1.
          4    1    6    6  502    0 -0.36044146215E+03  0.24949746549E+03 -0.37529764461E+03  0.57707482615E+03  0.00000000000E+00 0. -1.
          1    1    5    5  503    0 -0.34557892968E+03  0.45346108184E+03  0.56864107519E+02  0.57296184525E+03  0.00000000000E+00 0. -1.
         -2    1    5    5    0  503 -0.11539273225E+03  0.11306055392E+03 -0.19737421166E+02  0.16275053703E+03  0.00000000000E+00 0.  1.
         -3    1    6    6    0  502 -0.61104674187E+03  0.32098598858E+03 -0.66854595996E+03  0.96091822034E+03  0.00000000000E+00 0.  1.
<mgrwt>
<rscale>  0 0.38936425E+04</rscale>
<asrwt>0</asrwt>
<pdfrwt beam="1">  1        2 0.53522045E+00 0.38936425E+04</pdfrwt>
<pdfrwt beam="2">  1       -2 0.16760723E+00 0.38936425E+04</pdfrwt>
<totfact> 0.14809726E-01</totfact>
</mgrwt>
</event>
<event>
12    1  0.2433511E-007  0.1892424E+04  0.7818608E-02  0.8658636E-01
         -1   -1    0    0    0  501 -0.00000000000E+00  0.00000000000E+00  0.26944760466E+03  0.26944760466E+03  0.00000000000E+00 0.  1.
          1   -1    0    0  501    0  0.00000000000E+00 -0.00000000000E+00 -0.33227891441E+04  0.33227891441E+04  0.00000000000E+00 0. -1.
         23    2    1    2    0    0  0.41650449309E+03  0.57061364317E+03 -0.15218593569E+04  0.16804153055E+04  0.93079398077E+02 0.  0.
        254    2    1    2    0    0 -0.41650449309E+03 -0.57061364317E+03 -0.15314821826E+04  0.19118214433E+04  0.90030418909E+03 0.  0.
        -24    2    4    4    0    0 -0.10587386782E+02  0.35550405853E+02  0.94207565107E+02  0.12812348338E+03  0.78515205876E+02 0.  0.
         24    2    4    4    0    0 -0.40591710631E+03 -0.60616404902E+03 -0.16256897477E+04  0.17836979599E+04  0.80670347151E+02 0.  0.
         13    1    3    3    0    0  0.76812209297E+01 -0.55273928734E+00 -0.61205190857E+01  0.98370437413E+01  0.00000000000E+00 0.  1.
        -13    1    3    3    0    0  0.40882327216E+03  0.57116638245E+03 -0.15157388378E+04  0.16705782618E+04  0.00000000000E+00 0. -1.
          2    1    6    6  502    0 -0.13764586407E+03 -0.14177448308E+03 -0.44781212977E+03  0.48947123666E+03  0.00000000000E+00 0. -1.
          1    1    5    5  503    0  0.34028027730E+02  0.19437580399E+02  0.38185042110E+02  0.54715844542E+02  0.00000000000E+00 0. -1.
         -2    1    5    5    0  503 -0.44615414512E+02  0.16112825454E+02  0.56022522997E+02  0.73407638834E+02  0.00000000000E+00 0.  1.
         -1    1    6    6    0  502 -0.26827124223E+03 -0.46438956594E+03 -0.11778776179E+04  0.12942267233E+04  0.00000000000E+00 0.  1.
<mgrwt>
<rscale>  0 0.18924245E+04</rscale>
<asrwt>0</asrwt>
<pdfrwt beam="1">  1        1 0.51119835E+00 0.18924245E+04</pdfrwt>
<pdfrwt beam="2">  1       -1 0.41453476E-01 0.18924245E+04</pdfrwt>
<totfact> 0.18400349E+00</totfact>
</mgrwt>
</event>
<event>
12    1  0.2433511E-007  0.1614218E+04  0.7818608E-02  0.8811861E-01
         -2   -1    0    0    0  501 -0.00000000000E+00  0.00000000000E+00  0.34298706888E+03  0.34298706888E+03  0.00000000000E+00 0. -1.
          2   -1    0    0  501    0  0.00000000000E+00 -0.00000000000E+00 -0.18992701796E+04  0.18992701796E+04  0.00000000000E+00 0.  1.
         23    2    1    2    0    0  0.73101492916E+02 -0.54472251350E+03 -0.59714890695E+03  0.81673480703E+03  0.91665058508E+02 0.  0.
        254    2    1    2    0    0 -0.73101492916E+02  0.54472251350E+03 -0.95913420377E+03  0.14255224415E+04  0.90006075642E+03 0.  0.
        -24    2    4    4    0    0  0.14100854504E+02  0.39330149360E+03 -0.11106203394E+04  0.11810269232E+04  0.80387537406E+02 0.  0.
         24    2    4    4    0    0 -0.87202347420E+02  0.15142101991E+03  0.15148613560E+03  0.24449551824E+03  0.79356376522E+02 0.  0.
         11    1    3    3    0    0  0.82542368679E+02 -0.39524774637E+03 -0.39225493872E+03  0.56293690640E+03  0.00000000000E+00 0.  1.
        -11    1    3    3    0    0 -0.94408757625E+01 -0.14947476713E+03 -0.20489396823E+03  0.25379790062E+03  0.00000000000E+00 0. -1.
          4    1    6    6  502    0 -0.63654610539E+02  0.34028438935E+02  0.56555852797E+02  0.91697375016E+02  0.00000000000E+00 0. -1.
          1    1    5    5  503    0  0.22893646138E+02  0.70413540832E+02 -0.14492727435E+03  0.16274550874E+03  0.00000000000E+00 0. -1.
         -4    1    5    5    0  503 -0.87927916344E+01  0.32288795276E+03 -0.96569306502E+03  0.10182814145E+04  0.00000000000E+00 0.  1.
         -3    1    6    6    0  502 -0.23547736882E+02  0.11739258097E+03  0.94930282800E+02  0.15279814322E+03  0.00000000000E+00 0.  1.
<mgrwt>
<rscale>  0 0.16142182E+04</rscale>
<asrwt>0</asrwt>
<pdfrwt beam="1">  1        2 0.29219542E+00 0.16142182E+04</pdfrwt>
<pdfrwt beam="2">  1       -2 0.52767241E-01 0.16142182E+04</pdfrwt>
<totfact> 0.24666564E+01</totfact>
</mgrwt>
</event>
<event>
12    1  0.2433511E-007  0.2001838E+04  0.7818608E-02  0.8605762E-01
          4   -1    0    0  501    0  0.00000000000E+00  0.00000000000E+00  0.97528032912E+03  0.97528032912E+03  0.00000000000E+00 0.  1.
         -4   -1    0    0    0  501 -0.00000000000E+00 -0.00000000000E+00 -0.10272316576E+04  0.10272316576E+04  0.00000000000E+00 0. -1.
         23    2    1    2    0    0 -0.25400418926E+03 -0.34967675009E+03  0.64760683683E+03  0.78388234487E+03  0.91021743400E+02 0.  0.
        254    2    1    2    0    0  0.25400418926E+03  0.34967675009E+03 -0.69955816526E+03  0.12186296418E+04  0.89938013075E+03 0.  0.
        -24    2    4    4    0    0  0.43065733283E+03 -0.14926796180E+03 -0.32138839128E+03  0.56320331048E+03  0.78490815706E+02 0.  0.
         24    2    4    4    0    0 -0.17665314357E+03  0.49894471189E+03 -0.37816977398E+03  0.65542633132E+03  0.80119530556E+02 0.  0.
         13    1    3    3    0    0 -0.19972389531E+03 -0.31784455291E+03  0.51701152237E+03  0.63891760692E+03  0.00000000000E+00 0. -1.
        -13    1    3    3    0    0 -0.54280293953E+02 -0.31832197179E+02  0.13059531446E+03  0.14496473795E+03  0.00000000000E+00 0.  1.
          2    1    6    6  502    0 -0.12568889617E+03  0.37607490980E+03 -0.32296294145E+03  0.51140502339E+03  0.00000000000E+00 0. -1.
          1    1    5    5  503    0  0.93466778342E+02 -0.38362410276E+02 -0.34367932741E+02  0.10671863931E+03  0.00000000000E+00 0. -1.
         -2    1    5    5    0  503  0.33719055449E+03 -0.11090555152E+03 -0.28702045853E+03  0.45648467117E+03  0.00000000000E+00 0.  1.
         -1    1    6    6    0  502 -0.50964247406E+02  0.12286980209E+03 -0.55206832536E+02  0.14402130793E+03  0.00000000000E+00 0.  1.
<mgrwt>
<rscale>  0 0.20018380E+04</rscale>
<asrwt>0</asrwt>
<pdfrwt beam="1">  1        4 0.15004313E+00 0.20018380E+04</pdfrwt>
<pdfrwt beam="2">  1       -4 0.15803564E+00 0.20018380E+04</pdfrwt>
<totfact> 0.14313277E-01</totfact>
</mgrwt>
</event>
<event>
12    1  0.2433511E-007  0.2426505E+04  0.7818608E-02  0.8429647E-01
         -2   -1    0    0    0  501 -0.00000000000E+00  0.00000000000E+00  0.66866880149E+03  0.66866880149E+03  0.00000000000E+00 0.  1.
          2   -1    0    0  501    0  0.00000000000E+00 -0.00000000000E+00 -0.22013612497E+04  0.22013612497E+04  0.00000000000E+00 0. -1.
         23    2    1    2    0    0  0.61574231327E+03 -0.67777378575E+03 -0.68143149967E+02  0.92291819884E+03  0.92836479117E+02 0.  0.
        254    2    1    2    0    0 -0.61574231327E+03  0.67777378575E+03 -0.14645492983E+04  0.19471118524E+04  0.89879030791E+03 0.  0.
        -24    2    4    4    0    0 -0.17354741498E+03  0.66930974959E+03 -0.12881323595E+04  0.14641241715E+04  0.79248771280E+02 0.  0.
         24    2    4    4    0    0 -0.44219489829E+03  0.84640361652E+01 -0.17641693875E+03  0.48298768089E+03  0.80908563398E+02 0.  0.
         13    1    3    3    0    0  0.37533747718E+03 -0.45982033605E+03 -0.12540257179E+02  0.59369202561E+03  0.00000000000E+00 0.  1.
        -13    1    3    3    0    0  0.24040483609E+03 -0.21795344970E+03 -0.55602892788E+02  0.32922617323E+03  0.00000000000E+00 0. -1.
          4    1    6    6  502    0 -0.81316234526E+02 -0.83569695326E+01 -0.66466314058E+02  0.10535625203E+03  0.00000000000E+00 0. -1.
          3    1    5    5  503    0 -0.25916440515E+02  0.11041629648E+03 -0.15503569585E+03  0.19209239289E+03  0.00000000000E+00 0. -1.
         -4    1    5    5    0  503 -0.14763097447E+03  0.55889345311E+03 -0.11330966637E+04  0.12720317786E+04  0.00000000000E+00 0.  1.
         -1    1    6    6    0  502 -0.36087866377E+03  0.16821005698E+02 -0.10995062470E+03  0.37763142886E+03  0.00000000000E+00 0.  1.
<mgrwt>
<rscale>  0 0.24265050E+04</rscale>
<asrwt>0</asrwt>
<pdfrwt beam="1">  1        2 0.33867096E+00 0.24265050E+04</pdfrwt>
<pdfrwt beam="2">  1       -2 0.10287212E+00 0.24265050E+04</pdfrwt>
<totfact> 0.35705332E+00</totfact>
</mgrwt>
</event>
<event>
12    1  0.2433511E-007  0.2302258E+04  0.7818608E-02  0.8477031E-01
         -1   -1    0    0    0  501 -0.00000000000E+00  0.00000000000E+00  0.50505849429E+03  0.50505849429E+03  0.00000000000E+00 0.  1.
          1   -1    0    0  501    0  0.00000000000E+00 -0.00000000000E+00 -0.26236522780E+04  0.26236522780E+04  0.00000000000E+00 0. -1.
         23    2    1    2    0    0 -0.64034274524E+03  0.72950798585E+03 -0.87302358887E+03  0.13087056388E+04  0.91211454433E+02 0.  0.
        254    2    1    2    0    0  0.64034274524E+03 -0.72950798585E+03 -0.12455701949E+04  0.18200051335E+04  0.90484962451E+03 0.  0.
        -24    2    4    4    0    0  0.10220832586E+03  0.19833932594E+03 -0.12842690063E+03  0.26918300393E+03  0.78619276954E+02 0.  0.
         24    2    4    4    0    0  0.53813441939E+03 -0.92784731179E+03 -0.11171432942E+04  0.15508221296E+04  0.80937324752E+02 0.  0.
         11    1    3    3    0    0 -0.47478733107E+03  0.51275243484E+03 -0.67569157574E+03  0.97205821569E+03  0.00000000000E+00 0. -1.
        -11    1    3    3    0    0 -0.16555541418E+03  0.21675555101E+03 -0.19733201314E+03  0.33664742308E+03  0.00000000000E+00 0.  1.
          4    1    6    6  502    0  0.21562314175E+03 -0.31364698578E+03 -0.35947709649E+03  0.52353753815E+03  0.00000000000E+00 0. -1.
          1    1    5    5  503    0  0.40837682405E+01  0.68927745534E+02 -0.65002181795E+02  0.94831402529E+02  0.00000000000E+00 0. -1.
         -2    1    5    5    0  503  0.98124557618E+02  0.12941158040E+03 -0.63424718833E+02  0.17435160140E+03  0.00000000000E+00 0.  1.
         -1    1    6    6    0  502  0.32251127764E+03 -0.61420032601E+03 -0.75766619775E+03  0.10272845915E+04  0.00000000000E+00 0.  1.
<mgrwt>
<rscale>  0 0.23022579E+04</rscale>
<asrwt>0</asrwt>
<pdfrwt beam="1">  1        1 0.40363880E+00 0.23022579E+04</pdfrwt>
<pdfrwt beam="2">  1       -1 0.77701309E-01 0.23022579E+04</pdfrwt>
<totfact> 0.16656761E+00</totfact>
</mgrwt>
</event>
<event>
12    1  0.2433511E-007  0.2067819E+04  0.7818608E-02  0.8575553E-01
          2   -1    0    0  501    0  0.00000000000E+00  0.00000000000E+00  0.78133319390E+03  0.78133319390E+03  0.00000000000E+00 0. -1.
         -2   -1    0    0    0  501 -0.00000000000E+00 -0.00000000000E+00 -0.13681349427E+04  0.13681349427E+04  0.00000000000E+00 0.  1.
         23    2    1    2    0    0  0.76977382406E+03 -0.32320943722E+03 -0.23138573492E+03  0.87134561093E+03  0.93208019286E+02 0.  0.
        254    2    1    2    0    0 -0.76977382406E+03  0.32320943722E+03 -0.35541601387E+03  0.12781225257E+04  0.90014474790E+03 0.  0.
        -24    2    4    4    0    0 -0.60747667332E+03 -0.10890638426E+03  0.93653677207E+02  0.62896300851E+03  0.77038598479E+02 0.  0.
         24    2    4    4    0    0 -0.16229715073E+03  0.43211582147E+03 -0.44906969107E+03  0.64915951715E+03  0.81731529763E+02 0.  0.
         11    1    3    3    0    0  0.29291340324E+03 -0.16898723778E+03 -0.11093763249E+03  0.35589620204E+03  0.00000000000E+00 0. -1.
        -11    1    3    3    0    0  0.47686042082E+03 -0.15422219944E+03 -0.12044810243E+03  0.51544940889E+03  0.00000000000E+00 0.  1.
          4    1    6    6  502    0 -0.24256010034E+02  0.46036508840E+02 -0.20173783861E+02  0.55809459093E+02  0.00000000000E+00 0. -1.
          3    1    5    5  503    0 -0.19945936420E+03 -0.71771186210E+02  0.40706739506E+02  0.21585221745E+03  0.00000000000E+00 0. -1.
         -4    1    5    5    0  503 -0.40801730912E+03 -0.37135198049E+02  0.52946937701E+02  0.41311079106E+03  0.00000000000E+00 0.  1.
         -3    1    6    6    0  502 -0.13804114070E+03  0.38607931263E+03 -0.42889590721E+03  0.59335005805E+03  0.00000000000E+00 0.  1.
<mgrwt>
<rscale>  0 0.20678194E+04</rscale>
<asrwt>0</asrwt>
<pdfrwt beam="1">  1        2 0.12020511E+00 0.20678194E+04</pdfrwt>
<pdfrwt beam="2">  1       -2 0.21048230E+00 0.20678194E+04</pdfrwt>
<totfact> 0.37318447E+00</totfact>
</mgrwt>
</event>
<event>
12    1  0.2433511E-007  0.1623207E+04  0.7818608E-02  0.8806417E-01
          2   -1    0    0  501    0  0.00000000000E+00  0.00000000000E+00  0.17802797697E+03  0.17802797697E+03  0.00000000000E+00 0. -1.
         -2   -1    0    0    0  501 -0.00000000000E+00 -0.00000000000E+00 -0.36999817660E+04  0.36999817660E+04  0.00000000000E+00 0.  1.
         23    2    1    2    0    0  0.35497766266E+03 -0.27155266811E+03 -0.42872522969E+03  0.62595944197E+03  0.90939033843E+02 0.  0.
        254    2    1    2    0    0 -0.35497766266E+03  0.27155266811E+03 -0.30932285593E+04  0.32520503010E+04  0.89889835206E+03 0.  0.
        -24    2    4    4    0    0 -0.34607819315E+03  0.14575541342E+02 -0.28971301335E+04  0.29188367176E+04  0.79134136521E+02 0.  0.
         24    2    4    4    0    0 -0.88994695107E+01  0.25697712676E+03 -0.19609842584E+03  0.33321358337E+03  0.80375713290E+02 0.  0.
         11    1    3    3    0    0  0.10607879261E+03 -0.51899057298E+02 -0.16000231023E+03  0.19886417895E+03  0.00000000000E+00 0. -1.
        -11    1    3    3    0    0  0.24889887005E+03 -0.21965361081E+03 -0.26872291946E+03  0.42709526302E+03  0.00000000000E+00 0.  1.
          2    1    6    6  502    0 -0.39343981450E+02  0.14953262810E+03 -0.88603559099E+02  0.17820927706E+03  0.00000000000E+00 0. -1.
          3    1    5    5  503    0 -0.11539851916E+03  0.31792963479E+02 -0.12136386447E+04  0.12195271094E+04  0.00000000000E+00 0. -1.
         -4    1    5    5    0  503 -0.23067967399E+03 -0.17217422137E+02 -0.16834914888E+04  0.16993096082E+04  0.00000000000E+00 0.  1.
         -1    1    6    6    0  502  0.30444511939E+02  0.10744449866E+03 -0.10749486674E+03  0.15500430631E+03  0.00000000000E+00 0.  1.
<mgrwt>
<rscale>  0 0.16232070E+04</rscale>
<asrwt>0</asrwt>
<pdfrwt beam="1">  1        2 0.27388922E-01 0.16232070E+04</pdfrwt>
<pdfrwt beam="2">  1       -2 0.56922790E+00 0.16232070E+04</pdfrwt>
<totfact> 0.12789756E-01</totfact>
</mgrwt>
</event>
<event>
12    1  0.2433511E-007  0.2937950E+04  0.7818608E-02  0.8261675E-01
          1   -1    0    0  501    0  0.00000000000E+00  0.00000000000E+00  0.17221132180E+04  0.17221132180E+04  0.00000000000E+00 0. -1.
         -1   -1    0    0    0  501 -0.00000000000E+00 -0.00000000000E+00 -0.12530465649E+04  0.12530465649E+04  0.00000000000E+00 0.  1.
         23    2    1    2    0    0  0.11597566303E+04 -0.94500161571E+02 -0.43951511541E+03  0.12471947914E+04  0.91408910835E+02 0.  0.
        254    2    1    2    0    0 -0.11597566303E+04  0.94500161571E+02  0.90858176850E+03  0.17279649915E+04  0.89798466553E+03 0.  0.
        -24    2    4    4    0    0 -0.11929763197E+04  0.30964377706E+03  0.79084112006E+03  0.14667633373E+04  0.83025552893E+02 0.  0.
         24    2    4    4    0    0  0.33219689395E+02 -0.21514361549E+03  0.11774064844E+03  0.26120165414E+03  0.83505214096E+02 0.  0.
         11    1    3    3    0    0  0.83663374768E+03 -0.10644112863E+03 -0.30188716799E+03  0.89577988581E+03  0.00000000000E+00 0. -1.
        -11    1    3    3    0    0  0.32312288266E+03  0.11940967061E+02 -0.13762794742E+03  0.35141490564E+03  0.00000000000E+00 0.  1.
          4    1    6    6  502    0  0.92377153016E+01 -0.12264189433E+03  0.20173535754E+02  0.12463282542E+03  0.00000000000E+00 0. -1.
          3    1    5    5  503    0 -0.62687329958E+03  0.15605295762E+03  0.46304055208E+03  0.79481394816E+03  0.00000000000E+00 0. -1.
         -4    1    5    5    0  503 -0.56610302016E+03  0.15359081944E+03  0.32780056798E+03  0.67194938917E+03  0.00000000000E+00 0.  1.
         -3    1    6    6    0  502  0.23981974093E+02 -0.92501721160E+02  0.97567112684E+02  0.13656882871E+03  0.00000000000E+00 0.  1.
<mgrwt>
<rscale>  0 0.29379503E+04</rscale>
<asrwt>0</asrwt>
<pdfrwt beam="1">  1        1 0.26494049E+00 0.29379503E+04</pdfrwt>
<pdfrwt beam="2">  1       -1 0.19277640E+00 0.29379503E+04</pdfrwt>
<totfact> 0.66545046E-01</totfact>
</mgrwt>
</event>
<event>
12    1  0.2433511E-007  0.1976677E+04  0.7818608E-02  0.8617603E-01
          1   -1    0    0  501    0  0.00000000000E+00  0.00000000000E+00  0.95261563166E+03  0.95261563166E+03  0.00000000000E+00 0. -1.
         -1   -1    0    0    0  501 -0.00000000000E+00 -0.00000000000E+00 -0.10254009935E+04  0.10254009935E+04  0.00000000000E+00 0.  1.
         23    2    1    2    0    0  0.58564032640E+03  0.48201377099E+03  0.16110370620E+03  0.78088959516E+03  0.92316240972E+02 0.  0.
        254    2    1    2    0    0 -0.58564032640E+03 -0.48201377099E+03 -0.23388906806E+03  0.11971270300E+04  0.89615688498E+03 0.  0.
        -24    2    4    4    0    0 -0.45144349911E+03  0.14915166186E+03 -0.25734389340E+03  0.54656037966E+03  0.80342504449E+02 0.  0.
         24    2    4    4    0    0 -0.13419682729E+03 -0.63116543285E+03  0.23454825338E+02  0.65056665035E+03  0.79424464944E+02 0.  0.
         13    1    3    3    0    0  0.67182156060E+02  0.33664126111E+02  0.39017030512E+02  0.84670208159E+02  0.00000000000E+00 0.  1.
        -13    1    3    3    0    0  0.51845817034E+03  0.44834964488E+03  0.12208667569E+03  0.69621938700E+03  0.00000000000E+00 0. -1.
          4    1    6    6  502    0 -0.75713637438E+02 -0.42881687614E+03 -0.18313618126E+02  0.43583466678E+03  0.00000000000E+00 0. -1.
          1    1    5    5  503    0 -0.20141293765E+03  0.86813837173E+02 -0.78743039596E+02  0.23303278753E+03  0.00000000000E+00 0. -1.
         -2    1    5    5    0  503 -0.25003056146E+03  0.62337824692E+02 -0.17860085380E+03  0.31352759214E+03  0.00000000000E+00 0.  1.
         -3    1    6    6    0  502 -0.58483189849E+02 -0.20234855671E+03  0.41768443463E+02  0.21473198357E+03  0.00000000000E+00 0.  1.
<mgrwt>
<rscale>  0 0.19766770E+04</rscale>
<asrwt>0</asrwt>
<pdfrwt beam="1">  1        1 0.14655625E+00 0.19766770E+04</pdfrwt>
<pdfrwt beam="2">  1       -1 0.15775400E+00 0.19766770E+04</pdfrwt>
<totfact> 0.46608593E+00</totfact>
</mgrwt>
</event>
<event>
12    1  0.2433511E-007  0.2209102E+04  0.7818608E-02  0.8514649E-01
          1   -1    0    0  501    0  0.00000000000E+00  0.00000000000E+00  0.56775553327E+03  0.56775553327E+03  0.00000000000E+00 0.  1.
         -1   -1    0    0    0  501 -0.00000000000E+00 -0.00000000000E+00 -0.21488702691E+04  0.21488702691E+04  0.00000000000E+00 0. -1.
         23    2    1    2    0    0 -0.69446234267E+03  0.57062214492E+03 -0.42498228912E+03  0.99837586166E+03  0.90867141688E+02 0.  0.
        254    2    1    2    0    0  0.69446234267E+03 -0.57062214492E+03 -0.11561324467E+04  0.17182499407E+04  0.89880645680E+03 0.  0.
        -24    2    4    4    0    0  0.52193838456E+03 -0.36268264140E+02 -0.99755182072E+03  0.11291265259E+04  0.77987256744E+02 0.  0.
         24    2    4    4    0    0  0.17252395811E+03 -0.53435388078E+03 -0.15858062602E+03  0.58912341483E+03  0.81363363575E+02 0.  0.
         13    1    3    3    0    0 -0.61687451455E+03  0.47632042138E+03 -0.38907803674E+03  0.87108956439E+03  0.00000000000E+00 0.  1.
        -13    1    3    3    0    0 -0.77587828120E+02  0.94301723535E+02 -0.35904252379E+02  0.12728629727E+03  0.00000000000E+00 0. -1.
          2    1    6    6  502    0  0.10783376611E+03 -0.34996658343E+03 -0.14287329266E+03  0.39308715114E+03  0.00000000000E+00 0. -1.
          1    1    5    5  503    0  0.27002114579E+03 -0.32851197350E+02 -0.43994687202E+03  0.51724643115E+03  0.00000000000E+00 0. -1.
         -2    1    5    5    0  503  0.25191723877E+03 -0.34170667895E+01 -0.55760494871E+03  0.61188009475E+03  0.00000000000E+00 0.  1.
         -1    1    6    6    0  502  0.64690191991E+02 -0.18438729734E+03 -0.15707333359E+02  0.19603626369E+03  0.00000000000E+00 0.  1.
<mgrwt>
<rscale>  0 0.22091021E+04</rscale>
<asrwt>0</asrwt>
<pdfrwt beam="1">  1        1 0.87347004E-01 0.22091021E+04</pdfrwt>
<pdfrwt beam="2">  1       -1 0.33059543E+00 0.22091021E+04</pdfrwt>
<totfact> 0.70521058E-01</totfact>
</mgrwt>
</event>
<event>
12    1  0.2433511E-007  0.2291425E+04  0.7818608E-02  0.8481310E-01
         -1   -1    0    0    0  501 -0.00000000000E+00  0.00000000000E+00  0.12191925918E+04  0.12191925918E+04  0.00000000000E+00 0.  1.
          1   -1    0    0  501    0  0.00000000000E+00 -0.00000000000E+00 -0.10766605588E+04  0.10766605588E+04  0.00000000000E+00 0. -1.
         23    2    1    2    0    0  0.74623740743E+03  0.44405750832E+03 -0.36225822756E+03  0.94715593946E+03  0.10870147783E+03 0.  0.
        254    2    1    2    0    0 -0.74623740743E+03 -0.44405750832E+03  0.50479026062E+03  0.13486972111E+04  0.90006312061E+03 0.  0.
        -24    2    4    4    0    0 -0.65685718850E+02  0.23983661729E+03  0.21578336353E+03  0.33838665220E+03  0.78146335508E+02 0.  0.
         24    2    4    4    0    0 -0.68055168858E+03 -0.68389412562E+03  0.28900689709E+03  0.10103105589E+04  0.79628280123E+02 0.  0.
         13    1    3    3    0    0  0.51013930623E+03  0.30172988610E+03 -0.19143213120E+03  0.62283970393E+03  0.00000000000E+00 0.  1.
        -13    1    3    3    0    0  0.23609810120E+03  0.14232762222E+03 -0.17082609636E+03  0.32431623554E+03  0.00000000000E+00 0. -1.
          2    1    6    6  502    0 -0.16619048811E+03 -0.13541442200E+03  0.38885801131E+02  0.21787255346E+03  0.00000000000E+00 0. -1.
          3    1    5    5  503    0 -0.71084398183E+02  0.15159086055E+03  0.17085182409E+03  0.23921355827E+03  0.00000000000E+00 0. -1.
         -4    1    5    5    0  503  0.53986793327E+01  0.88245756748E+02  0.44931539442E+02  0.99173093927E+02  0.00000000000E+00 0.  1.
         -1    1    6    6    0  502 -0.51436120047E+03 -0.54847970362E+03  0.25012109595E+03  0.79243800545E+03  0.00000000000E+00 0.  1.
<mgrwt>
<rscale>  0 0.22914245E+04</rscale>
<asrwt>0</asrwt>
<pdfrwt beam="1">  1        1 0.16564009E+00 0.22914245E+04</pdfrwt>
<pdfrwt beam="2">  1       -1 0.18756809E+00 0.22914245E+04</pdfrwt>
<totfact> 0.21956094E+00</totfact>
</mgrwt>
</event>
<event>
12    1  0.2433511E-007  0.1889772E+04  0.7818608E-02  0.8659964E-01
         -1   -1    0    0    0  501 -0.00000000000E+00  0.00000000000E+00  0.10882230681E+04  0.10882230681E+04  0.00000000000E+00 0.  1.
          1   -1    0    0  501    0  0.00000000000E+00 -0.00000000000E+00 -0.82042923101E+03  0.82042923101E+03  0.00000000000E+00 0. -1.
         23    2    1    2    0    0  0.41700151292E+03 -0.41637699616E+03  0.53441169419E+03  0.80070267042E+03  0.90933177797E+02 0.  0.
        254    2    1    2    0    0 -0.41700151292E+03  0.41637699616E+03 -0.26661785709E+03  0.11079496287E+04  0.89955946625E+03 0.  0.
        -24    2    4    4    0    0 -0.56037840898E+03  0.30474097338E+03 -0.49070026663E+03  0.80899740468E+03  0.82456212630E+02 0.  0.
         24    2    4    4    0    0  0.14337689606E+03  0.11163602278E+03  0.22408240954E+03  0.29895222402E+03  0.78357961175E+02 0.  0.
         11    1    3    3    0    0  0.11014772744E+03 -0.11096398896E+03  0.90625046172E+02  0.18071642897E+03  0.00000000000E+00 0.  1.
        -11    1    3    3    0    0  0.30685378548E+03 -0.30541300720E+03  0.44378664802E+03  0.61998624145E+03  0.00000000000E+00 0. -1.
          4    1    6    6  502    0  0.89393979336E+01 -0.17484243345E+01 -0.48078706807E+01  0.10299778811E+02  0.00000000000E+00 0. -1.
          1    1    5    5  503    0 -0.19483376688E+03  0.82092099022E+02 -0.20429059197E+03  0.29399652277E+03  0.00000000000E+00 0. -1.
         -2    1    5    5    0  503 -0.36554464211E+03  0.22264887436E+03 -0.28640967466E+03  0.51500088191E+03  0.00000000000E+00 0.  1.
         -3    1    6    6    0  502  0.13443749813E+03  0.11338444711E+03  0.22889028022E+03  0.28865244521E+03  0.00000000000E+00 0.  1.
<mgrwt>
<rscale>  0 0.18897725E+04</rscale>
<asrwt>0</asrwt>
<pdfrwt beam="1">  1        1 0.12621988E+00 0.18897725E+04</pdfrwt>
<pdfrwt beam="2">  1       -1 0.16741893E+00 0.18897725E+04</pdfrwt>
<totfact> 0.51103088E+00</totfact>
</mgrwt>
</event>
<event>
12    1  0.2433511E-007  0.1638854E+04  0.7818608E-02  0.8797028E-01
          1   -1    0    0  501    0  0.00000000000E+00  0.00000000000E+00  0.14280785742E+04  0.14280785742E+04  0.00000000000E+00 0. -1.
         -1   -1    0    0    0  501 -0.00000000000E+00 -0.00000000000E+00 -0.47018482823E+03  0.47018482823E+03  0.00000000000E+00 0.  1.
         23    2    1    2    0    0 -0.20747230250E+03 -0.37580121214E+03  0.76576823548E+03  0.88236080612E+03  0.88816070409E+02 0.  0.
        254    2    1    2    0    0  0.20747230250E+03  0.37580121214E+03  0.19212551053E+03  0.10159025963E+04  0.90048573898E+03 0.  0.
        -24    2    4    4    0    0  0.39125242351E+03 -0.13445320850E+03 -0.34169030083E+02  0.42282549050E+03  0.80360118336E+02 0.  0.
         24    2    4    4    0    0 -0.18378012101E+03  0.51025442064E+03  0.22629454061E+03  0.59307710584E+03  0.79978295205E+02 0.  0.
         11    1    3    3    0    0 -0.70966508489E+02 -0.59800834784E+02  0.13578316332E+03  0.16446717790E+03  0.00000000000E+00 0. -1.
        -11    1    3    3    0    0 -0.13650579401E+03 -0.31600037736E+03  0.62998507216E+03  0.71789362822E+03  0.00000000000E+00 0.  1.
          2    1    6    6  502    0 -0.17851083814E+03  0.48673812356E+03  0.19573666782E+03  0.55415969124E+03  0.00000000000E+00 0. -1.
          1    1    5    5  503    0  0.33542121220E+03 -0.11015668676E+03 -0.57348135576E+02  0.35767400504E+03  0.00000000000E+00 0. -1.
         -2    1    5    5    0  503  0.55831211309E+02 -0.24296521746E+02  0.23179105492E+02  0.65151485452E+02  0.00000000000E+00 0.  1.
         -1    1    6    6    0  502 -0.52692828666E+01  0.23516297078E+02  0.30557872788E+02  0.38917414605E+02  0.00000000000E+00 0.  1.
<mgrwt>
<rscale>  0 0.16388543E+04</rscale>
<asrwt>0</asrwt>
<pdfrwt beam="1">  1        1 0.21970439E+00 0.16388543E+04</pdfrwt>
<pdfrwt beam="2">  1       -1 0.72336128E-01 0.16388543E+04</pdfrwt>
<totfact> 0.13538424E+01</totfact>
</mgrwt>
</event>
<event>
12    1  0.2433511E-007  0.1361602E+04  0.7818608E-02  0.8982092E-01
         -2   -1    0    0    0  501 -0.00000000000E+00  0.00000000000E+00  0.37644613615E+03  0.37644613615E+03  0.00000000000E+00 0.  1.
          2   -1    0    0  501    0  0.00000000000E+00 -0.00000000000E+00 -0.12312249953E+04  0.12312249953E+04  0.00000000000E+00 0. -1.
         23    2    1    2    0    0  0.26237400352E+03  0.13147349056E+03 -0.52046700031E+03  0.60440978902E+03  0.91103777105E+02 0.  0.
        254    2    1    2    0    0 -0.26237400352E+03 -0.13147349056E+03 -0.33431185883E+03  0.10032613424E+04  0.89924607634E+03 0.  0.
        -24    2    4    4    0    0 -0.43125622828E+03  0.20771477071E+03 -0.37561759383E+03  0.61388319923E+03  0.81465606841E+02 0.  0.
         24    2    4    4    0    0  0.16888222476E+03 -0.33918826127E+03  0.41305734999E+02  0.38937814320E+03  0.79619672444E+02 0.  0.
         11    1    3    3    0    0  0.16074972729E+03  0.11309280289E+03 -0.40039865032E+03  0.44603759490E+03  0.00000000000E+00 0. -1.
        -11    1    3    3    0    0  0.10162427623E+03  0.18380687669E+02 -0.12006834999E+03  0.15837219411E+03  0.00000000000E+00 0.  1.
          4    1    6    6  502    0  0.54268317818E+02 -0.17538764893E+03 -0.69356257038E+01  0.18372256427E+03  0.00000000000E+00 0. -1.
          1    1    5    5  503    0 -0.16360955331E+03  0.11947434243E+03 -0.17805765697E+03  0.26971602406E+03  0.00000000000E+00 0. -1.
         -2    1    5    5    0  503 -0.26764667497E+03  0.88240428281E+02 -0.19755993686E+03  0.34416717516E+03  0.00000000000E+00 0.  1.
         -3    1    6    6    0  502  0.11461390694E+03 -0.16380061234E+03  0.48241360703E+02  0.20565557894E+03  0.00000000000E+00 0.  1.
<mgrwt>
<rscale>  0 0.13616018E+04</rscale>
<asrwt>0</asrwt>
<pdfrwt beam="1">  1        2 0.18941923E+00 0.13616018E+04</pdfrwt>
<pdfrwt beam="2">  1       -2 0.57914790E-01 0.13616018E+04</pdfrwt>
<totfact> 0.49419367E+01</totfact>
</mgrwt>
</event>
<event>
12    1  0.2433511E-007  0.5543991E+04  0.7818608E-02  0.7749665E-01
          2   -1    0    0  501    0  0.00000000000E+00  0.00000000000E+00  0.39431147763E+04  0.39431147763E+04  0.00000000000E+00 0.  1.
         -2   -1    0    0    0  501 -0.00000000000E+00 -0.00000000000E+00 -0.19487026389E+04  0.19487026389E+04  0.00000000000E+00 0. -1.
         23    2    1    2    0    0  0.33609754114E+03 -0.26682075607E+04  0.74079744868E+03  0.27910719756E+04  0.94914534694E+02 0.  0.
        254    2    1    2    0    0 -0.33609754114E+03  0.26682075607E+04  0.12536146887E+04  0.31007454397E+04  0.90043286789E+03 0.  0.
        -24    2    4    4    0    0 -0.16085705970E+02  0.88151931860E+03  0.87538748398E+03  0.12449541907E+04  0.79199942747E+02 0.  0.
         24    2    4    4    0    0 -0.32001183517E+03  0.17866882421E+04  0.37822720472E+03  0.18557912489E+04  0.79011973690E+02 0.  0.
         11    1    3    3    0    0  0.17963455048E+03 -0.11304100193E+04  0.28519513499E+03  0.11795896102E+04  0.00000000000E+00 0.  1.
        -11    1    3    3    0    0  0.15646299066E+03 -0.15377975414E+04  0.45560231369E+03  0.16114823654E+04  0.00000000000E+00 0. -1.
          2    1    6    6  502    0 -0.83862652695E+02  0.30649297258E+03  0.56654706386E+02  0.32277026275E+03  0.00000000000E+00 0. -1.
          3    1    5    5  503    0 -0.19114928096E+02  0.27055634846E+03  0.22288160003E+03  0.35105886373E+03  0.00000000000E+00 0. -1.
         -2    1    5    5    0  503  0.30292221265E+01  0.61096297013E+03  0.65250588395E+03  0.89389532701E+03  0.00000000000E+00 0.  1.
         -1    1    6    6    0  502 -0.23614918247E+03  0.14801952695E+04  0.32157249834E+03  0.15330209862E+04  0.00000000000E+00 0.  1.
<mgrwt>
<rscale>  0 0.55439907E+04</rscale>
<asrwt>0</asrwt>
<pdfrwt beam="1">  1        2 0.60663304E+00 0.55439907E+04</pdfrwt>
<pdfrwt beam="2">  1       -2 0.29980041E+00 0.55439907E+04</pdfrwt>
<totfact> 0.84083708E-03</totfact>
</mgrwt>
</event>
<event>
12    1  0.2433511E-007  0.1092148E+04  0.7818608E-02  0.9212879E-01
         -1   -1    0    0    0  501 -0.00000000000E+00  0.00000000000E+00  0.32147442919E+03  0.32147442919E+03  0.00000000000E+00 0.  1.
          1   -1    0    0  501    0  0.00000000000E+00 -0.00000000000E+00 -0.92759105552E+03  0.92759105552E+03  0.00000000000E+00 0. -1.
         23    2    1    2    0    0  0.26406992821E+02 -0.68322321139E+02  0.20193891022E+02  0.14846006457E+03  0.12754343849E+03 0.  0.
        254    2    1    2    0    0 -0.26406992821E+02  0.68322321139E+02 -0.62631051734E+03  0.11006054201E+04  0.90205440960E+03 0.  0.
        -24    2    4    4    0    0 -0.71139432340E+02 -0.34017887130E+03 -0.12425485200E+02  0.35748782151E+03  0.82829140577E+02 0.  0.
         24    2    4    4    0    0  0.44732439519E+02  0.40850119244E+03 -0.61388503214E+03  0.74311759864E+03  0.80589809175E+02 0.  0.
         11    1    3    3    0    0 -0.28094010802E+02 -0.80906246208E+02  0.31755457066E+02  0.91342778433E+02  0.00000000000E+00 0.  1.
        -11    1    3    3    0    0  0.54501003623E+02  0.12583925069E+02 -0.11561566045E+02  0.57117286135E+02  0.00000000000E+00 0. -1.
          2    1    6    6  502    0  0.44308774081E+02  0.41193201123E+03 -0.60237590550E+03  0.73110052719E+03  0.00000000000E+00 0. -1.
          3    1    5    5  503    0 -0.39473225891E-01 -0.18469138730E+03  0.10476895467E+02  0.18498831163E+03  0.00000000000E+00 0. -1.
         -4    1    5    5    0  503 -0.71099959114E+02 -0.15548748400E+03 -0.22902380666E+02  0.17249950987E+03  0.00000000000E+00 0.  1.
         -1    1    6    6    0  502  0.42366543785E+00 -0.34308187890E+01 -0.11509126643E+02  0.12017071442E+02  0.00000000000E+00 0.  1.
<mgrwt>
<rscale>  0 0.10921480E+04</rscale>
<asrwt>0</asrwt>
<pdfrwt beam="1">  1        1 0.14270632E+00 0.10921480E+04</pdfrwt>
<pdfrwt beam="2">  1       -1 0.49457605E-01 0.10921480E+04</pdfrwt>
<totfact> 0.70567845E+01</totfact>
</mgrwt>
</event>
<event>
12    1  0.2433511E-007  0.1644325E+04  0.7818608E-02  0.8793771E-01
          2   -1    0    0  501    0  0.00000000000E+00  0.00000000000E+00  0.20357685287E+04  0.20357685287E+04  0.00000000000E+00 0. -1.
         -2   -1    0    0    0  501 -0.00000000000E+00 -0.00000000000E+00 -0.33203739438E+03  0.33203739438E+03  0.00000000000E+00 0.  1.
         23    2    1    2    0    0 -0.44717131926E+03 -0.19529282230E+03  0.10275853657E+04  0.11413272177E+04  0.92707383540E+02 0.  0.
        254    2    1    2    0    0  0.44717131926E+03  0.19529282230E+03  0.67614576867E+03  0.12264787054E+04  0.89943061936E+03 0.  0.
        -24    2    4    4    0    0 -0.65622458399E+02  0.27871792841E+03 -0.78107341680E+02  0.30723372072E+03  0.79383950885E+02 0.  0.
         24    2    4    4    0    0  0.51279377766E+03 -0.83425106110E+02  0.75425311035E+03  0.91924498466E+03  0.78717092306E+02 0.  0.
         11    1    3    3    0    0 -0.38030924792E+03 -0.19990188880E+03  0.89222964029E+03  0.99028764519E+03  0.00000000000E+00 0.  1.
        -11    1    3    3    0    0 -0.66862071344E+02  0.46090665031E+01  0.13535572538E+03  0.15103957254E+03  0.00000000000E+00 0. -1.
          4    1    6    6  502    0  0.35249209296E+03 -0.19982205836E+02  0.50448206729E+03  0.61575329505E+03  0.00000000000E+00 0. -1.
          3    1    5    5  503    0 -0.60825032247E+02  0.15151377485E+03 -0.75584299310E+02  0.17991413179E+03  0.00000000000E+00 0. -1.
         -4    1    5    5    0  503 -0.47974261524E+01  0.12720415356E+03 -0.25230423696E+01  0.12731958892E+03  0.00000000000E+00 0.  1.
         -1    1    6    6    0  502  0.16030168470E+03 -0.63442900274E+02  0.24977104306E+03  0.30349168961E+03  0.00000000000E+00 0.  1.
<mgrwt>
<rscale>  0 0.16443251E+04</rscale>
<asrwt>0</asrwt>
<pdfrwt beam="1">  1        2 0.31319515E+00 0.16443251E+04</pdfrwt>
<pdfrwt beam="2">  1       -2 0.51082677E-01 0.16443251E+04</pdfrwt>
<totfact> 0.22094132E+01</totfact>
</mgrwt>
</event>
<event>
12    1  0.2433511E-007  0.2726809E+04  0.7818608E-02  0.8326359E-01
         -2   -1    0    0    0  501 -0.00000000000E+00  0.00000000000E+00  0.12870176756E+04  0.12870176756E+04  0.00000000000E+00 0.  1.
          2   -1    0    0  501    0  0.00000000000E+00 -0.00000000000E+00 -0.14443248441E+04  0.14443248441E+04  0.00000000000E+00 0. -1.
         23    2    1    2    0    0 -0.24113912792E+03 -0.11882635725E+04 -0.35952542557E+02  0.12164569894E+04  0.91414578177E+02 0.  0.
        254    2    1    2    0    0  0.24113912792E+03  0.11882635725E+04 -0.12135462594E+03  0.15148855303E+04  0.90001823767E+03 0.  0.
        -24    2    4    4    0    0 -0.16964903257E+03  0.99170002337E+03  0.76161537547E+02  0.10120716716E+04  0.78985809557E+02 0.  0.
         24    2    4    4    0    0  0.41078816049E+03  0.19656354909E+03 -0.19751616348E+03  0.50281385871E+03  0.80156097977E+02 0.  0.
         11    1    3    3    0    0 -0.15336679245E+03 -0.65126572137E+03 -0.60275876824E+02  0.67178984376E+03  0.00000000000E+00 0. -1.
        -11    1    3    3    0    0 -0.87772335475E+02 -0.53699785110E+03  0.24323334267E+02  0.54466714565E+03  0.00000000000E+00 0.  1.
          4    1    6    6  502    0  0.81092326693E+02  0.16029040922E+02 -0.61669227928E+02  0.10313093268E+03  0.00000000000E+00 0. -1.
          1    1    5    5  503    0 -0.90406609147E-01 -0.15535410589E+01  0.39065264889E+00  0.16044540095E+01  0.00000000000E+00 0. -1.
         -2    1    5    5    0  503 -0.16955862596E+03  0.99325356443E+03  0.75770884898E+02  0.10104672176E+04  0.00000000000E+00 0.  1.
         -3    1    6    6    0  502  0.32969583380E+03  0.18053450817E+03 -0.13584693556E+03  0.39968292603E+03  0.00000000000E+00 0.  1.
<mgrwt>
<rscale>  0 0.27268088E+04</rscale>
<asrwt>0</asrwt>
<pdfrwt beam="1">  1        2 0.22220382E+00 0.27268088E+04</pdfrwt>
<pdfrwt beam="2">  1       -2 0.19800272E+00 0.27268088E+04</pdfrwt>
<totfact> 0.16383996E+00</totfact>
</mgrwt>
</event>
<event>
12    1  0.2433511E-007  0.1730024E+04  0.7818608E-02  0.8744424E-01
         -1   -1    0    0    0  501 -0.00000000000E+00  0.00000000000E+00  0.73305802878E+03  0.73305802878E+03  0.00000000000E+00 0.  1.
          1   -1    0    0  501    0  0.00000000000E+00 -0.00000000000E+00 -0.10207179671E+04  0.10207179671E+04  0.00000000000E+00 0. -1.
         23    2    1    2    0    0  0.56105903375E+03  0.26160421526E+03 -0.20354115015E+03  0.65860068253E+03  0.95403639509E+02 0.  0.
        254    2    1    2    0    0 -0.56105903375E+03 -0.26160421526E+03 -0.84118788213E+02  0.10951753134E+04  0.89950485920E+03 0.  0.
        -24    2    4    4    0    0 -0.65762102950E+03  0.78307291163E+02 -0.22867971593E+03  0.70507970372E+03  0.79028639356E+02 0.  0.
         24    2    4    4    0    0  0.96561995742E+02 -0.33991150642E+03  0.14456092772E+03  0.39009560966E+03  0.80079158577E+02 0.  0.
         13    1    3    3    0    0  0.46129300283E+03  0.17498771269E+03 -0.17456887475E+03  0.52334140490E+03  0.00000000000E+00 0. -1.
        -13    1    3    3    0    0  0.99766030920E+02  0.86616502570E+02 -0.28972275399E+02  0.13525927763E+03  0.00000000000E+00 0.  1.
          2    1    6    6  502    0  0.90744084448E+02 -0.32040643628E+03  0.11132817454E+03  0.35112495741E+03  0.00000000000E+00 0. -1.
          3    1    5    5  503    0 -0.62176233378E+03  0.72194469066E+02 -0.23413671226E+03  0.66829667147E+03  0.00000000000E+00 0. -1.
         -4    1    5    5    0  503 -0.35858695719E+02  0.61128220970E+01  0.54569963355E+01  0.36783032252E+02  0.00000000000E+00 0.  1.
         -1    1    6    6    0  502  0.58179112946E+01 -0.19505070139E+02  0.33232753180E+02  0.38970652251E+02  0.00000000000E+00 0.  1.
<mgrwt>
<rscale>  0 0.17300237E+04</rscale>
<asrwt>0</asrwt>
<pdfrwt beam="1">  1        1 0.15703353E+00 0.17300237E+04</pdfrwt>
<pdfrwt beam="2">  1       -1 0.11277816E+00 0.17300237E+04</pdfrwt>
<totfact> 0.99548823E+00</totfact>
</mgrwt>
</event>
<event>
12    1  0.2433511E-007  0.1710443E+04  0.7818608E-02  0.8755431E-01
         -2   -1    0    0    0  501 -0.00000000000E+00  0.00000000000E+00  0.62350738045E+03  0.62350738045E+03  0.00000000000E+00 0.  1.
          2   -1    0    0  501    0  0.00000000000E+00 -0.00000000000E+00 -0.11730469782E+04  0.11730469782E+04  0.00000000000E+00 0. -1.
         23    2    1    2    0    0  0.59759563302E+03  0.14048655655E+03 -0.21851106242E+03  0.65802384151E+03  0.91603921437E+02 0.  0.
        254    2    1    2    0    0 -0.59759563302E+03 -0.14048655655E+03 -0.33102853534E+03  0.11385305171E+04  0.89989712416E+03 0.  0.
        -24    2    4    4    0    0  0.78514620694E+02  0.12848075932E+03  0.17809628207E+03  0.24646751708E+03  0.79725153571E+02 0.  0.
         24    2    4    4    0    0 -0.67611025372E+03 -0.26896731586E+03 -0.50912481741E+03  0.89206300006E+03  0.84260454465E+02 0.  0.
         11    1    3    3    0    0  0.24105981161E+02  0.20897799160E+02 -0.26682448735E+02  0.41590496607E+02  0.00000000000E+00 0. -1.
        -11    1    3    3    0    0  0.57348965186E+03  0.11958875739E+03 -0.19182861368E+03  0.61643334491E+03  0.00000000000E+00 0.  1.
          4    1    6    6  502    0 -0.14031348035E+02 -0.16962253437E+02 -0.28419801669E+02  0.35948322579E+02  0.00000000000E+00 0. -1.
          3    1    5    5  503    0  0.40187213484E+02  0.37701012273E+02  0.17075921883E+02  0.57688521928E+02  0.00000000000E+00 0. -1.
         -4    1    5    5    0  503  0.38327407210E+02  0.90779747044E+02  0.16102036018E+03  0.18877899515E+03  0.00000000000E+00 0.  1.
         -3    1    6    6    0  502 -0.66207890568E+03 -0.25200506243E+03 -0.48070501574E+03  0.85611467748E+03  0.00000000000E+00 0.  1.
<mgrwt>
<rscale>  0 0.17104426E+04</rscale>
<asrwt>0</asrwt>
<pdfrwt beam="1">  1        2 0.18046876E+00 0.17104426E+04</pdfrwt>
<pdfrwt beam="2">  1       -2 0.95924214E-01 0.17104426E+04</pdfrwt>
<totfact> 0.17034154E+01</totfact>
</mgrwt>
</event>
<event>
12    1  0.2433511E-007  0.2127999E+04  0.7818608E-02  0.8549009E-01
          2   -1    0    0  501    0  0.00000000000E+00  0.00000000000E+00  0.27222479053E+04  0.27222479053E+04  0.00000000000E+00 0. -1.
         -2   -1    0    0    0  501 -0.00000000000E+00 -0.00000000000E+00 -0.41586759365E+03  0.41586759365E+03  0.00000000000E+00 0.  1.
         23    2    1    2    0    0 -0.56802888268E+03 -0.65918149892E+03  0.89189442796E+03  0.12489594955E+04  0.85129846062E+02 0.  0.
        254    2    1    2    0    0  0.56802888268E+03  0.65918149892E+03  0.14144858837E+04  0.18891560035E+04  0.90053485786E+03 0.  0.
        -24    2    4    4    0    0  0.24577675342E+03  0.83413273985E+03  0.92226886980E+03  0.12700974431E+04  0.79899978034E+02 0.  0.
         24    2    4    4    0    0  0.32225212926E+03 -0.17495124094E+03  0.49221701393E+03  0.61905856043E+03  0.80632133253E+02 0.  0.
         13    1    3    3    0    0 -0.34669283038E+03 -0.39064425094E+03  0.47586500153E+03  0.70657366856E+03  0.00000000000E+00 0.  1.
        -13    1    3    3    0    0 -0.22133605230E+03 -0.26853724798E+03  0.41602942643E+03  0.54238582693E+03  0.00000000000E+00 0. -1.
          4    1    6    6  502    0  0.30010609081E+03 -0.16739931932E+03  0.41733391597E+03  0.54060502705E+03  0.00000000000E+00 0. -1.
          1    1    5    5  503    0  0.87429487058E+02  0.39279381727E+03  0.46849769773E+03  0.61759290060E+03  0.00000000000E+00 0. -1.
         -2    1    5    5    0  503  0.15834726636E+03  0.44133892258E+03  0.45377117207E+03  0.65250454247E+03  0.00000000000E+00 0.  1.
         -3    1    6    6    0  502  0.22146038456E+02 -0.75519216129E+01  0.74883097960E+02  0.78453533377E+02  0.00000000000E+00 0.  1.
<mgrwt>
<rscale>  0 0.21279988E+04</rscale>
<asrwt>0</asrwt>
<pdfrwt beam="1">  1        2 0.41880736E+00 0.21279988E+04</pdfrwt>
<pdfrwt beam="2">  1       -2 0.63979632E-01 0.21279988E+04</pdfrwt>
<totfact> 0.53524334E+00</totfact>
</mgrwt>
</event>
<event>
12    1  0.2433511E-007  0.2564988E+04  0.7818608E-02  0.8380192E-01
         -2   -1    0    0    0  501 -0.00000000000E+00  0.00000000000E+00  0.22284230505E+04  0.22284230505E+04  0.00000000000E+00 0.  1.
          2   -1    0    0  501    0  0.00000000000E+00 -0.00000000000E+00 -0.73809632649E+03  0.73809632649E+03  0.00000000000E+00 0. -1.
         23    2    1    2    0    0 -0.91297752366E+03  0.61666269008E+03  0.87742139121E+03  0.14112521484E+04  0.89238425553E+02 0.  0.
        254    2    1    2    0    0  0.91297752366E+03 -0.61666269008E+03  0.61290533276E+03  0.15552672285E+04  0.91071530851E+03 0.  0.
        -24    2    4    4    0    0  0.30240991589E+03 -0.55876381396E+03  0.67891123548E+03  0.93332012592E+03  0.80605426341E+02 0.  0.
         24    2    4    4    0    0  0.61056760777E+03 -0.57898876122E+02 -0.66005902723E+02  0.62194710261E+03  0.79475378231E+02 0.  0.
         11    1    3    3    0    0 -0.25855712004E+03  0.22089777749E+03  0.28940160570E+03  0.44654328100E+03  0.00000000000E+00 0.  1.
        -11    1    3    3    0    0 -0.65442040362E+03  0.39576491259E+03  0.58801978551E+03  0.96470886741E+03  0.00000000000E+00 0. -1.
          4    1    6    6  502    0  0.60767041641E+03 -0.62212475959E+02 -0.70725449179E+02  0.61492748866E+03  0.00000000000E+00 0. -1.
          1    1    5    5  503    0  0.10474982006E+03 -0.27797001243E+03  0.31632906782E+03  0.43394000941E+03  0.00000000000E+00 0. -1.
         -2    1    5    5    0  503  0.19766009584E+03 -0.28079380153E+03  0.36258216766E+03  0.49938011651E+03  0.00000000000E+00 0.  1.
         -3    1    6    6    0  502  0.28971913537E+01  0.43135998376E+01  0.47195464562E+01  0.70196139531E+01  0.00000000000E+00 0.  1.
<mgrwt>
<rscale>  0 0.25649880E+04</rscale>
<asrwt>0</asrwt>
<pdfrwt beam="1">  1        2 0.11355328E+00 0.25649880E+04</pdfrwt>
<pdfrwt beam="2">  1       -2 0.34283431E+00 0.25649880E+04</pdfrwt>
<totfact> 0.58641270E-01</totfact>
</mgrwt>
</event>
<event>
12    1  0.2433511E-007  0.2323255E+04  0.7818608E-02  0.8468808E-01
         -1   -1    0    0    0  501 -0.00000000000E+00  0.00000000000E+00  0.15652173470E+04  0.15652173470E+04  0.00000000000E+00 0.  1.
          1   -1    0    0  501    0  0.00000000000E+00 -0.00000000000E+00 -0.86210311846E+03  0.86210311846E+03  0.00000000000E+00 0. -1.
         23    2    1    2    0    0  0.90943361644E+03 -0.35240054930E+03  0.44686135673E+03  0.10767073147E+04  0.91421657578E+02 0.  0.
        254    2    1    2    0    0 -0.90943361644E+03  0.35240054930E+03  0.25625287177E+03  0.13506131507E+04  0.89846240812E+03 0.  0.
        -24    2    4    4    0    0 -0.83995704611E+03  0.54942858249E+03  0.40116346748E+03  0.10839711336E+04  0.81619142184E+02 0.  0.
         24    2    4    4    0    0 -0.69476570324E+02 -0.19702803318E+03 -0.14491059571E+03  0.26664201709E+03  0.80323376703E+02 0.  0.
         13    1    3    3    0    0  0.56086184966E+03 -0.23890243196E+03  0.23531482512E+03  0.65346266406E+03  0.00000000000E+00 0. -1.
        -13    1    3    3    0    0  0.34857176678E+03 -0.11349811734E+03  0.21154653161E+03  0.42324465061E+03  0.00000000000E+00 0.  1.
          4    1    6    6  502    0  0.14934859149E+01  0.50445959377E+00 -0.24721470566E+02  0.24771679124E+02  0.00000000000E+00 0. -1.
          1    1    5    5  503    0 -0.42021331973E+02  0.11289445563E+02  0.76030137776E+01  0.44170688702E+02  0.00000000000E+00 0. -1.
         -2    1    5    5    0  503 -0.79793571414E+03  0.53813913693E+03  0.39356045370E+03  0.10398004449E+04  0.00000000000E+00 0.  1.
         -3    1    6    6    0  502 -0.70970056239E+02 -0.19753249278E+03 -0.12018912514E+03  0.24187033797E+03  0.00000000000E+00 0.  1.
<mgrwt>
<rscale>  0 0.23232553E+04</rscale>
<asrwt>0</asrwt>
<pdfrwt beam="1">  1        1 0.13263125E+00 0.23232553E+04</pdfrwt>
<pdfrwt beam="2">  1       -1 0.24080267E+00 0.23232553E+04</pdfrwt>
<totfact> 0.14133928E+00</totfact>
</mgrwt>
</event>
<event>
12    1  0.2433511E-007  0.1743687E+04  0.7818608E-02  0.8736833E-01
          1   -1    0    0  501    0  0.00000000000E+00  0.00000000000E+00  0.49266881477E+03  0.49266881477E+03  0.00000000000E+00 0. -1.
         -1   -1    0    0    0  501 -0.00000000000E+00 -0.00000000000E+00 -0.15428431056E+04  0.15428431056E+04  0.00000000000E+00 0.  1.
         23    2    1    2    0    0  0.54618162330E+03 -0.11536228712E+03 -0.73704026413E+03  0.92957775688E+03  0.96247764756E+02 0.  0.
        254    2    1    2    0    0 -0.54618162330E+03  0.11536228712E+03 -0.31313402666E+03  0.11059341634E+04  0.90189502289E+03 0.  0.
        -24    2    4    4    0    0  0.10053892681E+03 -0.16591917206E+03 -0.33504719379E+03  0.39556625217E+03  0.81109742491E+02 0.  0.
         24    2    4    4    0    0 -0.64672055011E+03  0.28128145918E+03  0.21913167129E+02  0.71036791128E+03  0.82314356405E+02 0.  0.
         13    1    3    3    0    0  0.17513893881E+03 -0.68602746336E+00 -0.27456010540E+03  0.32566450528E+03  0.00000000000E+00 0. -1.
        -13    1    3    3    0    0  0.37104268449E+03 -0.11467625966E+03 -0.46248015872E+03  0.60391325160E+03  0.00000000000E+00 0.  1.
          4    1    6    6  502    0 -0.92948120796E+02  0.47352683137E+02 -0.25373527723E+02  0.10735662843E+03  0.00000000000E+00 0. -1.
          1    1    5    5  503    0 -0.83176859753E+01 -0.15344966738E+02 -0.68247238871E+02  0.70443860752E+02  0.00000000000E+00 0. -1.
         -2    1    5    5    0  503  0.10885661278E+03 -0.15057420532E+03 -0.26679995492E+03  0.32512239141E+03  0.00000000000E+00 0.  1.
         -3    1    6    6    0  502 -0.55377242932E+03  0.23392877605E+03  0.47286694852E+02  0.60301128285E+03  0.00000000000E+00 0.  1.
<mgrwt>
<rscale>  0 0.17436865E+04</rscale>
<asrwt>0</asrwt>
<pdfrwt beam="1">  1        1 0.75795203E-01 0.17436865E+04</pdfrwt>
<pdfrwt beam="2">  1       -1 0.23736048E+00 0.17436865E+04</pdfrwt>
<totfact> 0.36191794E+00</totfact>
</mgrwt>
</event>
<event>
12    1  0.2433511E-007  0.1961730E+04  0.7818608E-02  0.8624725E-01
          1   -1    0    0  501    0  0.00000000000E+00  0.00000000000E+00  0.23895927062E+04  0.23895927062E+04  0.00000000000E+00 0. -1.
         -1   -1    0    0    0  501 -0.00000000000E+00 -0.00000000000E+00 -0.40261910658E+03  0.40261910658E+03  0.00000000000E+00 0.  1.
         23    2    1    2    0    0  0.54001954860E+03  0.15282315711E+03  0.15379194439E+04  0.16396691660E+04  0.91338535323E+02 0.  0.
        254    2    1    2    0    0 -0.54001954860E+03 -0.15282315711E+03  0.44905415579E+03  0.11525426468E+04  0.90095998112E+03 0.  0.
        -24    2    4    4    0    0 -0.74650004287E+03 -0.22719368890E+03  0.19597981330E+03  0.80825601126E+03  0.77397714634E+02 0.  0.
         24    2    4    4    0    0  0.20648049427E+03  0.74370531787E+02  0.25307434250E+03  0.34428663552E+03  0.79507823847E+02 0.  0.
         11    1    3    3    0    0  0.26636515052E+03  0.46824834505E+02  0.84314686566E+03  0.88546010391E+03  0.00000000000E+00 0. -1.
        -11    1    3    3    0    0  0.27365439808E+03  0.10599832260E+03  0.69477257820E+03  0.75420906213E+03  0.00000000000E+00 0.  1.
          4    1    6    6  502    0  0.93213434990E+02 -0.74255875764E+01  0.10851114316E+03  0.14324298239E+03  0.00000000000E+00 0. -1.
          3    1    5    5  503    0 -0.61247551127E+03 -0.16886396658E+03  0.13301029739E+03  0.64910171030E+03  0.00000000000E+00 0. -1.
         -4    1    5    5    0  503 -0.13402453161E+03 -0.58329722316E+02  0.62969515908E+02  0.15915430095E+03  0.00000000000E+00 0.  1.
         -3    1    6    6    0  502  0.11326705928E+03  0.81796119364E+02  0.14456319934E+03  0.20104365313E+03  0.00000000000E+00 0.  1.
<mgrwt>
<rscale>  0 0.19617295E+04</rscale>
<asrwt>0</asrwt>
<pdfrwt beam="1">  1        1 0.36762964E+00 0.19617295E+04</pdfrwt>
<pdfrwt beam="2">  1       -1 0.61941402E-01 0.19617295E+04</pdfrwt>
<totfact> 0.39754218E+00</totfact>
</mgrwt>
</event>
<event>
12    1  0.2433511E-007  0.3985415E+04  0.7818608E-02  0.8007495E-01
          2   -1    0    0  501    0  0.00000000000E+00  0.00000000000E+00  0.33245623924E+04  0.33245623924E+04  0.00000000000E+00 0.  1.
         -2   -1    0    0    0  501 -0.00000000000E+00 -0.00000000000E+00 -0.11944076845E+04  0.11944076845E+04  0.00000000000E+00 0. -1.
         23    2    1    2    0    0 -0.49400820851E+03  0.15330862579E+04 -0.10961890252E+03  0.16171250921E+04  0.93164775798E+02 0.  0.
        254    2    1    2    0    0  0.49400820851E+03 -0.15330862579E+04  0.22397736104E+04  0.29018449848E+04  0.89984493410E+03 0.  0.
        -24    2    4    4    0    0  0.63252679594E+03 -0.11287034827E+04  0.11670290026E+04  0.17443105385E+04  0.81245692167E+02 0.  0.
         24    2    4    4    0    0 -0.13851858743E+03 -0.40438277521E+03  0.10727446078E+04  0.11575344462E+04  0.79951064282E+02 0.  0.
         13    1    3    3    0    0 -0.95556906506E+02  0.40771318526E+03 -0.51028761638E+02  0.42185909773E+03  0.00000000000E+00 0. -1.
        -13    1    3    3    0    0 -0.39845130200E+03  0.11253730726E+04 -0.58590140880E+02  0.11952659943E+04  0.00000000000E+00 0.  1.
          4    1    6    6  502    0 -0.14874663044E+03 -0.37504710451E+03  0.10069462917E+04  0.10847703559E+04  0.00000000000E+00 0. -1.
          3    1    5    5  503    0  0.48304659669E+03 -0.81111245480E+03  0.88541462897E+03  0.12942938206E+04  0.00000000000E+00 0. -1.
         -4    1    5    5    0  503  0.14948019926E+03 -0.31759102786E+03  0.28161437366E+03  0.45001671791E+03  0.00000000000E+00 0.  1.
         -3    1    6    6    0  502  0.10228043009E+02 -0.29335670699E+02  0.65798316103E+02  0.72764090327E+02  0.00000000000E+00 0.  1.
<mgrwt>
<rscale>  0 0.39854148E+04</rscale>
<asrwt>0</asrwt>
<pdfrwt beam="1">  1        2 0.51147114E+00 0.39854148E+04</pdfrwt>
<pdfrwt beam="2">  1       -2 0.18375503E+00 0.39854148E+04</pdfrwt>
<totfact> 0.14453530E-01</totfact>
</mgrwt>
</event>
<event>
12    1  0.2433511E-007  0.1484675E+04  0.7818608E-02  0.8894709E-01
          2   -1    0    0  501    0  0.00000000000E+00  0.00000000000E+00  0.17691534000E+04  0.17691534000E+04  0.00000000000E+00 0. -1.
         -2   -1    0    0    0  501 -0.00000000000E+00 -0.00000000000E+00 -0.31148492023E+03  0.31148492023E+03  0.00000000000E+00 0.  1.
         23    2    1    2    0    0  0.44568194447E+03  0.50622532000E+02  0.62821974703E+03  0.77702731109E+03  0.88973902063E+02 0.  0.
        254    2    1    2    0    0 -0.44568194447E+03 -0.50622532000E+02  0.82944873271E+03  0.13036110091E+04  0.90012300631E+03 0.  0.
        -24    2    4    4    0    0 -0.86378062065E+02  0.40325582353E+03  0.30932970744E+03  0.52134085665E+03  0.77685211512E+02 0.  0.
         24    2    4    4    0    0 -0.35930388240E+03 -0.45387835553E+03  0.52011902526E+03  0.78227015246E+03  0.79485529849E+02 0.  0.
         13    1    3    3    0    0  0.11472146094E+03  0.12086723822E+02  0.23377885364E+03  0.26069072654E+03  0.00000000000E+00 0. -1.
        -13    1    3    3    0    0  0.33096048353E+03  0.38535808178E+02  0.39444089339E+03  0.51633658455E+03  0.00000000000E+00 0.  1.
          2    1    6    6  502    0 -0.39899259492E+02 -0.26375611525E+02  0.66285621076E+02  0.81739876148E+02  0.00000000000E+00 0. -1.
          1    1    5    5  503    0  0.12555398651E+02  0.20071354094E+02  0.13608938483E+02  0.27307517226E+02  0.00000000000E+00 0. -1.
         -2    1    5    5    0  503 -0.98933460716E+02  0.38318446943E+03  0.29572076896E+03  0.49403333942E+03  0.00000000000E+00 0.  1.
         -1    1    6    6    0  502 -0.31940462291E+03 -0.42750274400E+03  0.45383340419E+03  0.70053027631E+03  0.00000000000E+00 0.  1.
<mgrwt>
<rscale>  0 0.14846745E+04</rscale>
<asrwt>0</asrwt>
<pdfrwt beam="1">  1        2 0.27217744E+00 0.14846745E+04</pdfrwt>
<pdfrwt beam="2">  1       -2 0.47920758E-01 0.14846745E+04</pdfrwt>
<totfact> 0.35820572E+01</totfact>
</mgrwt>
</event>
<event>
12    1  0.2433511E-007  0.1904688E+04  0.7818608E-02  0.8652526E-01
          2   -1    0    0  501    0  0.00000000000E+00  0.00000000000E+00  0.69542592244E+03  0.69542592244E+03  0.00000000000E+00 0. -1.
         -2   -1    0    0    0  501 -0.00000000000E+00 -0.00000000000E+00 -0.13041781076E+04  0.13041781076E+04  0.00000000000E+00 0.  1.
         23    2    1    2    0    0 -0.11242518673E+03 -0.71530471226E+03 -0.37728785891E+03  0.82150897814E+03  0.90722757366E+02 0.  0.
        254    2    1    2    0    0  0.11242518673E+03  0.71530471226E+03 -0.23146432626E+03  0.11780950519E+04  0.90001775706E+03 0.  0.
        -24    2    4    4    0    0  0.32330168969E+02  0.85277447920E+03 -0.38723307535E+03  0.94099689936E+03  0.85183083839E+02 0.  0.
         24    2    4    4    0    0  0.80095017757E+02 -0.13746976694E+03  0.15576874909E+03  0.23709815255E+03  0.81476880499E+02 0.  0.
         11    1    3    3    0    0 -0.51885194176E+02 -0.56948250824E+03 -0.29340772123E+03  0.64272116150E+03  0.00000000000E+00 0. -1.
        -11    1    3    3    0    0 -0.60539992550E+02 -0.14582220401E+03 -0.83880137682E+02  0.17878781664E+03  0.00000000000E+00 0.  1.
          2    1    6    6  502    0  0.64368616780E+02 -0.11892610754E+03  0.79094451745E+02  0.15666100401E+03  0.00000000000E+00 0. -1.
          3    1    5    5  503    0  0.20367074864E+02  0.63394169937E+03 -0.24617767293E+03  0.68036779949E+03  0.00000000000E+00 0. -1.
         -4    1    5    5    0  503  0.11963094104E+02  0.21883277983E+03 -0.14105540242E+03  0.26062909987E+03  0.00000000000E+00 0.  1.
         -1    1    6    6    0  502  0.15726400977E+02 -0.18543659404E+02  0.76674297342E+02  0.80437148536E+02  0.00000000000E+00 0.  1.
<mgrwt>
<rscale>  0 0.19046882E+04</rscale>
<asrwt>0</asrwt>
<pdfrwt beam="1">  1        2 0.10698860E+00 0.19046882E+04</pdfrwt>
<pdfrwt beam="2">  1       -2 0.20064278E+00 0.19046882E+04</pdfrwt>
<totfact> 0.50911213E+00</totfact>
</mgrwt>
</event>
<event>
12    1  0.2433511E-007  0.2673279E+04  0.7818608E-02  0.8343728E-01
         -2   -1    0    0    0  501 -0.00000000000E+00  0.00000000000E+00  0.17790537719E+04  0.17790537719E+04  0.00000000000E+00 0.  1.
          2   -1    0    0  501    0  0.00000000000E+00 -0.00000000000E+00 -0.10042442611E+04  0.10042442611E+04  0.00000000000E+00 0. -1.
         23    2    1    2    0    0 -0.33194592523E+03 -0.87765745998E+03  0.10941330378E+04  0.14443852985E+04  0.93011137811E+02 0.  0.
        254    2    1    2    0    0  0.33194592523E+03  0.87765745998E+03 -0.31932352706E+03  0.13389127345E+04  0.90013836793E+03 0.  0.
        -24    2    4    4    0    0  0.42079388753E+03  0.94485910680E+03 -0.46830195412E+03  0.11382749228E+04  0.80850802209E+02 0.  0.
         24    2    4    4    0    0 -0.88847962293E+02 -0.67201646820E+02  0.14897842706E+03  0.20063781171E+03  0.75172721235E+02 0.  0.
         13    1    3    3    0    0 -0.11408983061E+03 -0.19082755236E+03  0.26416561308E+03  0.34527541952E+03  0.00000000000E+00 0.  1.
        -13    1    3    3    0    0 -0.21785609462E+03 -0.68682990762E+03  0.82996742475E+03  0.10991098790E+04  0.00000000000E+00 0. -1.
          4    1    6    6  502    0 -0.73518118914E+02 -0.21185957548E+02  0.52918360745E+02  0.93027477176E+02  0.00000000000E+00 0. -1.
          3    1    5    5  503    0  0.94422657963E+02  0.24013635827E+03 -0.81123988109E+02  0.27048513886E+03  0.00000000000E+00 0. -1.
         -2    1    5    5    0  503  0.32637122956E+03  0.70472274854E+03 -0.38717796601E+03  0.86778978396E+03  0.00000000000E+00 0.  1.
         -3    1    6    6    0  502 -0.15329843380E+02 -0.46015689272E+02  0.96060066314E+02  0.10761033453E+03  0.00000000000E+00 0.  1.
<mgrwt>
<rscale>  0 0.26732785E+04</rscale>
<asrwt>0</asrwt>
<pdfrwt beam="1">  1        2 0.15449912E+00 0.26732785E+04</pdfrwt>
<pdfrwt beam="2">  1       -2 0.27370058E+00 0.26732785E+04</pdfrwt>
<totfact> 0.10125216E+00</totfact>
</mgrwt>
</event>
<event>
12    1  0.2433511E-007  0.2130598E+04  0.7818608E-02  0.8547883E-01
          1   -1    0    0  501    0  0.00000000000E+00  0.00000000000E+00  0.56226350649E+03  0.56226350649E+03  0.00000000000E+00 0. -1.
         -1   -1    0    0    0  501 -0.00000000000E+00 -0.00000000000E+00 -0.20183812066E+04  0.20183812066E+04  0.00000000000E+00 0.  1.
         23    2    1    2    0    0  0.41938655067E+03 -0.11212511612E+03 -0.15164806140E+04  0.15802379994E+04  0.94771101176E+02 0.  0.
        254    2    1    2    0    0 -0.41938655067E+03  0.11212511612E+03  0.60362913935E+02  0.10004067136E+04  0.89928459941E+03 0.  0.
        -24    2    4    4    0    0 -0.12494700207E+03  0.43813472432E+03  0.23849609658E+03  0.51916685442E+03  0.71274432057E+02 0.  0.
         24    2    4    4    0    0 -0.29443954859E+03 -0.32600960820E+03 -0.17813318264E+03  0.48123985920E+03  0.82966613243E+02 0.  0.
         13    1    3    3    0    0  0.26060776671E+02 -0.30029934882E+02 -0.93162965491E+02  0.10129313505E+03  0.00000000000E+00 0. -1.
        -13    1    3    3    0    0  0.39332577400E+03 -0.82095181236E+02 -0.14233176485E+04  0.14789448644E+04  0.00000000000E+00 0.  1.
          2    1    6    6  502    0 -0.18341793298E+02 -0.17054032813E+01  0.25278873999E+01  0.18593547172E+02  0.00000000000E+00 0. -1.
          3    1    5    5  503    0 -0.86905698242E+01  0.12586463645E+03  0.45605871385E+02  0.13415412114E+03  0.00000000000E+00 0. -1.
         -4    1    5    5    0  503 -0.11625643225E+03  0.31227008786E+03  0.19289022519E+03  0.38501273328E+03  0.00000000000E+00 0.  1.
         -3    1    6    6    0  502 -0.27609775530E+03 -0.32430420492E+03 -0.18066107004E+03  0.46264631203E+03  0.00000000000E+00 0.  1.
<mgrwt>
<rscale>  0 0.21305981E+04</rscale>
<asrwt>0</asrwt>
<pdfrwt beam="1">  1        1 0.86502078E-01 0.21305981E+04</pdfrwt>
<pdfrwt beam="2">  1       -1 0.31052019E+00 0.21305981E+04</pdfrwt>
<totfact> 0.97360448E-01</totfact>
</mgrwt>
</event>
<event>
12    1  0.2433511E-007  0.1598115E+04  0.7818608E-02  0.8821707E-01
          2   -1    0    0  501    0  0.00000000000E+00  0.00000000000E+00  0.22298653395E+04  0.22298653395E+04  0.00000000000E+00 0. -1.
         -2   -1    0    0    0  501 -0.00000000000E+00 -0.00000000000E+00 -0.28633692419E+03  0.28633692419E+03  0.00000000000E+00 0.  1.
         23    2    1    2    0    0 -0.15920990433E+03  0.13270881741E+03  0.14528882126E+04  0.14702363629E+04  0.88041925030E+02 0.  0.
        254    2    1    2    0    0  0.15920990433E+03 -0.13270881741E+03  0.49064020272E+03  0.10459659008E+04  0.90019855216E+03 0.  0.
        -24    2    4    4    0    0  0.26088325155E+03  0.26673294064E+03  0.49665719416E+03  0.62609215233E+03  0.78207941655E+02 0.  0.
         24    2    4    4    0    0 -0.10167334721E+03 -0.39944175804E+03 -0.60169914338E+01  0.41987374850E+03  0.79790807079E+02 0.  0.
         13    1    3    3    0    0 -0.69311189083E+02  0.37301154039E+02  0.30925164566E+03  0.31911126174E+03  0.00000000000E+00 0.  1.
        -13    1    3    3    0    0 -0.89898715251E+02  0.95407663367E+02  0.11436365670E+04  0.11511251012E+04  0.00000000000E+00 0. -1.
          4    1    6    6  502    0  0.30699594194E+01 -0.13803610363E+03 -0.72640767987E+01  0.13826119256E+03  0.00000000000E+00 0. -1.
          3    1    5    5  503    0  0.13289438507E+03  0.18195111917E+03  0.32906699250E+03  0.39881350643E+03  0.00000000000E+00 0. -1.
         -4    1    5    5    0  503  0.12798886647E+03  0.84781821464E+02  0.16759020165E+03  0.22727864590E+03  0.00000000000E+00 0.  1.
         -3    1    6    6    0  502 -0.10474330663E+03 -0.26140565441E+03  0.12470853650E+01  0.28161255594E+03  0.00000000000E+00 0.  1.
<mgrwt>
<rscale>  0 0.15981149E+04</rscale>
<asrwt>0</asrwt>
<pdfrwt beam="1">  1        2 0.34305619E+00 0.15981149E+04</pdfrwt>
<pdfrwt beam="2">  1       -2 0.44051836E-01 0.15981149E+04</pdfrwt>
<totfact> 0.23302387E+01</totfact>
</mgrwt>
</event>
<event>
12    1  0.2433511E-007  0.1534134E+04  0.7818608E-02  0.8862066E-01
         -1   -1    0    0    0  501 -0.00000000000E+00  0.00000000000E+00  0.17978169358E+04  0.17978169358E+04  0.00000000000E+00 0.  1.
          1   -1    0    0  501    0  0.00000000000E+00 -0.00000000000E+00 -0.32728129735E+03  0.32728129735E+03  0.00000000000E+00 0. -1.
         23    2    1    2    0    0 -0.41865813601E+03  0.82296466773E+02  0.12852336171E+03  0.45468834927E+03  0.90420667794E+02 0.  0.
        254    2    1    2    0    0  0.41865813601E+03 -0.82296466773E+02  0.13420122767E+04  0.16704098838E+04  0.89845694718E+03 0.  0.
        -24    2    4    4    0    0  0.55990673193E+03 -0.32148754250E+03  0.64786906820E+03  0.91852123681E+03  0.84244551782E+02 0.  0.
         24    2    4    4    0    0 -0.14124859592E+03  0.23919107573E+03  0.69414320850E+03  0.75188864703E+03  0.79612857412E+02 0.  0.
         13    1    3    3    0    0 -0.32290306197E+03  0.97978733384E+02  0.82941977510E+02  0.34748466334E+03  0.00000000000E+00 0.  1.
        -13    1    3    3    0    0 -0.95755074047E+02 -0.15682266612E+02  0.45581384199E+02  0.10720368593E+03  0.00000000000E+00 0. -1.
          4    1    6    6  502    0 -0.10226346252E+03  0.97767297775E+02  0.31305974714E+03  0.34354427016E+03  0.00000000000E+00 0. -1.
          1    1    5    5  503    0  0.45383263260E+03 -0.26575684538E+03  0.57031459421E+03  0.77578959496E+03  0.00000000000E+00 0. -1.
         -2    1    5    5    0  503  0.10607409934E+03 -0.55730697120E+02  0.77554473987E+02  0.14273164186E+03  0.00000000000E+00 0.  1.
         -3    1    6    6    0  502 -0.38985133398E+02  0.14142377795E+03  0.38108346136E+03  0.40834437687E+03  0.00000000000E+00 0.  1.
<mgrwt>
<rscale>  0 0.15341341E+04</rscale>
<asrwt>0</asrwt>
<pdfrwt beam="1">  1        1 0.50350970E-01 0.15341341E+04</pdfrwt>
<pdfrwt beam="2">  1       -1 0.27658722E+00 0.15341341E+04</pdfrwt>
<totfact> 0.35390266E+00</totfact>
</mgrwt>
</event>
<event>
12    1  0.2433511E-007  0.1573356E+04  0.7818608E-02  0.8837086E-01
          1   -1    0    0  501    0  0.00000000000E+00  0.00000000000E+00  0.10685526298E+04  0.10685526298E+04  0.00000000000E+00 0. -1.
         -1   -1    0    0    0  501 -0.00000000000E+00 -0.00000000000E+00 -0.57915926435E+03  0.57915926435E+03  0.00000000000E+00 0.  1.
         23    2    1    2    0    0 -0.16183614376E+03 -0.48398171181E+03  0.36842396123E+02  0.51950534141E+03  0.89995571004E+02 0.  0.
        254    2    1    2    0    0  0.16183614376E+03  0.48398171181E+03  0.45255096935E+03  0.11282065528E+04  0.89867592105E+03 0.  0.
        -24    2    4    4    0    0  0.10871912521E+03  0.20044933347E+03  0.69917906822E+03  0.73984143430E+03  0.80710563070E+02 0.  0.
         24    2    4    4    0    0  0.53117018556E+02  0.28353237834E+03 -0.24662809887E+03  0.38836511848E+03  0.82401570820E+02 0.  0.
         11    1    3    3    0    0 -0.96882444959E+02 -0.15461757122E+03  0.15476391519E+02  0.18311832286E+03  0.00000000000E+00 0. -1.
        -11    1    3    3    0    0 -0.64953698805E+02 -0.32936414059E+03  0.21366004605E+02  0.33638701855E+03  0.00000000000E+00 0.  1.
          4    1    6    6  502    0 -0.39576729725E+01  0.75029510128E+02 -0.26055767072E+02  0.79523540937E+02  0.00000000000E+00 0. -1.
          3    1    5    5  503    0  0.25286983051E+02  0.16279138908E+02  0.38126647669E+02  0.48560098207E+02  0.00000000000E+00 0. -1.
         -4    1    5    5    0  503  0.83432142157E+02  0.18417019457E+03  0.66105242055E+03  0.69128133609E+03  0.00000000000E+00 0.  1.
         -3    1    6    6    0  502  0.57074691528E+02  0.20850286821E+03 -0.22057233179E+03  0.30884157754E+03  0.00000000000E+00 0.  1.
<mgrwt>
<rscale>  0 0.15733558E+04</rscale>
<asrwt>0</asrwt>
<pdfrwt beam="1">  1        1 0.16439271E+00 0.15733558E+04</pdfrwt>
<pdfrwt beam="2">  1       -1 0.89101425E-01 0.15733558E+04</pdfrwt>
<totfact> 0.15910042E+01</totfact>
</mgrwt>
</event>
<event>
12    1  0.2433511E-007  0.1227849E+04  0.7818608E-02  0.9088824E-01
         -2   -1    0    0    0  501 -0.00000000000E+00  0.00000000000E+00  0.57499493773E+03  0.57499493773E+03  0.00000000000E+00 0.  1.
          2   -1    0    0  501    0  0.00000000000E+00 -0.00000000000E+00 -0.65548925838E+03  0.65548925838E+03  0.00000000000E+00 0. -1.
         23    2    1    2    0    0 -0.24377313985E+03  0.10193478239E+02  0.10488308406E+03  0.28136863863E+03  0.92944062614E+02 0.  0.
        254    2    1    2    0    0  0.24377313985E+03 -0.10193478239E+02 -0.18537740471E+03  0.94911555748E+03  0.89829077061E+03 0.  0.
        -24    2    4    4    0    0 -0.12861188176E+03 -0.37365905170E+03 -0.58694695451E+02  0.40736862517E+03  0.79636841059E+02 0.  0.
         24    2    4    4    0    0  0.37238502161E+03  0.36346557346E+03 -0.12668270926E+03  0.54174693231E+03  0.81629666378E+02 0.  0.
         13    1    3    3    0    0 -0.20572871450E+03 -0.11031435122E+02  0.11596195757E+03  0.23641736852E+03  0.00000000000E+00 0.  1.
        -13    1    3    3    0    0 -0.38044425344E+02  0.21224913361E+02 -0.11078873512E+02  0.44951270118E+02  0.00000000000E+00 0. -1.
          2    1    6    6  502    0  0.18764499042E+02  0.21235129975E+02  0.11538557246E+02  0.30596984699E+02  0.00000000000E+00 0. -1.
          1    1    5    5  503    0 -0.91682244760E+01 -0.25102730302E+02  0.16378665030E+02  0.31344283001E+02  0.00000000000E+00 0. -1.
         -2    1    5    5    0  503 -0.11944365728E+03 -0.34855632140E+03 -0.75073360481E+02  0.37602434217E+03  0.00000000000E+00 0.  1.
         -1    1    6    6    0  502  0.35362052257E+03  0.34223044348E+03 -0.13822126651E+03  0.51114994761E+03  0.00000000000E+00 0.  1.
<mgrwt>
<rscale>  0 0.12278485E+04</rscale>
<asrwt>0</asrwt>
<pdfrwt beam="1">  1        2 0.10084450E+00 0.12278485E+04</pdfrwt>
<pdfrwt beam="2">  1       -2 0.88460760E-01 0.12278485E+04</pdfrwt>
<totfact> 0.48215656E+01</totfact>
</mgrwt>
</event>
<event>
12    1  0.2433511E-007  0.3320750E+04  0.7818608E-02  0.8157635E-01
         -2   -1    0    0    0  501 -0.00000000000E+00  0.00000000000E+00  0.98384263472E+03  0.98384263472E+03  0.00000000000E+00 0.  1.
          2   -1    0    0  501    0  0.00000000000E+00 -0.00000000000E+00 -0.28021205693E+04  0.28021205693E+04  0.00000000000E+00 0. -1.
         23    2    1    2    0    0  0.12064742377E+04 -0.51580397005E+02  0.24136689594E+03  0.12345601731E+04  0.87408344911E+02 0.  0.
        254    2    1    2    0    0 -0.12064742377E+04  0.51580397005E+02 -0.20596448305E+04  0.25514030310E+04  0.89959989706E+03 0.  0.
        -24    2    4    4    0    0 -0.61464490677E+03  0.19644589291E+03 -0.35843692677E+03  0.74249927287E+03  0.80304355329E+02 0.  0.
         24    2    4    4    0    0 -0.59182933098E+03 -0.14486549590E+03 -0.17012079038E+04  0.18089037581E+04  0.82319531920E+02 0.  0.
         11    1    3    3    0    0  0.56727682170E+03 -0.10736117346E+02  0.15570972818E+03  0.58835684419E+03  0.00000000000E+00 0. -1.
        -11    1    3    3    0    0  0.63919741605E+03 -0.40844279659E+02  0.85657167756E+02  0.64620332887E+03  0.00000000000E+00 0.  1.
          4    1    6    6  502    0 -0.54236743481E+03 -0.13504885892E+03 -0.14800813516E+04  0.15821003242E+04  0.00000000000E+00 0. -1.
          3    1    5    5  503    0 -0.55285538322E+03  0.15537093770E+03 -0.29910618516E+03  0.64749804095E+03  0.00000000000E+00 0. -1.
         -4    1    5    5    0  503 -0.61789523548E+02  0.41074955211E+02 -0.59330741614E+02  0.95001231920E+02  0.00000000000E+00 0.  1.
         -3    1    6    6    0  502 -0.49461896170E+02 -0.98166369772E+01 -0.22112655220E+03  0.22680343389E+03  0.00000000000E+00 0.  1.
<mgrwt>
<rscale>  0 0.33207503E+04</rscale>
<asrwt>0</asrwt>
<pdfrwt beam="1">  1        2 0.43109547E+00 0.33207503E+04</pdfrwt>
<pdfrwt beam="2">  1       -2 0.15136041E+00 0.33207503E+04</pdfrwt>
<totfact> 0.56206187E-01</totfact>
</mgrwt>
</event>
<event>
12    1  0.2433511E-007  0.2484189E+04  0.7818608E-02  0.8408640E-01
          1   -1    0    0  501    0  0.00000000000E+00  0.00000000000E+00  0.15375138676E+04  0.15375138676E+04  0.00000000000E+00 0. -1.
         -1   -1    0    0    0  501 -0.00000000000E+00 -0.00000000000E+00 -0.10034371865E+04  0.10034371865E+04  0.00000000000E+00 0.  1.
         23    2    1    2    0    0  0.42648472998E+03  0.95534191304E+03 -0.30557958317E+02  0.10502306110E+04  0.86505211733E+02 0.  0.
        254    2    1    2    0    0 -0.42648472998E+03 -0.95534191304E+03  0.56463463937E+03  0.14907204431E+04  0.89937076219E+03 0.  0.
        -24    2    4    4    0    0 -0.38327327046E+03 -0.77137253959E+03  0.80013858332E+03  0.11782314615E+04  0.78061703897E+02 0.  0.
         24    2    4    4    0    0 -0.43211459521E+02 -0.18396937345E+03 -0.23550394395E+03  0.31248898165E+03  0.80469220453E+02 0.  0.
         11    1    3    3    0    0  0.18093288862E+03  0.40966852157E+03  0.29691101998E+02  0.44882799521E+03  0.00000000000E+00 0. -1.
        -11    1    3    3    0    0  0.24555184137E+03  0.54567339147E+03 -0.60249060315E+02  0.60140261574E+03  0.00000000000E+00 0.  1.
          4    1    6    6  502    0 -0.35667519818E+02 -0.13777239788E+03 -0.11420752492E+03  0.18247401003E+03  0.00000000000E+00 0. -1.
          3    1    5    5  503    0 -0.13796482255E+03 -0.30401869736E+03  0.35997121940E+03  0.49095920340E+03  0.00000000000E+00 0. -1.
         -4    1    5    5    0  503 -0.24530844791E+03 -0.46735384223E+03  0.44016736392E+03  0.68727225808E+03  0.00000000000E+00 0.  1.
         -3    1    6    6    0  502 -0.75439397022E+01 -0.46196975563E+02 -0.12129641903E+03  0.13001497162E+03  0.00000000000E+00 0.  1.
<mgrwt>
<rscale>  0 0.24841889E+04</rscale>
<asrwt>0</asrwt>
<pdfrwt beam="1">  1        1 0.23654060E+00 0.24841889E+04</pdfrwt>
<pdfrwt beam="2">  1       -1 0.15437495E+00 0.24841889E+04</pdfrwt>
<totfact> 0.17688784E+00</totfact>
</mgrwt>
</event>
<event>
12    1  0.2433511E-007  0.1287318E+04  0.7818608E-02  0.9039683E-01
         -2   -1    0    0    0  501 -0.00000000000E+00  0.00000000000E+00  0.47599297805E+03  0.47599297805E+03  0.00000000000E+00 0.  1.
          2   -1    0    0  501    0  0.00000000000E+00 -0.00000000000E+00 -0.87038499211E+03  0.87038499211E+03  0.00000000000E+00 0. -1.
         23    2    1    2    0    0  0.20021159581E+03  0.10232386962E+03  0.13687336655E+03  0.27869151830E+03  0.91541173855E+02 0.  0.
        254    2    1    2    0    0 -0.20021159581E+03 -0.10232386962E+03 -0.53126538061E+03  0.10676864519E+04  0.89841894318E+03 0.  0.
        -24    2    4    4    0    0  0.34824487520E+03 -0.22342074948E+01 -0.14849927899E+03  0.38679586853E+03  0.79243443039E+02 0.  0.
         24    2    4    4    0    0 -0.54845647101E+03 -0.10008966213E+03 -0.38276610162E+03  0.68089058333E+03  0.79244285974E+02 0.  0.
         13    1    3    3    0    0  0.16863085147E+03  0.83496428959E+02  0.14895444127E+03  0.23999050667E+03  0.00000000000E+00 0.  1.
        -13    1    3    3    0    0  0.31580744336E+02  0.18827440665E+02 -0.12081074720E+02  0.38701011630E+02  0.00000000000E+00 0. -1.
          2    1    6    6  502    0 -0.14551581317E+03 -0.49064004470E+02 -0.72692554583E+02  0.16990095912E+03  0.00000000000E+00 0. -1.
          1    1    5    5  503    0  0.30618787696E+03  0.87868804485E+00 -0.15650824857E+03  0.34387006262E+03  0.00000000000E+00 0. -1.
         -2    1    5    5    0  503  0.42056998236E+02 -0.31128955397E+01  0.80089695876E+01  0.42925805911E+02  0.00000000000E+00 0.  1.
         -1    1    6    6    0  502 -0.40294065784E+03 -0.51025657659E+02 -0.31007354704E+03  0.51098962421E+03  0.00000000000E+00 0.  1.
<mgrwt>
<rscale>  0 0.12873184E+04</rscale>
<asrwt>0</asrwt>
<pdfrwt beam="1">  1        2 0.13390538E+00 0.12873184E+04</pdfrwt>
<pdfrwt beam="2">  1       -2 0.73229691E-01 0.12873184E+04</pdfrwt>
<totfact> 0.50756937E+01</totfact>
</mgrwt>
</event>
<event>
12    1  0.2433511E-007  0.1717687E+04  0.7818608E-02  0.8751341E-01
          2   -1    0    0  501    0  0.00000000000E+00  0.00000000000E+00  0.46921303060E+03  0.46921303060E+03  0.00000000000E+00 0. -1.
         -2   -1    0    0    0  501 -0.00000000000E+00 -0.00000000000E+00 -0.15720199031E+04  0.15720199031E+04  0.00000000000E+00 0.  1.
         23    2    1    2    0    0 -0.41594920170E+03  0.26051977097E+03 -0.85372258349E+03  0.98899385171E+03  0.91554899920E+02 0.  0.
        254    2    1    2    0    0  0.41594920170E+03 -0.26051977097E+03 -0.24908428904E+03  0.10522390820E+04  0.89681648805E+03 0.  0.
        -24    2    4    4    0    0  0.62778458186E+03 -0.23232203166E+03  0.50045735276E+02  0.67600536963E+03  0.79947961462E+02 0.  0.
         24    2    4    4    0    0 -0.21183538016E+03 -0.28197739310E+02 -0.29913002431E+03  0.37623371239E+03  0.80023084835E+02 0.  0.
         11    1    3    3    0    0 -0.21397801244E+03  0.17542682983E+03 -0.41844916877E+03  0.50165811991E+03  0.00000000000E+00 0.  1.
        -11    1    3    3    0    0 -0.20197118927E+03  0.85092941136E+02 -0.43527341472E+03  0.48733573180E+03  0.00000000000E+00 0. -1.
          4    1    6    6  502    0 -0.24070722873E+02  0.41479524783E+01 -0.37158222095E+01  0.24706528370E+02  0.00000000000E+00 0. -1.
          1    1    5    5  503    0  0.12356287758E+03 -0.76644767424E+02 -0.45997110931E+01  0.14547632945E+03  0.00000000000E+00 0. -1.
         -2    1    5    5    0  503  0.50422170428E+03 -0.15567726423E+03  0.54645446369E+02  0.53052904018E+03  0.00000000000E+00 0.  1.
         -3    1    6    6    0  502 -0.18776465728E+03 -0.32345691788E+02 -0.29541420210E+03  0.35152718402E+03  0.00000000000E+00 0.  1.
<mgrwt>
<rscale>  0 0.17176871E+04</rscale>
<asrwt>0</asrwt>
<pdfrwt beam="1">  1        2 0.72186620E-01 0.17176871E+04</pdfrwt>
<pdfrwt beam="2">  1       -2 0.24184922E+00 0.17176871E+04</pdfrwt>
<totfact> 0.45434529E+00</totfact>
</mgrwt>
</event>
<event>
12    1  0.2433511E-007  0.3303438E+04  0.7818608E-02  0.8162021E-01
          1   -1    0    0  501    0  0.00000000000E+00  0.00000000000E+00  0.16682438648E+04  0.16682438648E+04  0.00000000000E+00 0. -1.
         -1   -1    0    0    0  501 -0.00000000000E+00 -0.00000000000E+00 -0.16353578471E+04  0.16353578471E+04  0.00000000000E+00 0.  1.
         23    2    1    2    0    0 -0.19230510985E+03 -0.13695509021E+04 -0.63418830729E+03  0.15241219555E+04  0.90011096298E+02 0.  0.
        254    2    1    2    0    0  0.19230510985E+03  0.13695509021E+04  0.66707432499E+03  0.17794797563E+04  0.89939375093E+03 0.  0.
        -24    2    4    4    0    0  0.20896206363E+03  0.64957919932E+03 -0.13371464179E+03  0.70010160648E+03  0.81513028024E+02 0.  0.
         24    2    4    4    0    0 -0.16656953785E+02  0.71997170279E+03  0.80078896678E+03  0.10793781498E+04  0.71815834082E+02 0.  0.
         13    1    3    3    0    0 -0.18933840159E+03 -0.11556449469E+04 -0.55615685652E+03  0.12964083935E+04  0.00000000000E+00 0.  1.
        -13    1    3    3    0    0 -0.29667082638E+01 -0.21390595522E+03 -0.78031450773E+02  0.22771356206E+03  0.00000000000E+00 0. -1.
          4    1    6    6  502    0  0.11562802201E+02  0.22650972296E+03  0.20998616047E+03  0.30908662310E+03  0.00000000000E+00 0. -1.
          3    1    5    5  503    0  0.14020158564E+03  0.42281414018E+03 -0.12635393978E+03  0.46302656495E+03  0.00000000000E+00 0. -1.
         -4    1    5    5    0  503  0.68760477992E+02  0.22676505914E+03 -0.73607020043E+01  0.23707504153E+03  0.00000000000E+00 0.  1.
         -3    1    6    6    0  502 -0.28219755986E+02  0.49346197983E+03  0.59080280631E+03  0.77029152671E+03  0.00000000000E+00 0.  1.
<mgrwt>
<rscale>  0 0.33034380E+04</rscale>
<asrwt>0</asrwt>
<pdfrwt beam="1">  1        1 0.25665290E+00 0.33034380E+04</pdfrwt>
<pdfrwt beam="2">  1       -1 0.25159352E+00 0.33034380E+04</pdfrwt>
<totfact> 0.28285113E-01</totfact>
</mgrwt>
</event>
<event>
12    1  0.2433511E-007  0.3951404E+04  0.7818608E-02  0.8014422E-01
          2   -1    0    0  501    0  0.00000000000E+00  0.00000000000E+00  0.37334889074E+04  0.37334889074E+04  0.00000000000E+00 0. -1.
         -2   -1    0    0    0  501 -0.00000000000E+00 -0.00000000000E+00 -0.10455097614E+04  0.10455097614E+04  0.00000000000E+00 0.  1.
         23    2    1    2    0    0  0.86701221098E+03  0.16128019274E+04  0.17473733176E+04  0.25328092967E+04  0.94705815608E+02 0.  0.
        254    2    1    2    0    0 -0.86701221098E+03 -0.16128019274E+04  0.94060582838E+03  0.22461893722E+04  0.89876979268E+03 0.  0.
        -24    2    4    4    0    0 -0.85882454098E+03 -0.69709822392E+03  0.39526265885E+03  0.11773564096E+04  0.80062599523E+02 0.  0.
         24    2    4    4    0    0 -0.81876699994E+01 -0.91570370346E+03  0.54534316953E+03  0.10688329625E+04  0.80152471841E+02 0.  0.
         11    1    3    3    0    0  0.58012202412E+03  0.11695096911E+04  0.12405400442E+04  0.18008981320E+04  0.00000000000E+00 0.  1.
        -11    1    3    3    0    0  0.28689018685E+03  0.44329223630E+03  0.50683327340E+03  0.73191116476E+03  0.00000000000E+00 0. -1.
          2    1    6    6  502    0  0.64194311514E+01 -0.65840967016E+03  0.43055567060E+03  0.78671639638E+03  0.00000000000E+00 0. -1.
          1    1    5    5  503    0 -0.79860350637E+03 -0.67071486752E+03  0.37903301488E+03  0.11096359855E+04  0.00000000000E+00 0. -1.
         -2    1    5    5    0  503 -0.60221034608E+02 -0.26383356399E+02  0.16229643970E+02  0.67720424153E+02  0.00000000000E+00 0.  1.
         -1    1    6    6    0  502 -0.14607101151E+02 -0.25729403330E+03  0.11478749893E+03  0.28211656613E+03  0.00000000000E+00 0.  1.
<mgrwt>
<rscale>  0 0.39514044E+04</rscale>
<asrwt>0</asrwt>
<pdfrwt beam="1">  1        2 0.57438290E+00 0.39514044E+04</pdfrwt>
<pdfrwt beam="2">  1       -2 0.16084766E+00 0.39514044E+04</pdfrwt>
<totfact> 0.10810931E-01</totfact>
</mgrwt>
</event>
<event>
12    1  0.2433511E-007  0.1461731E+04  0.7818608E-02  0.8910308E-01
         -1   -1    0    0    0  501 -0.00000000000E+00  0.00000000000E+00  0.10687131722E+04  0.10687131722E+04  0.00000000000E+00 0.  1.
          1   -1    0    0  501    0  0.00000000000E+00 -0.00000000000E+00 -0.49982031879E+03  0.49982031879E+03  0.00000000000E+00 0. -1.
         23    2    1    2    0    0  0.13058939173E+03  0.30575655808E+03  0.49926623921E+03  0.60690004245E+03  0.92305047925E+02 0.  0.
        254    2    1    2    0    0 -0.13058939173E+03 -0.30575655808E+03  0.69626614174E+02  0.96163344851E+03  0.89963901752E+03 0.  0.
        -24    2    4    4    0    0 -0.11606670359E+03  0.15613468882E+03  0.35459027277E+03  0.41234696852E+03  0.80288480922E+02 0.  0.
         24    2    4    4    0    0 -0.14522688131E+02 -0.46189124690E+03 -0.28496365860E+03  0.54928647999E+03  0.83408140733E+02 0.  0.
         11    1    3    3    0    0  0.44803698813E+02  0.18394299300E+03  0.21895758190E+03  0.28945607400E+03  0.00000000000E+00 0. -1.
        -11    1    3    3    0    0  0.85785692912E+02  0.12181356508E+03  0.28030865731E+03  0.31744396846E+03  0.00000000000E+00 0.  1.
          4    1    6    6  502    0 -0.39548857320E+02 -0.18309323852E+03 -0.14143648024E+03  0.23471583681E+03  0.00000000000E+00 0. -1.
          1    1    5    5  503    0 -0.37560159327E+02  0.10739730237E+03  0.23610972803E+03  0.26209301745E+03  0.00000000000E+00 0. -1.
         -2    1    5    5    0  503 -0.78506544268E+02  0.48737386447E+02  0.11848054474E+03  0.15025395107E+03  0.00000000000E+00 0.  1.
         -3    1    6    6    0  502  0.25026169189E+02 -0.27879800838E+03 -0.14352717836E+03  0.31457064318E+03  0.00000000000E+00 0.  1.
<mgrwt>
<rscale>  0 0.14617312E+04</rscale>
<asrwt>0</asrwt>
<pdfrwt beam="1">  1        1 0.76895434E-01 0.14617312E+04</pdfrwt>
<pdfrwt beam="2">  1       -1 0.16441741E+00 0.14617312E+04</pdfrwt>
<totfact> 0.11646656E+01</totfact>
</mgrwt>
</event>
<event>
12    1  0.2433511E-007  0.2487216E+04  0.7818608E-02  0.8407554E-01
         -2   -1    0    0    0  501 -0.00000000000E+00  0.00000000000E+00  0.58721281702E+03  0.58721281702E+03  0.00000000000E+00 0.  1.
          2   -1    0    0  501    0  0.00000000000E+00 -0.00000000000E+00 -0.26337313236E+04  0.26337313236E+04  0.00000000000E+00 0. -1.
         23    2    1    2    0    0  0.95763665476E+03  0.26302775934E+03 -0.14390187109E+04  0.17508539463E+04  0.91995250674E+02 0.  0.
        254    2    1    2    0    0 -0.95763665476E+03 -0.26302775934E+03 -0.60749979568E+03  0.14700901943E+04  0.89769572406E+03 0.  0.
        -24    2    4    4    0    0 -0.94586260569E+02 -0.43353844859E+03 -0.14845240698E+03  0.47458007154E+03  0.79284172934E+02 0.  0.
         24    2    4    4    0    0 -0.86305039419E+03  0.17051068925E+03 -0.45904738870E+03  0.99551012279E+03  0.79912586294E+02 0.  0.
         11    1    3    3    0    0  0.48280694278E+03  0.13755800334E+03 -0.64702671246E+03  0.81894341375E+03  0.00000000000E+00 0.  1.
        -11    1    3    3    0    0  0.47482971197E+03  0.12546975600E+03 -0.79199199841E+03  0.93191053250E+03  0.00000000000E+00 0. -1.
          4    1    6    6  502    0 -0.46018940371E+02 -0.15071462718E+01 -0.87056620276E+01  0.46859395153E+02  0.00000000000E+00 0. -1.
          3    1    5    5  503    0 -0.39332381381E+02 -0.79246953584E+02 -0.54467706965E+02  0.10389344050E+03  0.00000000000E+00 0. -1.
         -4    1    5    5    0  503 -0.55253879188E+02 -0.35429149500E+03 -0.93984700015E+02  0.37068663104E+03  0.00000000000E+00 0.  1.
         -3    1    6    6    0  502 -0.81703145382E+03  0.17201783552E+03 -0.45034172667E+03  0.94865072763E+03  0.00000000000E+00 0.  1.
<mgrwt>
<rscale>  0 0.24872159E+04</rscale>
<asrwt>0</asrwt>
<pdfrwt beam="1">  1        2 0.40518944E+00 0.24872159E+04</pdfrwt>
<pdfrwt beam="2">  1       -2 0.90340433E-01 0.24872159E+04</pdfrwt>
<totfact> 0.27188098E+00</totfact>
</mgrwt>
</event>
<event>
12    1  0.2433511E-007  0.2519067E+04  0.7818608E-02  0.8396224E-01
          2   -1    0    0  501    0  0.00000000000E+00  0.00000000000E+00  0.21142982463E+04  0.21142982463E+04  0.00000000000E+00 0. -1.
         -2   -1    0    0    0  501 -0.00000000000E+00 -0.00000000000E+00 -0.75033161398E+03  0.75033161398E+03  0.00000000000E+00 0.  1.
         23    2    1    2    0    0 -0.10067579862E+04  0.22039531627E+03  0.10268132039E+04  0.14575773269E+04  0.89724968611E+02 0.  0.
        254    2    1    2    0    0  0.10067579862E+04 -0.22039531627E+03  0.33715342845E+03  0.14070525334E+04  0.89665414686E+03 0.  0.
        -24    2    4    4    0    0  0.18450182183E+03 -0.46248765801E+03  0.10409564418E+03  0.51498426257E+03  0.80231736210E+02 0.  0.
         24    2    4    4    0    0  0.82225616441E+03  0.24209234174E+03  0.23305778427E+03  0.89206827080E+03  0.82194690342E+02 0.  0.
         13    1    3    3    0    0 -0.25069026343E+03  0.40795953055E+02  0.30560600412E+03  0.39737255532E+03  0.00000000000E+00 0. -1.
        -13    1    3    3    0    0 -0.75606772280E+03  0.17959936321E+03  0.72120719975E+03  0.10602047716E+04  0.00000000000E+00 0.  1.
          2    1    6    6  502    0  0.28689197607E+03  0.52213564879E+02  0.54742120947E+02  0.29669843629E+03  0.00000000000E+00 0. -1.
          1    1    5    5  503    0  0.23397766078E+02 -0.23456185896E+02  0.23040516560E+02  0.40354845032E+02  0.00000000000E+00 0. -1.
         -2    1    5    5    0  503  0.16110405575E+03 -0.43903147211E+03  0.81055127618E+02  0.47462941754E+03  0.00000000000E+00 0.  1.
         -3    1    6    6    0  502  0.53536418834E+03  0.18987877686E+03  0.17831566332E+03  0.59536983451E+03  0.00000000000E+00 0.  1.
<mgrwt>
<rscale>  0 0.25190671E+04</rscale>
<asrwt>0</asrwt>
<pdfrwt beam="1">  1        2 0.32527665E+00 0.25190671E+04</pdfrwt>
<pdfrwt beam="2">  1       -2 0.11543563E+00 0.25190671E+04</pdfrwt>
<totfact> 0.30008787E+00</totfact>
</mgrwt>
</event>
<event>
12    1  0.2433511E-007  0.3064446E+04  0.7818608E-02  0.8225564E-01
         -2   -1    0    0    0  501 -0.00000000000E+00  0.00000000000E+00  0.16634774093E+04  0.16634774093E+04  0.00000000000E+00 0.  1.
          2   -1    0    0  501    0  0.00000000000E+00 -0.00000000000E+00 -0.14113250530E+04  0.14113250530E+04  0.00000000000E+00 0. -1.
         23    2    1    2    0    0  0.31019306656E+03 -0.10585062179E+04 -0.74686854093E+03  0.13352380372E+04  0.91612481490E+02 0.  0.
        254    2    1    2    0    0 -0.31019306656E+03  0.10585062179E+04  0.99902089726E+03  0.17395644251E+04  0.90076993953E+03 0.  0.
        -24    2    4    4    0    0 -0.18250441452E+03  0.10611201257E+04  0.11124787983E+04  0.15499690962E+04  0.74238399595E+02 0.  0.
         24    2    4    4    0    0 -0.12768865204E+03 -0.26139077966E+01 -0.11345790103E+03  0.18959532891E+03  0.82234232917E+02 0.  0.
         11    1    3    3    0    0  0.18865619202E+03 -0.66101977472E+03 -0.51806155562E+03  0.86077062959E+03  0.00000000000E+00 0. -1.
        -11    1    3    3    0    0  0.12153687454E+03 -0.39748644319E+03 -0.22880698531E+03  0.47446740765E+03  0.00000000000E+00 0.  1.
          4    1    6    6  502    0 -0.88708829907E+02 -0.40417849513E+02 -0.76409530614E+02  0.12385990244E+03  0.00000000000E+00 0. -1.
          1    1    5    5  503    0 -0.11538736953E+03  0.84782722839E+03  0.87928102251E+03  0.12268905293E+04  0.00000000000E+00 0. -1.
         -2    1    5    5    0  503 -0.67117044993E+02  0.21329289732E+03  0.23319777578E+03  0.32307856692E+03  0.00000000000E+00 0.  1.
         -3    1    6    6    0  502 -0.38979822134E+02  0.37803941717E+02 -0.37048370413E+02  0.65735426470E+02  0.00000000000E+00 0.  1.
<mgrwt>
<rscale>  0 0.30644460E+04</rscale>
<asrwt>0</asrwt>
<pdfrwt beam="1">  1        2 0.21712693E+00 0.30644460E+04</pdfrwt>
<pdfrwt beam="2">  1       -2 0.25591960E+00 0.30644460E+04</pdfrwt>
<totfact> 0.71741718E-01</totfact>
</mgrwt>
</event>
<event>
12    1  0.2433511E-007  0.1258308E+04  0.7818608E-02  0.9063297E-01
         -2   -1    0    0    0  501 -0.00000000000E+00  0.00000000000E+00  0.13930884489E+04  0.13930884489E+04  0.00000000000E+00 0.  1.
          2   -1    0    0  501    0  0.00000000000E+00 -0.00000000000E+00 -0.28414172001E+03  0.28414172001E+03  0.00000000000E+00 0. -1.
         23    2    1    2    0    0 -0.88340985966E+02  0.69578980707E+02 -0.92896810842E+02  0.17241734525E+03  0.91937800276E+02 0.  0.
        254    2    1    2    0    0  0.88340985966E+02 -0.69578980707E+02  0.12018435397E+04  0.15048128236E+04  0.89854792632E+03 0.  0.
        -24    2    4    4    0    0  0.20555817227E+03 -0.29337115521E+03  0.11470132800E+03  0.38582771380E+03  0.85940870340E+02 0.  0.
         24    2    4    4    0    0 -0.11721718630E+03  0.22379217450E+03  0.10871422117E+04  0.11189851098E+04  0.80166585543E+02 0.  0.
         11    1    3    3    0    0 -0.85084594667E+02  0.81554605476E+02 -0.50465012349E+02  0.12820787572E+03  0.00000000000E+00 0. -1.
        -11    1    3    3    0    0 -0.32563912984E+01 -0.11975624769E+02 -0.42431798493E+02  0.44209469531E+02  0.00000000000E+00 0.  1.
          2    1    6    6  502    0 -0.10411399619E+03  0.18188210048E+03  0.74090931970E+03  0.76997885860E+03  0.00000000000E+00 0. -1.
          3    1    5    5  503    0 -0.43305121368E+01 -0.65316335132E+01  0.14601275172E+02  0.16571445572E+02  0.00000000000E+00 0. -1.
         -4    1    5    5    0  503  0.20988868440E+03 -0.28683952170E+03  0.10010005283E+03  0.36925626823E+03  0.00000000000E+00 0.  1.
         -1    1    6    6    0  502 -0.13103190108E+02  0.41910074027E+02  0.34623289200E+03  0.34900625123E+03  0.00000000000E+00 0.  1.
<mgrwt>
<rscale>  0 0.12583077E+04</rscale>
<asrwt>0</asrwt>
<pdfrwt beam="1">  1        2 0.43714112E-01 0.12583077E+04</pdfrwt>
<pdfrwt beam="2">  1       -2 0.21432130E+00 0.12583077E+04</pdfrwt>
<totfact> 0.12314812E+01</totfact>
</mgrwt>
</event>
<event>
12    1  0.2433511E-007  0.2265674E+04  0.7818608E-02  0.8491580E-01
          1   -1    0    0  501    0  0.00000000000E+00  0.00000000000E+00  0.35699204347E+04  0.35699204347E+04  0.00000000000E+00 0. -1.
         -1   -1    0    0    0  501 -0.00000000000E+00 -0.00000000000E+00 -0.35948121087E+03  0.35948121087E+03  0.00000000000E+00 0.  1.
         23    2    1    2    0    0 -0.29002456440E+03  0.35394683239E+03  0.28038098187E+04  0.28423597740E+04  0.90922920511E+02 0.  0.
        254    2    1    2    0    0  0.29002456440E+03 -0.35394683239E+03  0.40662940517E+03  0.10870418716E+04  0.89828723096E+03 0.  0.
        -24    2    4    4    0    0 -0.87521468089E+02  0.25371785392E+03  0.17955142124E+03  0.33228147846E+03  0.78355033565E+02 0.  0.
         24    2    4    4    0    0  0.37754603249E+03 -0.60766468631E+03  0.22707798393E+03  0.75476039312E+03  0.79381752337E+02 0.  0.
         11    1    3    3    0    0 -0.16708787124E+02  0.23193448992E+02  0.36303034870E+03  0.36415402472E+03  0.00000000000E+00 0. -1.
        -11    1    3    3    0    0 -0.27331577728E+03  0.33075338339E+03  0.24407794700E+04  0.24782057493E+04  0.00000000000E+00 0.  1.
          2    1    6    6  502    0  0.30145145162E+03 -0.52761288400E+03  0.21044589528E+03  0.64306749871E+03  0.00000000000E+00 0. -1.
          1    1    5    5  503    0 -0.48587917085E+02  0.13486447828E+03  0.49008647083E+02  0.15149607480E+03  0.00000000000E+00 0. -1.
         -2    1    5    5    0  503 -0.38933551003E+02  0.11885337564E+03  0.13054277416E+03  0.18078540367E+03  0.00000000000E+00 0.  1.
         -1    1    6    6    0  502  0.76094580873E+02 -0.80051802301E+02  0.16632088648E+02  0.11169289441E+03  0.00000000000E+00 0.  1.
<mgrwt>
<rscale>  0 0.22656737E+04</rscale>
<asrwt>0</asrwt>
<pdfrwt beam="1">  1        1 0.54921851E+00 0.22656737E+04</pdfrwt>
<pdfrwt beam="2">  1       -1 0.55304804E-01 0.22656737E+04</pdfrwt>
<totfact> 0.66062183E-01</totfact>
</mgrwt>
</event>
<event>
12    1  0.2433511E-007  0.2129439E+04  0.7818608E-02  0.8548385E-01
         -2   -1    0    0    0  501 -0.00000000000E+00  0.00000000000E+00  0.11628914652E+04  0.11628914652E+04  0.00000000000E+00 0.  1.
          2   -1    0    0  501    0  0.00000000000E+00 -0.00000000000E+00 -0.97483492358E+03  0.97483492358E+03  0.00000000000E+00 0. -1.
         23    2    1    2    0    0  0.22450068476E+03 -0.84031687484E+03  0.37251921421E+02  0.87531217503E+03  0.90833311602E+02 0.  0.
        254    2    1    2    0    0 -0.22450068476E+03  0.84031687484E+03  0.15080462023E+03  0.12624142138E+04  0.90244922631E+03 0.  0.
        -24    2    4    4    0    0 -0.20286042729E+03 -0.12432041811E+03 -0.86915713271E+02  0.26574450168E+03  0.80360933553E+02 0.  0.
         24    2    4    4    0    0 -0.21640257465E+02  0.96463729295E+03  0.23772033350E+03  0.99666971209E+03  0.76460122620E+02 0.  0.
         13    1    3    3    0    0  0.87874949520E+02 -0.22446037618E+03 -0.20075441858E+02  0.24188321685E+03  0.00000000000E+00 0. -1.
        -13    1    3    3    0    0  0.13662573524E+03 -0.61585649867E+03  0.57327363280E+02  0.63342895818E+03  0.00000000000E+00 0.  1.
          2    1    6    6  502    0  0.61771204744E+01  0.71404390346E+03  0.14953239717E+03  0.72955931266E+03  0.00000000000E+00 0. -1.
          1    1    5    5  503    0 -0.18291765597E+03 -0.13490169661E+03 -0.70970735747E+02  0.23810540092E+03  0.00000000000E+00 0. -1.
         -2    1    5    5    0  503 -0.19942771327E+02  0.10581278504E+02 -0.15944977524E+02  0.27639100767E+02  0.00000000000E+00 0.  1.
         -1    1    6    6    0  502 -0.27817377939E+02  0.25059338949E+03  0.88187936323E+02  0.26711039943E+03  0.00000000000E+00 0.  1.
<mgrwt>
<rscale>  0 0.21294386E+04</rscale>
<asrwt>0</asrwt>
<pdfrwt beam="1">  1        2 0.14997460E+00 0.21294386E+04</pdfrwt>
<pdfrwt beam="2">  1       -2 0.17890638E+00 0.21294386E+04</pdfrwt>
<totfact> 0.44351089E+00</totfact>
</mgrwt>
</event>
<event>
12    1  0.2433511E-007  0.1024565E+04  0.7818608E-02  0.9282006E-01
          1   -1    0    0  501    0  0.00000000000E+00  0.00000000000E+00  0.20256173314E+03  0.20256173314E+03  0.00000000000E+00 0. -1.
         -1   -1    0    0    0  501 -0.00000000000E+00 -0.00000000000E+00 -0.12955712475E+04  0.12955712475E+04  0.00000000000E+00 0.  1.
         23    2    1    2    0    0  0.50631733470E+02 -0.31993637694E+02 -0.43775508538E+02  0.11864395561E+03  0.92590106215E+02 0.  0.
        254    2    1    2    0    0 -0.50631733470E+02  0.31993637694E+02 -0.10492340058E+04  0.13794890250E+04  0.89359431841E+03 0.  0.
        -24    2    4    4    0    0 -0.27429095600E+03 -0.33396074867E+03 -0.38906950344E+03  0.58840049377E+03  0.89859625903E+02 0.  0.
         24    2    4    4    0    0  0.22365922253E+03  0.36595438637E+03 -0.66016450241E+03  0.79108853127E+03  0.77832084290E+02 0.  0.
         13    1    3    3    0    0  0.40471629705E+02 -0.14857225187E+01 -0.67476942619E+02  0.78697509284E+02  0.00000000000E+00 0.  1.
        -13    1    3    3    0    0  0.10160103764E+02 -0.30507915175E+02  0.23701434081E+02  0.39946446329E+02  0.00000000000E+00 0. -1.
          2    1    6    6  502    0  0.11653546983E+03  0.12035580035E+03 -0.27102532051E+03  0.31862322383E+03  0.00000000000E+00 0. -1.
          1    1    5    5  503    0 -0.27824531186E+03 -0.30832194892E+03 -0.36241055306E+03  0.55120258230E+03  0.00000000000E+00 0. -1.
         -2    1    5    5    0  503  0.39543558609E+01 -0.25638799749E+02 -0.26658950379E+02  0.37197911476E+02  0.00000000000E+00 0.  1.
         -1    1    6    6    0  502  0.10712375270E+03  0.24559858602E+03 -0.38913918189E+03  0.47246530744E+03  0.00000000000E+00 0.  1.
<mgrwt>
<rscale>  0 0.10245646E+04</rscale>
<asrwt>0</asrwt>
<pdfrwt beam="1">  1        1 0.31163343E-01 0.10245646E+04</pdfrwt>
<pdfrwt beam="2">  1       -1 0.19931866E+00 0.10245646E+04</pdfrwt>
<totfact> 0.22323627E+01</totfact>
</mgrwt>
</event>
<event>
12    1  0.2433511E-007  0.1982700E+04  0.7818608E-02  0.8614752E-01
          1   -1    0    0  501    0  0.00000000000E+00  0.00000000000E+00  0.26071929772E+04  0.26071929772E+04  0.00000000000E+00 0. -1.
         -1   -1    0    0    0  501 -0.00000000000E+00 -0.00000000000E+00 -0.37694747624E+03  0.37694747624E+03  0.00000000000E+00 0.  1.
         23    2    1    2    0    0  0.29836131893E+03  0.71321297452E+03  0.10840055101E+04  0.13345813306E+04  0.91362784057E+02 0.  0.
        254    2    1    2    0    0 -0.29836131893E+03 -0.71321297452E+03  0.11462399908E+04  0.16495591228E+04  0.89971493237E+03 0.  0.
        -24    2    4    4    0    0  0.16052613364E+03  0.10269880386E+03  0.63214856030E+02  0.21581289613E+03  0.79141671824E+02 0.  0.
         24    2    4    4    0    0 -0.45888745257E+03 -0.81591177838E+03  0.10830251348E+04  0.14337462267E+04  0.79969217756E+02 0.  0.
         11    1    3    3    0    0  0.30421784314E+02  0.48844804061E+02  0.12450724162E+03  0.13716177696E+03  0.00000000000E+00 0. -1.
        -11    1    3    3    0    0  0.26793953461E+03  0.66436817046E+03  0.95949826852E+03  0.11974195536E+04  0.00000000000E+00 0.  1.
          4    1    6    6  502    0 -0.26091724621E+03 -0.40198103068E+03  0.59293517457E+03  0.76239010988E+03  0.00000000000E+00 0. -1.
          3    1    5    5  503    0  0.11093504663E+03  0.29772745415E+02  0.16578667856E+02  0.11605108000E+03  0.00000000000E+00 0. -1.
         -4    1    5    5    0  503  0.49591087002E+02  0.72926058445E+02  0.46636188174E+02  0.99761816131E+02  0.00000000000E+00 0.  1.
         -3    1    6    6    0  502 -0.19797020636E+03 -0.41393074770E+03  0.49008996020E+03  0.67135611682E+03  0.00000000000E+00 0.  1.
<mgrwt>
<rscale>  0 0.19827000E+04</rscale>
<asrwt>0</asrwt>
<pdfrwt beam="1">  1        1 0.40110660E+00 0.19827000E+04</pdfrwt>
<pdfrwt beam="2">  1       -1 0.57991921E-01 0.19827000E+04</pdfrwt>
<totfact> 0.31943560E+00</totfact>
</mgrwt>
</event>
<event>
12    1  0.2433511E-007  0.4075401E+04  0.7818608E-02  0.7989506E-01
          1   -1    0    0  501    0  0.00000000000E+00  0.00000000000E+00  0.24095219060E+04  0.24095219060E+04  0.00000000000E+00 0. -1.
         -1   -1    0    0    0  501 -0.00000000000E+00 -0.00000000000E+00 -0.17232565173E+04  0.17232565173E+04  0.00000000000E+00 0.  1.
         23    2    1    2    0    0  0.14516504605E+04 -0.87175482138E+03  0.12772925316E+04  0.21229645533E+04  0.90866688483E+02 0.  0.
        254    2    1    2    0    0 -0.14516504605E+04  0.87175482138E+03 -0.59102714293E+03  0.20098138700E+04  0.90707947839E+03 0.  0.
        -24    2    4    4    0    0 -0.29626247081E+03  0.54583566621E+03  0.81588389476E+02  0.63156754286E+03  0.80702353032E+02 0.  0.
         24    2    4    4    0    0 -0.11553879897E+04  0.32591915516E+03 -0.67261553241E+03  0.13782463271E+04  0.77502137160E+02 0.  0.
         13    1    3    3    0    0  0.39717746773E+03 -0.25255767431E+03  0.30704209385E+03  0.56196989877E+03  0.00000000000E+00 0.  1.
        -13    1    3    3    0    0  0.10544729928E+04 -0.61919714706E+03  0.97025043774E+03  0.15609946545E+04  0.00000000000E+00 0. -1.
          2    1    6    6  502    0 -0.91948912371E+03  0.23333622367E+03 -0.55257543944E+03  0.10978368085E+04  0.00000000000E+00 0. -1.
          1    1    5    5  503    0 -0.15124380993E+03  0.24979545359E+03  0.76533246278E+02  0.30187712147E+03  0.00000000000E+00 0. -1.
         -4    1    5    5    0  503 -0.14501866088E+03  0.29604021262E+03  0.50551431979E+01  0.32969042140E+03  0.00000000000E+00 0.  1.
         -1    1    6    6    0  502 -0.23589886602E+03  0.92582931494E+02 -0.12004009297E+03  0.28040951859E+03  0.00000000000E+00 0.  1.
<mgrwt>
<rscale>  0 0.40754015E+04</rscale>
<asrwt>0</asrwt>
<pdfrwt beam="1">  1        1 0.37069568E+00 0.40754015E+04</pdfrwt>
<pdfrwt beam="2">  1       -1 0.26511639E+00 0.40754015E+04</pdfrwt>
<totfact> 0.67658428E-02</totfact>
</mgrwt>
</event>
<event>
12    1  0.2433511E-007  0.3997330E+04  0.7818608E-02  0.8005085E-01
          2   -1    0    0  501    0  0.00000000000E+00  0.00000000000E+00  0.28617351967E+04  0.28617351967E+04  0.00000000000E+00 0. -1.
         -2   -1    0    0    0  501 -0.00000000000E+00 -0.00000000000E+00 -0.13958882890E+04  0.13958882890E+04  0.00000000000E+00 0.  1.
         23    2    1    2    0    0  0.78519114435E+03  0.16856517076E+04  0.10753314068E+04  0.21499666205E+04  0.89844434573E+02 0.  0.
        254    2    1    2    0    0 -0.78519114435E+03 -0.16856517076E+04  0.39051550094E+03  0.21076568652E+04  0.91201331810E+03 0.  0.
        -24    2    4    4    0    0 -0.63013261789E+03 -0.71189121550E+03 -0.17221847223E+03  0.96946750378E+03  0.79698305319E+02 0.  0.
         24    2    4    4    0    0 -0.15505852646E+03 -0.97376049209E+03  0.56273397317E+03  0.11381893614E+04  0.80949708211E+02 0.  0.
         11    1    3    3    0    0  0.22454526812E+03  0.39257036919E+03  0.26987927404E+03  0.52665633459E+03  0.00000000000E+00 0. -1.
        -11    1    3    3    0    0  0.56064587623E+03  0.12930813384E+04  0.80545213278E+03  0.16233102859E+04  0.00000000000E+00 0.  1.
          2    1    6    6  502    0 -0.55915277934E+00 -0.93694990402E+02  0.32444019372E+02  0.99154819708E+02  0.00000000000E+00 0. -1.
          1    1    5    5  503    0 -0.23515922685E+03 -0.31682368806E+03 -0.51213094197E+02  0.39786918994E+03  0.00000000000E+00 0. -1.
         -2    1    5    5    0  503 -0.39497339104E+03 -0.39506752744E+03 -0.12100537804E+03  0.57159831384E+03  0.00000000000E+00 0.  1.
         -1    1    6    6    0  502 -0.15449937368E+03 -0.88006550169E+03  0.53028995380E+03  0.10390345417E+04  0.00000000000E+00 0.  1.
<mgrwt>
<rscale>  0 0.39973304E+04</rscale>
<asrwt>0</asrwt>
<pdfrwt beam="1">  1        2 0.44026695E+00 0.39973304E+04</pdfrwt>
<pdfrwt beam="2">  1       -2 0.21475204E+00 0.39973304E+04</pdfrwt>
<totfact> 0.17854893E-01</totfact>
</mgrwt>
</event>
<event>
12    1  0.2433511E-007  0.1624919E+04  0.7818608E-02  0.8805384E-01
         -1   -1    0    0    0  501 -0.00000000000E+00  0.00000000000E+00  0.58291117689E+03  0.58291117689E+03  0.00000000000E+00 0.  1.
          1   -1    0    0  501    0  0.00000000000E+00 -0.00000000000E+00 -0.11324031216E+04  0.11324031216E+04  0.00000000000E+00 0. -1.
         23    2    1    2    0    0  0.29808213538E+03  0.46154777354E+03 -0.84833248150E+02  0.56377305600E+03  0.93616622416E+02 0.  0.
        254    2    1    2    0    0 -0.29808213538E+03 -0.46154777354E+03 -0.46465869660E+03  0.11515412425E+04  0.89903293722E+03 0.  0.
        -24    2    4    4    0    0  0.26123415906E+03 -0.12744563763E+02 -0.30993869358E+03  0.41364332064E+03  0.81443803739E+02 0.  0.
         24    2    4    4    0    0 -0.55931629445E+03 -0.44880320977E+03 -0.15472000302E+03  0.73789792188E+03  0.79347498061E+02 0.  0.
         11    1    3    3    0    0  0.13172311695E+03  0.22105439870E+03  0.65308524337E+01  0.25740761208E+03  0.00000000000E+00 0.  1.
        -11    1    3    3    0    0  0.16635901843E+03  0.24049337483E+03 -0.91364100584E+02  0.30636544392E+03  0.00000000000E+00 0. -1.
          4    1    6    6  502    0 -0.24012702203E+03 -0.24312952672E+03 -0.68555842431E+02  0.34852956403E+03  0.00000000000E+00 0. -1.
          1    1    5    5  503    0  0.20960129976E+03  0.21245396420E+02 -0.22095787526E+03  0.30529732126E+03  0.00000000000E+00 0. -1.
         -2    1    5    5    0  503  0.51632859304E+02 -0.33989960183E+02 -0.88980818321E+02  0.10834599938E+03  0.00000000000E+00 0.  1.
         -3    1    6    6    0  502 -0.31918927242E+03 -0.20567368306E+03 -0.86164160592E+02  0.38936835786E+03  0.00000000000E+00 0.  1.
<mgrwt>
<rscale>  0 0.16249190E+04</rscale>
<asrwt>0</asrwt>
<pdfrwt beam="1">  1        1 0.17421586E+00 0.16249190E+04</pdfrwt>
<pdfrwt beam="2">  1       -1 0.89678644E-01 0.16249190E+04</pdfrwt>
<totfact> 0.13979095E+01</totfact>
</mgrwt>
</event>
<event>
12    1  0.2433511E-007  0.1283382E+04  0.7818608E-02  0.9042849E-01
          2   -1    0    0  501    0  0.00000000000E+00  0.00000000000E+00  0.75722365206E+03  0.75722365206E+03  0.00000000000E+00 0.  1.
         -2   -1    0    0    0  501 -0.00000000000E+00 -0.00000000000E+00 -0.54378524122E+03  0.54378524122E+03  0.00000000000E+00 0. -1.
         23    2    1    2    0    0 -0.15458511344E+03 -0.94156505286E+02  0.32002846544E+03  0.37827076350E+03  0.88930012038E+02 0.  0.
        254    2    1    2    0    0  0.15458511344E+03  0.94156505286E+02 -0.10659005459E+03  0.92273812978E+03  0.89851110824E+03 0.  0.
        -24    2    4    4    0    0 -0.20549707555E+03 -0.26207966532E+03  0.11794216964E+03  0.36276957776E+03  0.82320180583E+02 0.  0.
         24    2    4    4    0    0  0.36008218899E+03  0.35623617061E+03 -0.22453222423E+03  0.55996855203E+03  0.81158286436E+02 0.  0.
         11    1    3    3    0    0 -0.13589428398E+03 -0.70945930912E+02  0.18630896628E+03  0.24127082800E+03  0.00000000000E+00 0. -1.
        -11    1    3    3    0    0 -0.18690829460E+02 -0.23210574374E+02  0.13371949916E+03  0.13699993549E+03  0.00000000000E+00 0.  1.
          2    1    6    6  502    0  0.20607244138E+03  0.25570083747E+03 -0.15745622332E+03  0.36419943938E+03  0.00000000000E+00 0. -1.
          3    1    5    5  503    0 -0.16602717513E+03 -0.25291650713E+03  0.10406622453E+03  0.31993993428E+03  0.00000000000E+00 0. -1.
         -4    1    5    5    0  503 -0.39469900425E+02 -0.91631581914E+01  0.13875945120E+02  0.42829643479E+02  0.00000000000E+00 0.  1.
         -1    1    6    6    0  502  0.15400974761E+03  0.10053533314E+03 -0.67076000911E+02  0.19576911265E+03  0.00000000000E+00 0.  1.
<mgrwt>
<rscale>  0 0.12833815E+04</rscale>
<asrwt>0</asrwt>
<pdfrwt beam="1">  1        2 0.11649595E+00 0.12833815E+04</pdfrwt>
<pdfrwt beam="2">  1       -2 0.83659267E-01 0.12833815E+04</pdfrwt>
<totfact> 0.45421306E+01</totfact>
</mgrwt>
</event>
<event>
12    1  0.2433511E-007  0.3953127E+04  0.7818608E-02  0.8014070E-01
          1   -1    0    0  501    0  0.00000000000E+00  0.00000000000E+00  0.33999009990E+04  0.33999009990E+04  0.00000000000E+00 0. -1.
         -1   -1    0    0    0  501 -0.00000000000E+00 -0.00000000000E+00 -0.11490933596E+04  0.11490933596E+04  0.00000000000E+00 0.  1.
         23    2    1    2    0    0  0.17114181770E+04  0.33858666667E+03  0.28263474027E+03  0.17697109346E+04  0.91658542242E+02 0.  0.
        254    2    1    2    0    0 -0.17114181770E+04 -0.33858666667E+03  0.19681728991E+04  0.27792834240E+04  0.89839784208E+03 0.  0.
        -24    2    4    4    0    0  0.31264685554E+02  0.12968020349E+03  0.17739503749E+03  0.23601231300E+03  0.80239496640E+02 0.  0.
         24    2    4    4    0    0 -0.17426828626E+04 -0.46826687017E+03  0.17907778616E+04  0.25432711110E+04  0.71590314829E+02 0.  0.
         13    1    3    3    0    0  0.98698852658E+03  0.15155701776E+03  0.14659043639E+03  0.10092594499E+04  0.00000000000E+00 0.  1.
        -13    1    3    3    0    0  0.72442965042E+03  0.18702964892E+03  0.13604430388E+03  0.76045148471E+03  0.00000000000E+00 0. -1.
          2    1    6    6  502    0 -0.11287277842E+04 -0.33688413567E+03  0.11828667651E+04  0.16693385264E+04  0.00000000000E+00 0. -1.
          1    1    5    5  503    0 -0.16335867508E+02  0.41549307117E+02  0.18815747854E+02  0.48448300863E+02  0.00000000000E+00 0. -1.
         -4    1    5    5    0  503  0.47600553062E+02  0.88130896376E+02  0.15857928964E+03  0.18756401214E+03  0.00000000000E+00 0.  1.
         -1    1    6    6    0  502 -0.61395507834E+03 -0.13138273450E+03  0.60791109654E+03  0.87393258460E+03  0.00000000000E+00 0.  1.
<mgrwt>
<rscale>  0 0.39531272E+04</rscale>
<asrwt>0</asrwt>
<pdfrwt beam="1">  1        1 0.52306169E+00 0.39531272E+04</pdfrwt>
<pdfrwt beam="2">  1       -1 0.17678359E+00 0.39531272E+04</pdfrwt>
<totfact> 0.51545538E-02</totfact>
</mgrwt>
</event>
<event>
12    1  0.2433511E-007  0.1822909E+04  0.7818608E-02  0.8694211E-01
         -2   -1    0    0    0  501 -0.00000000000E+00  0.00000000000E+00  0.61240876728E+03  0.61240876728E+03  0.00000000000E+00 0.  1.
          2   -1    0    0  501    0  0.00000000000E+00 -0.00000000000E+00 -0.13565268834E+04  0.13565268834E+04  0.00000000000E+00 0. -1.
         23    2    1    2    0    0  0.22338186403E+02 -0.68039900695E+03 -0.21429584976E+03  0.72205922853E+03  0.10956739954E+03 0.  0.
        254    2    1    2    0    0 -0.22338186403E+02  0.68039900695E+03 -0.52982226632E+03  0.12468764221E+04  0.90030404580E+03 0.  0.
        -24    2    4    4    0    0 -0.24829383767E+03 -0.73598816968E+02  0.36547009148E+02  0.27381287388E+03  0.81062878918E+02 0.  0.
         24    2    4    4    0    0  0.22595565127E+03  0.75399782392E+03 -0.56636927547E+03  0.97306354823E+03  0.80683566339E+02 0.  0.
         13    1    3    3    0    0 -0.24094054531E+02 -0.55380574051E+03 -0.16308143148E+03  0.57782079833E+03  0.00000000000E+00 0.  1.
        -13    1    3    3    0    0  0.46432240934E+02 -0.12659326644E+03 -0.51214418284E+02  0.14423843020E+03  0.00000000000E+00 0. -1.
          2    1    6    6  502    0  0.18290449075E+03  0.57751045765E+03 -0.39400476254E+03  0.72264246646E+03  0.00000000000E+00 0. -1.
          1    1    5    5  503    0 -0.23677033559E+03 -0.59361705411E+02  0.13634124226E+02  0.24447881959E+03  0.00000000000E+00 0. -1.
         -2    1    5    5    0  503 -0.11523502089E+02 -0.14237111558E+02  0.22912884922E+02  0.29334054294E+02  0.00000000000E+00 0.  1.
         -1    1    6    6    0  502  0.43051160517E+02  0.17648736627E+03 -0.17236451293E+03  0.25042108176E+03  0.00000000000E+00 0.  1.
<mgrwt>
<rscale>  0 0.18229086E+04</rscale>
<asrwt>0</asrwt>
<pdfrwt beam="1">  1        2 0.20869644E+00 0.18229086E+04</pdfrwt>
<pdfrwt beam="2">  1       -2 0.94216735E-01 0.18229086E+04</pdfrwt>
<totfact> 0.13727029E+01</totfact>
</mgrwt>
</event>
<event>
12    1  0.2433511E-007  0.3325812E+04  0.7818608E-02  0.8156358E-01
         -2   -1    0    0    0  501 -0.00000000000E+00  0.00000000000E+00  0.14249955752E+04  0.14249955752E+04  0.00000000000E+00 0. -1.
          2   -1    0    0  501    0  0.00000000000E+00 -0.00000000000E+00 -0.19405364771E+04  0.19405364771E+04  0.00000000000E+00 0.  1.
         23    2    1    2    0    0  0.77836456854E+03 -0.12470309127E+04 -0.70594725976E+03  0.16326329843E+04  0.78685635974E+02 0.  0.
        254    2    1    2    0    0 -0.77836456854E+03  0.12470309127E+04  0.19040635783E+03  0.17328990679E+04  0.89763416810E+03 0.  0.
        -24    2    4    4    0    0  0.37737530747E+02 -0.99016466073E+02  0.75492198938E+02  0.15288208906E+03  0.80283742282E+02 0.  0.
         24    2    4    4    0    0 -0.81610209928E+03  0.13460473787E+04  0.11491415889E+03  0.15800169788E+04  0.73363528073E+02 0.  0.
         13    1    3    3    0    0  0.46550345497E+03 -0.73503565584E+03 -0.37520247976E+03  0.94749553179E+03  0.00000000000E+00 0.  1.
        -13    1    3    3    0    0  0.31286111357E+03 -0.51199525683E+03 -0.33074478000E+03  0.68513745256E+03  0.00000000000E+00 0. -1.
          4    1    6    6  502    0 -0.69008030231E+03  0.10961131873E+04  0.76800287131E+02  0.12975258098E+04  0.00000000000E+00 0. -1.
          1    1    5    5  503    0  0.22403780551E+02 -0.37844261900E+02  0.78244837979E+02  0.89757296149E+02  0.00000000000E+00 0. -1.
         -2    1    5    5    0  503  0.15333750197E+02 -0.61172204173E+02 -0.27526390409E+01  0.63124792912E+02  0.00000000000E+00 0.  1.
         -3    1    6    6    0  502 -0.12602179697E+03  0.24993419144E+03  0.38113871760E+02  0.28249116904E+03  0.00000000000E+00 0.  1.
<mgrwt>
<rscale>  0 0.33258117E+04</rscale>
<asrwt>0</asrwt>
<pdfrwt beam="1">  1        2 0.29854407E+00 0.33258117E+04</pdfrwt>
<pdfrwt beam="2">  1       -2 0.21923009E+00 0.33258117E+04</pdfrwt>
<totfact> 0.60066876E-01</totfact>
</mgrwt>
</event>
<event>
12    1  0.2433511E-007  0.1526896E+04  0.7818608E-02  0.8866762E-01
         -1   -1    0    0    0  501 -0.00000000000E+00  0.00000000000E+00  0.16298603503E+03  0.16298603503E+03  0.00000000000E+00 0.  1.
          1   -1    0    0  501    0  0.00000000000E+00 -0.00000000000E+00 -0.35760894789E+04  0.35760894789E+04  0.00000000000E+00 0. -1.
         23    2    1    2    0    0  0.17621280314E+03  0.33688872577E+03 -0.18779093603E+04  0.19182273529E+04  0.92236903291E+02 0.  0.
        254    2    1    2    0    0 -0.17621280314E+03 -0.33688872577E+03 -0.15351940836E+04  0.18208481611E+04  0.90228719698E+03 0.  0.
        -24    2    4    4    0    0 -0.13483075614E+02 -0.36209251317E+03 -0.15869324796E+04  0.16300066416E+04  0.85288777003E+02 0.  0.
         24    2    4    4    0    0 -0.16272972752E+03  0.25203787400E+02  0.51738395936E+02  0.19084151952E+03  0.81409021849E+02 0.  0.
         11    1    3    3    0    0  0.26295185132E+02  0.13283695819E+03 -0.55284870643E+03  0.56919134429E+03  0.00000000000E+00 0.  1.
        -11    1    3    3    0    0  0.14991761800E+03  0.20405176758E+03 -0.13250606539E+04  0.13490360086E+04  0.00000000000E+00 0. -1.
          2    1    6    6  502    0 -0.14779324173E+03 -0.40493673633E+01  0.28408037354E+02  0.15055316756E+03  0.00000000000E+00 0. -1.
          1    1    5    5  503    0  0.76205251152E+01 -0.14792871875E+03 -0.82835842752E+03  0.84149786849E+03  0.00000000000E+00 0. -1.
         -2    1    5    5    0  503 -0.21103600729E+02 -0.21416379442E+03 -0.75857405206E+03  0.78850877310E+03  0.00000000000E+00 0.  1.
         -1    1    6    6    0  502 -0.14936485791E+02  0.29253154764E+02  0.23330358582E+02  0.40288351951E+02  0.00000000000E+00 0.  1.
<mgrwt>
<rscale>  0 0.15268957E+04</rscale>
<asrwt>0</asrwt>
<pdfrwt beam="1">  1        1 0.55016759E+00 0.15268957E+04</pdfrwt>
<pdfrwt beam="2">  1       -1 0.25074776E-01 0.15268957E+04</pdfrwt>
<totfact> 0.29599922E+00</totfact>
</mgrwt>
</event>
<event>
12    1  0.2433511E-007  0.2592634E+04  0.7818608E-02  0.8370708E-01
          2   -1    0    0  501    0  0.00000000000E+00  0.00000000000E+00  0.97206518106E+03  0.97206518106E+03  0.00000000000E+00 0. -1.
         -2   -1    0    0    0  501 -0.00000000000E+00 -0.00000000000E+00 -0.17287293684E+04  0.17287293684E+04  0.00000000000E+00 0.  1.
         23    2    1    2    0    0 -0.75333261042E+03  0.84845855340E+03 -0.42206659390E+03  0.12140287031E+04  0.91288243813E+02 0.  0.
        254    2    1    2    0    0  0.75333261042E+03 -0.84845855340E+03 -0.33459759343E+03  0.14867658464E+04  0.90062489065E+03 0.  0.
        -24    2    4    4    0    0  0.39894486441E+03 -0.54138239663E+03  0.25985634245E+03  0.72539860628E+03  0.80161805444E+02 0.  0.
         24    2    4    4    0    0  0.35438774600E+03 -0.30707615677E+03 -0.59445393589E+03  0.76136724009E+03  0.80113368584E+02 0.  0.
         11    1    3    3    0    0 -0.54391571806E+03  0.65158185686E+03 -0.28281716311E+03  0.89464449492E+03  0.00000000000E+00 0. -1.
        -11    1    3    3    0    0 -0.20941689236E+03  0.19687669653E+03 -0.13924943080E+03  0.31938420815E+03  0.00000000000E+00 0.  1.
          2    1    6    6  502    0  0.16287595855E+03 -0.10145425436E+03 -0.20114147279E+03  0.27799179067E+03  0.00000000000E+00 0. -1.
          1    1    5    5  503    0  0.34480973061E+02 -0.67810405618E+02  0.54245801558E+02  0.93433375193E+02  0.00000000000E+00 0. -1.
         -2    1    5    5    0  503  0.36446389135E+03 -0.47357199101E+03  0.20561054089E+03  0.63196523108E+03  0.00000000000E+00 0.  1.
         -1    1    6    6    0  502  0.19151178745E+03 -0.20562190241E+03 -0.39331246309E+03  0.48337544942E+03  0.00000000000E+00 0.  1.
<mgrwt>
<rscale>  0 0.25926339E+04</rscale>
<asrwt>0</asrwt>
<pdfrwt beam="1">  1        2 0.14954849E+00 0.25926339E+04</pdfrwt>
<pdfrwt beam="2">  1       -2 0.26595836E+00 0.25926339E+04</pdfrwt>
<totfact> 0.11923735E+00</totfact>
</mgrwt>
</event>
<event>
12    1  0.2433511E-007  0.1779570E+04  0.7818608E-02  0.8717240E-01
          1   -1    0    0  501    0  0.00000000000E+00  0.00000000000E+00  0.28589856423E+04  0.28589856423E+04  0.00000000000E+00 0. -1.
         -1   -1    0    0    0  501 -0.00000000000E+00 -0.00000000000E+00 -0.27692238436E+03  0.27692238436E+03  0.00000000000E+00 0.  1.
         23    2    1    2    0    0 -0.35139899647E+03  0.55819755463E+03  0.94627527712E+03  0.11571188829E+04  0.91768428235E+02 0.  0.
        254    2    1    2    0    0  0.35139899647E+03 -0.55819755463E+03  0.16357879808E+04  0.19787891437E+04  0.89707212221E+03 0.  0.
        -24    2    4    4    0    0  0.37347667492E+03 -0.34515662955E+03  0.24680604805E+03  0.57123704899E+03  0.82344490713E+02 0.  0.
         24    2    4    4    0    0 -0.22077678451E+02 -0.21304092509E+03  0.13889819327E+04  0.14075520947E+04  0.77834633940E+02 0.  0.
         13    1    3    3    0    0 -0.25255574799E+02  0.57451745679E+02  0.14095349184E+03  0.15429333751E+03  0.00000000000E+00 0. -1.
        -13    1    3    3    0    0 -0.32614342167E+03  0.50074580896E+03  0.80532178529E+03  0.10028255454E+04  0.00000000000E+00 0.  1.
          2    1    6    6  502    0 -0.61591562163E+01 -0.16582920611E+03  0.12244013540E+04  0.12355953773E+04  0.00000000000E+00 0. -1.
          1    1    5    5  503    0  0.16934325351E+03 -0.20937094800E+03  0.14420491025E+03  0.30546421643E+03  0.00000000000E+00 0. -1.
         -2    1    5    5    0  503  0.20413342141E+03 -0.13578568154E+03  0.10260113780E+03  0.26577283256E+03  0.00000000000E+00 0.  1.
         -1    1    6    6    0  502 -0.15918522235E+02 -0.47211718980E+02  0.16458057876E+03  0.17195671742E+03  0.00000000000E+00 0.  1.
<mgrwt>
<rscale>  0 0.17795697E+04</rscale>
<asrwt>0</asrwt>
<pdfrwt beam="1">  1        1 0.43984393E+00 0.17795697E+04</pdfrwt>
<pdfrwt beam="2">  1       -1 0.42603446E-01 0.17795697E+04</pdfrwt>
<totfact> 0.38860474E+00</totfact>
</mgrwt>
</event>
<event>
12    1  0.2433511E-007  0.1539992E+04  0.7818608E-02  0.8858286E-01
         -2   -1    0    0    0  501 -0.00000000000E+00  0.00000000000E+00  0.43521269620E+03  0.43521269620E+03  0.00000000000E+00 0.  1.
          2   -1    0    0  501    0  0.00000000000E+00 -0.00000000000E+00 -0.13623088368E+04  0.13623088368E+04  0.00000000000E+00 0. -1.
         23    2    1    2    0    0  0.49101947391E+03 -0.49579395110E+02 -0.44728944728E+03  0.67180319554E+03  0.87712277999E+02 0.  0.
        254    2    1    2    0    0 -0.49101947391E+03  0.49579395110E+02 -0.47980669337E+03  0.11257183375E+04  0.89076880962E+03 0.  0.
        -24    2    4    4    0    0 -0.38751311526E+03  0.44860471213E+03 -0.30014052273E+03  0.66952322723E+03  0.82246070899E+02 0.  0.
         24    2    4    4    0    0 -0.10350635866E+03 -0.39902531702E+03 -0.17966617063E+03  0.45619511027E+03  0.76806743578E+02 0.  0.
         11    1    3    3    0    0  0.25919679749E+03 -0.64739776615E+02 -0.26729201488E+03  0.37791432855E+03  0.00000000000E+00 0.  1.
        -11    1    3    3    0    0  0.23182267642E+03  0.15160381505E+02 -0.17999743240E+03  0.29388886699E+03  0.00000000000E+00 0. -1.
          2    1    6    6  502    0 -0.11086833623E+03 -0.36847912698E+03 -0.17989941720E+03  0.42477341643E+03  0.00000000000E+00 0. -1.
          3    1    5    5  503    0 -0.32865529887E+03  0.39151656766E+03 -0.28773998360E+03  0.58659511282E+03  0.00000000000E+00 0. -1.
         -4    1    5    5    0  503 -0.58857816388E+02  0.57088144468E+02 -0.12400539136E+02  0.82928114410E+02  0.00000000000E+00 0.  1.
         -1    1    6    6    0  502  0.73619775704E+01 -0.30546190036E+02  0.23324656873E+00  0.31421693835E+02  0.00000000000E+00 0.  1.
<mgrwt>
<rscale>  0 0.15399923E+04</rscale>
<asrwt>0</asrwt>
<pdfrwt beam="1">  1        2 0.20958597E+00 0.15399923E+04</pdfrwt>
<pdfrwt beam="2">  1       -2 0.66955800E-01 0.15399923E+04</pdfrwt>
<totfact> 0.30004469E+01</totfact>
</mgrwt>
</event>
<event>
12    1  0.2433511E-007  0.1823580E+04  0.7818608E-02  0.8693860E-01
         -2   -1    0    0    0  501 -0.00000000000E+00  0.00000000000E+00  0.51878565881E+03  0.51878565881E+03  0.00000000000E+00 0.  1.
          2   -1    0    0  501    0  0.00000000000E+00 -0.00000000000E+00 -0.16025130980E+04  0.16025130980E+04  0.00000000000E+00 0. -1.
         23    2    1    2    0    0 -0.31912892161E+03  0.42502097215E+03 -0.91461542288E+03  0.10617552038E+04  0.91195644435E+02 0.  0.
        254    2    1    2    0    0  0.31912892161E+03 -0.42502097215E+03 -0.16911201635E+03  0.10595435531E+04  0.90085935164E+03 0.  0.
        -24    2    4    4    0    0  0.56788306174E+03 -0.50880793985E+03 -0.16914993364E+03  0.78523532514E+03  0.81278067951E+02 0.  0.
         24    2    4    4    0    0 -0.24875414013E+03  0.83786967695E+02  0.37917298007E-01  0.27430822795E+03  0.79662565194E+02 0.  0.
         11    1    3    3    0    0 -0.25606296109E+03  0.27400744744E+03 -0.65895497240E+03  0.75820180490E+03  0.00000000000E+00 0. -1.
        -11    1    3    3    0    0 -0.63065960517E+02  0.15101352472E+03 -0.25566045047E+03  0.30355339886E+03  0.00000000000E+00 0.  1.
          2    1    6    6  502    0 -0.23325574479E+03  0.91396582089E+02 -0.15607517512E+02  0.25100831121E+03  0.00000000000E+00 0. -1.
          3    1    5    5  503    0  0.32222596702E+03 -0.31833059881E+03 -0.66102787566E+02  0.45774831784E+03  0.00000000000E+00 0. -1.
         -4    1    5    5    0  503  0.24565709472E+03 -0.19047734104E+03 -0.10304714608E+03  0.32748700730E+03  0.00000000000E+00 0.  1.
         -1    1    6    6    0  502 -0.15498395343E+02 -0.76096143945E+01  0.15645434810E+02  0.23299916734E+02  0.00000000000E+00 0.  1.
<mgrwt>
<rscale>  0 0.18235798E+04</rscale>
<asrwt>0</asrwt>
<pdfrwt beam="1">  1        2 0.24654048E+00 0.18235798E+04</pdfrwt>
<pdfrwt beam="2">  1       -2 0.79813178E-01 0.18235798E+04</pdfrwt>
<totfact> 0.14554409E+01</totfact>
</mgrwt>
</event>
<event>
12    1  0.2433511E-007  0.4085104E+04  0.7818608E-02  0.7987595E-01
          2   -1    0    0  501    0  0.00000000000E+00  0.00000000000E+00  0.18607836536E+04  0.18607836536E+04  0.00000000000E+00 0. -1.
         -2   -1    0    0    0  501 -0.00000000000E+00 -0.00000000000E+00 -0.22420763229E+04  0.22420763229E+04  0.00000000000E+00 0.  1.
         23    2    1    2    0    0  0.89707716140E+03  0.12843210399E+04 -0.13344707388E+04  0.20598326218E+04  0.88714767067E+02 0.  0.
        254    2    1    2    0    0 -0.89707716140E+03 -0.12843210399E+04  0.95317806946E+03  0.20430273547E+04  0.90065774455E+03 0.  0.
        -24    2    4    4    0    0 -0.10659266548E+04 -0.11695639692E+04  0.79495905823E+03  0.17726544262E+04  0.79147325191E+02 0.  0.
         24    2    4    4    0    0  0.16884949344E+03 -0.11475707076E+03  0.15821901124E+03  0.27037292847E+03  0.79930771330E+02 0.  0.
         13    1    3    3    0    0  0.66489102545E+02  0.59541634395E+02 -0.76882277893E+02  0.11780021917E+03  0.00000000000E+00 0. -1.
        -13    1    3    3    0    0  0.83058805885E+03  0.12247794055E+04 -0.12575884609E+04  0.19420324026E+04  0.00000000000E+00 0.  1.
          2    1    6    6  502    0  0.13023247898E+03 -0.11688098858E+03  0.10331071883E+03  0.20321114315E+03  0.00000000000E+00 0. -1.
          3    1    5    5  503    0 -0.82610757160E+03 -0.95151246335E+03  0.64322137144E+03  0.14147662070E+04  0.00000000000E+00 0. -1.
         -4    1    5    5    0  503 -0.23981908324E+03 -0.21805150581E+03  0.15173768679E+03  0.35788821923E+03  0.00000000000E+00 0.  1.
         -3    1    6    6    0  502  0.38617014464E+02  0.21239178181E+01  0.54908292403E+02  0.67161785322E+02  0.00000000000E+00 0.  1.
<mgrwt>
<rscale>  0 0.40851041E+04</rscale>
<asrwt>0</asrwt>
<pdfrwt beam="1">  1        2 0.28627441E+00 0.40851041E+04</pdfrwt>
<pdfrwt beam="2">  1       -2 0.34493482E+00 0.40851041E+04</pdfrwt>
<totfact> 0.10471612E-01</totfact>
</mgrwt>
</event>
<event>
12    1  0.2433511E-007  0.3415945E+04  0.7818608E-02  0.8134004E-01
         -2   -1    0    0    0  501 -0.00000000000E+00  0.00000000000E+00  0.12335263068E+04  0.12335263068E+04  0.00000000000E+00 0.  1.
          2   -1    0    0  501    0  0.00000000000E+00 -0.00000000000E+00 -0.23649027831E+04  0.23649027831E+04  0.00000000000E+00 0. -1.
         23    2    1    2    0    0 -0.13401151707E+04 -0.27207686498E+03  0.32398661015E+03  0.14081922515E+04  0.90020010662E+02 0.  0.
        254    2    1    2    0    0  0.13401151707E+04  0.27207686498E+03 -0.14553630864E+04  0.21902368384E+04  0.89951164741E+03 0.  0.
        -24    2    4    4    0    0 -0.59057557445E+02  0.17451809914E+03 -0.58577176919E+02  0.20925719589E+03  0.80080748972E+02 0.  0.
         24    2    4    4    0    0  0.13991727281E+04  0.97558765839E+02 -0.13967859095E+04  0.19809796425E+04  0.77893716989E+02 0.  0.
         11    1    3    3    0    0 -0.83522071102E+03 -0.12771438373E+03  0.18411593764E+03  0.86475619594E+03  0.00000000000E+00 0. -1.
        -11    1    3    3    0    0 -0.50489445968E+03 -0.14436248125E+03  0.13987067252E+03  0.54343605552E+03  0.00000000000E+00 0.  1.
          2    1    6    6  502    0  0.74547200387E+03  0.41059862800E+02 -0.79591852321E+03  0.10912839761E+04  0.00000000000E+00 0. -1.
          1    1    5    5  503    0 -0.49488123165E+02  0.12730341466E+03 -0.42545800941E+01  0.13665041226E+03  0.00000000000E+00 0. -1.
         -4    1    5    5    0  503 -0.95694342797E+01  0.47214684476E+02 -0.54322596825E+02  0.72606783625E+02  0.00000000000E+00 0.  1.
         -1    1    6    6    0  502  0.65370072428E+03  0.56498903038E+02 -0.60086738628E+03  0.88969566643E+03  0.00000000000E+00 0.  1.
<mgrwt>
<rscale>  0 0.34159448E+04</rscale>
<asrwt>0</asrwt>
<pdfrwt beam="1">  1        2 0.36383119E+00 0.34159448E+04</pdfrwt>
<pdfrwt beam="2">  1       -2 0.18977328E+00 0.34159448E+04</pdfrwt>
<totfact> 0.53581169E-01</totfact>
</mgrwt>
</event>
<event>
12    1  0.2433511E-007  0.2331753E+04  0.7818608E-02  0.8465506E-01
         -1   -1    0    0    0  501 -0.00000000000E+00  0.00000000000E+00  0.13784398077E+04  0.13784398077E+04  0.00000000000E+00 0.  1.
          1   -1    0    0  501    0  0.00000000000E+00 -0.00000000000E+00 -0.98609158038E+03  0.98609158038E+03  0.00000000000E+00 0. -1.
         23    2    1    2    0    0 -0.37115768871E+03 -0.86099182209E+03 -0.15453146736E+03  0.95510958763E+03  0.96381545858E+02 0.  0.
        254    2    1    2    0    0  0.37115768871E+03  0.86099182209E+03  0.54687969469E+03  0.14094218005E+04  0.89907033291E+03 0.  0.
        -24    2    4    4    0    0 -0.15528033984E+03  0.34133349425E+03  0.54402119674E+03  0.66539993860E+03  0.78596930915E+02 0.  0.
         24    2    4    4    0    0  0.52643802855E+03  0.51965832784E+03  0.28584979532E+01  0.74402186185E+03  0.79866039782E+02 0.  0.
         13    1    3    3    0    0 -0.53914114133E+02 -0.22811824406E+03 -0.30221232162E+02  0.23634294542E+03  0.00000000000E+00 0. -1.
        -13    1    3    3    0    0 -0.31724357458E+03 -0.63287357803E+03 -0.12431023520E+03  0.71876664221E+03  0.00000000000E+00 0.  1.
          4    1    6    6  502    0  0.26689797924E+03  0.27248235153E+03 -0.37921225414E+02  0.38330038163E+03  0.00000000000E+00 0. -1.
          3    1    5    5  503    0 -0.15252120277E+03  0.28678704552E+03  0.49470623888E+03  0.59181398223E+03  0.00000000000E+00 0. -1.
         -4    1    5    5    0  503 -0.27591370645E+01  0.54546448731E+02  0.49314957858E+02  0.73585956371E+02  0.00000000000E+00 0.  1.
         -3    1    6    6    0  502  0.25954004931E+03  0.24717597631E+03  0.40779723367E+02  0.36072148023E+03  0.00000000000E+00 0.  1.
<mgrwt>
<rscale>  0 0.23317529E+04</rscale>
<asrwt>0</asrwt>
<pdfrwt beam="1">  1        1 0.15170640E+00 0.23317529E+04</pdfrwt>
<pdfrwt beam="2">  1       -1 0.21206766E+00 0.23317529E+04</pdfrwt>
<totfact> 0.17408610E+00</totfact>
</mgrwt>
</event>
<event>
12    1  0.2433511E-007  0.2744298E+04  0.7818608E-02  0.8320773E-01
          2   -1    0    0  501    0  0.00000000000E+00  0.00000000000E+00  0.15477738237E+04  0.15477738237E+04  0.00000000000E+00 0. -1.
         -2   -1    0    0    0  501 -0.00000000000E+00 -0.00000000000E+00 -0.12164517799E+04  0.12164517799E+04  0.00000000000E+00 0.  1.
         23    2    1    2    0    0 -0.83602487651E+03  0.75188513867E+03 -0.33544749321E+03  0.11769663632E+04  0.91956204140E+02 0.  0.
        254    2    1    2    0    0  0.83602487651E+03 -0.75188513867E+03  0.66676953698E+03  0.15872592405E+04  0.90030074146E+03 0.  0.
        -24    2    4    4    0    0  0.14579420494E+03 -0.44232194572E+03  0.67776746780E+03  0.82643585271E+03  0.81992831263E+02 0.  0.
         24    2    4    4    0    0  0.69023067157E+03 -0.30956319295E+03 -0.10997930815E+02  0.76082338775E+03  0.80520323220E+02 0.  0.
         13    1    3    3    0    0 -0.58164330435E+03  0.47576650146E+03 -0.19718472751E+03  0.77688127417E+03  0.00000000000E+00 0.  1.
        -13    1    3    3    0    0 -0.25438157217E+03  0.27611863721E+03 -0.13826276570E+03  0.40008508901E+03  0.00000000000E+00 0. -1.
          4    1    6    6  502    0  0.34206290459E+03 -0.17434302923E+03  0.29867738891E+02  0.38509038467E+03  0.00000000000E+00 0. -1.
          3    1    5    5  503    0 -0.43870855612E+01 -0.30399899365E+01  0.24107266563E+02  0.24691058294E+02  0.00000000000E+00 0. -1.
         -4    1    5    5    0  503  0.15018129050E+03 -0.43928195578E+03  0.65366020124E+03  0.80174479442E+03  0.00000000000E+00 0.  1.
         -3    1    6    6    0  502  0.34816776698E+03 -0.13522016372E+03 -0.40865669706E+02  0.37573300308E+03  0.00000000000E+00 0.  1.
<mgrwt>
<rscale>  0 0.27442975E+04</rscale>
<asrwt>0</asrwt>
<pdfrwt beam="1">  1        2 0.23811905E+00 0.27442975E+04</pdfrwt>
<pdfrwt beam="2">  1       -2 0.18714643E+00 0.27442975E+04</pdfrwt>
<totfact> 0.16899187E+00</totfact>
</mgrwt>
</event>
<event>
12    1  0.2433511E-007  0.2330612E+04  0.7818608E-02  0.8465948E-01
          2   -1    0    0  501    0  0.00000000000E+00  0.00000000000E+00  0.16829438471E+04  0.16829438471E+04  0.00000000000E+00 0. -1.
         -2   -1    0    0    0  501 -0.00000000000E+00 -0.00000000000E+00 -0.80688272863E+03  0.80688272863E+03  0.00000000000E+00 0.  1.
         23    2    1    2    0    0  0.87570906044E+03 -0.36110016880E+03  0.70169213427E+02  0.95433684832E+03  0.92603515692E+02 0.  0.
        254    2    1    2    0    0 -0.87570906044E+03  0.36110016880E+03  0.80589190503E+03  0.15354897274E+04  0.90055940942E+03 0.  0.
        -24    2    4    4    0    0 -0.71207947700E+03 -0.31450205113E+02  0.12365104861E+03  0.72771555089E+03  0.78955963838E+02 0.  0.
         24    2    4    4    0    0 -0.16362958344E+03  0.39255037391E+03  0.68224085643E+03  0.80777417650E+03  0.78588150523E+02 0.  0.
         11    1    3    3    0    0  0.37280584317E+03 -0.18843191399E+03 -0.21143871227E+01  0.41772629022E+03  0.00000000000E+00 0.  1.
        -11    1    3    3    0    0  0.50290321727E+03 -0.17266825481E+03  0.72283600550E+02  0.53661055811E+03  0.00000000000E+00 0. -1.
          4    1    6    6  502    0 -0.25102348899E+02  0.10609046291E+03  0.12311607560E+03  0.16444720220E+03  0.00000000000E+00 0. -1.
          3    1    5    5  503    0 -0.10454773228E+03 -0.31738036362E+02  0.10801131627E+02  0.10979160132E+03  0.00000000000E+00 0. -1.
         -4    1    5    5    0  503 -0.60753174472E+03  0.28783124829E+00  0.11284991698E+03  0.61792394957E+03  0.00000000000E+00 0.  1.
         -3    1    6    6    0  502 -0.13852723454E+03  0.28645991100E+03  0.55912478083E+03  0.64332697430E+03  0.00000000000E+00 0.  1.
<mgrwt>
<rscale>  0 0.23306122E+04</rscale>
<asrwt>0</asrwt>
<pdfrwt beam="1">  1        2 0.25891444E+00 0.23306122E+04</pdfrwt>
<pdfrwt beam="2">  1       -2 0.12413580E+00 0.23306122E+04</pdfrwt>
<totfact> 0.44234213E+00</totfact>
</mgrwt>
</event>
<event>
12    1  0.2433511E-007  0.1487370E+04  0.7818608E-02  0.8892896E-01
         -1   -1    0    0    0  501 -0.00000000000E+00  0.00000000000E+00  0.39498253040E+03  0.39498253040E+03  0.00000000000E+00 0.  1.
          1   -1    0    0  501    0  0.00000000000E+00 -0.00000000000E+00 -0.14002321845E+04  0.14002321845E+04  0.00000000000E+00 0. -1.
         23    2    1    2    0    0  0.43818273048E+03 -0.12769298326E+03 -0.23030061557E+03  0.51974573816E+03  0.93742495904E+02 0.  0.
        254    2    1    2    0    0 -0.43818273048E+03  0.12769298326E+03 -0.77494903852E+03  0.12754689767E+04  0.90441444872E+03 0.  0.
        -24    2    4    4    0    0 -0.48638652318E+03  0.42392877452E+03 -0.70144274875E+03  0.95643475677E+03  0.80362045679E+02 0.  0.
         24    2    4    4    0    0  0.48203792695E+02 -0.29623579126E+03 -0.73506289769E+02  0.31903421997E+03  0.79375117169E+02 0.  0.
         13    1    3    3    0    0  0.33367502231E+03 -0.81957732226E+02 -0.21327899899E+03  0.40440576380E+03  0.00000000000E+00 0. -1.
        -13    1    3    3    0    0  0.10450770817E+03 -0.45735251035E+02 -0.17021616580E+02  0.11533997436E+03  0.00000000000E+00 0.  1.
          4    1    6    6  502    0  0.18981432896E+01 -0.22566687870E+03 -0.60399757862E+02  0.23361779435E+03  0.00000000000E+00 0. -1.
          3    1    5    5  503    0 -0.40763127219E+03  0.39019663232E+03 -0.60020165348E+03  0.82380743550E+03  0.00000000000E+00 0. -1.
         -4    1    5    5    0  503 -0.78755250989E+02  0.33732142193E+02 -0.10124109528E+03  0.13262732127E+03  0.00000000000E+00 0.  1.
         -3    1    6    6    0  502  0.46305649406E+02 -0.70568912560E+02 -0.13106531907E+02  0.85416425618E+02  0.00000000000E+00 0.  1.
<mgrwt>
<rscale>  0 0.14873698E+04</rscale>
<asrwt>0</asrwt>
<pdfrwt beam="1">  1        1 0.21542034E+00 0.14873698E+04</pdfrwt>
<pdfrwt beam="2">  1       -1 0.60766543E-01 0.14873698E+04</pdfrwt>
<totfact> 0.20423390E+01</totfact>
</mgrwt>
</event>
<event>
12    1  0.2433511E-007  0.1873783E+04  0.7818608E-02  0.8668018E-01
         -2   -1    0    0    0  501 -0.00000000000E+00  0.00000000000E+00  0.67003243227E+03  0.67003243227E+03  0.00000000000E+00 0.  1.
          2   -1    0    0  501    0  0.00000000000E+00 -0.00000000000E+00 -0.13100340765E+04  0.13100340765E+04  0.00000000000E+00 0. -1.
         23    2    1    2    0    0 -0.11737151911E+03 -0.64832092026E+03 -0.53908527274E+03  0.85757908046E+03  0.10359951160E+03 0.  0.
        254    2    1    2    0    0  0.11737151911E+03  0.64832092026E+03 -0.10091637150E+03  0.11224874283E+04  0.90315991028E+03 0.  0.
        -24    2    4    4    0    0 -0.12543483641E+03  0.46242783211E+03 -0.44281466088E+03  0.65721031649E+03  0.79165510900E+02 0.  0.
         24    2    4    4    0    0  0.24280635552E+03  0.18589308816E+03  0.34189828938E+03  0.46527711183E+03  0.77956295447E+02 0.  0.
         11    1    3    3    0    0  0.18378609154E+02 -0.92440591950E+02 -0.65067217060E+02  0.11452850759E+03  0.00000000000E+00 0.  1.
        -11    1    3    3    0    0 -0.13575012827E+03 -0.55588032831E+03 -0.47401805568E+03  0.74305057287E+03  0.00000000000E+00 0. -1.
          2    1    6    6  502    0  0.10622608272E+03  0.12281281256E+03  0.14671562136E+03  0.21884341692E+03  0.00000000000E+00 0. -1.
          3    1    5    5  503    0 -0.44463025718E+02  0.64619071207E+02 -0.89718089435E+02  0.11917181123E+03  0.00000000000E+00 0. -1.
         -4    1    5    5    0  503 -0.80971810687E+02  0.39780876090E+03 -0.35309657145E+03  0.53803850526E+03  0.00000000000E+00 0.  1.
         -1    1    6    6    0  502  0.13658027280E+03  0.63080275600E+02  0.19518266802E+03  0.24643369491E+03  0.00000000000E+00 0.  1.
<mgrwt>
<rscale>  0 0.18737826E+04</rscale>
<asrwt>0</asrwt>
<pdfrwt beam="1">  1        2 0.20154370E+00 0.18737826E+04</pdfrwt>
<pdfrwt beam="2">  1       -2 0.10308191E+00 0.18737826E+04</pdfrwt>
<totfact> 0.11762898E+01</totfact>
</mgrwt>
</event>
<event>
12    1  0.2433511E-007  0.1608134E+04  0.7818608E-02  0.8815566E-01
          2   -1    0    0  501    0  0.00000000000E+00  0.00000000000E+00  0.17747171238E+04  0.17747171238E+04  0.00000000000E+00 0.  1.
         -2   -1    0    0    0  501 -0.00000000000E+00 -0.00000000000E+00 -0.36429691529E+03  0.36429691529E+03  0.00000000000E+00 0. -1.
         23    2    1    2    0    0 -0.22793329132E+03 -0.47123349427E+03  0.70493109433E+03  0.88261339108E+03  0.89799548666E+02 0.  0.
        254    2    1    2    0    0  0.22793329132E+03  0.47123349427E+03  0.70548911413E+03  0.12564006480E+04  0.89822775878E+03 0.  0.
        -24    2    4    4    0    0  0.23911663789E+03  0.29699195506E+03  0.90129806044E+03  0.98196977512E+03  0.80904002492E+02 0.  0.
         24    2    4    4    0    0 -0.11183346568E+02  0.17424153921E+03 -0.19580894631E+03  0.27443087285E+03  0.80535577813E+02 0.  0.
         11    1    3    3    0    0 -0.22207525230E+03 -0.39160234728E+03  0.57761899931E+03  0.73233429828E+03  0.00000000000E+00 0. -1.
        -11    1    3    3    0    0 -0.58580390195E+01 -0.79631146987E+02  0.12731209502E+03  0.15027909279E+03  0.00000000000E+00 0.  1.
          2    1    6    6  502    0 -0.20102327153E+02  0.49528849190E+02 -0.11144095670E+03  0.12359731910E+03  0.00000000000E+00 0. -1.
          3    1    5    5  503    0  0.20265376613E+03  0.28266045360E+03  0.76903760269E+03  0.84402862233E+03  0.00000000000E+00 0. -1.
         -4    1    5    5    0  503  0.36462871758E+02  0.14331501461E+02  0.13226045774E+03  0.13794115279E+03  0.00000000000E+00 0.  1.
         -1    1    6    6    0  502  0.89189805848E+01  0.12471269002E+03 -0.84367989609E+02  0.15083355375E+03  0.00000000000E+00 0.  1.
<mgrwt>
<rscale>  0 0.16081343E+04</rscale>
<asrwt>0</asrwt>
<pdfrwt beam="1">  1        2 0.27303340E+00 0.16081343E+04</pdfrwt>
<pdfrwt beam="2">  1       -2 0.56045680E-01 0.16081343E+04</pdfrwt>
<totfact> 0.25528882E+01</totfact>
</mgrwt>
</event>
<event>
12    1  0.2433511E-007  0.1473242E+04  0.7818608E-02  0.8902444E-01
         -2   -1    0    0    0  501 -0.00000000000E+00  0.00000000000E+00  0.15946686408E+03  0.15946686408E+03  0.00000000000E+00 0.  1.
          2   -1    0    0  501    0  0.00000000000E+00 -0.00000000000E+00 -0.34026524077E+04  0.34026524077E+04  0.00000000000E+00 0. -1.
         23    2    1    2    0    0 -0.16954325808E+02 -0.42362755562E+03 -0.14283353234E+04  0.14925969952E+04  0.89197751932E+02 0.  0.
        254    2    1    2    0    0  0.16954325808E+02  0.42362755562E+03 -0.18148502202E+04  0.20695222766E+04  0.89971849844E+03 0.  0.
        -24    2    4    4    0    0  0.20102462660E+03  0.65354923090E+03 -0.12087094613E+04  0.13910246413E+04  0.80209059216E+02 0.  0.
         24    2    4    4    0    0 -0.18407030079E+03 -0.22992167528E+03 -0.60614075888E+03  0.67849763525E+03  0.78781781341E+02 0.  0.
         11    1    3    3    0    0  0.32890746556E+02 -0.15489289804E+03 -0.46387789553E+03  0.49015947714E+03  0.00000000000E+00 0.  1.
        -11    1    3    3    0    0 -0.49845072364E+02 -0.26873465758E+03 -0.96445742789E+03  0.10024375181E+04  0.00000000000E+00 0. -1.
          2    1    6    6  502    0 -0.30377556456E+02 -0.54602191288E+02 -0.20728058803E+03  0.21649350430E+03  0.00000000000E+00 0. -1.
          3    1    5    5  503    0  0.13886862866E+02  0.11211949088E+03 -0.15706818582E+03  0.19347878487E+03  0.00000000000E+00 0. -1.
         -2    1    5    5    0  503  0.18713776373E+03  0.54142974001E+03 -0.10516412755E+04  0.11975458565E+04  0.00000000000E+00 0.  1.
         -1    1    6    6    0  502 -0.15369274433E+03 -0.17531948399E+03 -0.39886017085E+03  0.46200413095E+03  0.00000000000E+00 0.  1.
<mgrwt>
<rscale>  0 0.14732417E+04</rscale>
<asrwt>0</asrwt>
<pdfrwt beam="1">  1        2 0.52348498E+00 0.14732417E+04</pdfrwt>
<pdfrwt beam="2">  1       -2 0.24533364E-01 0.14732417E+04</pdfrwt>
<totfact> 0.13828284E+01</totfact>
</mgrwt>
</event>
<event>
12    1  0.2433511E-007  0.1913994E+04  0.7818608E-02  0.8647922E-01
         -2   -1    0    0    0  501 -0.00000000000E+00  0.00000000000E+00  0.30435994682E+03  0.30435994682E+03  0.00000000000E+00 0.  1.
          2   -1    0    0  501    0  0.00000000000E+00 -0.00000000000E+00 -0.30090803581E+04  0.30090803581E+04  0.00000000000E+00 0. -1.
         23    2    1    2    0    0  0.50741349897E+03 -0.17697139917E+03 -0.16317218681E+03  0.56883054271E+03  0.90308851796E+02 0.  0.
        254    2    1    2    0    0 -0.50741349897E+03  0.17697139917E+03 -0.25415482244E+04  0.27446097622E+04  0.88579232017E+03 0.  0.
        -24    2    4    4    0    0 -0.50077617153E+03  0.48697769402E+03 -0.15437188968E+04  0.16962837290E+04  0.79915007702E+02 0.  0.
         24    2    4    4    0    0 -0.66373274376E+01 -0.31000629485E+03 -0.99782932760E+03  0.10483260332E+04  0.84712146812E+02 0.  0.
         11    1    3    3    0    0  0.15896193141E+03 -0.89635222851E+02 -0.26153796677E+02  0.18435669202E+03  0.00000000000E+00 0.  1.
        -11    1    3    3    0    0  0.34845156756E+03 -0.87336176315E+02 -0.13701839013E+03  0.38447385069E+03  0.00000000000E+00 0. -1.
          2    1    6    6  502    0  0.36040937940E+02 -0.20247630002E+03 -0.62648499404E+03  0.65937777415E+03  0.00000000000E+00 0. -1.
          1    1    5    5  503    0 -0.47806727875E+03  0.44414769031E+03 -0.14662019436E+04  0.16048562656E+04  0.00000000000E+00 0. -1.
         -2    1    5    5    0  503 -0.22708892785E+02  0.42830003708E+02 -0.77516953229E+02  0.91427463418E+02  0.00000000000E+00 0.  1.
         -1    1    6    6    0  502 -0.42678265377E+02 -0.10752999483E+03 -0.37134433356E+03  0.38894825901E+03  0.00000000000E+00 0.  1.
<mgrwt>
<rscale>  0 0.19139943E+04</rscale>
<asrwt>0</asrwt>
<pdfrwt beam="1">  1        2 0.46293546E+00 0.19139943E+04</pdfrwt>
<pdfrwt beam="2">  1       -2 0.46824605E-01 0.19139943E+04</pdfrwt>
<totfact> 0.69716689E+00</totfact>
</mgrwt>
</event>
<event>
12    1  0.2433511E-007  0.1375530E+04  0.7818608E-02  0.8971724E-01
         -2   -1    0    0    0  501 -0.00000000000E+00  0.00000000000E+00  0.32579239015E+03  0.32579239015E+03  0.00000000000E+00 0.  1.
          2   -1    0    0  501    0  0.00000000000E+00 -0.00000000000E+00 -0.14519092867E+04  0.14519092867E+04  0.00000000000E+00 0. -1.
         23    2    1    2    0    0  0.38244485759E+03  0.29055684424E+02 -0.28243904582E+03  0.48484813756E+03  0.90540598643E+02 0.  0.
        254    2    1    2    0    0 -0.38244485759E+03 -0.29055684424E+02 -0.84367785069E+03  0.12928535392E+04  0.90142645640E+03 0.  0.
        -24    2    4    4    0    0  0.21680116870E+03  0.22580272859E+03 -0.26415926030E+03  0.41739293232E+03  0.80293998283E+02 0.  0.
         24    2    4    4    0    0 -0.59924602629E+03 -0.25485841302E+03 -0.57951859040E+03  0.87546060693E+03  0.80875626451E+02 0.  0.
         11    1    3    3    0    0  0.36533347736E+03  0.63981205000E+01 -0.26683949000E+03  0.45245198535E+03  0.00000000000E+00 0. -1.
        -11    1    3    3    0    0  0.17111380226E+02  0.22657563924E+02 -0.15599555818E+02  0.32396152209E+02  0.00000000000E+00 0.  1.
          2    1    6    6  502    0 -0.48295389401E+03 -0.19224763010E+03 -0.50024208442E+03  0.72141926648E+03  0.00000000000E+00 0. -1.
          1    1    5    5  503    0  0.14162951126E+03  0.17768336521E+03 -0.14910015582E+03  0.27177408486E+03  0.00000000000E+00 0. -1.
         -2    1    5    5    0  503  0.75171657439E+02  0.48119363382E+02 -0.11505910447E+03  0.14561884746E+03  0.00000000000E+00 0.  1.
         -1    1    6    6    0  502 -0.11629213228E+03 -0.62610782915E+02 -0.79276505975E+02  0.15404134045E+03  0.00000000000E+00 0.  1.
<mgrwt>
<rscale>  0 0.13755304E+04</rscale>
<asrwt>0</asrwt>
<pdfrwt beam="1">  1        2 0.22337066E+00 0.13755304E+04</pdfrwt>
<pdfrwt beam="2">  1       -2 0.50121907E-01 0.13755304E+04</pdfrwt>
<totfact> 0.49611222E+01</totfact>
</mgrwt>
</event>
<event>
12    1  0.2833940E-007  0.1895177E+04  0.7818608E-02  0.8657261E-01
          1   -1    0    0  501    0  0.00000000000E+00  0.00000000000E+00  0.17721866289E+04  0.17721866289E+04  0.00000000000E+00 0. -1.
         -1   -1    0    0    0  501 -0.00000000000E+00 -0.00000000000E+00 -0.50667573876E+03  0.50667573876E+03  0.00000000000E+00 0.  1.
         23    2    1    2    0    0  0.50728119175E+03  0.72759172622E+02 -0.12983246187E+03  0.54202175220E+03  0.11959517966E+03 0.  0.
        254    2    1    2    0    0 -0.50728119175E+03 -0.72759172622E+02  0.13953433520E+04  0.17368406154E+04  0.89833409641E+03 0.  0.
        -24    2    4    4    0    0 -0.60486306617E+00 -0.38907176223E+03  0.78021293903E+03  0.87557625596E+03  0.80773434626E+02 0.  0.
         24    2    4    4    0    0 -0.50667632868E+03  0.31631258961E+03  0.61513041294E+03  0.86126435946E+03  0.81340737373E+02 0.  0.
         11    1    3    3    0    0  0.14229974160E+03  0.14587851200E+02  0.17576472919E+02  0.14412131786E+03  0.00000000000E+00 0. -1.
        -11    1    3    3    0    0  0.36498145015E+03  0.58171321422E+02 -0.14740893478E+03  0.39790043433E+03  0.00000000000E+00 0.  1.
          4    1    6    6  502    0 -0.35540190744E+03  0.26290837926E+03  0.43881370114E+03  0.62288746656E+03  0.00000000000E+00 0. -1.
          3    1    5    5  503    0 -0.33317132816E+02 -0.25708668963E+03  0.46718807186E+03  0.53429232805E+03  0.00000000000E+00 0. -1.
         -4    1    5    5    0  503  0.32712269749E+02 -0.13198507260E+03  0.31302486717E+03  0.34128392791E+03  0.00000000000E+00 0.  1.
         -3    1    6    6    0  502 -0.15127442125E+03  0.53404210357E+02  0.17631671180E+03  0.23837689290E+03  0.00000000000E+00 0.  1.
<mgrwt>
<rscale>  0 0.18951770E+04</rscale>
<asrwt>0</asrwt>
<pdfrwt beam="1">  1        1 0.27264409E+00 0.18951770E+04</pdfrwt>
<pdfrwt beam="2">  1       -1 0.77950115E-01 0.18951770E+04</pdfrwt>
<totfact> 0.65650590E+00</totfact>
</mgrwt>
</event>
<event>
12    1  0.2433511E-007  0.3350966E+04  0.7818608E-02  0.8150047E-01
          2   -1    0    0  501    0  0.00000000000E+00  0.00000000000E+00  0.32295802653E+04  0.32295802653E+04  0.00000000000E+00 0.  1.
         -2   -1    0    0    0  501 -0.00000000000E+00 -0.00000000000E+00 -0.86922854482E+03  0.86922854482E+03  0.00000000000E+00 0. -1.
         23    2    1    2    0    0  0.20683163326E+03 -0.13043122576E+04  0.95900217635E+02  0.13272586794E+04  0.91700384469E+02 0.  0.
        254    2    1    2    0    0 -0.20683163326E+03  0.13043122576E+04  0.22644515028E+04  0.27715501307E+04  0.89985539293E+03 0.  0.
        -24    2    4    4    0    0  0.27910483428E+03  0.92975062113E+03  0.14926047929E+04  0.17823877954E+04  0.81862442377E+02 0.  0.
         24    2    4    4    0    0 -0.48593646754E+03  0.37456163649E+03  0.77184670992E+03  0.98916233523E+03  0.79146142062E+02 0.  0.
         11    1    3    3    0    0  0.16292427455E+03 -0.11107748871E+04  0.51173730675E+02  0.11238255736E+04  0.00000000000E+00 0. -1.
        -11    1    3    3    0    0  0.43907358705E+02 -0.19353737049E+03  0.44726486960E+02  0.20343310586E+03  0.00000000000E+00 0.  1.
          4    1    6    6  502    0 -0.19533617679E+03  0.17791268234E+03  0.38436957032E+03  0.46642160230E+03  0.00000000000E+00 0. -1.
          1    1    5    5  503    0  0.19317520670E+03  0.62210058749E+03  0.93024774302E+03  0.11356437227E+04  0.00000000000E+00 0. -1.
         -2    1    5    5    0  503  0.85929627583E+02  0.30765003364E+03  0.56235704988E+03  0.64674407276E+03  0.00000000000E+00 0.  1.
         -3    1    6    6    0  502 -0.29060029076E+03  0.19664895415E+03  0.38747713960E+03  0.52274073293E+03  0.00000000000E+00 0.  1.
<mgrwt>
<rscale>  0 0.33509660E+04</rscale>
<asrwt>0</asrwt>
<pdfrwt beam="1">  1        2 0.49685850E+00 0.33509660E+04</pdfrwt>
<pdfrwt beam="2">  1       -2 0.13372747E+00 0.33509660E+04</pdfrwt>
<totfact> 0.41646957E-01</totfact>
</mgrwt>
</event>
<event>
12    1  0.2433511E-007  0.2959258E+04  0.7818608E-02  0.8255462E-01
         -1   -1    0    0    0  501 -0.00000000000E+00  0.00000000000E+00  0.26858739790E+04  0.26858739790E+04  0.00000000000E+00 0.  1.
          1   -1    0    0  501    0  0.00000000000E+00 -0.00000000000E+00 -0.81511700476E+03  0.81511700476E+03  0.00000000000E+00 0. -1.
         23    2    1    2    0    0 -0.12620884033E+04 -0.44509333881E+03  0.79500307216E+03  0.15593271199E+04  0.92173553498E+02 0.  0.
        254    2    1    2    0    0  0.12620884033E+04  0.44509333881E+03  0.10757539021E+04  0.19416638639E+04  0.90655219623E+03 0.  0.
        -24    2    4    4    0    0  0.72288093659E+03  0.70368211549E+03  0.64494568012E+03  0.12003522613E+04  0.84647815613E+02 0.  0.
         24    2    4    4    0    0  0.53920746674E+03 -0.25858877668E+03  0.43080822201E+03  0.74131160266E+03  0.79588444371E+02 0.  0.
         13    1    3    3    0    0 -0.89901764836E+03 -0.30892025047E+03  0.61170887462E+03  0.11304212491E+04  0.00000000000E+00 0.  1.
        -13    1    3    3    0    0 -0.36307075496E+03 -0.13617308834E+03  0.18329419754E+03  0.42890587073E+03  0.00000000000E+00 0. -1.
          2    1    6    6  502    0  0.24693186157E+03 -0.76329589846E+02  0.19763419860E+03  0.32536260849E+03  0.00000000000E+00 0. -1.
          1    1    5    5  503    0  0.34047082870E+03  0.38811744719E+03  0.34305210178E+03  0.61987118222E+03  0.00000000000E+00 0. -1.
         -2    1    5    5    0  503  0.38241010789E+03  0.31556466830E+03  0.30189357833E+03  0.58048107905E+03  0.00000000000E+00 0.  1.
         -1    1    6    6    0  502  0.29227560517E+03 -0.18225918684E+03  0.23317402341E+03  0.41594899417E+03  0.00000000000E+00 0.  1.
<mgrwt>
<rscale>  0 0.29592577E+04</rscale>
<asrwt>0</asrwt>
<pdfrwt beam="1">  1        1 0.12540262E+00 0.29592577E+04</pdfrwt>
<pdfrwt beam="2">  1       -1 0.41321138E+00 0.29592577E+04</pdfrwt>
<totfact> 0.10629223E-01</totfact>
</mgrwt>
</event>
<event>
12    1  0.2433511E-007  0.1969873E+04  0.7818608E-02  0.8620837E-01
         -2   -1    0    0    0  501 -0.00000000000E+00  0.00000000000E+00  0.81087875241E+03  0.81087875241E+03  0.00000000000E+00 0.  1.
          2   -1    0    0  501    0  0.00000000000E+00 -0.00000000000E+00 -0.11963566717E+04  0.11963566717E+04  0.00000000000E+00 0. -1.
         23    2    1    2    0    0  0.13535328669E+03  0.62448348662E+03  0.29636626897E+03  0.71017355330E+03  0.90627662144E+02 0.  0.
        254    2    1    2    0    0 -0.13535328669E+03 -0.62448348662E+03 -0.68184418822E+03  0.12970618708E+04  0.89953202408E+03 0.  0.
        -24    2    4    4    0    0  0.17907073600E+03 -0.41121663904E+03 -0.77428521657E+03  0.89831757410E+03  0.79318438136E+02 0.  0.
         24    2    4    4    0    0 -0.31442402269E+03 -0.21326684758E+03  0.92441028348E+02  0.39874429668E+03  0.78143816727E+02 0.  0.
         13    1    3    3    0    0  0.93282449468E+02  0.24788589332E+03  0.97599157159E+02  0.28226694274E+03  0.00000000000E+00 0. -1.
        -13    1    3    3    0    0  0.42070837224E+02  0.37659759330E+03  0.19876711181E+03  0.42790661056E+03  0.00000000000E+00 0.  1.
          4    1    6    6  502    0 -0.28027842656E+03 -0.20557995538E+03  0.63531949762E+02  0.35334886881E+03  0.00000000000E+00 0. -1.
          3    1    5    5  503    0  0.18523255971E+03 -0.38483586040E+03 -0.71002450046E+03  0.82857982831E+03  0.00000000000E+00 0. -1.
         -4    1    5    5    0  503 -0.61618237181E+01 -0.26380778637E+02 -0.64260716112E+02  0.69737745793E+02  0.00000000000E+00 0.  1.
         -3    1    6    6    0  502 -0.34145596132E+02 -0.76868921961E+01  0.28909078586E+02  0.45395427871E+02  0.00000000000E+00 0.  1.
<mgrwt>
<rscale>  0 0.19698733E+04</rscale>
<asrwt>0</asrwt>
<pdfrwt beam="1">  1        2 0.18405487E+00 0.19698733E+04</pdfrwt>
<pdfrwt beam="2">  1       -2 0.12475058E+00 0.19698733E+04</pdfrwt>
<totfact> 0.85446916E+00</totfact>
</mgrwt>
</event>
<event>
12    1  0.2433511E-007  0.1752202E+04  0.7818608E-02  0.8732139E-01
          2   -1    0    0  501    0  0.00000000000E+00  0.00000000000E+00  0.25644099329E+04  0.25644099329E+04  0.00000000000E+00 0. -1.
         -2   -1    0    0    0  501 -0.00000000000E+00 -0.00000000000E+00 -0.29930965349E+03  0.29930965349E+03  0.00000000000E+00 0.  1.
         23    2    1    2    0    0 -0.58463291416E+03  0.26227294805E+03  0.81393293042E+03  0.10398557421E+04  0.90721582588E+02 0.  0.
        254    2    1    2    0    0  0.58463291416E+03 -0.26227294805E+03  0.14511673490E+04  0.18238638443E+04  0.90000550230E+03 0.  0.
        -24    2    4    4    0    0 -0.12819669748E+03 -0.32578618675E+03  0.31006245039E+03  0.47473620572E+03  0.81637669999E+02 0.  0.
         24    2    4    4    0    0  0.71282961164E+03  0.63513238698E+02  0.11411048986E+04  0.13491276386E+04  0.76583345737E+02 0.  0.
         11    1    3    3    0    0 -0.76200423641E+02  0.32293321014E+02  0.16042612445E+03  0.18051566290E+03  0.00000000000E+00 0. -1.
        -11    1    3    3    0    0 -0.50843249052E+03  0.22997962703E+03  0.65350680598E+03  0.85934007920E+03  0.00000000000E+00 0.  1.
          4    1    6    6  502    0  0.56167531140E+03  0.25720104661E+02  0.92989382750E+03  0.10866660985E+04  0.00000000000E+00 0. -1.
          1    1    5    5  503    0 -0.43717427752E+02 -0.45835974896E+02  0.30972572889E+02  0.70508512644E+02  0.00000000000E+00 0. -1.
         -2    1    5    5    0  503 -0.84479269731E+02 -0.27995021185E+03  0.27908987750E+03  0.40422769308E+03  0.00000000000E+00 0.  1.
         -3    1    6    6    0  502  0.15115430024E+03  0.37793134037E+02  0.21121107110E+03  0.26246154007E+03  0.00000000000E+00 0.  1.
<mgrwt>
<rscale>  0 0.17522016E+04</rscale>
<asrwt>0</asrwt>
<pdfrwt beam="1">  1        2 0.39452459E+00 0.17522016E+04</pdfrwt>
<pdfrwt beam="2">  1       -2 0.46047641E-01 0.17522016E+04</pdfrwt>
<totfact> 0.13553712E+01</totfact>
</mgrwt>
</event>
<event>
12    1  0.2433511E-007  0.1557944E+04  0.7818608E-02  0.8846809E-01
          2   -1    0    0  501    0  0.00000000000E+00  0.00000000000E+00  0.14182687002E+04  0.14182687002E+04  0.00000000000E+00 0. -1.
         -2   -1    0    0    0  501 -0.00000000000E+00 -0.00000000000E+00 -0.42784377922E+03  0.42784377922E+03  0.00000000000E+00 0.  1.
         23    2    1    2    0    0 -0.33293063797E+03 -0.32927558103E+03  0.87775371947E+02  0.48737611300E+03  0.10278979346E+03 0.  0.
        254    2    1    2    0    0  0.33293063797E+03  0.32927558103E+03  0.90264954901E+03  0.13587363664E+04  0.90117872094E+03 0.  0.
        -24    2    4    4    0    0 -0.12714364017E+03  0.25889825557E+03 -0.42141184232E+02  0.30263082941E+03  0.81337122695E+02 0.  0.
         24    2    4    4    0    0  0.46007427814E+03  0.70377325458E+02  0.94479073324E+03  0.10561055370E+04  0.78154118739E+02 0.  0.
         11    1    3    3    0    0 -0.99302416167E+02 -0.16859107920E+03  0.29061372178E+02  0.19780921413E+03  0.00000000000E+00 0.  1.
        -11    1    3    3    0    0 -0.23362822180E+03 -0.16068450183E+03  0.58713999768E+02  0.28956689887E+03  0.00000000000E+00 0. -1.
          2    1    6    6  502    0  0.35036924023E+03  0.27129358954E+02  0.75295024506E+03  0.83092038015E+03  0.00000000000E+00 0. -1.
          1    1    5    5  503    0 -0.13309731346E+03  0.23687813565E+03 -0.22694593280E+02  0.27265580970E+03  0.00000000000E+00 0. -1.
         -2    1    5    5    0  503  0.59536732899E+01  0.22020119922E+02 -0.19446590953E+02  0.29975019712E+02  0.00000000000E+00 0.  1.
         -1    1    6    6    0  502  0.10970503791E+03  0.43247966504E+02  0.19184048818E+03  0.22518515683E+03  0.00000000000E+00 0.  1.
<mgrwt>
<rscale>  0 0.15579441E+04</rscale>
<asrwt>0</asrwt>
<pdfrwt beam="1">  1        2 0.21819518E+00 0.15579441E+04</pdfrwt>
<pdfrwt beam="2">  1       -2 0.65822120E-01 0.15579441E+04</pdfrwt>
<totfact> 0.28873385E+01</totfact>
</mgrwt>
</event>
<event>
12    1  0.2433511E-007  0.1689803E+04  0.7818608E-02  0.8767202E-01
         -2   -1    0    0    0  501 -0.00000000000E+00  0.00000000000E+00  0.35376862660E+03  0.35376862660E+03  0.00000000000E+00 0.  1.
          2   -1    0    0  501    0  0.00000000000E+00 -0.00000000000E+00 -0.20178677923E+04  0.20178677923E+04  0.00000000000E+00 0. -1.
         23    2    1    2    0    0  0.59643530687E+03 -0.70174779986E+02 -0.56399903105E+03  0.82879956576E+03  0.90300820292E+02 0.  0.
        254    2    1    2    0    0 -0.59643530687E+03  0.70174779986E+02 -0.11001001346E+04  0.15428368531E+04  0.89970310331E+03 0.  0.
        -24    2    4    4    0    0 -0.16653940680E+03 -0.39875245304E+03 -0.48896468007E+03  0.65744851583E+03  0.80082456170E+02 0.  0.
         24    2    4    4    0    0 -0.42989590007E+03  0.46892723303E+03 -0.61113545453E+03  0.88538833727E+03  0.75648722487E+02 0.  0.
         13    1    3    3    0    0  0.41553476228E+03 -0.53361644281E+02 -0.44735829736E+03  0.61289970628E+03  0.00000000000E+00 0. -1.
        -13    1    3    3    0    0  0.18090054459E+03 -0.16813135705E+02 -0.11664073369E+03  0.21589985947E+03  0.00000000000E+00 0.  1.
          4    1    6    6  502    0 -0.31922516771E+02  0.70835664189E+02 -0.70707706672E+02  0.10505388227E+03  0.00000000000E+00 0. -1.
          1    1    5    5  503    0 -0.18971984680E+02 -0.10358624324E+03 -0.15956427266E+03  0.19118264331E+03  0.00000000000E+00 0. -1.
         -2    1    5    5    0  503 -0.14756742212E+03 -0.29516620980E+03 -0.32940040741E+03  0.46626587252E+03  0.00000000000E+00 0.  1.
         -3    1    6    6    0  502 -0.39797338330E+03  0.39809156884E+03 -0.54042774786E+03  0.78033445499E+03  0.00000000000E+00 0.  1.
<mgrwt>
<rscale>  0 0.16898027E+04</rscale>
<asrwt>0</asrwt>
<pdfrwt beam="1">  1        2 0.31044121E+00 0.16898027E+04</pdfrwt>
<pdfrwt beam="2">  1       -2 0.54425941E-01 0.16898027E+04</pdfrwt>
<totfact> 0.19762403E+01</totfact>
</mgrwt>
</event>
<event>
12    1  0.2433511E-007  0.2997751E+04  0.7818608E-02  0.8244373E-01
          1   -1    0    0  501    0  0.00000000000E+00  0.00000000000E+00  0.24407702914E+04  0.24407702914E+04  0.00000000000E+00 0. -1.
         -1   -1    0    0    0  501 -0.00000000000E+00 -0.00000000000E+00 -0.92045859365E+03  0.92045859365E+03  0.00000000000E+00 0.  1.
         23    2    1    2    0    0 -0.12315484046E+04  0.46703266593E+03  0.30604658261E+03  0.13552723114E+04  0.90926032928E+02 0.  0.
        254    2    1    2    0    0  0.12315484046E+04 -0.46703266593E+03  0.12142651151E+04  0.20059565736E+04  0.90254696368E+03 0.  0.
        -24    2    4    4    0    0  0.23322168318E+03 -0.31904523967E+03 -0.27067285666E+02  0.40419224086E+03  0.80352418472E+02 0.  0.
         24    2    4    4    0    0  0.99832672139E+03 -0.14798742626E+03  0.12413324008E+04  0.16017643328E+04  0.78653210561E+02 0.  0.
         11    1    3    3    0    0 -0.89224365474E+03  0.29433257369E+03  0.21741350462E+03  0.96436457595E+03  0.00000000000E+00 0. -1.
        -11    1    3    3    0    0 -0.33930474984E+03  0.17270009223E+03  0.88633077997E+02  0.39090773545E+03  0.00000000000E+00 0.  1.
          2    1    6    6  502    0  0.52595883334E+03 -0.11593005104E+03  0.67861900871E+03  0.86636956900E+03  0.00000000000E+00 0. -1.
          3    1    5    5  503    0  0.65150625927E+02 -0.97687163351E+02 -0.44841161176E+02  0.12569055525E+03  0.00000000000E+00 0. -1.
         -4    1    5    5    0  503  0.16807105726E+03 -0.22135807632E+03  0.17773875511E+02  0.27850168561E+03  0.00000000000E+00 0.  1.
         -1    1    6    6    0  502  0.47236788805E+03 -0.32057375216E+02  0.56271339207E+03  0.73539476377E+03  0.00000000000E+00 0.  1.
<mgrwt>
<rscale>  0 0.29977512E+04</rscale>
<asrwt>0</asrwt>
<pdfrwt beam="1">  1        1 0.37550312E+00 0.29977512E+04</pdfrwt>
<pdfrwt beam="2">  1       -1 0.14160902E+00 0.29977512E+04</pdfrwt>
<totfact> 0.51538648E-01</totfact>
</mgrwt>
</event>
<event>
12    1  0.2433511E-007  0.1278323E+04  0.7818608E-02  0.9046934E-01
          2   -1    0    0  501    0  0.00000000000E+00  0.00000000000E+00  0.15091806924E+04  0.15091806924E+04  0.00000000000E+00 0. -1.
         -2   -1    0    0    0  501 -0.00000000000E+00 -0.00000000000E+00 -0.27069492255E+03  0.27069492255E+03  0.00000000000E+00 0.  1.
         23    2    1    2    0    0 -0.17578650148E+03  0.10640061547E+03  0.64218482054E+03  0.67980205622E+03  0.86645870252E+02 0.  0.
        254    2    1    2    0    0  0.17578650148E+03 -0.10640061547E+03  0.59630094929E+03  0.11000735587E+04  0.90131294642E+03 0.  0.
        -24    2    4    4    0    0 -0.93997162575E+02  0.21954726332E+03  0.61954399880E+03  0.66872607181E+03  0.79519338955E+02 0.  0.
         24    2    4    4    0    0  0.26978366406E+03 -0.32594787880E+03 -0.23243049506E+02  0.43134748690E+03  0.80592617660E+02 0.  0.
         13    1    3    3    0    0 -0.17892807208E+03  0.79810290417E+02  0.55272371442E+03  0.58642002176E+03  0.00000000000E+00 0. -1.
        -13    1    3    3    0    0  0.31415705947E+01  0.26590325055E+02  0.89461106120E+02  0.93382034464E+02  0.00000000000E+00 0.  1.
          2    1    6    6  502    0  0.17008414802E+02 -0.65606503986E+02 -0.67574337069E+00  0.67778729469E+02  0.00000000000E+00 0. -1.
          3    1    5    5  503    0 -0.14833369274E+02  0.68497763793E+02  0.10159368256E+03  0.12342304819E+03  0.00000000000E+00 0. -1.
         -4    1    5    5    0  503 -0.79163793301E+02  0.15104949953E+03  0.51795031624E+03  0.54530302362E+03  0.00000000000E+00 0.  1.
         -1    1    6    6    0  502  0.25277524926E+03 -0.26034137481E+03 -0.22567306135E+02  0.36356875743E+03  0.00000000000E+00 0.  1.
<mgrwt>
<rscale>  0 0.12783232E+04</rscale>
<asrwt>0</asrwt>
<pdfrwt beam="1">  1        2 0.23218164E+00 0.12783232E+04</pdfrwt>
<pdfrwt beam="2">  1       -2 0.41645374E-01 0.12783232E+04</pdfrwt>
<totfact> 0.67239575E+01</totfact>
</mgrwt>
</event>
<event>
12    1  0.2433511E-007  0.2544751E+04  0.7818608E-02  0.8387214E-01
         -1   -1    0    0    0  501 -0.00000000000E+00  0.00000000000E+00  0.62535811633E+03  0.62535811633E+03  0.00000000000E+00 0. -1.
          1   -1    0    0  501    0  0.00000000000E+00 -0.00000000000E+00 -0.25888206017E+04  0.25888206017E+04  0.00000000000E+00 0.  1.
         23    2    1    2    0    0  0.89700397705E+03 -0.36102879330E+02 -0.16867087358E+04  0.19126399278E+04  0.85355615713E+02 0.  0.
        254    2    1    2    0    0 -0.89700397705E+03  0.36102879330E+02 -0.27675374958E+03  0.13015387903E+04  0.90082797024E+03 0.  0.
        -24    2    4    4    0    0 -0.17395943594E+03 -0.25293587665E+03 -0.39884547184E+03  0.50925405846E+03  0.77611484937E+02 0.  0.
         24    2    4    4    0    0 -0.72304454111E+03  0.28903875598E+03  0.12209172226E+03  0.79228473182E+03  0.80448099700E+02 0.  0.
         11    1    3    3    0    0  0.28330960198E+03 -0.36073284637E+02 -0.60347833698E+03  0.66764640016E+03  0.00000000000E+00 0.  1.
        -11    1    3    3    0    0  0.61369437506E+03 -0.29594693052E-01 -0.10832303988E+04  0.12449935276E+04  0.00000000000E+00 0. -1.
          2    1    6    6  502    0 -0.27883807807E+03  0.15256426781E+03  0.39269858402E+02  0.32026340936E+03  0.00000000000E+00 0. -1.
          1    1    5    5  503    0 -0.15509128187E+03 -0.25414993548E+03 -0.37526864306E+03  0.47903241005E+03  0.00000000000E+00 0. -1.
         -2    1    5    5    0  503 -0.18868154061E+02  0.12140588306E+01 -0.23576828788E+02  0.30221648403E+02  0.00000000000E+00 0.  1.
         -1    1    6    6    0  502 -0.44420646304E+03  0.13647448817E+03  0.82821863862E+02  0.47202132247E+03  0.00000000000E+00 0.  1.
<mgrwt>
<rscale>  0 0.25447514E+04</rscale>
<asrwt>0</asrwt>
<pdfrwt beam="1">  1        1 0.39828009E+00 0.25447514E+04</pdfrwt>
<pdfrwt beam="2">  1       -1 0.96208943E-01 0.25447514E+04</pdfrwt>
<totfact> 0.10815804E+00</totfact>
</mgrwt>
</event>
<event>
12    1  0.2433511E-007  0.1798794E+04  0.7818608E-02  0.8706941E-01
          2   -1    0    0  501    0  0.00000000000E+00  0.00000000000E+00  0.15629712679E+04  0.15629712679E+04  0.00000000000E+00 0. -1.
         -2   -1    0    0    0  501 -0.00000000000E+00 -0.00000000000E+00 -0.51754928623E+03  0.51754928623E+03  0.00000000000E+00 0.  1.
         23    2    1    2    0    0  0.60623549402E+03  0.28498507432E+03  0.36255150546E+03  0.76715815335E+03  0.91378724832E+02 0.  0.
        254    2    1    2    0    0 -0.60623549402E+03 -0.28498507432E+03  0.68287047616E+03  0.13133624007E+04  0.89992818694E+03 0.  0.
        -24    2    4    4    0    0  0.10325576554E+03 -0.13112725319E+03 -0.12608056455E+03  0.22405875477E+03  0.80311314181E+02 0.  0.
         24    2    4    4    0    0 -0.70949125956E+03 -0.15385782113E+03  0.80895104071E+03  0.10893036460E+04  0.71627999563E+02 0.  0.
         13    1    3    3    0    0  0.23241397449E+03  0.88578130704E+02  0.18046953220E+03  0.30729723856E+03  0.00000000000E+00 0. -1.
        -13    1    3    3    0    0  0.37382151953E+03  0.19640694362E+03  0.18208197326E+03  0.45986091479E+03  0.00000000000E+00 0.  1.
          4    1    6    6  502    0 -0.32709822790E+02 -0.85896393319E+01  0.18260750061E+02  0.38433961591E+02  0.00000000000E+00 0. -1.
          1    1    5    5  503    0 -0.59121092349E+01 -0.96610916833E+01 -0.35592212324E+02  0.37350974636E+02  0.00000000000E+00 0. -1.
         -2    1    5    5    0  503  0.10916787478E+03 -0.12146616150E+03 -0.90488352226E+02  0.18670778013E+03  0.00000000000E+00 0.  1.
         -3    1    6    6    0  502 -0.67678143677E+03 -0.14526818180E+03  0.79069029065E+03  0.10508696844E+04  0.00000000000E+00 0.  1.
<mgrwt>
<rscale>  0 0.17987937E+04</rscale>
<asrwt>0</asrwt>
<pdfrwt beam="1">  1        2 0.24045712E+00 0.17987937E+04</pdfrwt>
<pdfrwt beam="2">  1       -2 0.79622968E-01 0.17987937E+04</pdfrwt>
<totfact> 0.15429888E+01</totfact>
</mgrwt>
</event>
<event>
12    1  0.2433511E-007  0.1352808E+04  0.7818608E-02  0.8988705E-01
         -1   -1    0    0    0  501 -0.00000000000E+00  0.00000000000E+00  0.34351852602E+03  0.34351852602E+03  0.00000000000E+00 0.  1.
          1   -1    0    0  501    0  0.00000000000E+00 -0.00000000000E+00 -0.13318719981E+04  0.13318719981E+04  0.00000000000E+00 0. -1.
         23    2    1    2    0    0  0.26864791757E+03 -0.23433740862E+03 -0.40004962497E+03  0.54442531174E+03  0.96298976796E+02 0.  0.
        254    2    1    2    0    0 -0.26864791757E+03  0.23433740862E+03 -0.58830384712E+03  0.11309652124E+04  0.89771664259E+03 0.  0.
        -24    2    4    4    0    0  0.54745695113E+02  0.36213625978E+03  0.70696009861E+02  0.38154511548E+03  0.80243302241E+02 0.  0.
         24    2    4    4    0    0 -0.32339361268E+03 -0.12779885116E+03 -0.65899985698E+03  0.74942009690E+03  0.80210317627E+02 0.  0.
         11    1    3    3    0    0  0.75571978651E+02 -0.28660895461E+02 -0.50752072312E+02  0.95437643149E+02  0.00000000000E+00 0.  1.
        -11    1    3    3    0    0  0.19307593892E+03 -0.20567651316E+03 -0.34929755266E+03  0.44898766859E+03  0.00000000000E+00 0. -1.
          2    1    6    6  502    0 -0.17990894933E+03 -0.56778791393E+02 -0.27611200472E+03  0.33440828391E+03  0.00000000000E+00 0. -1.
          3    1    5    5  503    0  0.65476230472E+02  0.23510730108E+03  0.21866701835E+02  0.24503210489E+03  0.00000000000E+00 0. -1.
         -4    1    5    5    0  503 -0.10730535359E+02  0.12702895870E+03  0.48829308026E+02  0.13651301059E+03  0.00000000000E+00 0.  1.
         -1    1    6    6    0  502 -0.14348466336E+03 -0.71020059769E+02 -0.38288785226E+03  0.41501181299E+03  0.00000000000E+00 0.  1.
<mgrwt>
<rscale>  0 0.13528085E+04</rscale>
<asrwt>0</asrwt>
<pdfrwt beam="1">  1        1 0.20490339E+00 0.13528085E+04</pdfrwt>
<pdfrwt beam="2">  1       -1 0.52849003E-01 0.13528085E+04</pdfrwt>
<totfact> 0.30316165E+01</totfact>
</mgrwt>
</event>
<event>
12    1  0.3573451E-007  0.2793421E+04  0.7818608E-02  0.8305314E-01
         -2   -1    0    0    0  501 -0.00000000000E+00  0.00000000000E+00  0.94855448992E+03  0.94855448992E+03  0.00000000000E+00 0.  1.
          2   -1    0    0  501    0  0.00000000000E+00 -0.00000000000E+00 -0.20566029407E+04  0.20566029407E+04  0.00000000000E+00 0. -1.
         23    2    1    2    0    0  0.55672789140E+03 -0.10629896135E+04 -0.12269542441E+03  0.12096535384E+04  0.91184714766E+02 0.  0.
        254    2    1    2    0    0 -0.55672789140E+03  0.10629896135E+04 -0.98535302641E+03  0.17955038923E+04  0.90167664765E+03 0.  0.
        -24    2    4    4    0    0  0.51238751607E+02  0.80022698785E+03 -0.36680023558E+03  0.88542046953E+03  0.80239350037E+02 0.  0.
         24    2    4    4    0    0 -0.60796664301E+03  0.26276262569E+03 -0.61855279083E+03  0.91008342273E+03  0.83526312155E+02 0.  0.
         13    1    3    3    0    0  0.16649671153E+03 -0.41231329953E+03 -0.49548577332E+02  0.44741309037E+03  0.00000000000E+00 0.  1.
        -13    1    3    3    0    0  0.39023117987E+03 -0.65067631402E+03 -0.73146847078E+02  0.76224044802E+03  0.00000000000E+00 0. -1.
          2    1    6    6  502    0 -0.23475869300E+02  0.57411002502E+00 -0.42556713460E+02  0.48605759970E+02  0.00000000000E+00 0. -1.
          1    1    5    5  503    0 -0.91075325107E+01  0.22729018003E+02 -0.21386185573E+02  0.32510372824E+02  0.00000000000E+00 0. -1.
         -2    1    5    5    0  503  0.60346284117E+02  0.77749796985E+03 -0.34541405001E+03  0.85291009671E+03  0.00000000000E+00 0.  1.
         -1    1    6    6    0  502 -0.58449077371E+03  0.26218851567E+03 -0.57599607737E+03  0.86147766276E+03  0.00000000000E+00 0.  1.
<mgrwt>
<rscale>  0 0.27934208E+04</rscale>
<asrwt>0</asrwt>
<pdfrwt beam="1">  1        2 0.31640045E+00 0.27934208E+04</pdfrwt>
<pdfrwt beam="2">  1       -2 0.14593146E+00 0.27934208E+04</pdfrwt>
<totfact> 0.17429820E+00</totfact>
</mgrwt>
</event>
<event>
12    1  0.2433511E-007  0.2998962E+04  0.7818608E-02  0.8244027E-01
         -2   -1    0    0    0  501 -0.00000000000E+00  0.00000000000E+00  0.19573208555E+04  0.19573208555E+04  0.00000000000E+00 0. -1.
          2   -1    0    0  501    0  0.00000000000E+00 -0.00000000000E+00 -0.11487352451E+04  0.11487352451E+04  0.00000000000E+00 0.  1.
         23    2    1    2    0    0  0.10413774173E+04 -0.77127200607E+03 -0.66493717948E+02  0.13011540377E+04  0.96192424747E+02 0.  0.
        254    2    1    2    0    0 -0.10413774173E+04  0.77127200607E+03  0.87507932834E+03  0.18049020630E+04  0.90143230117E+03 0.  0.
        -24    2    4    4    0    0  0.28682611768E+02 -0.10604275676E+03 -0.44989343528E+02  0.14126498055E+03  0.76576727668E+02 0.  0.
         24    2    4    4    0    0 -0.10700600291E+04  0.87731476283E+03  0.92006867187E+03  0.16636370825E+04  0.80326348837E+02 0.  0.
         13    1    3    3    0    0  0.62341242496E+03 -0.47566465335E+03  0.55394164740E+01  0.78417510747E+03  0.00000000000E+00 0. -1.
        -13    1    3    3    0    0  0.41796499233E+03 -0.29560735272E+03 -0.72033134422E+02  0.51697893018E+03  0.00000000000E+00 0.  1.
          2    1    6    6  502    0 -0.84659458411E+03  0.72430236424E+03  0.71371171382E+03  0.13231480322E+04  0.00000000000E+00 0. -1.
          3    1    5    5  503    0 -0.10477555103E+02 -0.39975667937E+02  0.14840690077E+02  0.43909899452E+02  0.00000000000E+00 0. -1.
         -4    1    5    5    0  503  0.39160166871E+02 -0.66067088824E+02 -0.59830033605E+02  0.97355081102E+02  0.00000000000E+00 0.  1.
         -1    1    6    6    0  502 -0.22346544495E+03  0.15301239859E+03  0.20635695805E+03  0.34048905026E+03  0.00000000000E+00 0.  1.
<mgrwt>
<rscale>  0 0.29989621E+04</rscale>
<asrwt>0</asrwt>
<pdfrwt beam="1">  1        2 0.17672850E+00 0.29989621E+04</pdfrwt>
<pdfrwt beam="2">  1       -2 0.30112628E+00 0.29989621E+04</pdfrwt>
<totfact> 0.54464124E-01</totfact>
</mgrwt>
</event>
<event>
12    1  0.2433511E-007  0.2448359E+04  0.7818608E-02  0.8421617E-01
         -2   -1    0    0    0  501 -0.00000000000E+00  0.00000000000E+00  0.82255231996E+03  0.82255231996E+03  0.00000000000E+00 0. -1.
          2   -1    0    0  501    0  0.00000000000E+00 -0.00000000000E+00 -0.18219090734E+04  0.18219090734E+04  0.00000000000E+00 0.  1.
         23    2    1    2    0    0  0.87702223562E+03  0.28102255068E+03 -0.99164795936E+03  0.13563932315E+04  0.91078249429E+02 0.  0.
        254    2    1    2    0    0 -0.87702223562E+03 -0.28102255068E+03 -0.77087941185E+01  0.12880681619E+04  0.90051012672E+03 0.  0.
        -24    2    4    4    0    0  0.65404594175E+02  0.15213147911E+03  0.14520762299E+03  0.23644885063E+03  0.86029397951E+02 0.  0.
         24    2    4    4    0    0 -0.94242682979E+03 -0.43315402980E+03 -0.15291641711E+03  0.10516193112E+04  0.82030494843E+02 0.  0.
         13    1    3    3    0    0  0.27842824396E+03  0.10092781765E+03 -0.26017836641E+03  0.39420996151E+03  0.00000000000E+00 0. -1.
        -13    1    3    3    0    0  0.59859399166E+03  0.18009473304E+03 -0.73146959295E+03  0.96218327003E+03  0.00000000000E+00 0.  1.
          2    1    6    6  502    0 -0.13383071514E+03 -0.42996845845E+02  0.18175660415E+01  0.14057984427E+03  0.00000000000E+00 0. -1.
          1    1    5    5  503    0 -0.41164236216E+00  0.56135140281E+02  0.93567468022E+02  0.10911550988E+03  0.00000000000E+00 0. -1.
         -2    1    5    5    0  503  0.65816236537E+02  0.95996338833E+02  0.51640154968E+02  0.12733334075E+03  0.00000000000E+00 0.  1.
         -1    1    6    6    0  502 -0.80859611465E+03 -0.39015718395E+03 -0.15473398315E+03  0.91103946696E+03  0.00000000000E+00 0.  1.
<mgrwt>
<rscale>  0 0.24483591E+04</rscale>
<asrwt>0</asrwt>
<pdfrwt beam="1">  1        2 0.28029370E+00 0.24483591E+04</pdfrwt>
<pdfrwt beam="2">  1       -2 0.12654651E+00 0.24483591E+04</pdfrwt>
<totfact> 0.34939202E+00</totfact>
</mgrwt>
</event>
<event>
12    1  0.2433511E-007  0.1754217E+04  0.7818608E-02  0.8731032E-01
         -1   -1    0    0    0  501 -0.00000000000E+00  0.00000000000E+00  0.89362283019E+03  0.89362283019E+03  0.00000000000E+00 0.  1.
          1   -1    0    0  501    0  0.00000000000E+00 -0.00000000000E+00 -0.86089972236E+03  0.86089972236E+03  0.00000000000E+00 0. -1.
         23    2    1    2    0    0  0.48979054487E+02  0.54707158562E+03  0.34526911642E+03  0.65507005949E+03  0.90662850770E+02 0.  0.
        254    2    1    2    0    0 -0.48979054487E+02 -0.54707158562E+03 -0.31254600859E+03  0.10994524931E+04  0.89968022620E+03 0.  0.
        -24    2    4    4    0    0 -0.41145574351E+03 -0.38452139951E+03  0.29288474781E+02  0.56931041816E+03  0.78128112264E+02 0.  0.
         24    2    4    4    0    0  0.36247668902E+03 -0.16255018611E+03 -0.34183448337E+03  0.53014207489E+03  0.79924292070E+02 0.  0.
         11    1    3    3    0    0  0.36493791693E+02  0.84289808640E+02  0.37837963818E+02  0.99339217727E+02  0.00000000000E+00 0. -1.
        -11    1    3    3    0    0  0.12485262794E+02  0.46278177698E+03  0.30743115260E+03  0.55573084176E+03  0.00000000000E+00 0.  1.
          2    1    6    6  502    0  0.16645243331E+02 -0.97297013343E+01  0.16146108233E+01  0.19347821110E+02  0.00000000000E+00 0. -1.
          1    1    5    5  503    0 -0.43573716575E+02 -0.49716025744E+02  0.28230687249E+02  0.71884099038E+02  0.00000000000E+00 0. -1.
         -2    1    5    5    0  503 -0.36788202693E+03 -0.33480537377E+03  0.10577875319E+01  0.49742631913E+03  0.00000000000E+00 0.  1.
         -1    1    6    6    0  502  0.34583144569E+03 -0.15282048478E+03 -0.34344909419E+03  0.51079425378E+03  0.00000000000E+00 0.  1.
<mgrwt>
<rscale>  0 0.17542174E+04</rscale>
<asrwt>0</asrwt>
<pdfrwt beam="1">  1        1 0.13244611E+00 0.17542174E+04</pdfrwt>
<pdfrwt beam="2">  1       -1 0.13748043E+00 0.17542174E+04</pdfrwt>
<totfact> 0.81649117E+00</totfact>
</mgrwt>
</event>
<event>
12    1  0.2433511E-007  0.2948514E+04  0.7818608E-02  0.8258588E-01
          3   -1    0    0  501    0  0.00000000000E+00  0.00000000000E+00  0.73236801894E+03  0.73236801894E+03  0.00000000000E+00 0. -1.
         -3   -1    0    0    0  501 -0.00000000000E+00 -0.00000000000E+00 -0.29676787688E+04  0.29676787688E+04  0.00000000000E+00 0.  1.
         23    2    1    2    0    0  0.95481764071E+02  0.89824164834E+03 -0.22437534515E+04  0.24213760777E+04  0.11259543860E+03 0.  0.
        254    2    1    2    0    0 -0.95481764071E+02 -0.89824164834E+03  0.84427016309E+01  0.12786707100E+04  0.90497109303E+03 0.  0.
        -24    2    4    4    0    0 -0.43726268299E+02 -0.89853401088E+03  0.31653391373E+03  0.95710339745E+03  0.81103881623E+02 0.  0.
         24    2    4    4    0    0 -0.51755495771E+02  0.29236253736E+00 -0.30809121209E+03  0.32156731252E+03  0.76201211892E+02 0.  0.
         11    1    3    3    0    0 -0.74435876087E+01  0.37045143244E+03 -0.83675453283E+03  0.91512175092E+03  0.00000000000E+00 0. -1.
        -11    1    3    3    0    0  0.10292535168E+03  0.52779021590E+03 -0.14069989186E+04  0.15062543268E+04  0.00000000000E+00 0.  1.
          2    1    6    6  502    0 -0.41333251821E+02  0.35648507325E+02 -0.20250494656E+03  0.20973198888E+03  0.00000000000E+00 0. -1.
          3    1    5    5  503    0  0.18498767183E+02 -0.45255103752E+03  0.15606408893E+03  0.47906225671E+03  0.00000000000E+00 0. -1.
         -4    1    5    5    0  503 -0.62225035483E+02 -0.44598297336E+03  0.16046982480E+03  0.47804114074E+03  0.00000000000E+00 0.  1.
         -1    1    6    6    0  502 -0.10422243950E+02 -0.35356144787E+02 -0.10558626554E+03  0.11183532364E+03  0.00000000000E+00 0.  1.
<mgrwt>
<rscale>  0 0.29485135E+04</rscale>
<asrwt>0</asrwt>
<pdfrwt beam="1">  1        3 0.11267200E+00 0.29485135E+04</pdfrwt>
<pdfrwt beam="2">  1       -3 0.45656597E+00 0.29485135E+04</pdfrwt>
<totfact> 0.76322392E-03</totfact>
</mgrwt>
</event>
<event>
12    1  0.2433511E-007  0.2427685E+04  0.7818608E-02  0.8429211E-01
          1   -1    0    0  501    0  0.00000000000E+00  0.00000000000E+00  0.18716286026E+04  0.18716286026E+04  0.00000000000E+00 0. -1.
         -1   -1    0    0    0  501 -0.00000000000E+00 -0.00000000000E+00 -0.78723620223E+03  0.78723620223E+03  0.00000000000E+00 0.  1.
         23    2    1    2    0    0  0.62607367746E+02  0.75006323642E+03 -0.32537995793E+03  0.82508519606E+03  0.91536455023E+02 0.  0.
        254    2    1    2    0    0 -0.62607367746E+02 -0.75006323642E+03  0.14097723583E+04  0.18337796087E+04  0.89931919260E+03 0.  0.
        -24    2    4    4    0    0  0.15526848871E+03 -0.21198533778E+03 -0.32647582282E+02  0.27693029160E+03  0.81107550548E+02 0.  0.
         24    2    4    4    0    0 -0.21787585646E+03 -0.53807789864E+03  0.14424199405E+04  0.15568493171E+04  0.78783231480E+02 0.  0.
         11    1    3    3    0    0  0.54423895933E+01  0.23201190215E+03 -0.14454720569E+03  0.27341001631E+03  0.00000000000E+00 0.  1.
        -11    1    3    3    0    0  0.57164978153E+02  0.51805133427E+03 -0.18083275224E+03  0.55167517975E+03  0.00000000000E+00 0. -1.
          2    1    6    6  502    0  0.37747476661E+01 -0.38225227909E+00  0.53933355843E+01  0.65941569190E+01  0.00000000000E+00 0. -1.
          3    1    5    5  503    0  0.47357271739E+02 -0.14232364396E+02 -0.10608746821E+02  0.50574864231E+02  0.00000000000E+00 0. -1.
         -4    1    5    5    0  503  0.10791121697E+03 -0.19775297338E+03 -0.22038835461E+02  0.22635542737E+03  0.00000000000E+00 0.  1.
         -1    1    6    6    0  502 -0.22165060412E+03 -0.53769564636E+03  0.14370266049E+04  0.15502551602E+04  0.00000000000E+00 0.  1.
<mgrwt>
<rscale>  0 0.24276851E+04</rscale>
<asrwt>0</asrwt>
<pdfrwt beam="1">  1        1 0.28794286E+00 0.24276851E+04</pdfrwt>
<pdfrwt beam="2">  1       -1 0.12111326E+00 0.24276851E+04</pdfrwt>
<totfact> 0.19702218E+00</totfact>
</mgrwt>
</event>
<event>
12    1  0.2433511E-007  0.2368765E+04  0.7818608E-02  0.8451291E-01
         -2   -1    0    0    0  501 -0.00000000000E+00  0.00000000000E+00  0.11275779944E+04  0.11275779944E+04  0.00000000000E+00 0. -1.
          2   -1    0    0  501    0  0.00000000000E+00 -0.00000000000E+00 -0.12440491081E+04  0.12440491081E+04  0.00000000000E+00 0.  1.
         23    2    1    2    0    0 -0.95134219842E+03 -0.77054018406E+02 -0.38653053020E+03  0.10337858729E+04  0.91203508269E+02 0.  0.
        254    2    1    2    0    0  0.95134219842E+03  0.77054018406E+02  0.27005941647E+03  0.13378412296E+04  0.89771808882E+03 0.  0.
        -24    2    4    4    0    0  0.40699135775E+03 -0.18275376944E+03 -0.26718243729E+03  0.52607535976E+03  0.79548248416E+02 0.  0.
         24    2    4    4    0    0  0.54435084068E+03  0.25980778785E+03  0.53724185376E+03  0.81176586986E+03  0.80728518314E+02 0.  0.
         11    1    3    3    0    0 -0.51362565865E+03 -0.64985241808E+02 -0.16724313103E+03  0.54406310641E+03  0.00000000000E+00 0. -1.
        -11    1    3    3    0    0 -0.43771653977E+03 -0.12068776598E+02 -0.21928739917E+03  0.48972276647E+03  0.00000000000E+00 0.  1.
          4    1    6    6  502    0  0.36689608529E+02  0.24092525697E+02  0.70174510405E+02  0.82771003854E+02  0.00000000000E+00 0. -1.
          1    1    5    5  503    0  0.12141776588E+03 -0.18319178414E+02 -0.58407334201E+02  0.13597530238E+03  0.00000000000E+00 0. -1.
         -2    1    5    5    0  503  0.28557359186E+03 -0.16443459103E+03 -0.20877510309E+03  0.39010005738E+03  0.00000000000E+00 0.  1.
         -3    1    6    6    0  502  0.50766123215E+03  0.23571526215E+03  0.46706734335E+03  0.72899486601E+03  0.00000000000E+00 0.  1.
<mgrwt>
<rscale>  0 0.23687654E+04</rscale>
<asrwt>0</asrwt>
<pdfrwt beam="1">  1        2 0.19139217E+00 0.23687654E+04</pdfrwt>
<pdfrwt beam="2">  1       -2 0.17347354E+00 0.23687654E+04</pdfrwt>
<totfact> 0.32378639E+00</totfact>
</mgrwt>
</event>
<event>
12    1  0.2433511E-007  0.3549608E+04  0.7818608E-02  0.8102133E-01
          2   -1    0    0  501    0  0.00000000000E+00  0.00000000000E+00  0.15239037882E+04  0.15239037882E+04  0.00000000000E+00 0. -1.
         -2   -1    0    0    0  501 -0.00000000000E+00 -0.00000000000E+00 -0.20670128013E+04  0.20670128013E+04  0.00000000000E+00 0.  1.
         23    2    1    2    0    0 -0.15365837907E+04 -0.61788950925E+03 -0.35587290153E+03  0.16964055504E+04  0.90934469043E+02 0.  0.
        254    2    1    2    0    0  0.15365837907E+04  0.61788950925E+03 -0.18723611156E+03  0.18945110392E+04  0.90068725118E+03 0.  0.
        -24    2    4    4    0    0 -0.75707803696E+02  0.99794333592E+02  0.94658789395E+02  0.17595625770E+03  0.79433857113E+02 0.  0.
         24    2    4    4    0    0  0.16122915944E+04  0.51809517566E+03 -0.28189490095E+03  0.17185547815E+04  0.77839611964E+02 0.  0.
         13    1    3    3    0    0 -0.12181216239E+04 -0.49806758570E+03 -0.31924371820E+03  0.13541817315E+04  0.00000000000E+00 0.  1.
        -13    1    3    3    0    0 -0.31846216686E+03 -0.11982192356E+03 -0.36629183336E+02  0.34222381881E+03  0.00000000000E+00 0. -1.
          2    1    6    6  502    0  0.29690922397E+03  0.64078375488E+02 -0.50700702671E+02  0.30794753893E+03  0.00000000000E+00 0. -1.
          3    1    5    5  503    0 -0.91228989692E+02  0.82022686636E+02  0.89355301590E+02  0.15177226231E+03  0.00000000000E+00 0. -1.
         -4    1    5    5    0  503  0.15521185996E+02  0.17771646956E+02  0.53034878045E+01  0.24183995392E+02  0.00000000000E+00 0.  1.
         -1    1    6    6    0  502  0.13153823705E+04  0.45401680018E+03 -0.23119419828E+03  0.14106072425E+04  0.00000000000E+00 0.  1.
<mgrwt>
<rscale>  0 0.35496077E+04</rscale>
<asrwt>0</asrwt>
<pdfrwt beam="1">  1        2 0.23444674E+00 0.35496077E+04</pdfrwt>
<pdfrwt beam="2">  1       -2 0.31800197E+00 0.35496077E+04</pdfrwt>
<totfact> 0.24803729E-01</totfact>
</mgrwt>
</event>
<event>
12    1  0.2433511E-007  0.2625722E+04  0.7818608E-02  0.8359516E-01
          1   -1    0    0  501    0  0.00000000000E+00  0.00000000000E+00  0.26289612969E+04  0.26289612969E+04  0.00000000000E+00 0. -1.
         -1   -1    0    0    0  501 -0.00000000000E+00 -0.00000000000E+00 -0.65562170178E+03  0.65562170178E+03  0.00000000000E+00 0.  1.
         23    2    1    2    0    0 -0.86527710645E+03 -0.61225304097E+03  0.29278487521E+03  0.11034891160E+04  0.91689633786E+02 0.  0.
        254    2    1    2    0    0  0.86527710645E+03  0.61225304097E+03  0.16805547199E+04  0.21810938826E+04  0.89963776104E+03 0.  0.
        -24    2    4    4    0    0  0.10317822483E+04  0.46635778477E+03  0.12353242116E+04  0.16776348088E+04  0.79802584541E+02 0.  0.
         24    2    4    4    0    0 -0.16650514188E+03  0.14589525619E+03  0.44523050824E+03  0.50345907378E+03  0.78939505049E+02 0.  0.
         13    1    3    3    0    0 -0.30478546613E+03 -0.26996686782E+03  0.11668611392E+03  0.42354685604E+03  0.00000000000E+00 0.  1.
        -13    1    3    3    0    0 -0.56049164033E+03 -0.34228617315E+03  0.17609876129E+03  0.67994226000E+03  0.00000000000E+00 0. -1.
          2    1    6    6  502    0 -0.86434873312E+02  0.12224214854E+03  0.31492717249E+03  0.34870224286E+03  0.00000000000E+00 0. -1.
          1    1    5    5  503    0  0.31241240744E+03  0.10152268563E+03  0.35646158449E+03  0.48474037303E+03  0.00000000000E+00 0. -1.
         -2    1    5    5    0  503  0.71936984089E+03  0.36483509914E+03  0.87886262714E+03  0.11928944358E+04  0.00000000000E+00 0.  1.
         -1    1    6    6    0  502 -0.80070268565E+02  0.23653107652E+02  0.13030333575E+03  0.15475683092E+03  0.00000000000E+00 0.  1.
<mgrwt>
<rscale>  0 0.26257221E+04</rscale>
<asrwt>0</asrwt>
<pdfrwt beam="1">  1        1 0.40445558E+00 0.26257221E+04</pdfrwt>
<pdfrwt beam="2">  1       -1 0.10086488E+00 0.26257221E+04</pdfrwt>
<totfact> 0.90385800E-01</totfact>
</mgrwt>
</event>
<event>
12    1  0.2433511E-007  0.1530780E+04  0.7818608E-02  0.8864239E-01
         -2   -1    0    0    0  501 -0.00000000000E+00  0.00000000000E+00  0.10011124947E+04  0.10011124947E+04  0.00000000000E+00 0.  1.
          2   -1    0    0  501    0  0.00000000000E+00 -0.00000000000E+00 -0.58517084302E+03  0.58517084302E+03  0.00000000000E+00 0. -1.
         23    2    1    2    0    0  0.11564475007E+03  0.45366685864E+03 -0.30983153786E+02  0.47807277819E+03  0.91685869012E+02 0.  0.
        254    2    1    2    0    0 -0.11564475007E+03 -0.45366685864E+03  0.44692480543E+03  0.11082105595E+04  0.89955629930E+03 0.  0.
        -24    2    4    4    0    0 -0.99056272560E+02  0.11429014837E+03  0.50340008483E+03  0.53160860893E+03  0.79509021722E+02 0.  0.
         24    2    4    4    0    0 -0.16588477506E+02 -0.56795700701E+03 -0.56475279403E+02  0.57660195056E+03  0.80187360632E+02 0.  0.
         11    1    3    3    0    0  0.35475883995E+02  0.25519656078E+03  0.18713045785E+02  0.25832924933E+03  0.00000000000E+00 0.  1.
        -11    1    3    3    0    0  0.80168866071E+02  0.19847029786E+03 -0.49696199571E+02  0.21974352885E+03  0.00000000000E+00 0. -1.
          2    1    6    6  502    0 -0.17686020754E+02 -0.54918399086E+03 -0.38869781034E+02  0.55084182033E+03  0.00000000000E+00 0. -1.
          3    1    5    5  503    0 -0.92996895835E+02  0.59584994222E+02  0.26814714466E+03  0.29000290578E+03  0.00000000000E+00 0. -1.
         -4    1    5    5    0  503 -0.60593767247E+01  0.54705154145E+02  0.23525294017E+03  0.24160570315E+03  0.00000000000E+00 0.  1.
         -1    1    6    6    0  502  0.10975432478E+01 -0.18773016153E+02 -0.17605498369E+02  0.25760130230E+02  0.00000000000E+00 0.  1.
<mgrwt>
<rscale>  0 0.15307800E+04</rscale>
<asrwt>0</asrwt>
<pdfrwt beam="1">  1        2 0.90026284E-01 0.15307800E+04</pdfrwt>
<pdfrwt beam="2">  1       -2 0.15401731E+00 0.15307800E+04</pdfrwt>
<totfact> 0.13749168E+01</totfact>
</mgrwt>
</event>
<event>
12    1  0.2433511E-007  0.2078335E+04  0.7818608E-02  0.8570847E-01
         -2   -1    0    0    0  501 -0.00000000000E+00  0.00000000000E+00  0.44158670718E+03  0.44158670718E+03  0.00000000000E+00 0.  1.
          2   -1    0    0  501    0  0.00000000000E+00 -0.00000000000E+00 -0.24454295589E+04  0.24454295589E+04  0.00000000000E+00 0. -1.
         23    2    1    2    0    0  0.69600607109E+03  0.29632847097E+03 -0.13269953628E+04  0.15298408900E+04  0.85214095893E+02 0.  0.
        254    2    1    2    0    0 -0.69600607109E+03 -0.29632847097E+03 -0.67684748890E+03  0.13571753761E+04  0.90087039271E+03 0.  0.
        -24    2    4    4    0    0  0.53820666532E+00  0.15325069496E+03  0.11547628167E+03  0.20754419827E+03  0.79080702046E+02 0.  0.
         24    2    4    4    0    0 -0.69654427775E+03 -0.44957916592E+03 -0.79232377057E+03  0.11496311778E+04  0.81114303542E+02 0.  0.
         13    1    3    3    0    0  0.32757956386E+03  0.18537281762E+03 -0.66744080054E+03  0.76625627201E+03  0.00000000000E+00 0. -1.
        -13    1    3    3    0    0  0.36842650723E+03  0.11095565335E+03 -0.65955456226E+03  0.76358461799E+03  0.00000000000E+00 0.  1.
          4    1    6    6  502    0 -0.55059893513E+03 -0.31434965034E+03 -0.60565633475E+03  0.87680926424E+03  0.00000000000E+00 0. -1.
          1    1    5    5  503    0  0.13279852125E+02  0.15652493505E+03  0.11443070092E+03  0.19434709949E+03  0.00000000000E+00 0. -1.
         -2    1    5    5    0  503 -0.12741645460E+02 -0.32742400933E+01  0.10455807455E+01  0.13197098783E+02  0.00000000000E+00 0.  1.
         -3    1    6    6    0  502 -0.14594534262E+03 -0.13522951558E+03 -0.18666743581E+03  0.27282191354E+03  0.00000000000E+00 0.  1.
<mgrwt>
<rscale>  0 0.20783351E+04</rscale>
<asrwt>0</asrwt>
<pdfrwt beam="1">  1        2 0.37621994E+00 0.20783351E+04</pdfrwt>
<pdfrwt beam="2">  1       -2 0.67936415E-01 0.20783351E+04</pdfrwt>
<totfact> 0.68588861E+00</totfact>
</mgrwt>
</event>
<event>
12    1  0.2433511E-007  0.2501873E+04  0.7818608E-02  0.8402319E-01
          1   -1    0    0  501    0  0.00000000000E+00  0.00000000000E+00  0.29402902622E+04  0.29402902622E+04  0.00000000000E+00 0. -1.
         -1   -1    0    0    0  501 -0.00000000000E+00 -0.00000000000E+00 -0.53220671168E+03  0.53220671168E+03  0.00000000000E+00 0.  1.
         23    2    1    2    0    0 -0.71939307612E+03 -0.53718398736E+03  0.19009263684E+04  0.21040518616E+04  0.86140258893E+02 0.  0.
        254    2    1    2    0    0  0.71939307612E+03  0.53718398736E+03  0.50715718218E+03  0.13684451123E+04  0.89963358299E+03 0.  0.
        -24    2    4    4    0    0  0.35464815709E+03  0.64505444312E+03  0.14918724102E+02  0.74060436238E+03  0.80010645077E+02 0.  0.
         24    2    4    4    0    0  0.36474491903E+03 -0.10787045576E+03  0.49223845808E+03  0.62784074991E+03  0.84914171063E+02 0.  0.
         13    1    3    3    0    0 -0.36444642617E+03 -0.24742475105E+03  0.84267580125E+03  0.95086419167E+03  0.00000000000E+00 0. -1.
        -13    1    3    3    0    0 -0.35494664995E+03 -0.28975923631E+03  0.10582505671E+04  0.11531876700E+04  0.00000000000E+00 0.  1.
          2    1    6    6  502    0  0.84601243828E+02 -0.32753606046E+02  0.65613981719E+02  0.11196143873E+03  0.00000000000E+00 0. -1.
          3    1    5    5  503    0  0.11232893674E+03  0.13941166705E+03  0.17526912654E+02  0.17989051005E+03  0.00000000000E+00 0. -1.
         -4    1    5    5    0  503  0.24231922035E+03  0.50564277607E+03 -0.26081885512E+01  0.56071385233E+03  0.00000000000E+00 0.  1.
         -1    1    6    6    0  502  0.28014367520E+03 -0.75116849710E+02  0.42662447636E+03  0.51587931117E+03  0.00000000000E+00 0.  1.
<mgrwt>
<rscale>  0 0.25018731E+04</rscale>
<asrwt>0</asrwt>
<pdfrwt beam="1">  1        1 0.45235234E+00 0.25018731E+04</pdfrwt>
<pdfrwt beam="2">  1       -1 0.81877958E-01 0.25018731E+04</pdfrwt>
<totfact> 0.87094986E-01</totfact>
</mgrwt>
</event>
<event>
12    1  0.2433511E-007  0.1386250E+04  0.7818608E-02  0.8963832E-01
         -1   -1    0    0    0  501 -0.00000000000E+00  0.00000000000E+00  0.24960523525E+03  0.24960523525E+03  0.00000000000E+00 0.  1.
          1   -1    0    0  501    0  0.00000000000E+00 -0.00000000000E+00 -0.19247291373E+04  0.19247291373E+04  0.00000000000E+00 0. -1.
         23    2    1    2    0    0  0.34863541677E+03 -0.42333807045E+02 -0.21373901358E+03  0.42064738872E+03  0.89000307095E+02 0.  0.
        254    2    1    2    0    0 -0.34863541677E+03  0.42333807045E+02 -0.14613848885E+04  0.17536869838E+04  0.90356706444E+03 0.  0.
        -24    2    4    4    0    0  0.49662318959E+02  0.16701614891E+03  0.38822034322E+02  0.19447327362E+03  0.77148972023E+02 0.  0.
         24    2    4    4    0    0 -0.39829773573E+03 -0.12468234187E+03 -0.15002069228E+04  0.15592137102E+04  0.79622925307E+02 0.  0.
         11    1    3    3    0    0  0.10618997183E+03 -0.39946285114E+02 -0.32749111626E+02  0.11808691767E+03  0.00000000000E+00 0. -1.
        -11    1    3    3    0    0  0.24244544494E+03 -0.23875219304E+01 -0.18098990195E+03  0.30256047105E+03  0.00000000000E+00 0.  1.
          4    1    6    6  502    0 -0.23533908803E+02 -0.14694207510E+02 -0.19052456325E+03  0.19253408477E+03  0.00000000000E+00 0. -1.
          1    1    5    5  503    0 -0.11538343510E+02  0.33868799150E+02  0.31631893039E+02  0.47757780351E+02  0.00000000000E+00 0. -1.
         -2    1    5    5    0  503  0.61200662468E+02  0.13314734976E+03  0.71901412821E+01  0.14671549327E+03  0.00000000000E+00 0.  1.
         -3    1    6    6    0  502 -0.37476382693E+03 -0.10998813436E+03 -0.13096823595E+04  0.13666796254E+04  0.00000000000E+00 0.  1.
<mgrwt>
<rscale>  0 0.13862503E+04</rscale>
<asrwt>0</asrwt>
<pdfrwt beam="1">  1        1 0.29611219E+00 0.13862503E+04</pdfrwt>
<pdfrwt beam="2">  1       -1 0.38400804E-01 0.13862503E+04</pdfrwt>
<totfact> 0.21486175E+01</totfact>
</mgrwt>
</event>
<event>
12    1  0.2433511E-007  0.2384170E+04  0.7818608E-02  0.8445454E-01
         -1   -1    0    0    0  501 -0.00000000000E+00  0.00000000000E+00  0.49163263075E+03  0.49163263075E+03  0.00000000000E+00 0.  1.
          1   -1    0    0  501    0  0.00000000000E+00 -0.00000000000E+00 -0.28905060059E+04  0.28905060059E+04  0.00000000000E+00 0. -1.
         23    2    1    2    0    0 -0.93855402950E+03  0.35086055680E+03 -0.13004744722E+04  0.16441226093E+04  0.88985981865E+02 0.  0.
        254    2    1    2    0    0  0.93855402950E+03 -0.35086055680E+03 -0.10983989030E+04  0.17380160274E+04  0.90012930445E+03 0.  0.
        -24    2    4    4    0    0  0.20626494718E+03  0.13497648636E+03  0.74721502926E+02  0.26977679945E+03  0.80201859153E+02 0.  0.
         24    2    4    4    0    0  0.73228908231E+03 -0.48583704316E+03 -0.11731204059E+04  0.14682392279E+04  0.85029471917E+02 0.  0.
         13    1    3    3    0    0 -0.34011440503E+03  0.87655053089E+02 -0.42092080474E+03  0.54821121906E+03  0.00000000000E+00 0. -1.
        -13    1    3    3    0    0 -0.59843962447E+03  0.26320550371E+03 -0.87955366749E+03  0.10959113903E+04  0.00000000000E+00 0.  1.
          2    1    6    6  502    0  0.49479536522E+03 -0.28350084446E+03 -0.73120681167E+03  0.92728559985E+03  0.00000000000E+00 0. -1.
          3    1    5    5  503    0  0.20118656807E+03  0.13732021453E+03  0.85071927389E+02  0.25801183949E+03  0.00000000000E+00 0. -1.
         -4    1    5    5    0  503  0.50783791160E+01 -0.23437281612E+01 -0.10350424464E+02  0.11764959954E+02  0.00000000000E+00 0.  1.
         -1    1    6    6    0  502  0.23749371709E+03 -0.20233619871E+03 -0.44191359422E+03  0.54095362807E+03  0.00000000000E+00 0.  1.
<mgrwt>
<rscale>  0 0.23841704E+04</rscale>
<asrwt>0</asrwt>
<pdfrwt beam="1">  1        1 0.44469323E+00 0.23841704E+04</pdfrwt>
<pdfrwt beam="2">  1       -1 0.75635790E-01 0.23841704E+04</pdfrwt>
<totfact> 0.11314121E+00</totfact>
</mgrwt>
</event>
<event>
12    1  0.4162439E-007  0.2356843E+04  0.7818608E-02  0.8455840E-01
          1   -1    0    0  501    0  0.00000000000E+00  0.00000000000E+00  0.14893666514E+04  0.14893666514E+04  0.00000000000E+00 0. -1.
         -1   -1    0    0    0  501 -0.00000000000E+00 -0.00000000000E+00 -0.93239411614E+03  0.93239411614E+03  0.00000000000E+00 0.  1.
         23    2    1    2    0    0  0.93016630589E+03 -0.27849150825E+03  0.50117426726E+03  0.10965407633E+04  0.91973488634E+02 0.  0.
        254    2    1    2    0    0 -0.93016630589E+03  0.27849150825E+03  0.55798267989E+02  0.13252200042E+04  0.90018205721E+03 0.  0.
        -24    2    4    4    0    0 -0.80162484913E+03  0.39155033697E+03 -0.28105951752E+03  0.93878698629E+03  0.80078012709E+02 0.  0.
         24    2    4    4    0    0 -0.12854145677E+03 -0.11305882872E+03  0.33685778550E+03  0.38643301794E+03  0.80945073003E+02 0.  0.
         11    1    3    3    0    0  0.46591644447E+03 -0.12164057885E+03  0.20042087011E+03  0.52157750030E+03  0.00000000000E+00 0. -1.
        -11    1    3    3    0    0  0.46424986142E+03 -0.15685092940E+03  0.30075339715E+03  0.57496326299E+03  0.00000000000E+00 0.  1.
          2    1    6    6  502    0  0.12298823737E+01 -0.19169106034E+02  0.83273112802E+01  0.20935886653E+02  0.00000000000E+00 0. -1.
          1    1    5    5  503    0 -0.94008422795E+02  0.51657459158E+02 -0.61500846186E+02  0.12364639390E+03  0.00000000000E+00 0. -1.
         -2    1    5    5    0  503 -0.70761642633E+03  0.33989287781E+03 -0.21955867133E+03  0.81514059239E+03  0.00000000000E+00 0.  1.
         -1    1    6    6    0  502 -0.12977133914E+03 -0.93889722683E+02  0.32853047422E+03  0.36549713129E+03  0.00000000000E+00 0.  1.
<mgrwt>
<rscale>  0 0.23568426E+04</rscale>
<asrwt>0</asrwt>
<pdfrwt beam="1">  1        1 0.22913333E+00 0.23568426E+04</pdfrwt>
<pdfrwt beam="2">  1       -1 0.14344525E+00 0.23568426E+04</pdfrwt>
<totfact> 0.23531486E+00</totfact>
</mgrwt>
</event>
<event>
12    1  0.2433511E-007  0.2395544E+04  0.7818608E-02  0.8441174E-01
          2   -1    0    0  501    0  0.00000000000E+00  0.00000000000E+00  0.21922190572E+04  0.21922190572E+04  0.00000000000E+00 0. -1.
         -2   -1    0    0    0  501 -0.00000000000E+00 -0.00000000000E+00 -0.65443196997E+03  0.65443196997E+03  0.00000000000E+00 0.  1.
         23    2    1    2    0    0 -0.68144997713E+03 -0.76523662471E+03  0.69837420993E+03  0.12429436456E+04  0.84977678976E+02 0.  0.
        254    2    1    2    0    0  0.68144997713E+03  0.76523662471E+03  0.83941287733E+03  0.16037073816E+04  0.90404768902E+03 0.  0.
        -24    2    4    4    0    0  0.48940599081E+03  0.77859787158E+03  0.98475591849E+03  0.13497531838E+04  0.79728091564E+02 0.  0.
         24    2    4    4    0    0  0.19204398632E+03 -0.13361246870E+02 -0.14534304116E+03  0.25395419784E+03  0.79427447318E+02 0.  0.
         11    1    3    3    0    0 -0.29260276710E+03 -0.39187174274E+03  0.33874167532E+03  0.59491660312E+03  0.00000000000E+00 0.  1.
        -11    1    3    3    0    0 -0.38884721003E+03 -0.37336488197E+03  0.35963253461E+03  0.64802704248E+03  0.00000000000E+00 0. -1.
          2    1    6    6  502    0  0.40572545992E+02 -0.15813973527E+02  0.67072697696E+00  0.43550695996E+02  0.00000000000E+00 0. -1.
          1    1    5    5  503    0  0.72799525742E+01  0.25283702691E+00  0.53102160788E+01  0.90144345829E+01  0.00000000000E+00 0. -1.
         -2    1    5    5    0  503  0.48212603824E+03  0.77834503455E+03  0.97944570241E+03  0.13407387492E+04  0.00000000000E+00 0.  1.
         -1    1    6    6    0  502  0.15147144033E+03  0.24527266567E+01 -0.14601376814E+03  0.21040350185E+03  0.00000000000E+00 0.  1.
<mgrwt>
<rscale>  0 0.23955444E+04</rscale>
<asrwt>0</asrwt>
<pdfrwt beam="1">  1        2 0.33726447E+00 0.23955444E+04</pdfrwt>
<pdfrwt beam="2">  1       -2 0.10068184E+00 0.23955444E+04</pdfrwt>
<totfact> 0.38132326E+00</totfact>
</mgrwt>
</event>
<event>
12    1  0.2433511E-007  0.3571120E+04  0.7818608E-02  0.8097139E-01
          2   -1    0    0  501    0  0.00000000000E+00  0.00000000000E+00  0.29328635785E+04  0.29328635785E+04  0.00000000000E+00 0. -1.
         -2   -1    0    0    0  501 -0.00000000000E+00 -0.00000000000E+00 -0.10870688408E+04  0.10870688408E+04  0.00000000000E+00 0.  1.
         23    2    1    2    0    0 -0.15074433389E+04 -0.53829991673E+03  0.14027694804E+04  0.21303544176E+04  0.92171084931E+02 0.  0.
        254    2    1    2    0    0  0.15074433389E+04  0.53829991673E+03  0.44302525730E+03  0.18895780017E+04  0.90115560564E+03 0.  0.
        -24    2    4    4    0    0  0.12212950568E+04  0.59685976156E+03  0.10525485945E+02  0.13617248305E+04  0.79878266157E+02 0.  0.
         24    2    4    4    0    0  0.28614828208E+03 -0.58559844826E+02  0.43249977136E+03  0.52785317120E+03  0.79138001965E+02 0.  0.
         11    1    3    3    0    0 -0.10895372837E+04 -0.34550359091E+03  0.99026413015E+03  0.15123118962E+04  0.00000000000E+00 0.  1.
        -11    1    3    3    0    0 -0.41790605519E+03 -0.19279632582E+03  0.41250535030E+03  0.61804252138E+03  0.00000000000E+00 0. -1.
          4    1    6    6  502    0  0.46150061453E+02  0.19280380480E+02  0.80400305508E+02  0.94687751950E+02  0.00000000000E+00 0. -1.
          3    1    5    5  503    0  0.46559133536E+03  0.21050049149E+03 -0.31574642015E+02  0.51194013957E+03  0.00000000000E+00 0. -1.
         -4    1    5    5    0  503  0.75570372144E+03  0.38635927007E+03  0.42100127960E+02  0.84978469093E+03  0.00000000000E+00 0.  1.
         -3    1    6    6    0  502  0.23999822063E+03 -0.77840225306E+02  0.35209946585E+03  0.43316541925E+03  0.00000000000E+00 0.  1.
<mgrwt>
<rscale>  0 0.35711201E+04</rscale>
<asrwt>0</asrwt>
<pdfrwt beam="1">  1        2 0.45120978E+00 0.35711201E+04</pdfrwt>
<pdfrwt beam="2">  1       -2 0.16724136E+00 0.35711201E+04</pdfrwt>
<totfact> 0.34916125E-01</totfact>
</mgrwt>
</event>
<event>
12    1  0.2433511E-007  0.1309030E+04  0.7818608E-02  0.9022435E-01
         -2   -1    0    0    0  501 -0.00000000000E+00  0.00000000000E+00  0.29508318342E+03  0.29508318342E+03  0.00000000000E+00 0. -1.
          2   -1    0    0  501    0  0.00000000000E+00 -0.00000000000E+00 -0.14517602802E+04  0.14517602802E+04  0.00000000000E+00 0.  1.
         23    2    1    2    0    0  0.16637018347E+03  0.10769026122E+03  0.54935107872E+02  0.22539780835E+03  0.92250071144E+02 0.  0.
        254    2    1    2    0    0 -0.16637018347E+03 -0.10769026122E+03 -0.12116122046E+04  0.15214456552E+04  0.89861922811E+03 0.  0.
        -24    2    4    4    0    0 -0.32309068021E+03 -0.30172976297E+03 -0.22955756145E+03  0.50498122825E+03  0.82951367422E+02 0.  0.
         24    2    4    4    0    0  0.15672049675E+03  0.19403950176E+03 -0.98205464319E+03  0.10164644270E+04  0.80968924893E+02 0.  0.
         11    1    3    3    0    0  0.68133380541E+02  0.97638492452E+02  0.20476570610E+02  0.12080862012E+03  0.00000000000E+00 0. -1.
        -11    1    3    3    0    0  0.98236802925E+02  0.10051768765E+02  0.34458537262E+02  0.10458918823E+03  0.00000000000E+00 0.  1.
          2    1    6    6  502    0  0.34771782242E+02  0.38291705159E+02 -0.10096317099E+03  0.11344114518E+03  0.00000000000E+00 0. -1.
          3    1    5    5  503    0 -0.60819828168E+02 -0.29293163821E+02 -0.11578619995E+02  0.68492374656E+02  0.00000000000E+00 0. -1.
         -4    1    5    5    0  503 -0.26227085205E+03 -0.27243659915E+03 -0.21797894146E+03  0.43648885359E+03  0.00000000000E+00 0.  1.
         -1    1    6    6    0  502  0.12194871451E+03  0.15574779660E+03 -0.88109147220E+03  0.90302328181E+03  0.00000000000E+00 0.  1.
<mgrwt>
<rscale>  0 0.13090302E+04</rscale>
<asrwt>0</asrwt>
<pdfrwt beam="1">  1        2 0.22334773E+00 0.13090302E+04</pdfrwt>
<pdfrwt beam="2">  1       -2 0.45397414E-01 0.13090302E+04</pdfrwt>
<totfact> 0.60912608E+01</totfact>
</mgrwt>
</event>
<event>
12    1  0.2433511E-007  0.3410530E+04  0.7818608E-02  0.8135327E-01
         -1   -1    0    0    0  501 -0.00000000000E+00  0.00000000000E+00  0.10416016630E+04  0.10416016630E+04  0.00000000000E+00 0.  1.
          1   -1    0    0  501    0  0.00000000000E+00 -0.00000000000E+00 -0.27917853894E+04  0.27917853894E+04  0.00000000000E+00 0. -1.
         23    2    1    2    0    0 -0.10090026013E+04  0.10914779037E+04 -0.19632226428E+03  0.15019911292E+04  0.89580450067E+02 0.  0.
        254    2    1    2    0    0  0.10090026013E+04 -0.10914779037E+04 -0.15538614621E+04  0.23313959232E+04  0.90083918852E+03 0.  0.
        -24    2    4    4    0    0  0.21382272830E+03  0.11791518361E+02  0.43928529661E+02  0.23163063191E+03  0.76575680725E+02 0.  0.
         24    2    4    4    0    0  0.79517987300E+03 -0.11032694221E+04 -0.15977899918E+04  0.20997652913E+04  0.81036859513E+02 0.  0.
         11    1    3    3    0    0 -0.79262253941E+03  0.90685329663E+03 -0.14814646860E+03  0.12134993893E+04  0.00000000000E+00 0. -1.
        -11    1    3    3    0    0 -0.21638006190E+03  0.18462460710E+03 -0.48175795683E+02  0.28849173996E+03  0.00000000000E+00 0.  1.
          2    1    6    6  502    0  0.64696933457E+03 -0.84160227752E+03 -0.12336033835E+04  0.16274645991E+04  0.00000000000E+00 0. -1.
          1    1    5    5  503    0 -0.90298406986E+00  0.45794111990E+01  0.13940415898E+02  0.14701074198E+02  0.00000000000E+00 0. -1.
         -2    1    5    5    0  503  0.21472571237E+03  0.72121071617E+01  0.29988113762E+02  0.21692955772E+03  0.00000000000E+00 0.  1.
         -1    1    6    6    0  502  0.14821053843E+03 -0.26166714456E+03 -0.36418660824E+03  0.47230069222E+03  0.00000000000E+00 0.  1.
<mgrwt>
<rscale>  0 0.34105298E+04</rscale>
<asrwt>0</asrwt>
<pdfrwt beam="1">  1        1 0.42950544E+00 0.34105298E+04</pdfrwt>
<pdfrwt beam="2">  1       -1 0.16024641E+00 0.34105298E+04</pdfrwt>
<totfact> 0.20193307E-01</totfact>
</mgrwt>
</event>
<event>
12    1  0.2433511E-007  0.1839137E+04  0.7818608E-02  0.8685759E-01
         -2   -1    0    0    0  501 -0.00000000000E+00  0.00000000000E+00  0.55089075428E+03  0.55089075428E+03  0.00000000000E+00 0.  1.
          2   -1    0    0  501    0  0.00000000000E+00 -0.00000000000E+00 -0.15349795991E+04  0.15349795991E+04  0.00000000000E+00 0. -1.
         23    2    1    2    0    0 -0.40996801584E+03  0.21748380811E+03  0.21213725847E+03  0.51781324066E+03  0.88064493228E+02 0.  0.
        254    2    1    2    0    0  0.40996801584E+03 -0.21748380811E+03 -0.11962261033E+04  0.15680571127E+04  0.90137297373E+03 0.  0.
        -24    2    4    4    0    0 -0.20487111329E+03  0.15728724284E+03 -0.47053961246E+03  0.54259159807E+03  0.79288495888E+02 0.  0.
         24    2    4    4    0    0  0.61483912912E+03 -0.37477105095E+03 -0.72568649083E+03  0.10254655147E+04  0.80486914696E+02 0.  0.
         13    1    3    3    0    0 -0.11617955420E+03  0.79943075077E+02  0.10627215192E+03  0.17658526082E+03  0.00000000000E+00 0.  1.
        -13    1    3    3    0    0 -0.29378846164E+03  0.13754073304E+03  0.10586510655E+03  0.34122797983E+03  0.00000000000E+00 0. -1.
          4    1    6    6  502    0  0.47542634610E+03 -0.26692271054E+03 -0.50640165342E+03  0.74412403439E+03  0.00000000000E+00 0. -1.
          1    1    5    5  503    0 -0.20224736228E+03  0.16378247390E+03 -0.43951358318E+03  0.51078457700E+03  0.00000000000E+00 0. -1.
         -2    1    5    5    0  503 -0.26237510024E+01 -0.64952310623E+01 -0.31026029281E+02  0.31807021061E+02  0.00000000000E+00 0.  1.
         -3    1    6    6    0  502  0.13941278302E+03 -0.10784834041E+03 -0.21928483740E+03  0.28134148026E+03  0.00000000000E+00 0.  1.
<mgrwt>
<rscale>  0 0.18391368E+04</rscale>
<asrwt>0</asrwt>
<pdfrwt beam="1">  1        2 0.23615071E+00 0.18391368E+04</pdfrwt>
<pdfrwt beam="2">  1       -2 0.84752423E-01 0.18391368E+04</pdfrwt>
<totfact> 0.13846676E+01</totfact>
</mgrwt>
</event>
<event>
12    1  0.2433511E-007  0.1147704E+04  0.7818608E-02  0.9159905E-01
         -2   -1    0    0    0  501 -0.00000000000E+00  0.00000000000E+00  0.42545216927E+03  0.42545216927E+03  0.00000000000E+00 0. -1.
          2   -1    0    0  501    0  0.00000000000E+00 -0.00000000000E+00 -0.77401408094E+03  0.77401408094E+03  0.00000000000E+00 0.  1.
         23    2    1    2    0    0  0.20352610825E+03  0.14518866551E+02 -0.70334770412E+02  0.23524126963E+03  0.93583122317E+02 0.  0.
        254    2    1    2    0    0 -0.20352610825E+03 -0.14518866551E+02 -0.27822714126E+03  0.96422498057E+03  0.90038091761E+03 0.  0.
        -24    2    4    4    0    0  0.72084462622E+02  0.23706210043E+03  0.21823502401E+03  0.33804372283E+03  0.72473606404E+02 0.  0.
         24    2    4    4    0    0 -0.27561057088E+03 -0.25158096698E+03 -0.49646216527E+03  0.62618125774E+03  0.79838062830E+02 0.  0.
         13    1    3    3    0    0  0.40911616316E+02  0.20827750897E+02 -0.55209858096E+02  0.71803091772E+02  0.00000000000E+00 0.  1.
        -13    1    3    3    0    0  0.16261449194E+03 -0.63088843455E+01 -0.15124912316E+02  0.16343817786E+03  0.00000000000E+00 0. -1.
          4    1    6    6  502    0 -0.22502630048E+03 -0.15716644415E+03 -0.36020468455E+03  0.45286371222E+03  0.00000000000E+00 0. -1.
          1    1    5    5  503    0  0.58235438293E+02  0.22326316117E+03  0.17182244222E+03  0.28768169400E+03  0.00000000000E+00 0. -1.
         -2    1    5    5    0  503  0.13849024328E+02  0.13798939258E+02  0.46412581789E+02  0.50362028829E+02  0.00000000000E+00 0.  1.
         -3    1    6    6    0  502 -0.50584270395E+02 -0.94414522836E+02 -0.13625748072E+03  0.17331754553E+03  0.00000000000E+00 0.  1.
<mgrwt>
<rscale>  0 0.11477037E+04</rscale>
<asrwt>0</asrwt>
<pdfrwt beam="1">  1        2 0.11907909E+00 0.11477037E+04</pdfrwt>
<pdfrwt beam="2">  1       -2 0.65454181E-01 0.11477037E+04</pdfrwt>
<totfact> 0.76654571E+01</totfact>
</mgrwt>
</event>
<event>
12    1  0.2433511E-007  0.1665194E+04  0.7818608E-02  0.8781468E-01
         -2   -1    0    0    0  501 -0.00000000000E+00  0.00000000000E+00  0.30048259604E+03  0.30048259604E+03  0.00000000000E+00 0.  1.
          2   -1    0    0  501    0  0.00000000000E+00 -0.00000000000E+00 -0.23070154385E+04  0.23070154385E+04  0.00000000000E+00 0. -1.
         23    2    1    2    0    0 -0.37662147895E+03  0.35043128018E+03 -0.11508142050E+04  0.12639067860E+04  0.91876050584E+02 0.  0.
        254    2    1    2    0    0  0.37662147895E+03 -0.35043128018E+03 -0.85571863746E+03  0.13435912486E+04  0.89907576776E+03 0.  0.
        -24    2    4    4    0    0  0.25069643457E+03  0.24124565900E+03 -0.96876901660E+02  0.36980184677E+03  0.79499066060E+02 0.  0.
         24    2    4    4    0    0  0.12592504438E+03 -0.59167693919E+03 -0.75884173580E+03  0.97378940179E+03  0.80537580552E+02 0.  0.
         11    1    3    3    0    0 -0.99499216091E+02  0.13090067515E+03 -0.29089837483E+03  0.33415108145E+03  0.00000000000E+00 0.  1.
        -11    1    3    3    0    0 -0.27712226286E+03  0.21953060504E+03 -0.85991583020E+03  0.92975570455E+03  0.00000000000E+00 0. -1.
          2    1    6    6  502    0  0.41945488418E+02 -0.75249383731E+02 -0.89593511527E+02  0.12429356805E+03  0.00000000000E+00 0. -1.
          1    1    5    5  503    0  0.12392782514E+03  0.17329754382E+03 -0.56718281317E+02  0.22047019747E+03  0.00000000000E+00 0. -1.
         -4    1    5    5    0  503  0.12676860943E+03  0.67948115183E+02 -0.40158620343E+02  0.14933164930E+03  0.00000000000E+00 0.  1.
         -1    1    6    6    0  502  0.83979555965E+02 -0.51642755546E+03 -0.66924822427E+03  0.84949583374E+03  0.00000000000E+00 0.  1.
<mgrwt>
<rscale>  0 0.16651943E+04</rscale>
<asrwt>0</asrwt>
<pdfrwt beam="1">  1        2 0.35492545E+00 0.16651943E+04</pdfrwt>
<pdfrwt beam="2">  1       -2 0.46228092E-01 0.16651943E+04</pdfrwt>
<totfact> 0.19034674E+01</totfact>
</mgrwt>
</event>
<event>
12    1  0.3094034E-007  0.2452348E+04  0.7818608E-02  0.8420161E-01
          2   -1    0    0  501    0  0.00000000000E+00  0.00000000000E+00  0.65261323451E+03  0.65261323451E+03  0.00000000000E+00 0. -1.
         -2   -1    0    0    0  501 -0.00000000000E+00 -0.00000000000E+00 -0.23038180502E+04  0.23038180502E+04  0.00000000000E+00 0.  1.
         23    2    1    2    0    0 -0.91427163688E+03  0.25905422558E+03 -0.15207233776E+03  0.96670844606E+03  0.91637906897E+02 0.  0.
        254    2    1    2    0    0  0.91427163688E+03 -0.25905422558E+03 -0.14991324780E+04  0.19897228387E+04  0.89922025695E+03 0.  0.
        -24    2    4    4    0    0 -0.76759076619E+02 -0.27288808836E+03 -0.49852013543E+03  0.57905891020E+03  0.80168768497E+02 0.  0.
         24    2    4    4    0    0  0.99103071350E+03  0.13833862772E+02 -0.10006123425E+04  0.14106639285E+04  0.80090000947E+02 0.  0.
         13    1    3    3    0    0 -0.40322920396E+03  0.67240775460E+02 -0.61947924040E+02  0.41346421623E+03  0.00000000000E+00 0.  1.
        -13    1    3    3    0    0 -0.51104243292E+03  0.19181345012E+03 -0.90124413718E+02  0.55324422983E+03  0.00000000000E+00 0. -1.
          2    1    6    6  502    0  0.47544865675E+03 -0.32561264154E+02 -0.49103535791E+03  0.68427142557E+03  0.00000000000E+00 0. -1.
          1    1    5    5  503    0 -0.68355896658E+02 -0.98950079004E+02 -0.19347295922E+03  0.22780569065E+03  0.00000000000E+00 0. -1.
         -2    1    5    5    0  503 -0.84031799605E+01 -0.17393800935E+03 -0.30504717620E+03  0.35125321954E+03  0.00000000000E+00 0.  1.
         -1    1    6    6    0  502  0.51558205675E+03  0.46395126926E+02 -0.50957698461E+03  0.72639250291E+03  0.00000000000E+00 0.  1.
<mgrwt>
<rscale>  0 0.24523476E+04</rscale>
<asrwt>0</asrwt>
<pdfrwt beam="1">  1        2 0.10040204E+00 0.24523476E+04</pdfrwt>
<pdfrwt beam="2">  1       -2 0.35443354E+00 0.24523476E+04</pdfrwt>
<totfact> 0.58468395E-01</totfact>
</mgrwt>
</event>
<event>
12    1  0.2433511E-007  0.1688480E+04  0.7818608E-02  0.8767962E-01
          1   -1    0    0  501    0  0.00000000000E+00  0.00000000000E+00  0.18127378803E+04  0.18127378803E+04  0.00000000000E+00 0. -1.
         -1   -1    0    0    0  501 -0.00000000000E+00 -0.00000000000E+00 -0.39318482530E+03  0.39318482530E+03  0.00000000000E+00 0.  1.
         23    2    1    2    0    0  0.42376182414E+03  0.31992732322E+03  0.87095829574E+03  0.10237896594E+04  0.87460494039E+02 0.  0.
        254    2    1    2    0    0 -0.42376182414E+03 -0.31992732322E+03  0.54859475923E+03  0.11821330462E+04  0.90252687121E+03 0.  0.
        -24    2    4    4    0    0 -0.57169501715E+03 -0.24303212193E+03  0.25050359357E+02  0.62673584343E+03  0.79186438321E+02 0.  0.
         24    2    4    4    0    0  0.14793319301E+03 -0.76895201290E+02  0.52354439987E+03  0.55539720274E+03  0.81056847994E+02 0.  0.
         13    1    3    3    0    0  0.22228743174E+03  0.20010625346E+03  0.55383529774E+03  0.62943446999E+03  0.00000000000E+00 0. -1.
        -13    1    3    3    0    0  0.20147439239E+03  0.11982106976E+03  0.31712299799E+03  0.39435518940E+03  0.00000000000E+00 0.  1.
          2    1    6    6  502    0  0.97936068593E+02 -0.16892744875E+02  0.37020957888E+03  0.38331706283E+03  0.00000000000E+00 0. -1.
          1    1    5    5  503    0 -0.56419799667E+03 -0.23873810079E+03  0.14105849952E+02  0.61279216315E+03  0.00000000000E+00 0. -1.
         -2    1    5    5    0  503 -0.74970204767E+01 -0.42940211403E+01  0.10944509406E+02  0.13943680279E+02  0.00000000000E+00 0.  1.
         -1    1    6    6    0  502  0.49997124415E+02 -0.60002456415E+02  0.15333482099E+03  0.17208013991E+03  0.00000000000E+00 0.  1.
<mgrwt>
<rscale>  0 0.16884798E+04</rscale>
<asrwt>0</asrwt>
<pdfrwt beam="1">  1        1 0.27888275E+00 0.16884798E+04</pdfrwt>
<pdfrwt beam="2">  1       -1 0.60489974E-01 0.16884798E+04</pdfrwt>
<totfact> 0.10543143E+01</totfact>
</mgrwt>
</event>
<event>
12    1  0.2433511E-007  0.2907554E+04  0.7818608E-02  0.8270634E-01
          2   -1    0    0  501    0  0.00000000000E+00  0.00000000000E+00  0.21418127965E+04  0.21418127965E+04  0.00000000000E+00 0.  1.
         -2   -1    0    0    0  501 -0.00000000000E+00 -0.00000000000E+00 -0.98676543881E+03  0.98676543881E+03  0.00000000000E+00 0. -1.
         23    2    1    2    0    0  0.12686194061E+04  0.11507251859E+03  0.18000252148E+03  0.12896182843E+04  0.89875076697E+02 0.  0.
        254    2    1    2    0    0 -0.12686194061E+04 -0.11507251859E+03  0.97504483624E+03  0.18389599510E+04  0.89912423309E+03 0.  0.
        -24    2    4    4    0    0 -0.11218887516E+04  0.25457818660E+03  0.73678261942E+03  0.13684635375E+04  0.79996257298E+02 0.  0.
         24    2    4    4    0    0 -0.14673065455E+03 -0.36965070519E+03  0.23826221682E+03  0.47049641349E+03  0.80165218830E+02 0.  0.
         11    1    3    3    0    0  0.79068676965E+03  0.77865659389E+02  0.68615862164E+02  0.79746897441E+03  0.00000000000E+00 0. -1.
        -11    1    3    3    0    0  0.47793263649E+03  0.37206859202E+02  0.11138665931E+03  0.49214930993E+03  0.00000000000E+00 0.  1.
          2    1    6    6  502    0 -0.13225524523E+03 -0.33649752518E+03  0.24052292638E+03  0.43425028780E+03  0.00000000000E+00 0. -1.
          1    1    5    5  503    0 -0.91896959689E+03  0.23675614521E+03  0.59083194739E+03  0.11178734197E+04  0.00000000000E+00 0. -1.
         -2    1    5    5    0  503 -0.20291915469E+03  0.17822041384E+02  0.14595067203E+03  0.25059011785E+03  0.00000000000E+00 0.  1.
         -1    1    6    6    0  502 -0.14475409314E+02 -0.33153180005E+02 -0.22607095559E+01  0.36246125682E+02  0.00000000000E+00 0.  1.
<mgrwt>
<rscale>  0 0.29075535E+04</rscale>
<asrwt>0</asrwt>
<pdfrwt beam="1">  1        2 0.32950966E+00 0.29075535E+04</pdfrwt>
<pdfrwt beam="2">  1       -2 0.15181007E+00 0.29075535E+04</pdfrwt>
<totfact> 0.13936507E+00</totfact>
</mgrwt>
</event>
<event>
12    1  0.2433511E-007  0.3311853E+04  0.7818608E-02  0.8159886E-01
         -1   -1    0    0    0  501 -0.00000000000E+00  0.00000000000E+00  0.14888966959E+04  0.14888966959E+04  0.00000000000E+00 0.  1.
          1   -1    0    0  501    0  0.00000000000E+00 -0.00000000000E+00 -0.18416942160E+04  0.18416942160E+04  0.00000000000E+00 0. -1.
         23    2    1    2    0    0  0.11663026245E+04  0.63599004232E+03  0.60406419533E+03  0.14620747407E+04  0.89575942608E+02 0.  0.
        254    2    1    2    0    0 -0.11663026245E+04 -0.63599004232E+03 -0.95686171536E+03  0.18685161712E+04  0.90056826173E+03 0.  0.
        -24    2    4    4    0    0 -0.13015251980E+04 -0.62615792565E+03 -0.84230162084E+03  0.16736391649E+04  0.74528149426E+02 0.  0.
         24    2    4    4    0    0  0.13522257357E+03 -0.98321166728E+01 -0.11456009452E+03  0.19487700626E+03  0.80443877294E+02 0.  0.
         11    1    3    3    0    0  0.46851548422E+03  0.26316806741E+03  0.19688433170E+03  0.57230029769E+03  0.00000000000E+00 0.  1.
        -11    1    3    3    0    0  0.69778714023E+03  0.37282197491E+03  0.40717986363E+03  0.88977444298E+03  0.00000000000E+00 0. -1.
          2    1    6    6  502    0  0.95571086976E+02 -0.42177233145E+02 -0.61786664927E+02  0.12136862702E+03  0.00000000000E+00 0. -1.
          3    1    5    5  503    0 -0.41591534762E+03 -0.17127921320E+03 -0.28859725738E+03  0.53442541315E+03  0.00000000000E+00 0. -1.
         -4    1    5    5    0  503 -0.88560985040E+03 -0.45487871245E+03 -0.55370436346E+03  0.11392137518E+04  0.00000000000E+00 0.  1.
         -1    1    6    6    0  502  0.39651486591E+02  0.32345116473E+02 -0.52773429591E+02  0.73508379246E+02  0.00000000000E+00 0.  1.
<mgrwt>
<rscale>  0 0.33118529E+04</rscale>
<asrwt>0</asrwt>
<pdfrwt beam="1">  1        1 0.28333757E+00 0.33118529E+04</pdfrwt>
<pdfrwt beam="2">  1       -1 0.22906103E+00 0.33118529E+04</pdfrwt>
<totfact> 0.30292379E-01</totfact>
</mgrwt>
</event>
<event>
12    1  0.2433511E-007  0.1885816E+04  0.7818608E-02  0.8661949E-01
          1   -1    0    0  501    0  0.00000000000E+00  0.00000000000E+00  0.20612190040E+04  0.20612190040E+04  0.00000000000E+00 0. -1.
         -1   -1    0    0    0  501 -0.00000000000E+00 -0.00000000000E+00 -0.43133465902E+03  0.43133465902E+03  0.00000000000E+00 0.  1.
         23    2    1    2    0    0 -0.45903471615E+03 -0.21099847513E+02 -0.98118056750E+02  0.47844346263E+03  0.90127241596E+02 0.  0.
        254    2    1    2    0    0  0.45903471615E+03  0.21099847513E+02  0.17280024017E+04  0.20141102004E+04  0.92708657891E+03 0.  0.
        -24    2    4    4    0    0  0.82028890474E+02  0.22888853064E+03  0.14981668891E+04  0.15196090662E+04  0.74759534034E+02 0.  0.
         24    2    4    4    0    0  0.37700582567E+03 -0.20778868313E+03  0.22983551261E+03  0.49450113425E+03  0.79984245300E+02 0.  0.
         13    1    3    3    0    0 -0.12933278516E+03 -0.35539835292E+02  0.75338223248E-01  0.13412701027E+03  0.00000000000E+00 0. -1.
        -13    1    3    3    0    0 -0.32970193099E+03  0.14439987779E+02 -0.98193394973E+02  0.34431645235E+03  0.00000000000E+00 0.  1.
          4    1    6    6  502    0  0.28397152714E+03 -0.16158445791E+03  0.13388982240E+03  0.35309467542E+03  0.00000000000E+00 0. -1.
          3    1    5    5  503    0  0.84240350966E+02  0.22839207808E+03  0.14976226381E+04  0.15172781368E+04  0.00000000000E+00 0. -1.
         -4    1    5    5    0  503 -0.22114604916E+01  0.49645256293E+00  0.54425099025E+00  0.23309293841E+01  0.00000000000E+00 0.  1.
         -3    1    6    6    0  502  0.93034298528E+02 -0.46204225212E+02  0.95945690210E+02  0.14140645883E+03  0.00000000000E+00 0.  1.
<mgrwt>
<rscale>  0 0.18858157E+04</rscale>
<asrwt>0</asrwt>
<pdfrwt beam="1">  1        1 0.31711061E+00 0.18858157E+04</pdfrwt>
<pdfrwt beam="2">  1       -1 0.66359180E-01 0.18858157E+04</pdfrwt>
<totfact> 0.58377418E+00</totfact>
</mgrwt>
</event>
<event>
12    1  0.2433511E-007  0.1107185E+04  0.7818608E-02  0.9198217E-01
          1   -1    0    0  501    0  0.00000000000E+00  0.00000000000E+00  0.10890360050E+04  0.10890360050E+04  0.00000000000E+00 0. -1.
         -1   -1    0    0    0  501 -0.00000000000E+00 -0.00000000000E+00 -0.28140889002E+03  0.28140889002E+03  0.00000000000E+00 0.  1.
         23    2    1    2    0    0 -0.45173615067E+02 -0.14552277478E+03  0.21973042561E+03  0.28266400698E+03  0.91651227080E+02 0.  0.
        254    2    1    2    0    0  0.45173615067E+02  0.14552277478E+03  0.58789668939E+03  0.10877808881E+04  0.90245620923E+03 0.  0.
        -24    2    4    4    0    0 -0.25372884465E+03  0.20493815469E+03  0.68096641453E+03  0.75936578026E+03  0.80889780868E+02 0.  0.
         24    2    4    4    0    0  0.29890245972E+03 -0.59415379913E+02 -0.93069725148E+02  0.32841510781E+03  0.79508751093E+02 0.  0.
         13    1    3    3    0    0 -0.43459329425E+02 -0.40931245185E+02  0.13650797284E+03  0.14899163331E+03  0.00000000000E+00 0. -1.
        -13    1    3    3    0    0 -0.17142856420E+01 -0.10459152960E+03  0.83222452770E+02  0.13367237367E+03  0.00000000000E+00 0.  1.
          2    1    6    6  502    0  0.24635139361E+03 -0.42065824439E+02 -0.42610654092E+02  0.25352358976E+03  0.00000000000E+00 0. -1.
          3    1    5    5  503    0 -0.16532503327E+03  0.10360391070E+03  0.32788407743E+03  0.38154174761E+03  0.00000000000E+00 0. -1.
         -4    1    5    5    0  503 -0.88403811385E+02  0.10133424399E+03  0.35308233711E+03  0.37782403265E+03  0.00000000000E+00 0.  1.
         -1    1    6    6    0  502  0.52551066104E+02 -0.17349555474E+02 -0.50459071056E+02  0.74891518048E+02  0.00000000000E+00 0.  1.
<mgrwt>
<rscale>  0 0.11071846E+04</rscale>
<asrwt>0</asrwt>
<pdfrwt beam="1">  1        1 0.16754400E+00 0.11071846E+04</pdfrwt>
<pdfrwt beam="2">  1       -1 0.43293676E-01 0.11071846E+04</pdfrwt>
<totfact> 0.67705010E+01</totfact>
</mgrwt>
</event>
<event>
12    1  0.2433511E-007  0.3331389E+04  0.7818608E-02  0.8154954E-01
         -1   -1    0    0    0  501 -0.00000000000E+00  0.00000000000E+00  0.15793169367E+04  0.15793169367E+04  0.00000000000E+00 0.  1.
          1   -1    0    0  501    0  0.00000000000E+00 -0.00000000000E+00 -0.17567959308E+04  0.17567959308E+04  0.00000000000E+00 0. -1.
         23    2    1    2    0    0  0.14882643539E+04  0.16982628513E+03 -0.45306826093E+03  0.15676362960E+04  0.91874661000E+02 0.  0.
        254    2    1    2    0    0 -0.14882643539E+04 -0.16982628513E+03  0.27558926684E+03  0.17684765715E+04  0.89877037430E+03 0.  0.
        -24    2    4    4    0    0 -0.25782365446E+03 -0.38593354068E+03 -0.52363873134E+02  0.47419670514E+03  0.81870662250E+02 0.  0.
         24    2    4    4    0    0 -0.12304406995E+04  0.21610725555E+03  0.32795313998E+03  0.12942798664E+04  0.83189240210E+02 0.  0.
         13    1    3    3    0    0  0.40639296092E+03  0.87272542942E+02 -0.11908797314E+03  0.43238140661E+03  0.00000000000E+00 0. -1.
        -13    1    3    3    0    0  0.10818713930E+04  0.82553742183E+02 -0.33398028779E+03  0.11352548894E+04  0.00000000000E+00 0.  1.
          2    1    6    6  502    0 -0.15725808349E+03  0.38477658956E+01  0.56376953452E+02  0.16710257630E+03  0.00000000000E+00 0. -1.
          1    1    5    5  503    0 -0.12946419046E+03 -0.12612679805E+03 -0.69924938377E+01  0.18088073631E+03  0.00000000000E+00 0. -1.
         -2    1    5    5    0  503 -0.12835946401E+03 -0.25980674263E+03 -0.45371379296E+02  0.29331596883E+03  0.00000000000E+00 0.  1.
         -1    1    6    6    0  502 -0.10731826160E+04  0.21225948966E+03  0.27157618653E+03  0.11271772901E+04  0.00000000000E+00 0.  1.
<mgrwt>
<rscale>  0 0.33313886E+04</rscale>
<asrwt>0</asrwt>
<pdfrwt beam="1">  1        1 0.27027630E+00 0.33313886E+04</pdfrwt>
<pdfrwt beam="2">  1       -1 0.24297184E+00 0.33313886E+04</pdfrwt>
<totfact> 0.27960618E-01</totfact>
</mgrwt>
</event>
<event>
12    1  0.2433511E-007  0.1127795E+04  0.7818608E-02  0.9178517E-01
         -1   -1    0    0    0  501 -0.00000000000E+00  0.00000000000E+00  0.20433658544E+03  0.20433658544E+03  0.00000000000E+00 0.  1.
          1   -1    0    0  501    0  0.00000000000E+00 -0.00000000000E+00 -0.15561596415E+04  0.15561596415E+04  0.00000000000E+00 0. -1.
         23    2    1    2    0    0 -0.10409902340E+03 -0.15480619503E+03 -0.29149512538E+03  0.35776932572E+03  0.90707869644E+02 0.  0.
        254    2    1    2    0    0  0.10409902340E+03  0.15480619503E+03 -0.10603279307E+04  0.14027269012E+04  0.89919178941E+03 0.  0.
        -24    2    4    4    0    0  0.47216820037E+03  0.23452379575E+03 -0.62738109039E+03  0.82335785525E+03  0.79792888140E+02 0.  0.
         24    2    4    4    0    0 -0.36806917697E+03 -0.79717600723E+02 -0.43294684030E+03  0.57936904599E+03  0.79973183158E+02 0.  0.
         11    1    3    3    0    0 -0.89521159617E+01 -0.76420320375E+02 -0.15991285440E+03  0.17746077524E+03  0.00000000000E+00 0. -1.
        -11    1    3    3    0    0 -0.95146907443E+02 -0.78385874655E+02 -0.13158227098E+03  0.18030855048E+03  0.00000000000E+00 0.  1.
          4    1    6    6  502    0 -0.26071800732E+03 -0.86941469304E+02 -0.34000249184E+03  0.43718919575E+03  0.00000000000E+00 0. -1.
          3    1    5    5  503    0  0.35605058330E+03  0.18102776743E+03 -0.41898782416E+03  0.57887292841E+03  0.00000000000E+00 0. -1.
         -4    1    5    5    0  503  0.11611761707E+03  0.53496028326E+02 -0.20839326623E+03  0.24448492684E+03  0.00000000000E+00 0.  1.
         -3    1    6    6    0  502 -0.10735116965E+03  0.72238685813E+01 -0.92944348461E+02  0.14217985024E+03  0.00000000000E+00 0.  1.
<mgrwt>
<rscale>  0 0.11277949E+04</rscale>
<asrwt>0</asrwt>
<pdfrwt beam="1">  1        1 0.23940917E+00 0.11277949E+04</pdfrwt>
<pdfrwt beam="2">  1       -1 0.31436398E-01 0.11277949E+04</pdfrwt>
<totfact> 0.55901431E+01</totfact>
</mgrwt>
</event>
<event>
12    1  0.2433511E-007  0.1437226E+04  0.7818608E-02  0.8927305E-01
          2   -1    0    0  501    0  0.00000000000E+00  0.00000000000E+00  0.11585413541E+04  0.11585413541E+04  0.00000000000E+00 0. -1.
         -2   -1    0    0    0  501 -0.00000000000E+00 -0.00000000000E+00 -0.44573692666E+03  0.44573692666E+03  0.00000000000E+00 0.  1.
         23    2    1    2    0    0 -0.51249121369E+02  0.26046326591E+03 -0.16023996212E+03  0.32335887013E+03  0.91741637760E+02 0.  0.
        254    2    1    2    0    0  0.51249121369E+02 -0.26046326591E+03  0.87304438960E+03  0.12809194107E+04  0.89893294806E+03 0.  0.
        -24    2    4    4    0    0  0.42848119391E+03 -0.32771493493E+03  0.49311153685E+03  0.73522390216E+03  0.80012414115E+02 0.  0.
         24    2    4    4    0    0 -0.37723207255E+03  0.67251669020E+02  0.37993285275E+03  0.54569550852E+03  0.81288325610E+02 0.  0.
         11    1    3    3    0    0 -0.29291420813E+02  0.13665779333E+03 -0.31226226091E+02  0.14320760108E+03  0.00000000000E+00 0. -1.
        -11    1    3    3    0    0 -0.21957700556E+02  0.12380547258E+03 -0.12901373603E+03  0.18015126904E+03  0.00000000000E+00 0.  1.
          2    1    6    6  502    0 -0.79530854475E+02  0.43262131916E+02  0.11577456896E+03  0.14697115257E+03  0.00000000000E+00 0. -1.
          3    1    5    5  503    0  0.11312936792E+03 -0.44792051512E+02  0.11035709190E+03  0.16426585007E+03  0.00000000000E+00 0. -1.
         -4    1    5    5    0  503  0.31535182600E+03 -0.28292288342E+03  0.38275444495E+03  0.57095805209E+03  0.00000000000E+00 0.  1.
         -1    1    6    6    0  502 -0.29770121807E+03  0.23989537104E+02  0.26415828379E+03  0.39872435595E+03  0.00000000000E+00 0.  1.
<mgrwt>
<rscale>  0 0.14372260E+04</rscale>
<asrwt>0</asrwt>
<pdfrwt beam="1">  1        2 0.17823713E+00 0.14372260E+04</pdfrwt>
<pdfrwt beam="2">  1       -2 0.68574912E-01 0.14372260E+04</pdfrwt>
<totfact> 0.37865117E+01</totfact>
</mgrwt>
</event>
<event>
12    1  0.2433511E-007  0.2209911E+04  0.7818608E-02  0.8514314E-01
          2   -1    0    0  501    0  0.00000000000E+00  0.00000000000E+00  0.14703651131E+04  0.14703651131E+04  0.00000000000E+00 0. -1.
         -2   -1    0    0    0  501 -0.00000000000E+00 -0.00000000000E+00 -0.83035597267E+03  0.83035597267E+03  0.00000000000E+00 0.  1.
         23    2    1    2    0    0  0.62757622869E+03 -0.34766631770E+03 -0.32937847400E+03  0.79496678633E+03  0.93585367181E+02 0.  0.
        254    2    1    2    0    0 -0.62757622869E+03  0.34766631770E+03  0.96938761442E+03  0.15057542994E+04  0.90158741782E+03 0.  0.
        -24    2    4    4    0    0 -0.38367655720E+03  0.24174300923E+03 -0.37004942457E+02  0.46181923247E+03  0.79121771026E+02 0.  0.
         24    2    4    4    0    0 -0.24389967149E+03  0.10592330847E+03  0.10063925569E+04  0.10439350670E+04  0.79168481549E+02 0.  0.
         11    1    3    3    0    0  0.49359676894E+03 -0.23918654997E+03 -0.27893726454E+03  0.61534866015E+03  0.00000000000E+00 0.  1.
        -11    1    3    3    0    0  0.13397945975E+03 -0.10847976773E+03 -0.50441209461E+02  0.17961812618E+03  0.00000000000E+00 0. -1.
          2    1    6    6  502    0 -0.18853311313E+03  0.43715825744E+02  0.73496640752E+03  0.76002067627E+03  0.00000000000E+00 0. -1.
          3    1    5    5  503    0 -0.26408110938E+03  0.14161822729E+03  0.70572489895E+01  0.29974048674E+03  0.00000000000E+00 0. -1.
         -4    1    5    5    0  503 -0.11959544782E+03  0.10012478194E+03 -0.44062191446E+02  0.16207874572E+03  0.00000000000E+00 0.  1.
         -1    1    6    6    0  502 -0.55366558363E+02  0.62207482727E+02  0.27142614935E+03  0.28391439070E+03  0.00000000000E+00 0.  1.
<mgrwt>
<rscale>  0 0.22099108E+04</rscale>
<asrwt>0</asrwt>
<pdfrwt beam="1">  1        2 0.22621002E+00 0.22099108E+04</pdfrwt>
<pdfrwt beam="2">  1       -2 0.12774707E+00 0.22099108E+04</pdfrwt>
<totfact> 0.54709191E+00</totfact>
</mgrwt>
</event>
<event>
12    1  0.2433511E-007  0.3132536E+04  0.7818608E-02  0.8206865E-01
          1   -1    0    0  501    0  0.00000000000E+00  0.00000000000E+00  0.33229886385E+04  0.33229886385E+04  0.00000000000E+00 0. -1.
         -1   -1    0    0    0  501 -0.00000000000E+00 -0.00000000000E+00 -0.73824960157E+03  0.73824960157E+03  0.00000000000E+00 0.  1.
         23    2    1    2    0    0 -0.69552282928E+03  0.12462722556E+04  0.13870646399E+04  0.19922126111E+04  0.89533407259E+02 0.  0.
        254    2    1    2    0    0  0.69552282928E+03 -0.12462722556E+04  0.11976743970E+04  0.20690256290E+04  0.89972026264E+03 0.  0.
        -24    2    4    4    0    0 -0.33269324329E+02 -0.71507456454E+02  0.51101870833E+03  0.52365339549E+03  0.82780396676E+02 0.  0.
         24    2    4    4    0    0  0.72879215361E+03 -0.11747647992E+04  0.68665568865E+03  0.15453722335E+04  0.73952476293E+02 0.  0.
         11    1    3    3    0    0 -0.28699603913E+03  0.46475056894E+03  0.48052535485E+03  0.72750562504E+03  0.00000000000E+00 0.  1.
        -11    1    3    3    0    0 -0.40852679015E+03  0.78152168671E+03  0.90653928508E+03  0.12647069860E+04  0.00000000000E+00 0. -1.
          4    1    6    6  502    0  0.27363747250E+03 -0.50912630223E+03  0.29404619521E+03  0.64849843708E+03  0.00000000000E+00 0. -1.
          3    1    5    5  503    0  0.15428237231E+02 -0.17322168299E+02  0.34345917174E+02  0.41445506936E+02  0.00000000000E+00 0. -1.
         -4    1    5    5    0  503 -0.48697561561E+02 -0.54185288155E+02  0.47667279115E+03  0.48220788855E+03  0.00000000000E+00 0.  1.
         -3    1    6    6    0  502  0.45515468111E+03 -0.66563849697E+03  0.39260949344E+03  0.89687379643E+03  0.00000000000E+00 0.  1.
<mgrwt>
<rscale>  0 0.31325357E+04</rscale>
<asrwt>0</asrwt>
<pdfrwt beam="1">  1        1 0.51122901E+00 0.31325357E+04</pdfrwt>
<pdfrwt beam="2">  1       -1 0.11357686E+00 0.31325357E+04</pdfrwt>
<totfact> 0.20388951E-01</totfact>
</mgrwt>
</event>
<event>
12    1  0.2433511E-007  0.2151881E+04  0.7818608E-02  0.8538728E-01
         -2   -1    0    0    0  501 -0.00000000000E+00  0.00000000000E+00  0.19159503876E+04  0.19159503876E+04  0.00000000000E+00 0.  1.
          2   -1    0    0  501    0  0.00000000000E+00 -0.00000000000E+00 -0.60421597943E+03  0.60421597943E+03  0.00000000000E+00 0. -1.
         23    2    1    2    0    0  0.54575431506E+03 -0.63314495692E+03  0.88395128523E+03  0.12199257716E+04  0.90159328997E+02 0.  0.
        254    2    1    2    0    0 -0.54575431506E+03  0.63314495692E+03  0.42778312294E+03  0.13002405955E+04  0.89939251550E+03 0.  0.
        -24    2    4    4    0    0  0.15226503259E+03 -0.75076726956E+02 -0.48756305954E+02  0.19494383473E+03  0.82491007080E+02 0.  0.
         24    2    4    4    0    0 -0.69801934765E+03  0.70822168387E+03  0.47653942889E+03  0.11052967607E+04  0.76040376002E+02 0.  0.
         13    1    3    3    0    0  0.51433363515E+03 -0.59287080253E+03  0.79382382893E+03  0.11163293189E+04  0.00000000000E+00 0. -1.
        -13    1    3    3    0    0  0.31420679903E+02 -0.40274154382E+02  0.90127456296E+02  0.10359645272E+03  0.00000000000E+00 0.  1.
          4    1    6    6  502    0 -0.24189836538E+03  0.19927013641E+03  0.13440981389E+03  0.34101232310E+03  0.00000000000E+00 0. -1.
          1    1    5    5  503    0  0.30923588170E+02 -0.19038353203E+02  0.23255460872E+02  0.43122426398E+02  0.00000000000E+00 0. -1.
         -2    1    5    5    0  503  0.12134144442E+03 -0.56038373752E+02 -0.72011766826E+02  0.15182140834E+03  0.00000000000E+00 0.  1.
         -3    1    6    6    0  502 -0.45612098227E+03  0.50895154747E+03  0.34212961500E+03  0.76428443763E+03  0.00000000000E+00 0.  1.
<mgrwt>
<rscale>  0 0.21518809E+04</rscale>
<asrwt>0</asrwt>
<pdfrwt beam="1">  1        2 0.92956305E-01 0.21518809E+04</pdfrwt>
<pdfrwt beam="2">  1       -2 0.29476160E+00 0.21518809E+04</pdfrwt>
<totfact> 0.15450113E+00</totfact>
</mgrwt>
</event>
<event>
12    1  0.2433511E-007  0.2884920E+04  0.7818608E-02  0.8277378E-01
         -2   -1    0    0    0  501 -0.00000000000E+00  0.00000000000E+00  0.19923208522E+04  0.19923208522E+04  0.00000000000E+00 0.  1.
          2   -1    0    0  501    0  0.00000000000E+00 -0.00000000000E+00 -0.10443552577E+04  0.10443552577E+04  0.00000000000E+00 0. -1.
         23    2    1    2    0    0 -0.62085163294E+03 -0.10208733310E+04  0.96816957313E+03  0.15405348132E+04  0.90862976093E+02 0.  0.
        254    2    1    2    0    0  0.62085163294E+03  0.10208733310E+04 -0.20203978641E+02  0.14961412966E+04  0.90021745746E+03 0.  0.
        -24    2    4    4    0    0 -0.15700052242E+03  0.19216565061E+03 -0.21804573398E+03  0.33980393475E+03  0.79661600857E+02 0.  0.
         24    2    4    4    0    0  0.77785215536E+03  0.82870768038E+03  0.19784175534E+03  0.11563373619E+04  0.78513306034E+02 0.  0.
         13    1    3    3    0    0 -0.24512648279E+03 -0.33075838986E+03  0.36035493443E+03  0.54712318887E+03  0.00000000000E+00 0. -1.
        -13    1    3    3    0    0 -0.37572515015E+03 -0.69011494113E+03  0.60781463870E+03  0.99341162438E+03  0.00000000000E+00 0.  1.
          4    1    6    6  502    0  0.15668789175E+03  0.16227060538E+03  0.78842280099E+01  0.22571000387E+03  0.00000000000E+00 0. -1.
          3    1    5    5  503    0 -0.43154348449E+02  0.11052051204E+03 -0.79828820381E+02  0.14300252423E+03  0.00000000000E+00 0. -1.
         -4    1    5    5    0  503 -0.11384617398E+03  0.81645138571E+02 -0.13821691360E+03  0.19680141053E+03  0.00000000000E+00 0.  1.
         -1    1    6    6    0  502  0.62116426361E+03  0.66643707500E+03  0.18995752733E+03  0.93062735802E+03  0.00000000000E+00 0.  1.
<mgrwt>
<rscale>  0 0.28849199E+04</rscale>
<asrwt>0</asrwt>
<pdfrwt beam="1">  1        2 0.16067004E+00 0.28849199E+04</pdfrwt>
<pdfrwt beam="2">  1       -2 0.30651090E+00 0.28849199E+04</pdfrwt>
<totfact> 0.59124216E-01</totfact>
</mgrwt>
</event>
<event>
12    1  0.2433511E-007  0.1571563E+04  0.7818608E-02  0.8838211E-01
         -1   -1    0    0    0  501 -0.00000000000E+00  0.00000000000E+00  0.46055741582E+03  0.46055741582E+03  0.00000000000E+00 0.  1.
          1   -1    0    0  501    0  0.00000000000E+00 -0.00000000000E+00 -0.13406643995E+04  0.13406643995E+04  0.00000000000E+00 0. -1.
         23    2    1    2    0    0 -0.12822155078E+03  0.49470841408E+03 -0.16786700195E+03  0.54538035703E+03  0.89906743031E+02 0.  0.
        254    2    1    2    0    0  0.12822155078E+03 -0.49470841408E+03 -0.71223998176E+03  0.12558414583E+04  0.89926347405E+03 0.  0.
        -24    2    4    4    0    0  0.84276863061E+02  0.22107677243E+03 -0.39562615941E+03  0.46794670662E+03  0.80476911446E+02 0.  0.
         24    2    4    4    0    0  0.43944687724E+02 -0.71578518650E+03 -0.31661382235E+03  0.78789475170E+03  0.79083869708E+02 0.  0.
         13    1    3    3    0    0 -0.52699517928E+02  0.31885451145E+03 -0.71040726978E+02  0.33089609177E+03  0.00000000000E+00 0. -1.
        -13    1    3    3    0    0 -0.75522032857E+02  0.17585390263E+03 -0.96826274974E+02  0.21448426526E+03  0.00000000000E+00 0.  1.
          4    1    6    6  502    0  0.26415541844E+02 -0.32582154969E+03 -0.10201993258E+03  0.34244054920E+03  0.00000000000E+00 0. -1.
          3    1    5    5  503    0  0.99355253420E+02  0.17942913376E+03 -0.31335296305E+03  0.37450815729E+03  0.00000000000E+00 0. -1.
         -4    1    5    5    0  503 -0.15078390359E+02  0.41647638668E+02 -0.82273196358E+02  0.93438549333E+02  0.00000000000E+00 0.  1.
         -3    1    6    6    0  502  0.17529145879E+02 -0.38996363682E+03 -0.21459388978E+03  0.44545420250E+03  0.00000000000E+00 0.  1.
<mgrwt>
<rscale>  0 0.15715635E+04</rscale>
<asrwt>0</asrwt>
<pdfrwt beam="1">  1        1 0.20625606E+00 0.15715635E+04</pdfrwt>
<pdfrwt beam="2">  1       -1 0.70854987E-01 0.15715635E+04</pdfrwt>
<totfact> 0.16375634E+01</totfact>
</mgrwt>
</event>
<event>
12    1  0.2433511E-007  0.1978531E+04  0.7818608E-02  0.8616724E-01
         -2   -1    0    0    0  501 -0.00000000000E+00  0.00000000000E+00  0.31211056194E+03  0.31211056194E+03  0.00000000000E+00 0.  1.
          2   -1    0    0  501    0  0.00000000000E+00 -0.00000000000E+00 -0.31355755543E+04  0.31355755543E+04  0.00000000000E+00 0. -1.
         23    2    1    2    0    0 -0.45308975464E+02  0.43115959656E+03  0.98676027016E+01  0.44339580685E+03  0.92471460420E+02 0.  0.
        254    2    1    2    0    0  0.45308975464E+02 -0.43115959656E+03 -0.28333325951E+04  0.30042903094E+04  0.90001953747E+03 0.  0.
        -24    2    4    4    0    0  0.25285011249E+03 -0.26176191655E+03 -0.36947716505E+03  0.52459391240E+03  0.78948825750E+02 0.  0.
         24    2    4    4    0    0 -0.20754113703E+03 -0.16939768000E+03 -0.24638554300E+04  0.24796963970E+04  0.80881046233E+02 0.  0.
         13    1    3    3    0    0 -0.55022175596E+02  0.12059535858E+03  0.12557801172E+01  0.13256039115E+03  0.00000000000E+00 0.  1.
        -13    1    3    3    0    0  0.97132001325E+01  0.31056423798E+03  0.86118225845E+01  0.31083541571E+03  0.00000000000E+00 0. -1.
          2    1    6    6  502    0 -0.10380530408E+03 -0.68840548348E+02 -0.14880222551E+04  0.14932263037E+04  0.00000000000E+00 0. -1.
          1    1    5    5  503    0  0.12944818212E+02 -0.50733356535E+02 -0.42614507402E+02  0.67508799611E+02  0.00000000000E+00 0. -1.
         -2    1    5    5    0  503  0.23990529428E+03 -0.21102856002E+03 -0.32686265764E+03  0.45708511278E+03  0.00000000000E+00 0.  1.
         -1    1    6    6    0  502 -0.10373583295E+03 -0.10055713165E+03 -0.97583317486E+03  0.98647009327E+03  0.00000000000E+00 0.  1.
<mgrwt>
<rscale>  0 0.19785310E+04</rscale>
<asrwt>0</asrwt>
<pdfrwt beam="1">  1        2 0.48239625E+00 0.19785310E+04</pdfrwt>
<pdfrwt beam="2">  1       -2 0.48017009E-01 0.19785310E+04</pdfrwt>
<totfact> 0.54781159E+00</totfact>
</mgrwt>
</event>
<event>
12    1  0.2433511E-007  0.2509338E+04  0.7818608E-02  0.8399666E-01
          2   -1    0    0  501    0  0.00000000000E+00  0.00000000000E+00  0.11730091268E+04  0.11730091268E+04  0.00000000000E+00 0. -1.
         -2   -1    0    0    0  501 -0.00000000000E+00 -0.00000000000E+00 -0.13420135167E+04  0.13420135167E+04  0.00000000000E+00 0.  1.
         23    2    1    2    0    0 -0.82987349547E+03  0.64418261513E+03 -0.36933581539E+03  0.11173793227E+04  0.92012750278E+02 0.  0.
        254    2    1    2    0    0  0.82987349547E+03 -0.64418261513E+03  0.20033142549E+03  0.13976433208E+04  0.89978492549E+03 0.  0.
        -24    2    4    4    0    0  0.34950010578E+03 -0.52354917058E+02  0.46218963449E+03  0.58742364794E+03  0.80968652275E+02 0.  0.
         24    2    4    4    0    0  0.48037338968E+03 -0.59182769807E+03 -0.26185820900E+03  0.81021967290E+03  0.82870857412E+02 0.  0.
         11    1    3    3    0    0 -0.46801762678E+03  0.34593559090E+03 -0.25063395353E+03  0.63366340488E+03  0.00000000000E+00 0.  1.
        -11    1    3    3    0    0 -0.36185586869E+03  0.29824702423E+03 -0.11870186186E+03  0.48371591784E+03  0.00000000000E+00 0. -1.
          4    1    6    6  502    0  0.31969457512E+03 -0.33316565528E+03 -0.14356685332E+03  0.48354463765E+03  0.00000000000E+00 0. -1.
          3    1    5    5  503    0  0.30427030820E+03 -0.64925668836E+02  0.36582693986E+03  0.48023443530E+03  0.00000000000E+00 0. -1.
         -2    1    5    5    0  503  0.45229797583E+02  0.12570751778E+02  0.96362694630E+02  0.10718921264E+03  0.00000000000E+00 0.  1.
         -3    1    6    6    0  502  0.16067881456E+03 -0.25866204279E+03 -0.11829135568E+03  0.32667503525E+03  0.00000000000E+00 0.  1.
<mgrwt>
<rscale>  0 0.25093378E+04</rscale>
<asrwt>0</asrwt>
<pdfrwt beam="1">  1        2 0.18046294E+00 0.25093378E+04</pdfrwt>
<pdfrwt beam="2">  1       -2 0.20646362E+00 0.25093378E+04</pdfrwt>
<totfact> 0.21146683E+00</totfact>
</mgrwt>
</event>
<event>
12    1  0.2433511E-007  0.2973420E+04  0.7818608E-02  0.8251362E-01
         -2   -1    0    0    0  501 -0.00000000000E+00  0.00000000000E+00  0.11715253301E+04  0.11715253301E+04  0.00000000000E+00 0.  1.
          2   -1    0    0  501    0  0.00000000000E+00 -0.00000000000E+00 -0.18866908125E+04  0.18866908125E+04  0.00000000000E+00 0. -1.
         23    2    1    2    0    0  0.10219024569E+04 -0.50374841765E+03 -0.10671946940E+04  0.15637735141E+04  0.91847640133E+02 0.  0.
        254    2    1    2    0    0 -0.10219024569E+04  0.50374841765E+03  0.35202921161E+03  0.14944426285E+04  0.90077028387E+03 0.  0.
        -24    2    4    4    0    0 -0.86138091854E+03  0.70663221477E+03  0.97283553192E+02  0.11211422118E+04  0.78673983059E+02 0.  0.
         24    2    4    4    0    0 -0.16052153834E+03 -0.20288379713E+03  0.25474565842E+03  0.37330041666E+03  0.86768952902E+02 0.  0.
         11    1    3    3    0    0  0.45889056422E+03 -0.21197919608E+03 -0.53366145341E+03  0.73505800883E+03  0.00000000000E+00 0.  1.
        -11    1    3    3    0    0  0.56301189266E+03 -0.29176922157E+03 -0.53353324057E+03  0.82871550530E+03  0.00000000000E+00 0. -1.
          2    1    6    6  502    0 -0.14279651680E+03 -0.11596062047E+03  0.16497719751E+03  0.24709347706E+03  0.00000000000E+00 0. -1.
          1    1    5    5  503    0 -0.50334083123E+03  0.43565055045E+03  0.23575957552E+02  0.66610751404E+03  0.00000000000E+00 0. -1.
         -2    1    5    5    0  503 -0.35804008731E+03  0.27098166432E+03  0.73707595640E+02  0.45503469777E+03  0.00000000000E+00 0.  1.
         -1    1    6    6    0  502 -0.17725021546E+02 -0.86923176654E+02  0.89768460905E+02  0.12620693959E+03  0.00000000000E+00 0.  1.
<mgrwt>
<rscale>  0 0.29734196E+04</rscale>
<asrwt>0</asrwt>
<pdfrwt beam="1">  1        2 0.29026012E+00 0.29734196E+04</pdfrwt>
<pdfrwt beam="2">  1       -2 0.18023467E+00 0.29734196E+04</pdfrwt>
<totfact> 0.11971522E+00</totfact>
</mgrwt>
</event>
<event>
12    1  0.2433511E-007  0.2688376E+04  0.7818608E-02  0.8338786E-01
          1   -1    0    0  501    0  0.00000000000E+00  0.00000000000E+00  0.11920460883E+04  0.11920460883E+04  0.00000000000E+00 0. -1.
         -1   -1    0    0    0  501 -0.00000000000E+00 -0.00000000000E+00 -0.15157483467E+04  0.15157483467E+04  0.00000000000E+00 0.  1.
         23    2    1    2    0    0  0.82081921518E+03 -0.22117426670E+03 -0.98512013531E+03  0.13043553250E+04  0.90658107599E+02 0.  0.
        254    2    1    2    0    0 -0.82081921518E+03  0.22117426670E+03  0.66141787696E+03  0.14034391100E+04  0.89972522876E+03 0.  0.
        -24    2    4    4    0    0 -0.35724247643E+03  0.26109053202E+03  0.79445344245E+03  0.91283783601E+03  0.79537348193E+02 0.  0.
         24    2    4    4    0    0 -0.46357673875E+03 -0.39916265314E+02 -0.13303556549E+03  0.49060127399E+03  0.80588134421E+02 0.  0.
         11    1    3    3    0    0  0.66648687561E+03 -0.20429049378E+03 -0.84288349578E+03  0.10937970327E+04  0.00000000000E+00 0.  1.
        -11    1    3    3    0    0  0.15433233957E+03 -0.16883772919E+02 -0.14223663953E+03  0.21055829229E+03  0.00000000000E+00 0. -1.
          2    1    6    6  502    0 -0.17873134784E+03 -0.51308774816E+02 -0.35531462313E+02  0.18931447353E+03  0.00000000000E+00 0. -1.
          3    1    5    5  503    0 -0.25053796108E+03  0.20266780686E+03  0.50753353576E+03  0.60119364584E+03  0.00000000000E+00 0. -1.
         -4    1    5    5    0  503 -0.10670451535E+03  0.58422725159E+02  0.28691990670E+03  0.31164419017E+03  0.00000000000E+00 0.  1.
         -1    1    6    6    0  502 -0.28484539091E+03  0.11392509502E+02 -0.97504103182E+02  0.30128680047E+03  0.00000000000E+00 0.  1.
<mgrwt>
<rscale>  0 0.26883764E+04</rscale>
<asrwt>0</asrwt>
<pdfrwt beam="1">  1        1 0.18339170E+00 0.26883764E+04</pdfrwt>
<pdfrwt beam="2">  1       -1 0.23319205E+00 0.26883764E+04</pdfrwt>
<totfact> 0.85100203E-01</totfact>
</mgrwt>
</event>
<event>
12    1  0.2433511E-007  0.2107858E+04  0.7818608E-02  0.8557790E-01
          2   -1    0    0  501    0  0.00000000000E+00  0.00000000000E+00  0.11951037787E+04  0.11951037787E+04  0.00000000000E+00 0. -1.
         -2   -1    0    0    0  501 -0.00000000000E+00 -0.00000000000E+00 -0.92943095157E+03  0.92943095157E+03  0.00000000000E+00 0.  1.
         23    2    1    2    0    0 -0.62454263717E+03 -0.70682775727E+02  0.69944000759E+03  0.94477645307E+03  0.91305320890E+02 0.  0.
        254    2    1    2    0    0  0.62454263717E+03  0.70682775727E+02 -0.43376718050E+03  0.11797582772E+04  0.89923637896E+03 0.  0.
        -24    2    4    4    0    0  0.53696051645E+03  0.41534685939E+03 -0.10816347595E+03  0.69095159953E+03  0.69822385596E+02 0.  0.
         24    2    4    4    0    0  0.87582120715E+02 -0.34466408367E+03 -0.32560370456E+03  0.48880667763E+03  0.80313369003E+02 0.  0.
         13    1    3    3    0    0 -0.43577186807E+03 -0.52858473098E+02  0.54784355533E+03  0.70201403141E+03  0.00000000000E+00 0.  1.
        -13    1    3    3    0    0 -0.18877076910E+03 -0.17824302628E+02  0.15159645226E+03  0.24276242165E+03  0.00000000000E+00 0. -1.
          2    1    6    6  502    0  0.17385262825E+02 -0.33052294132E+02 -0.76646039332E+01  0.38124108702E+02  0.00000000000E+00 0. -1.
          1    1    5    5  503    0  0.16664685763E+03  0.12263496294E+03 -0.99829277494E+00  0.20690941467E+03  0.00000000000E+00 0. -1.
         -2    1    5    5    0  503  0.37031365883E+03  0.29271189645E+03 -0.10716518317E+03  0.48404218486E+03  0.00000000000E+00 0.  1.
         -1    1    6    6    0  502  0.70196857891E+02 -0.31161178953E+03 -0.31793910062E+03  0.45068256893E+03  0.00000000000E+00 0.  1.
<mgrwt>
<rscale>  0 0.21078581E+04</rscale>
<asrwt>0</asrwt>
<pdfrwt beam="1">  1        2 0.18386212E+00 0.21078581E+04</pdfrwt>
<pdfrwt beam="2">  1       -2 0.14298938E+00 0.21078581E+04</pdfrwt>
<totfact> 0.59698531E+00</totfact>
</mgrwt>
</event>
<event>
12    1  0.2433511E-007  0.2828209E+04  0.7818608E-02  0.8294564E-01
          1   -1    0    0  501    0  0.00000000000E+00  0.00000000000E+00  0.12827201166E+04  0.12827201166E+04  0.00000000000E+00 0. -1.
         -1   -1    0    0    0  501 -0.00000000000E+00 -0.00000000000E+00 -0.15589463778E+04  0.15589463778E+04  0.00000000000E+00 0.  1.
         23    2    1    2    0    0  0.59715667839E+03 -0.99541139063E+03  0.39140196893E+03  0.12286763174E+04  0.94921317599E+02 0.  0.
        254    2    1    2    0    0 -0.59715667839E+03  0.99541139063E+03 -0.66762823021E+03  0.16129901770E+04  0.89920516130E+03 0.  0.
        -24    2    4    4    0    0 -0.38705990213E+03  0.37785064256E+03 -0.77355725677E+03  0.94735736129E+03  0.80676295000E+02 0.  0.
         24    2    4    4    0    0 -0.21009677627E+03  0.61756074807E+03  0.10592902656E+03  0.66563281568E+03  0.79524547737E+02 0.  0.
         13    1    3    3    0    0  0.49551368137E+03 -0.74916631544E+03  0.29672286448E+03  0.94595371711E+03  0.00000000000E+00 0. -1.
        -13    1    3    3    0    0  0.10164299703E+03 -0.24624507519E+03  0.94679104444E+02  0.28272260030E+03  0.00000000000E+00 0.  1.
          4    1    6    6  502    0 -0.90057560558E+02  0.15602421641E+03  0.23646485296E+02  0.18169500980E+03  0.00000000000E+00 0. -1.
          1    1    5    5  503    0 -0.38555431376E+02  0.44353939457E+02 -0.46978809379E+02  0.75238299852E+02  0.00000000000E+00 0. -1.
         -2    1    5    5    0  503 -0.34850447075E+03  0.33349670311E+03 -0.72657844739E+03  0.87211906144E+03  0.00000000000E+00 0.  1.
         -1    1    6    6    0  502 -0.12003921571E+03  0.46153653166E+03  0.82282541266E+02  0.48393780589E+03  0.00000000000E+00 0.  1.
<mgrwt>
<rscale>  0 0.28282092E+04</rscale>
<asrwt>0</asrwt>
<pdfrwt beam="1">  1        1 0.19734156E+00 0.28282092E+04</pdfrwt>
<pdfrwt beam="2">  1       -1 0.23983791E+00 0.28282092E+04</pdfrwt>
<totfact> 0.65328511E-01</totfact>
</mgrwt>
</event>
<event>
12    1  0.2433511E-007  0.1602342E+04  0.7818608E-02  0.8819111E-01
         -1   -1    0    0    0  501 -0.00000000000E+00  0.00000000000E+00  0.29888186086E+04  0.29888186086E+04  0.00000000000E+00 0.  1.
          1   -1    0    0  501    0  0.00000000000E+00 -0.00000000000E+00 -0.21475872413E+03  0.21475872413E+03  0.00000000000E+00 0. -1.
         23    2    1    2    0    0 -0.43308229175E+03 -0.28691842951E+03  0.12793214327E+04  0.13833749634E+04  0.84737857308E+02 0.  0.
        254    2    1    2    0    0  0.43308229175E+03  0.28691842951E+03  0.14947384517E+04  0.18202023693E+04  0.89945048200E+03 0.  0.
        -24    2    4    4    0    0 -0.25659541708E+03 -0.18103273393E+02  0.51210076584E+03  0.57878649232E+03  0.81102852904E+02 0.  0.
         24    2    4    4    0    0  0.68967770884E+03  0.30502170291E+03  0.98263768585E+03  0.12414158770E+04  0.82722286016E+02 0.  0.
         11    1    3    3    0    0 -0.35134797741E+03 -0.18986126760E+03  0.98304131861E+03  0.10610668859E+04  0.00000000000E+00 0. -1.
        -11    1    3    3    0    0 -0.81734314349E+02 -0.97057161913E+02  0.29628011412E+03  0.32230807754E+03  0.00000000000E+00 0.  1.
          4    1    6    6  502    0  0.56099310328E+03  0.26681592381E+03  0.76174885640E+03  0.98293708820E+03  0.00000000000E+00 0. -1.
          1    1    5    5  503    0 -0.19543103410E+03  0.11080511480E+02  0.42905820088E+03  0.47160047346E+03  0.00000000000E+00 0. -1.
         -2    1    5    5    0  503 -0.61164382988E+02 -0.29183784873E+02  0.83042564958E+02  0.10718601887E+03  0.00000000000E+00 0.  1.
         -3    1    6    6    0  502  0.12868460555E+03  0.38205779092E+02  0.22088882946E+03  0.25847878877E+03  0.00000000000E+00 0.  1.
<mgrwt>
<rscale>  0 0.16023419E+04</rscale>
<asrwt>0</asrwt>
<pdfrwt beam="1">  1        1 0.33039806E-01 0.16023419E+04</pdfrwt>
<pdfrwt beam="2">  1       -1 0.45981822E+00 0.16023419E+04</pdfrwt>
<totfact> 0.36161339E-01</totfact>
</mgrwt>
</event>
<event>
12    1  0.2433511E-007  0.1792469E+04  0.7818608E-02  0.8710314E-01
         -2   -1    0    0    0  501 -0.00000000000E+00  0.00000000000E+00  0.64526538694E+03  0.64526538694E+03  0.00000000000E+00 0. -1.
          2   -1    0    0  501    0  0.00000000000E+00 -0.00000000000E+00 -0.12448159641E+04  0.12448159641E+04  0.00000000000E+00 0.  1.
         23    2    1    2    0    0  0.20818557159E+03  0.59231589950E+03 -0.45968096971E+03  0.78442549443E+03  0.99183695111E+02 0.  0.
        254    2    1    2    0    0 -0.20818557159E+03 -0.59231589950E+03 -0.13986960747E+03  0.11056558566E+04  0.89929528476E+03 0.  0.
        -24    2    4    4    0    0 -0.22717209604E+03  0.88168993661E+02  0.21456081665E+03  0.33402234874E+03  0.78445221337E+02 0.  0.
         24    2    4    4    0    0  0.18986524450E+02 -0.68048489316E+03 -0.35443042412E+03  0.77163350789E+03  0.79857166418E+02 0.  0.
         11    1    3    3    0    0  0.20581264210E+03  0.51150426896E+03 -0.37174772316E+03  0.66497506005E+03  0.00000000000E+00 0.  1.
        -11    1    3    3    0    0  0.23729294947E+01  0.80811630536E+02 -0.87933246544E+02  0.11945043437E+03  0.00000000000E+00 0. -1.
          4    1    6    6  502    0  0.20094268356E+02 -0.15498209498E+03 -0.48828710151E+02  0.16372987608E+03  0.00000000000E+00 0. -1.
          1    1    5    5  503    0 -0.34292646352E+02 -0.39488667227E+00  0.31243704560E+01  0.34436945568E+02  0.00000000000E+00 0. -1.
         -2    1    5    5    0  503 -0.19287944969E+03  0.88563880333E+02  0.21143644620E+03  0.29958540317E+03  0.00000000000E+00 0.  1.
         -3    1    6    6    0  502 -0.11077439060E+01 -0.52550279818E+03 -0.30560171397E+03  0.60790363182E+03  0.00000000000E+00 0.  1.
<mgrwt>
<rscale>  0 0.17924694E+04</rscale>
<asrwt>0</asrwt>
<pdfrwt beam="1">  1        2 0.19151015E+00 0.17924694E+04</pdfrwt>
<pdfrwt beam="2">  1       -2 0.99271599E-01 0.17924694E+04</pdfrwt>
<totfact> 0.14144052E+01</totfact>
</mgrwt>
</event>
<event>
12    1  0.2433511E-007  0.1326811E+04  0.7818608E-02  0.9008570E-01
         -2   -1    0    0    0  501 -0.00000000000E+00  0.00000000000E+00  0.56501939938E+03  0.56501939938E+03  0.00000000000E+00 0.  1.
          2   -1    0    0  501    0  0.00000000000E+00 -0.00000000000E+00 -0.77892394070E+03  0.77892394070E+03  0.00000000000E+00 0. -1.
         23    2    1    2    0    0  0.31681277708E+03 -0.11943726730E+03  0.41787850948E+02  0.35348705566E+03  0.92581194068E+02 0.  0.
        254    2    1    2    0    0 -0.31681277708E+03  0.11943726730E+03 -0.25569239227E+03  0.99045628441E+03  0.89498014242E+03 0.  0.
        -24    2    4    4    0    0 -0.23873518838E+03 -0.36605323360E+03 -0.35109432642E+02  0.44558991502E+03  0.79550236384E+02 0.  0.
         24    2    4    4    0    0 -0.78077588699E+02  0.48549050090E+03 -0.22058295963E+03  0.54486636939E+03  0.80158481119E+02 0.  0.
         11    1    3    3    0    0  0.18529446296E+03 -0.23066619299E+02  0.75096002118E+01  0.18687562983E+03  0.00000000000E+00 0. -1.
        -11    1    3    3    0    0  0.13151831412E+03 -0.96370648000E+02  0.34278250737E+02  0.16661142583E+03  0.00000000000E+00 0.  1.
          2    1    6    6  502    0 -0.34525423522E+02  0.37520154091E+03 -0.19203515000E+03  0.42290152519E+03  0.00000000000E+00 0. -1.
          3    1    5    5  503    0 -0.23227303111E+03 -0.36982032297E+03 -0.34095005866E+02  0.43804143832E+03  0.00000000000E+00 0. -1.
         -4    1    5    5    0  503 -0.64621572721E+01  0.37670893641E+01 -0.10144267752E+01  0.75484767052E+01  0.00000000000E+00 0.  1.
         -1    1    6    6    0  502 -0.43552165178E+02  0.11028895999E+03 -0.28547809628E+02  0.12196484420E+03  0.00000000000E+00 0.  1.
<mgrwt>
<rscale>  0 0.13268114E+04</rscale>
<asrwt>0</asrwt>
<pdfrwt beam="1">  1        2 0.11983445E+00 0.13268114E+04</pdfrwt>
<pdfrwt beam="2">  1       -2 0.86926062E-01 0.13268114E+04</pdfrwt>
<totfact> 0.39984995E+01</totfact>
</mgrwt>
</event>
<event>
12    1  0.2433511E-007  0.1417326E+04  0.7818608E-02  0.8941372E-01
         -2   -1    0    0    0  501 -0.00000000000E+00  0.00000000000E+00  0.73619074182E+03  0.73619074182E+03  0.00000000000E+00 0.  1.
          2   -1    0    0  501    0  0.00000000000E+00 -0.00000000000E+00 -0.68216439525E+03  0.68216439525E+03  0.00000000000E+00 0. -1.
         23    2    1    2    0    0  0.36059194982E+03  0.46435773208E+02  0.21915638271E+03  0.43393821362E+03  0.89944526497E+02 0.  0.
        254    2    1    2    0    0 -0.36059194982E+03 -0.46435773208E+02 -0.16513003614E+03  0.98441692345E+03  0.89979215102E+03 0.  0.
        -24    2    4    4    0    0  0.13650060197E+03 -0.27797684109E+02  0.27345046310E+03  0.31700653970E+03  0.79453539014E+02 0.  0.
         24    2    4    4    0    0 -0.49709255179E+03 -0.18638089099E+02 -0.43858049924E+03  0.66741038375E+03  0.75069185549E+02 0.  0.
         13    1    3    3    0    0  0.69212284996E+02  0.30022859221E+02  0.12826624304E+02  0.76526039759E+02  0.00000000000E+00 0. -1.
        -13    1    3    3    0    0  0.29137966482E+03  0.16412913987E+02  0.20632975841E+03  0.35741217386E+03  0.00000000000E+00 0.  1.
          2    1    6    6  502    0 -0.23046359868E+03  0.25451668439E+02 -0.22313447876E+03  0.32179225185E+03  0.00000000000E+00 0. -1.
          3    1    5    5  503    0  0.12013833183E+03 -0.44063734623E+02  0.26125312434E+03  0.29090896594E+03  0.00000000000E+00 0. -1.
         -4    1    5    5    0  503  0.16362270141E+02  0.16266050514E+02  0.12197338758E+02  0.26097573762E+02  0.00000000000E+00 0.  1.
         -1    1    6    6    0  502 -0.26662895312E+03 -0.44089757538E+02 -0.21544602048E+03  0.34561813190E+03  0.00000000000E+00 0.  1.
<mgrwt>
<rscale>  0 0.14173258E+04</rscale>
<asrwt>0</asrwt>
<pdfrwt beam="1">  1        2 0.10494837E+00 0.14173258E+04</pdfrwt>
<pdfrwt beam="2">  1       -2 0.11326011E+00 0.14173258E+04</pdfrwt>
<totfact> 0.25183257E+01</totfact>
</mgrwt>
</event>
<event>
12    1  0.2433511E-007  0.1085718E+04  0.7818608E-02  0.9219225E-01
         -1   -1    0    0    0  501 -0.00000000000E+00  0.00000000000E+00  0.24311346362E+03  0.24311346362E+03  0.00000000000E+00 0.  1.
          1   -1    0    0  501    0  0.00000000000E+00 -0.00000000000E+00 -0.12121732310E+04  0.12121732310E+04  0.00000000000E+00 0. -1.
         23    2    1    2    0    0  0.84542977909E+02  0.11219891279E+03 -0.18460799908E+03  0.24883929248E+03  0.90026490603E+02 0.  0.
        254    2    1    2    0    0 -0.84542977909E+02 -0.11219891279E+03 -0.78445176825E+03  0.12064474021E+04  0.90576743492E+03 0.  0.
        -24    2    4    4    0    0 -0.18820961264E+03 -0.48406932279E+02 -0.95747343177E+03  0.97997513296E+03  0.76353122306E+02 0.  0.
         24    2    4    4    0    0  0.10366663474E+03 -0.63791980507E+02  0.17302166351E+03  0.22647226914E+03  0.80851745252E+02 0.  0.
         11    1    3    3    0    0  0.21480808208E+02  0.65971544675E+02 -0.14597703265E+03  0.16162600004E+03  0.00000000000E+00 0. -1.
        -11    1    3    3    0    0  0.63062169701E+02  0.46227368111E+02 -0.38630966436E+02  0.87213292437E+02  0.00000000000E+00 0.  1.
          4    1    6    6  502    0  0.46032848505E+02 -0.27271508541E+01  0.16733237173E+02  0.49055700174E+02  0.00000000000E+00 0. -1.
          3    1    5    5  503    0 -0.14486256793E+03 -0.69398749718E+02 -0.73350815274E+03  0.75088984557E+03  0.00000000000E+00 0. -1.
         -4    1    5    5    0  503 -0.43347044714E+02  0.20991817439E+02 -0.22396527903E+03  0.22908528738E+03  0.00000000000E+00 0.  1.
         -3    1    6    6    0  502  0.57633786230E+02 -0.61064829653E+02  0.15628842634E+03  0.17741656897E+03  0.00000000000E+00 0.  1.
<mgrwt>
<rscale>  0 0.10857175E+04</rscale>
<asrwt>0</asrwt>
<pdfrwt beam="1">  1        1 0.18648818E+00 0.10857175E+04</pdfrwt>
<pdfrwt beam="2">  1       -1 0.37402072E-01 0.10857175E+04</pdfrwt>
<totfact> 0.71825158E+01</totfact>
</mgrwt>
</event>
<event>
12    1  0.2433511E-007  0.2689081E+04  0.7818608E-02  0.8338556E-01
          1   -1    0    0  501    0  0.00000000000E+00  0.00000000000E+00  0.10523685968E+04  0.10523685968E+04  0.00000000000E+00 0. -1.
         -1   -1    0    0    0  501 -0.00000000000E+00 -0.00000000000E+00 -0.17178294251E+04  0.17178294251E+04  0.00000000000E+00 0.  1.
         23    2    1    2    0    0  0.49820929682E+03  0.89334537526E+03 -0.92403628251E+03  0.13810602912E+04  0.84888241380E+02 0.  0.
        254    2    1    2    0    0 -0.49820929682E+03 -0.89334537526E+03  0.25857545430E+03  0.13891377307E+04  0.90363925679E+03 0.  0.
        -24    2    4    4    0    0 -0.60873840991E+03 -0.49401412992E+03  0.46991972548E+03  0.91759984499E+03  0.80947605752E+02 0.  0.
         24    2    4    4    0    0  0.11052911309E+03 -0.39933124534E+03 -0.21134427118E+03  0.47153788573E+03  0.77456106067E+02 0.  0.
         13    1    3    3    0    0  0.26235402290E+03  0.47670253653E+03 -0.54818480158E+03  0.77238689680E+03  0.00000000000E+00 0.  1.
        -13    1    3    3    0    0  0.23585527392E+03  0.41664283872E+03 -0.37585148093E+03  0.60867339437E+03  0.00000000000E+00 0. -1.
          2    1    6    6  502    0  0.20310202337E+02 -0.11598862256E+02 -0.10190229004E+02  0.25512324311E+02  0.00000000000E+00 0. -1.
          1    1    5    5  503    0 -0.26336441410E+03 -0.25308430201E+03  0.18763059084E+03  0.41063087701E+03  0.00000000000E+00 0. -1.
         -2    1    5    5    0  503 -0.34537399581E+03 -0.24092982791E+03  0.28228913464E+03  0.50696896798E+03  0.00000000000E+00 0.  1.
         -1    1    6    6    0  502  0.90218910753E+02 -0.38773238308E+03 -0.20115404218E+03  0.44602556141E+03  0.00000000000E+00 0.  1.
<mgrwt>
<rscale>  0 0.26890814E+04</rscale>
<asrwt>0</asrwt>
<pdfrwt beam="1">  1        1 0.16190286E+00 0.26890814E+04</pdfrwt>
<pdfrwt beam="2">  1       -1 0.26428145E+00 0.26890814E+04</pdfrwt>
<totfact> 0.67782373E-01</totfact>
</mgrwt>
</event>
<event>
12    1  0.2433511E-007  0.1936168E+04  0.7818608E-02  0.8637060E-01
          4   -1    0    0  501    0  0.00000000000E+00  0.00000000000E+00  0.10460664243E+04  0.10460664243E+04  0.00000000000E+00 0. -1.
         -4   -1    0    0    0  501 -0.00000000000E+00 -0.00000000000E+00 -0.89591524726E+03  0.89591524726E+03  0.00000000000E+00 0.  1.
         23    2    1    2    0    0 -0.39070548878E+03 -0.59642009271E+02 -0.58524567378E+03  0.71212291905E+03  0.91643902831E+02 0.  0.
        254    2    1    2    0    0  0.39070548878E+03  0.59642009271E+02  0.73539685084E+03  0.12298587525E+04  0.90307035978E+03 0.  0.
        -24    2    4    4    0    0  0.59063535236E+03  0.15488226403E+03  0.77632097787E+03  0.99093138853E+03  0.80200504560E+02 0.  0.
         24    2    4    4    0    0 -0.19992986358E+03 -0.95240254757E+02 -0.40924127031E+02  0.23892736400E+03  0.79805041295E+02 0.  0.
         11    1    3    3    0    0 -0.31836343583E+03 -0.52342405417E+02 -0.40526519803E+03  0.51801050705E+03  0.00000000000E+00 0. -1.
        -11    1    3    3    0    0 -0.72342052945E+02 -0.72996038546E+01 -0.17998047575E+03  0.19411241200E+03  0.00000000000E+00 0.  1.
          4    1    6    6  502    0 -0.65522338639E+02 -0.30471148598E+02 -0.52440604184E+02  0.89284291590E+02  0.00000000000E+00 0. -1.
          3    1    5    5  503    0  0.11937191080E+03  0.48026335734E+02  0.12029842710E+03  0.17614736323E+03  0.00000000000E+00 0. -1.
         -4    1    5    5    0  503  0.47126344156E+03  0.10685592829E+03  0.65602255077E+03  0.81478402530E+03  0.00000000000E+00 0.  1.
         -3    1    6    6    0  502 -0.13440752494E+03 -0.64769106159E+02  0.11516477152E+02  0.14964307241E+03  0.00000000000E+00 0.  1.
<mgrwt>
<rscale>  0 0.19361682E+04</rscale>
<asrwt>0</asrwt>
<pdfrwt beam="1">  1        4 0.16093330E+00 0.19361682E+04</pdfrwt>
<pdfrwt beam="2">  1       -4 0.13783311E+00 0.19361682E+04</pdfrwt>
<totfact> 0.17124835E-01</totfact>
</mgrwt>
</event>
<event>
12    1  0.2433511E-007  0.1649304E+04  0.7818608E-02  0.8790818E-01
          2   -1    0    0  501    0  0.00000000000E+00  0.00000000000E+00  0.27960586871E+03  0.27960586871E+03  0.00000000000E+00 0. -1.
         -2   -1    0    0    0  501 -0.00000000000E+00 -0.00000000000E+00 -0.24321778792E+04  0.24321778792E+04  0.00000000000E+00 0.  1.
         23    2    1    2    0    0 -0.54648398670E+03 -0.15418851534E+03 -0.61615783364E+03  0.84293969348E+03  0.92076082164E+02 0.  0.
        254    2    1    2    0    0  0.54648398670E+03  0.15418851534E+03 -0.15364141768E+04  0.18688440544E+04  0.89977259956E+03 0.  0.
        -24    2    4    4    0    0  0.70700101002E+03  0.15361202744E+03 -0.15245563018E+04  0.16893976074E+04  0.79657236630E+02 0.  0.
         24    2    4    4    0    0 -0.16051702331E+03  0.57648789408E+00 -0.11857875001E+02  0.17944644699E+03  0.79337072192E+02 0.  0.
         13    1    3    3    0    0 -0.87266929691E+02  0.33489357784E+01 -0.67875927559E+02  0.11060684396E+03  0.00000000000E+00 0. -1.
        -13    1    3    3    0    0 -0.45921705701E+03 -0.15753745112E+03 -0.54828190608E+03  0.73233284952E+03  0.00000000000E+00 0.  1.
          4    1    6    6  502    0 -0.10657800533E+03 -0.31518556388E+02 -0.28050172191E+02  0.11462592542E+03  0.00000000000E+00 0. -1.
          1    1    5    5  503    0  0.43322826458E+03  0.11274193303E+03 -0.86105142007E+03  0.97046742382E+03  0.00000000000E+00 0. -1.
         -2    1    5    5    0  503  0.27377274544E+03  0.40870094409E+02 -0.66350488176E+03  0.71893018359E+03  0.00000000000E+00 0.  1.
         -3    1    6    6    0  502 -0.53939017983E+02  0.32095044282E+02  0.16192297190E+02  0.64820521570E+02  0.00000000000E+00 0.  1.
<mgrwt>
<rscale>  0 0.16493043E+04</rscale>
<asrwt>0</asrwt>
<pdfrwt beam="1">  1        2 0.43016286E-01 0.16493043E+04</pdfrwt>
<pdfrwt beam="2">  1       -2 0.37418123E+00 0.16493043E+04</pdfrwt>
<totfact> 0.12460165E+00</totfact>
</mgrwt>
</event>
<event>
12    1  0.2717965E-007  0.2812210E+04  0.7818608E-02  0.8299488E-01
         -2   -1    0    0    0  501 -0.00000000000E+00  0.00000000000E+00  0.89309913881E+03  0.89309913881E+03  0.00000000000E+00 0.  1.
          2   -1    0    0  501    0  0.00000000000E+00 -0.00000000000E+00 -0.22137868029E+04  0.22137868029E+04  0.00000000000E+00 0. -1.
         23    2    1    2    0    0  0.60679033742E+03  0.73429092877E+03 -0.15044233285E+04  0.17829787926E+04  0.91357220214E+02 0.  0.
        254    2    1    2    0    0 -0.60679033742E+03 -0.73429092877E+03  0.18373566443E+03  0.13239071491E+04  0.90088493355E+03 0.  0.
        -24    2    4    4    0    0 -0.63647982141E+03 -0.27328868803E+03  0.40405501953E+03  0.80586778618E+03  0.79807016828E+02 0.  0.
         24    2    4    4    0    0  0.29689483994E+02 -0.46100224075E+03 -0.22031935510E+03  0.51803936296E+03  0.80122605496E+02 0.  0.
         11    1    3    3    0    0  0.15174811297E+03  0.12676927150E+03 -0.29786478668E+03  0.35752114501E+03  0.00000000000E+00 0.  1.
        -11    1    3    3    0    0  0.45504222445E+03  0.60752165727E+03 -0.12065585418E+04  0.14254576475E+04  0.00000000000E+00 0. -1.
          2    1    6    6  502    0  0.34819034055E+02 -0.35447125096E+03 -0.13299809787E+03  0.38019827318E+03  0.00000000000E+00 0. -1.
          3    1    5    5  503    0 -0.57880599491E+03 -0.23182295730E+03  0.33980699839E+03  0.71008947283E+03  0.00000000000E+00 0. -1.
         -4    1    5    5    0  503 -0.57673826505E+02 -0.41465730730E+02  0.64248021136E+02  0.95778313352E+02  0.00000000000E+00 0.  1.
         -1    1    6    6    0  502 -0.51295500615E+01 -0.10653098978E+03 -0.87321257223E+02  0.13784108978E+03  0.00000000000E+00 0.  1.
<mgrwt>
<rscale>  0 0.28122099E+04</rscale>
<asrwt>0</asrwt>
<pdfrwt beam="1">  1        2 0.34058258E+00 0.28122099E+04</pdfrwt>
<pdfrwt beam="2">  1       -2 0.13739987E+00 0.28122099E+04</pdfrwt>
<totfact> 0.16624704E+00</totfact>
</mgrwt>
</event>
<event>
12    1  0.2433511E-007  0.1944916E+04  0.7818608E-02  0.8632816E-01
          2   -1    0    0  501    0  0.00000000000E+00  0.00000000000E+00  0.42719569204E+03  0.42719569204E+03  0.00000000000E+00 0. -1.
         -2   -1    0    0    0  501 -0.00000000000E+00 -0.00000000000E+00 -0.22136798610E+04  0.22136798610E+04  0.00000000000E+00 0.  1.
         23    2    1    2    0    0 -0.23152329794E+03 -0.53927397142E+03 -0.13651516007E+04  0.14888068693E+04  0.92127885892E+02 0.  0.
        254    2    1    2    0    0  0.23152329794E+03  0.53927397142E+03 -0.42133256826E+03  0.11520686838E+04  0.89739716141E+03 0.  0.
        -24    2    4    4    0    0 -0.36083044878E+00  0.31237814900E+03  0.24584741126E+03  0.40583219477E+03  0.81722594881E+02 0.  0.
         24    2    4    4    0    0  0.23188412839E+03  0.22689582243E+03 -0.66717997953E+03  0.74623648901E+03  0.80546937949E+02 0.  0.
         13    1    3    3    0    0 -0.17102937225E+03 -0.28533228358E+03 -0.73953433958E+03  0.81091096777E+03  0.00000000000E+00 0. -1.
        -13    1    3    3    0    0 -0.60493925693E+02 -0.25394168784E+03 -0.62561726111E+03  0.67789590150E+03  0.00000000000E+00 0.  1.
          2    1    6    6  502    0  0.23357671757E+03  0.21168784597E+03 -0.65413668853E+03  0.72612990187E+03  0.00000000000E+00 0. -1.
          1    1    5    5  503    0  0.26098932681E+02  0.24215873069E+03  0.21435129214E+03  0.32445104651E+03  0.00000000000E+00 0. -1.
         -2    1    5    5    0  503 -0.26459763129E+02  0.70219418304E+02  0.31496119121E+02  0.81381148256E+02  0.00000000000E+00 0.  1.
         -1    1    6    6    0  502 -0.16925891773E+01  0.15207976459E+02 -0.13043291003E+02  0.20106587136E+02  0.00000000000E+00 0.  1.
<mgrwt>
<rscale>  0 0.19449159E+04</rscale>
<asrwt>0</asrwt>
<pdfrwt beam="1">  1        2 0.65722414E-01 0.19449159E+04</pdfrwt>
<pdfrwt beam="2">  1       -2 0.34056613E+00 0.19449159E+04</pdfrwt>
<totfact> 0.12313339E+00</totfact>
</mgrwt>
</event>
<event>
12    1  0.2433511E-007  0.1719521E+04  0.7818608E-02  0.8750309E-01
          2   -1    0    0  501    0  0.00000000000E+00  0.00000000000E+00  0.12700295144E+04  0.12700295144E+04  0.00000000000E+00 0.  1.
         -2   -1    0    0    0  501 -0.00000000000E+00 -0.00000000000E+00 -0.58202430260E+03  0.58202430260E+03  0.00000000000E+00 0. -1.
         23    2    1    2    0    0  0.37811569663E+03  0.45614117759E+03  0.45075999709E+03  0.74939264564E+03  0.85840016476E+02 0.  0.
        254    2    1    2    0    0 -0.37811569663E+03 -0.45614117759E+03  0.23724521475E+03  0.11026611714E+04  0.89918858593E+03 0.  0.
        -24    2    4    4    0    0  0.22320830137E+03 -0.30211815884E+02  0.27060569552E+03  0.36064076898E+03  0.78100077950E+02 0.  0.
         24    2    4    4    0    0 -0.60132399801E+03 -0.42592936171E+03 -0.33360480773E+02  0.74202040243E+03  0.80467286543E+02 0.  0.
         11    1    3    3    0    0  0.23046791262E+03  0.33403400573E+03  0.28330654240E+03  0.49493107873E+03  0.00000000000E+00 0. -1.
        -11    1    3    3    0    0  0.14764778402E+03  0.12210717186E+03  0.16745345470E+03  0.25446156691E+03  0.00000000000E+00 0.  1.
          2    1    6    6  502    0 -0.52645017262E+03 -0.35998658712E+03 -0.54317554384E+02  0.64007071787E+03  0.00000000000E+00 0. -1.
          3    1    5    5  503    0  0.11181320366E+03 -0.38777493175E+02  0.18615943127E+03  0.22059288370E+03  0.00000000000E+00 0. -1.
         -4    1    5    5    0  503  0.11139509772E+03  0.85656772911E+01  0.84446264251E+02  0.14004788527E+03  0.00000000000E+00 0.  1.
         -1    1    6    6    0  502 -0.74873825388E+02 -0.65942774582E+02  0.20957073610E+02  0.10194968456E+03  0.00000000000E+00 0.  1.
<mgrwt>
<rscale>  0 0.17195209E+04</rscale>
<asrwt>0</asrwt>
<pdfrwt beam="1">  1        2 0.19538916E+00 0.17195209E+04</pdfrwt>
<pdfrwt beam="2">  1       -2 0.89542200E-01 0.17195209E+04</pdfrwt>
<totfact> 0.17490527E+01</totfact>
</mgrwt>
</event>
<event>
12    1  0.2433511E-007  0.2775741E+04  0.7818608E-02  0.8310840E-01
          2   -1    0    0  501    0  0.00000000000E+00  0.00000000000E+00  0.34695181980E+04  0.34695181980E+04  0.00000000000E+00 0. -1.
         -2   -1    0    0    0  501 -0.00000000000E+00 -0.00000000000E+00 -0.55517337939E+03  0.55517337939E+03  0.00000000000E+00 0.  1.
         23    2    1    2    0    0  0.12390734552E+03 -0.11432499555E+04  0.63333278673E+03  0.13161347927E+04  0.93417786368E+02 0.  0.
        254    2    1    2    0    0 -0.12390734552E+03  0.11432499555E+04  0.22810120319E+04  0.27085567847E+04  0.90049457249E+03 0.  0.
        -24    2    4    4    0    0  0.70113419547E+02  0.12231335704E+04  0.18181541696E+04  0.21938229050E+04  0.78757420944E+02 0.  0.
         24    2    4    4    0    0 -0.19402076506E+03 -0.79883614831E+02  0.46285786227E+03  0.51473387970E+03  0.81780908821E+02 0.  0.
         13    1    3    3    0    0  0.77837157030E+02 -0.37197577530E+03  0.23542128935E+03  0.44704338034E+03  0.00000000000E+00 0.  1.
        -13    1    3    3    0    0  0.46070188485E+02 -0.77127418022E+03  0.39791149738E+03  0.86909141239E+03  0.00000000000E+00 0. -1.
          4    1    6    6  502    0 -0.59512762992E+02  0.16439396220E+01  0.19734857693E+03  0.20613328774E+03  0.00000000000E+00 0. -1.
          1    1    5    5  503    0  0.56440103859E+02  0.54935328907E+03  0.76503557703E+03  0.94353269984E+03  0.00000000000E+00 0. -1.
         -2    1    5    5    0  503  0.13673315688E+02  0.67378028129E+03  0.10531185926E+04  0.12502902051E+04  0.00000000000E+00 0.  1.
         -3    1    6    6    0  502 -0.13450800207E+03 -0.81527554453E+02  0.26550928534E+03  0.30860059196E+03  0.00000000000E+00 0.  1.
<mgrwt>
<rscale>  0 0.27757407E+04</rscale>
<asrwt>0</asrwt>
<pdfrwt beam="1">  1        2 0.53377202E+00 0.27757407E+04</pdfrwt>
<pdfrwt beam="2">  1       -2 0.85411291E-01 0.27757407E+04</pdfrwt>
<totfact> 0.88702437E-01</totfact>
</mgrwt>
</event>
<event>
12    1  0.2433511E-007  0.1495797E+04  0.7818608E-02  0.8887253E-01
          2   -1    0    0  501    0  0.00000000000E+00  0.00000000000E+00  0.35458464686E+03  0.35458464686E+03  0.00000000000E+00 0.  1.
         -2   -1    0    0    0  501 -0.00000000000E+00 -0.00000000000E+00 -0.15774847794E+04  0.15774847794E+04  0.00000000000E+00 0. -1.
         23    2    1    2    0    0  0.13151006078E+03  0.37682949381E+03 -0.69419635045E+02  0.41509326021E+03  0.90487377290E+02 0.  0.
        254    2    1    2    0    0 -0.13151006078E+03 -0.37682949381E+03 -0.11534804974E+04  0.15169761660E+04  0.90077969935E+03 0.  0.
        -24    2    4    4    0    0 -0.35113893313E+03 -0.55690189896E+03 -0.62203288216E+03  0.90926136985E+03  0.79956593115E+02 0.  0.
         24    2    4    4    0    0  0.21962887235E+03  0.18007240515E+03 -0.53144761528E+03  0.60771479616E+03  0.78852983584E+02 0.  0.
         11    1    3    3    0    0  0.51946422466E+02  0.16286415646E+03  0.15228720818E+02  0.17162481815E+03  0.00000000000E+00 0.  1.
        -11    1    3    3    0    0  0.79563638315E+02  0.21396533735E+03 -0.84648355863E+02  0.24346844207E+03  0.00000000000E+00 0. -1.
          2    1    6    6  502    0  0.64183349195E+01  0.41432679380E+01  0.10830534415E+01  0.77158730616E+01  0.00000000000E+00 0. -1.
          3    1    5    5  503    0 -0.25408693352E+02 -0.66010315218E+02 -0.97531914794E+02  0.12048003078E+03  0.00000000000E+00 0. -1.
         -4    1    5    5    0  503 -0.32573023978E+03 -0.49089158374E+03 -0.52450096737E+03  0.78878133907E+03  0.00000000000E+00 0.  1.
         -1    1    6    6    0  502  0.21321053743E+03  0.17592913721E+03 -0.53253066872E+03  0.59999892310E+03  0.00000000000E+00 0.  1.
<mgrwt>
<rscale>  0 0.14957966E+04</rscale>
<asrwt>0</asrwt>
<pdfrwt beam="1">  1        2 0.54551485E-01 0.14957966E+04</pdfrwt>
<pdfrwt beam="2">  1       -2 0.24268996E+00 0.14957966E+04</pdfrwt>
<totfact> 0.62766910E+00</totfact>
</mgrwt>
</event>
<event>
12    1  0.2433511E-007  0.2225293E+04  0.7818608E-02  0.8507974E-01
          2   -1    0    0  501    0  0.00000000000E+00  0.00000000000E+00  0.12845797358E+04  0.12845797358E+04  0.00000000000E+00 0. -1.
         -2   -1    0    0    0  501 -0.00000000000E+00 -0.00000000000E+00 -0.96372587946E+03  0.96372587946E+03  0.00000000000E+00 0.  1.
         23    2    1    2    0    0 -0.73666410230E+03 -0.56371964767E+03  0.10872315330E+03  0.93838707581E+03  0.91080948617E+02 0.  0.
        254    2    1    2    0    0  0.73666410230E+03  0.56371964767E+03  0.21213070300E+03  0.13099185394E+04  0.90024069223E+03 0.  0.
        -24    2    4    4    0    0  0.26554678579E+03 -0.76370377809E+02  0.39609677989E+03  0.49039375705E+03  0.85122546164E+02 0.  0.
         24    2    4    4    0    0  0.47111731650E+03  0.64009002548E+03 -0.18396607689E+03  0.81952478236E+03  0.78170229769E+02 0.  0.
         13    1    3    3    0    0 -0.58574396787E+03 -0.44687373002E+03  0.48899568464E+02  0.73836528512E+03  0.00000000000E+00 0. -1.
        -13    1    3    3    0    0 -0.15092013443E+03 -0.11684591766E+03  0.59823584838E+02  0.20002179069E+03  0.00000000000E+00 0.  1.
          2    1    6    6  502    0  0.25853199626E+03  0.28787642687E+03 -0.10015332776E+03  0.39967776934E+03  0.00000000000E+00 0. -1.
          1    1    5    5  503    0  0.20158959130E+03 -0.18253227805E+02  0.26732250898E+03  0.33531010640E+03  0.00000000000E+00 0. -1.
         -2    1    5    5    0  503  0.63957194496E+02 -0.58117150004E+02  0.12877427091E+03  0.15508365065E+03  0.00000000000E+00 0.  1.
         -1    1    6    6    0  502  0.21258532025E+03  0.35221359861E+03 -0.83812749128E+02  0.41984701302E+03  0.00000000000E+00 0.  1.
<mgrwt>
<rscale>  0 0.22252935E+04</rscale>
<asrwt>0</asrwt>
<pdfrwt beam="1">  1        2 0.19762765E+00 0.22252935E+04</pdfrwt>
<pdfrwt beam="2">  1       -2 0.14826552E+00 0.22252935E+04</pdfrwt>
<totfact> 0.47577480E+00</totfact>
</mgrwt>
</event>
<event>
12    1  0.2433511E-007  0.2414792E+04  0.7818608E-02  0.8433986E-01
         -2   -1    0    0    0  501 -0.00000000000E+00  0.00000000000E+00  0.59535627661E+03  0.59535627661E+03  0.00000000000E+00 0. -1.
          2   -1    0    0  501    0  0.00000000000E+00 -0.00000000000E+00 -0.24486257271E+04  0.24486257271E+04  0.00000000000E+00 0.  1.
         23    2    1    2    0    0  0.59097601901E+03  0.70309640336E+02  0.27168185292E+03  0.66067077371E+03  0.92080081751E+02 0.  0.
        254    2    1    2    0    0 -0.59097601901E+03 -0.70309640336E+02 -0.21249513034E+04  0.23833112300E+04  0.90031010029E+03 0.  0.
        -24    2    4    4    0    0 -0.36302692727E+03 -0.16771865402E+03 -0.22484558785E+03  0.46547511152E+03  0.78698438590E+02 0.  0.
         24    2    4    4    0    0 -0.22794909174E+03  0.97409013680E+02 -0.19001057156E+04  0.19178361185E+04  0.79021153741E+02 0.  0.
         11    1    3    3    0    0  0.27744349341E+03 -0.12448186262E+02  0.11621278059E+03  0.30105690450E+03  0.00000000000E+00 0. -1.
        -11    1    3    3    0    0  0.31353252561E+03  0.82757826598E+02  0.15546907233E+03  0.35961386921E+03  0.00000000000E+00 0.  1.
          4    1    6    6  502    0 -0.68883222130E+02  0.58096289929E+00 -0.69818464126E+03  0.70157467821E+03  0.00000000000E+00 0. -1.
          3    1    5    5  503    0 -0.13781537989E+03 -0.35003902789E+02 -0.48871192610E+02  0.15035539768E+03  0.00000000000E+00 0. -1.
         -4    1    5    5    0  503 -0.22521154738E+03 -0.13271475123E+03 -0.17597439524E+03  0.31511971383E+03  0.00000000000E+00 0.  1.
         -3    1    6    6    0  502 -0.15906586961E+03  0.96828050781E+02 -0.12019210743E+04  0.12162614403E+04  0.00000000000E+00 0.  1.
<mgrwt>
<rscale>  0 0.24147917E+04</rscale>
<asrwt>0</asrwt>
<pdfrwt beam="1">  1        2 0.37671166E+00 0.24147917E+04</pdfrwt>
<pdfrwt beam="2">  1       -2 0.91593272E-01 0.24147917E+04</pdfrwt>
<totfact> 0.33968330E+00</totfact>
</mgrwt>
</event>
<event>
12    1  0.2433511E-007  0.1575283E+04  0.7818608E-02  0.8835878E-01
          1   -1    0    0  501    0  0.00000000000E+00  0.00000000000E+00  0.74106624264E+03  0.74106624264E+03  0.00000000000E+00 0. -1.
         -1   -1    0    0    0  501 -0.00000000000E+00 -0.00000000000E+00 -0.83714377484E+03  0.83714377484E+03  0.00000000000E+00 0.  1.
         23    2    1    2    0    0  0.17396404017E+03 -0.47429433487E+03 -0.17893948235E+03  0.54271960059E+03  0.85478787745E+02 0.  0.
        254    2    1    2    0    0 -0.17396404017E+03  0.47429433487E+03  0.82861950157E+02  0.10354904169E+04  0.90008649436E+03 0.  0.
        -24    2    4    4    0    0 -0.46486257297E+03  0.52050415776E+03  0.16149439491E+03  0.72077939918E+03  0.80129349854E+02 0.  0.
         24    2    4    4    0    0  0.29089853280E+03 -0.46209822885E+02 -0.78632444752E+02  0.31471101772E+03  0.78119518609E+02 0.  0.
         13    1    3    3    0    0  0.59732452394E+02 -0.70030260757E+02 -0.25908264614E+02  0.95621344197E+02  0.00000000000E+00 0.  1.
        -13    1    3    3    0    0  0.11423158777E+03 -0.40426407411E+03 -0.15303121774E+03  0.44709825639E+03  0.00000000000E+00 0. -1.
          2    1    6    6  502    0  0.17111968430E+03 -0.64523209171E+02 -0.57536128557E+02  0.19171749259E+03  0.00000000000E+00 0. -1.
          3    1    5    5  503    0 -0.36076988324E+03  0.39006805594E+03  0.88554832659E+02  0.53865569272E+03  0.00000000000E+00 0. -1.
         -4    1    5    5    0  503 -0.10409268973E+03  0.13043610182E+03  0.72939562250E+02  0.18212370646E+03  0.00000000000E+00 0.  1.
         -1    1    6    6    0  502  0.11977884850E+03  0.18313386286E+02 -0.21096316195E+02  0.12299352512E+03  0.00000000000E+00 0.  1.
<mgrwt>
<rscale>  0 0.15752828E+04</rscale>
<asrwt>0</asrwt>
<pdfrwt beam="1">  1        1 0.11401019E+00 0.15752828E+04</pdfrwt>
<pdfrwt beam="2">  1       -1 0.12879135E+00 0.15752828E+04</pdfrwt>
<totfact> 0.12461384E+01</totfact>
</mgrwt>
</event>
<event>
12    1  0.2433511E-007  0.3299239E+04  0.7818608E-02  0.8163089E-01
         -1   -1    0    0    0  501 -0.00000000000E+00  0.00000000000E+00  0.83280160019E+03  0.83280160019E+03  0.00000000000E+00 0.  1.
          1   -1    0    0  501    0  0.00000000000E+00 -0.00000000000E+00 -0.32675776908E+04  0.32675776908E+04  0.00000000000E+00 0. -1.
         23    2    1    2    0    0 -0.65715233453E+03 -0.13184434874E+04 -0.16244335903E+04  0.21948581979E+04  0.92063017999E+02 0.  0.
        254    2    1    2    0    0  0.65715233453E+03  0.13184434874E+04 -0.81034250028E+03  0.19055210931E+04  0.89677937546E+03 0.  0.
        -24    2    4    4    0    0 -0.19911104036E+03  0.46935587827E+03 -0.25359628413E+03  0.57484892869E+03  0.78740514559E+02 0.  0.
         24    2    4    4    0    0  0.85626337489E+03  0.84908760912E+03 -0.55674621615E+03  0.13306721644E+04  0.81150014056E+02 0.  0.
         11    1    3    3    0    0 -0.18872115763E+03 -0.29723705544E+03 -0.40988228774E+03  0.54034158851E+03  0.00000000000E+00 0. -1.
        -11    1    3    3    0    0 -0.46843117690E+03 -0.10212064319E+04 -0.12145513026E+04  0.16545166094E+04  0.00000000000E+00 0.  1.
          4    1    6    6  502    0  0.68306148437E+02  0.62554590170E+02 -0.20218484533E+02  0.94802920749E+02  0.00000000000E+00 0. -1.
          1    1    5    5  503    0 -0.18856278635E+01  0.73832904328E+02 -0.39458306297E+02  0.83736558860E+02  0.00000000000E+00 0. -1.
         -2    1    5    5    0  503 -0.19722541250E+03  0.39552297394E+03 -0.21413797783E+03  0.49111236983E+03  0.00000000000E+00 0.  1.
         -3    1    6    6    0  502  0.78795722646E+03  0.78653301894E+03 -0.53652773162E+03  0.12358692437E+04  0.00000000000E+00 0.  1.
<mgrwt>
<rscale>  0 0.32992387E+04</rscale>
<asrwt>0</asrwt>
<pdfrwt beam="1">  1        1 0.50270427E+00 0.32992387E+04</pdfrwt>
<pdfrwt beam="2">  1       -1 0.12812332E+00 0.32992387E+04</pdfrwt>
<totfact> 0.16479805E-01</totfact>
</mgrwt>
</event>
<event>
12    1  0.2433511E-007  0.1304164E+04  0.7818608E-02  0.9026269E-01
          1   -1    0    0  501    0  0.00000000000E+00  0.00000000000E+00  0.13612207438E+04  0.13612207438E+04  0.00000000000E+00 0. -1.
         -1   -1    0    0    0  501 -0.00000000000E+00 -0.00000000000E+00 -0.31237493740E+03  0.31237493740E+03  0.00000000000E+00 0.  1.
         23    2    1    2    0    0 -0.17326459917E+03  0.28854281234E+03  0.28248198633E+03  0.44869038142E+03  0.90826262156E+02 0.  0.
        254    2    1    2    0    0  0.17326459917E+03 -0.28854281234E+03  0.76636382007E+03  0.12249052998E+04  0.89431645006E+03 0.  0.
        -24    2    4    4    0    0  0.19233943671E+03 -0.53993200567E+03  0.22300661536E+03  0.61998147574E+03  0.78256310280E+02 0.  0.
         24    2    4    4    0    0 -0.19074837543E+02  0.25138919333E+03  0.54335720471E+03  0.60492382405E+03  0.84471326739E+02 0.  0.
         11    1    3    3    0    0 -0.54304831216E+02  0.10081948051E+03  0.15423746116E+03  0.19210095463E+03  0.00000000000E+00 0. -1.
        -11    1    3    3    0    0 -0.11895976795E+03  0.18772333183E+03  0.12824452517E+03  0.25658942679E+03  0.00000000000E+00 0.  1.
          4    1    6    6  502    0  0.18473333742E+02  0.20665300110E+03  0.42542260029E+03  0.47331925353E+03  0.00000000000E+00 0. -1.
          1    1    5    5  503    0  0.18597524504E+03 -0.48569494401E+03  0.22167814902E+03  0.56535614630E+03  0.00000000000E+00 0. -1.
         -4    1    5    5    0  503  0.63641916781E+01 -0.54237061664E+02  0.13284663360E+01  0.54625329441E+02  0.00000000000E+00 0.  1.
         -3    1    6    6    0  502 -0.37548171286E+02  0.44736192232E+02  0.11793460442E+03  0.13160457052E+03  0.00000000000E+00 0.  1.
<mgrwt>
<rscale>  0 0.13041645E+04</rscale>
<asrwt>0</asrwt>
<pdfrwt beam="1">  1        1 0.20941857E+00 0.13041645E+04</pdfrwt>
<pdfrwt beam="2">  1       -1 0.48057683E-01 0.13041645E+04</pdfrwt>
<totfact> 0.34773465E+01</totfact>
</mgrwt>
</event>
<event>
12    1  0.2433511E-007  0.1773204E+04  0.7818608E-02  0.8720681E-01
         -1   -1    0    0    0  501 -0.00000000000E+00  0.00000000000E+00  0.10015197137E+04  0.10015197137E+04  0.00000000000E+00 0.  1.
          1   -1    0    0  501    0  0.00000000000E+00 -0.00000000000E+00 -0.78487006280E+03  0.78487006280E+03  0.00000000000E+00 0. -1.
         23    2    1    2    0    0  0.69581901428E+02 -0.64503755938E+03 -0.28427474127E+00  0.65494235245E+03  0.89634313796E+02 0.  0.
        254    2    1    2    0    0 -0.69581901428E+02  0.64503755938E+03  0.21693392564E+03  0.11314474240E+04  0.90122020132E+03 0.  0.
        -24    2    4    4    0    0  0.24922054352E+03  0.68545333761E+03  0.29613691955E+03  0.79118525052E+03  0.79497598464E+02 0.  0.
         24    2    4    4    0    0 -0.31880244495E+03 -0.40415778237E+02 -0.79202993912E+02  0.34026217352E+03  0.78973403435E+02 0.  0.
         11    1    3    3    0    0 -0.18546671110E+02 -0.21241865332E+03 -0.78928141870E+01  0.21337281880E+03  0.00000000000E+00 0. -1.
        -11    1    3    3    0    0  0.88128572538E+02 -0.43261890606E+03  0.76085394458E+01  0.44156953365E+03  0.00000000000E+00 0.  1.
          2    1    6    6  502    0 -0.90192840288E+02  0.65632366373E+01  0.87477660270E+01  0.90853442008E+02  0.00000000000E+00 0. -1.
          3    1    5    5  503    0  0.51205959212E+02  0.15910509632E+03  0.33281362729E+02  0.17042338760E+03  0.00000000000E+00 0. -1.
         -4    1    5    5    0  503  0.19801458431E+03  0.52634824129E+03  0.26285555682E+03  0.62076186293E+03  0.00000000000E+00 0.  1.
         -1    1    6    6    0  502 -0.22860960466E+03 -0.46979014874E+02 -0.87950759939E+02  0.24940873151E+03  0.00000000000E+00 0.  1.
<mgrwt>
<rscale>  0 0.17732037E+04</rscale>
<asrwt>0</asrwt>
<pdfrwt beam="1">  1        1 0.12074924E+00 0.17732037E+04</pdfrwt>
<pdfrwt beam="2">  1       -1 0.15407996E+00 0.17732037E+04</pdfrwt>
<totfact> 0.69937384E+00</totfact>
</mgrwt>
</event>
<event>
12    1  0.2433511E-007  0.1324702E+04  0.7818608E-02  0.9010203E-01
          1   -1    0    0  501    0  0.00000000000E+00  0.00000000000E+00  0.57703732448E+03  0.57703732448E+03  0.00000000000E+00 0. -1.
         -1   -1    0    0    0  501 -0.00000000000E+00 -0.00000000000E+00 -0.76027785333E+03  0.76027785333E+03  0.00000000000E+00 0.  1.
         23    2    1    2    0    0 -0.34364894911E+03  0.55760227960E+02 -0.46015330058E+02  0.36268937150E+03  0.90677264787E+02 0.  0.
        254    2    1    2    0    0  0.34364894911E+03 -0.55760227960E+02 -0.13722519879E+03  0.97462580632E+03  0.89992272108E+03 0.  0.
        -24    2    4    4    0    0  0.60867607565E+03  0.50840618055E+02  0.58967915517E+02  0.61875718699E+03  0.79447516554E+02 0.  0.
         24    2    4    4    0    0 -0.26502712654E+03 -0.10660084601E+03 -0.19619311431E+03  0.35586861933E+03  0.80917352575E+02 0.  0.
         13    1    3    3    0    0 -0.10070059366E+03  0.58369157425E+02 -0.68986599151E+01  0.11659828305E+03  0.00000000000E+00 0. -1.
        -13    1    3    3    0    0 -0.24294835545E+03 -0.26089294643E+01 -0.39116670142E+02  0.24609108844E+03  0.00000000000E+00 0.  1.
          4    1    6    6  502    0 -0.12494384095E+03 -0.15480654240E+02 -0.11309409516E+03  0.16923619119E+03  0.00000000000E+00 0. -1.
          1    1    5    5  503    0  0.19944213750E+02  0.87159706132E+01 -0.11000557198E+02  0.24387539123E+02  0.00000000000E+00 0. -1.
         -2    1    5    5    0  503  0.58873186190E+03  0.42124647441E+02  0.69968472715E+02  0.59436964787E+03  0.00000000000E+00 0.  1.
         -3    1    6    6    0  502 -0.14008328559E+03 -0.91120191775E+02 -0.83099019147E+02  0.18663242814E+03  0.00000000000E+00 0.  1.
<mgrwt>
<rscale>  0 0.13247018E+04</rscale>
<asrwt>0</asrwt>
<pdfrwt beam="1">  1        1 0.88774973E-01 0.13247018E+04</pdfrwt>
<pdfrwt beam="2">  1       -1 0.11696582E+00 0.13247018E+04</pdfrwt>
<totfact> 0.23421288E+01</totfact>
</mgrwt>
</event>
<event>
12    1  0.2433511E-007  0.2095855E+04  0.7818608E-02  0.8563072E-01
          2   -1    0    0  501    0  0.00000000000E+00  0.00000000000E+00  0.10328212907E+04  0.10328212907E+04  0.00000000000E+00 0. -1.
         -2   -1    0    0    0  501 -0.00000000000E+00 -0.00000000000E+00 -0.10632544796E+04  0.10632544796E+04  0.00000000000E+00 0.  1.
         23    2    1    2    0    0 -0.13495497681E+03  0.58598841458E+03 -0.61508313398E+03  0.86481036724E+03  0.89299730103E+02 0.  0.
        254    2    1    2    0    0  0.13495497681E+03 -0.58598841458E+03  0.58464994513E+03  0.12312654031E+04  0.90144532098E+03 0.  0.
        -24    2    4    4    0    0  0.29664141751E+03  0.13818407888E+03  0.17413374555E+03  0.37933153120E+03  0.80491483925E+02 0.  0.
         24    2    4    4    0    0 -0.16168644070E+03 -0.72417249346E+03  0.41051619958E+03  0.85193387189E+03  0.81850269185E+02 0.  0.
         13    1    3    3    0    0 -0.14024079409E+03  0.49031551453E+03 -0.48987524737E+03  0.70714534722E+03  0.00000000000E+00 0. -1.
        -13    1    3    3    0    0  0.52858172782E+01  0.95672900051E+02 -0.12520788661E+03  0.15766502002E+03  0.00000000000E+00 0.  1.
          4    1    6    6  502    0 -0.10053551591E+03 -0.27386017221E+03  0.14822243950E+03  0.32722572554E+03  0.00000000000E+00 0. -1.
          1    1    5    5  503    0  0.12700933651E+03  0.40604418666E+02  0.11161847047E+03  0.17389299389E+03  0.00000000000E+00 0. -1.
         -2    1    5    5    0  503  0.16963208100E+03  0.97579660210E+02  0.62515275084E+02  0.20543853730E+03  0.00000000000E+00 0.  1.
         -1    1    6    6    0  502 -0.61150924794E+02 -0.45031232125E+03  0.26229376008E+03  0.52470814635E+03  0.00000000000E+00 0.  1.
<mgrwt>
<rscale>  0 0.20958548E+04</rscale>
<asrwt>0</asrwt>
<pdfrwt beam="1">  1        2 0.15889558E+00 0.20958548E+04</pdfrwt>
<pdfrwt beam="2">  1       -2 0.16357761E+00 0.20958548E+04</pdfrwt>
<totfact> 0.52453505E+00</totfact>
</mgrwt>
</event>
<event>
12    1  0.2433511E-007  0.2929375E+04  0.7818608E-02  0.8264191E-01
          2   -1    0    0  501    0  0.00000000000E+00  0.00000000000E+00  0.11005316870E+04  0.11005316870E+04  0.00000000000E+00 0. -1.
         -2   -1    0    0    0  501 -0.00000000000E+00 -0.00000000000E+00 -0.19493393064E+04  0.19493393064E+04  0.00000000000E+00 0.  1.
         23    2    1    2    0    0 -0.41121573344E+03  0.66993467556E+02 -0.16952074558E+04  0.17480169453E+04  0.90820806003E+02 0.  0.
        254    2    1    2    0    0  0.41121573344E+03 -0.66993467556E+02  0.84639983636E+03  0.13018540481E+04  0.89713141475E+03 0.  0.
        -24    2    4    4    0    0  0.48981305805E+03 -0.78270055294E+02  0.99646141252E+03  0.11158561670E+04  0.78464038196E+02 0.  0.
         24    2    4    4    0    0 -0.78597324617E+02  0.11276587738E+02 -0.15006157616E+03  0.18599788110E+03  0.75973905172E+02 0.  0.
         11    1    3    3    0    0 -0.15025421661E+03  0.60872092941E+02 -0.54738758131E+03  0.57088957381E+03  0.00000000000E+00 0. -1.
        -11    1    3    3    0    0 -0.26096151682E+03  0.61213746159E+01 -0.11478198745E+04  0.11771273715E+04  0.00000000000E+00 0.  1.
          4    1    6    6  502    0 -0.19422744494E+01 -0.40025750818E+01  0.82887094107E+01  0.94072174960E+01  0.00000000000E+00 0. -1.
          1    1    5    5  503    0  0.14472803558E+03  0.12804276652E+02  0.28910696765E+03  0.32356296532E+03  0.00000000000E+00 0. -1.
         -2    1    5    5    0  503  0.34508502247E+03 -0.91074331946E+02  0.70735444487E+03  0.79229320163E+03  0.00000000000E+00 0.  1.
         -3    1    6    6    0  502 -0.76655050167E+02  0.15279162819E+02 -0.15835028557E+03  0.17659066361E+03  0.00000000000E+00 0.  1.
<mgrwt>
<rscale>  0 0.29293751E+04</rscale>
<asrwt>0</asrwt>
<pdfrwt beam="1">  1        2 0.16931257E+00 0.29293751E+04</pdfrwt>
<pdfrwt beam="2">  1       -2 0.29989835E+00 0.29293751E+04</pdfrwt>
<totfact> 0.59655782E-01</totfact>
</mgrwt>
</event>
<event>
12    1  0.2433511E-007  0.1485414E+04  0.7818608E-02  0.8894211E-01
         -1   -1    0    0    0  501 -0.00000000000E+00  0.00000000000E+00  0.85935627320E+03  0.85935627320E+03  0.00000000000E+00 0.  1.
          1   -1    0    0  501    0  0.00000000000E+00 -0.00000000000E+00 -0.64189178110E+03  0.64189178110E+03  0.00000000000E+00 0. -1.
         23    2    1    2    0    0  0.34621499882E+03 -0.25610917216E+03 -0.10258385492E+03  0.45366976622E+03  0.99176993400E+02 0.  0.
        254    2    1    2    0    0 -0.34621499882E+03  0.25610917216E+03  0.32004834702E+03  0.10475782881E+04  0.89974029128E+03 0.  0.
        -24    2    4    4    0    0  0.12408078793E+03  0.45623978632E+03  0.12803051786E+03  0.49636100448E+03  0.80197560498E+02 0.  0.
         24    2    4    4    0    0 -0.47029578675E+03 -0.20013061417E+03  0.19201782915E+03  0.55121728360E+03  0.75757885807E+02 0.  0.
         13    1    3    3    0    0  0.62446130470E+02 -0.21539870496E+02 -0.47596939186E+02  0.81418387675E+02  0.00000000000E+00 0. -1.
        -13    1    3    3    0    0  0.28376886835E+03 -0.23456930166E+03 -0.54986915735E+02  0.37225137854E+03  0.00000000000E+00 0.  1.
          4    1    6    6  502    0 -0.17825034619E+03 -0.10200889040E+03  0.10718569121E+03  0.23166305713E+03  0.00000000000E+00 0. -1.
          1    1    5    5  503    0  0.22103863415E+02  0.22649136046E+03  0.73583628032E+02  0.23916828271E+03  0.00000000000E+00 0. -1.
         -2    1    5    5    0  503  0.10197692452E+03  0.22974842587E+03  0.54446889832E+02  0.25719272177E+03  0.00000000000E+00 0.  1.
         -3    1    6    6    0  502 -0.29204544056E+03 -0.98121723769E+02  0.84832137941E+02  0.31955422647E+03  0.00000000000E+00 0.  1.
<mgrwt>
<rscale>  0 0.14854141E+04</rscale>
<asrwt>0</asrwt>
<pdfrwt beam="1">  1        1 0.98752582E-01 0.14854141E+04</pdfrwt>
<pdfrwt beam="2">  1       -1 0.13220866E+00 0.14854141E+04</pdfrwt>
<totfact> 0.14605489E+01</totfact>
</mgrwt>
</event>
<event>
12    1  0.2433511E-007  0.2796319E+04  0.7818608E-02  0.8304412E-01
          1   -1    0    0  501    0  0.00000000000E+00  0.00000000000E+00  0.12113847738E+04  0.12113847738E+04  0.00000000000E+00 0.  1.
         -1   -1    0    0    0  501 -0.00000000000E+00 -0.00000000000E+00 -0.16137315003E+04  0.16137315003E+04  0.00000000000E+00 0. -1.
         23    2    1    2    0    0 -0.86586614393E+03  0.62519583631E+03 -0.83908448307E+03  0.13612013136E+04  0.90621374262E+02 0.  0.
        254    2    1    2    0    0  0.86586614393E+03 -0.62519583631E+03  0.43673775652E+03  0.14639149605E+04  0.90095123650E+03 0.  0.
        -24    2    4    4    0    0  0.24532589138E+03 -0.80665295977E+02 -0.26543305040E+03  0.37718516921E+03  0.71569998454E+02 0.  0.
         24    2    4    4    0    0  0.62054025255E+03 -0.54453054033E+03  0.70217080692E+03  0.10867297912E+04  0.79712500287E+02 0.  0.
         11    1    3    3    0    0 -0.43507392658E+03  0.35881672301E+03 -0.47644028959E+03  0.73826425611E+03  0.00000000000E+00 0. -1.
        -11    1    3    3    0    0 -0.43079221735E+03  0.26637911330E+03 -0.36264419348E+03  0.62293705749E+03  0.00000000000E+00 0.  1.
          4    1    6    6  502    0  0.29402344680E+03 -0.28258054746E+03  0.30025780171E+03  0.50641514645E+03  0.00000000000E+00 0. -1.
          3    1    5    5  503    0 -0.31218184703E+01 -0.50571700695E+01 -0.14745890597E+00  0.59449528007E+01  0.00000000000E+00 0. -1.
         -4    1    5    5    0  503  0.24844770985E+03 -0.75608125908E+02 -0.26528559149E+03  0.37124021641E+03  0.00000000000E+00 0.  1.
         -3    1    6    6    0  502  0.32651680575E+03 -0.26194999287E+03  0.40191300521E+03  0.58031464479E+03  0.00000000000E+00 0.  1.
<mgrwt>
<rscale>  0 0.27963188E+04</rscale>
<asrwt>0</asrwt>
<pdfrwt beam="1">  1        1 0.18636689E+00 0.27963188E+04</pdfrwt>
<pdfrwt beam="2">  1       -1 0.24826638E+00 0.27963188E+04</pdfrwt>
<totfact> 0.64963535E-01</totfact>
</mgrwt>
</event>
<event>
12    1  0.2433511E-007  0.2136990E+04  0.7818608E-02  0.8545122E-01
         -2   -1    0    0    0  501 -0.00000000000E+00  0.00000000000E+00  0.26281055501E+03  0.26281055501E+03  0.00000000000E+00 0.  1.
          2   -1    0    0  501    0  0.00000000000E+00 -0.00000000000E+00 -0.43441238836E+04  0.43441238836E+04  0.00000000000E+00 0. -1.
         23    2    1    2    0    0  0.81464034290E+03  0.88044442017E+02 -0.10135734176E+04  0.13065420292E+04  0.91270417833E+02 0.  0.
        254    2    1    2    0    0 -0.81464034290E+03 -0.88044442017E+02 -0.30677399110E+04  0.33003924094E+04  0.90009509633E+03 0.  0.
        -24    2    4    4    0    0 -0.67036532878E+03 -0.44394591607E+03 -0.23091230720E+04  0.24464059334E+04  0.79843465484E+02 0.  0.
         24    2    4    4    0    0 -0.14427501411E+03  0.35590147406E+03 -0.75861683903E+03  0.85398647601E+03  0.79449693609E+02 0.  0.
         13    1    3    3    0    0  0.22435600819E+03 -0.97157166424E+01 -0.24166149225E+03  0.32989436249E+03  0.00000000000E+00 0. -1.
        -13    1    3    3    0    0  0.59028433470E+03  0.97760158659E+02 -0.77191192530E+03  0.97664766668E+03  0.00000000000E+00 0.  1.
          2    1    6    6  502    0 -0.27227024189E+02  0.16952121391E+03 -0.35132634093E+03  0.39103574088E+03  0.00000000000E+00 0. -1.
          3    1    5    5  503    0 -0.30023446091E+03 -0.19578755050E+03 -0.91065812205E+03  0.97865811788E+03  0.00000000000E+00 0. -1.
         -4    1    5    5    0  503 -0.37013086787E+03 -0.24815836558E+03 -0.13984649499E+04  0.14677478155E+04  0.00000000000E+00 0.  1.
         -1    1    6    6    0  502 -0.11704798993E+03  0.18638026015E+03 -0.40729049810E+03  0.46295073513E+03  0.00000000000E+00 0.  1.
<mgrwt>
<rscale>  0 0.21369900E+04</rscale>
<asrwt>0</asrwt>
<pdfrwt beam="1">  1        2 0.66832674E+00 0.21369900E+04</pdfrwt>
<pdfrwt beam="2">  1       -2 0.40432394E-01 0.21369900E+04</pdfrwt>
<totfact> 0.93071294E-01</totfact>
</mgrwt>
</event>
<event>
12    1  0.2433511E-007  0.1834279E+04  0.7818608E-02  0.8688280E-01
         -1   -1    0    0    0  501 -0.00000000000E+00  0.00000000000E+00  0.10883635577E+04  0.10883635577E+04  0.00000000000E+00 0.  1.
          1   -1    0    0  501    0  0.00000000000E+00 -0.00000000000E+00 -0.77285298275E+03  0.77285298275E+03  0.00000000000E+00 0. -1.
         23    2    1    2    0    0  0.31837546493E+02 -0.31375917566E+03  0.74622421778E+03  0.81506016993E+03  0.89521213752E+02 0.  0.
        254    2    1    2    0    0 -0.31837546493E+02  0.31375917566E+03 -0.43071364283E+03  0.10461563705E+04  0.89970576289E+03 0.  0.
        -24    2    4    4    0    0  0.10287909915E+03  0.44005545456E+03 -0.61914277124E+03  0.77064212461E+03  0.79489627769E+02 0.  0.
         24    2    4    4    0    0 -0.13471664564E+03 -0.12629627889E+03  0.18842912841E+03  0.27551424590E+03  0.79392937895E+02 0.  0.
         11    1    3    3    0    0  0.14313497592E+02 -0.29376713506E+03  0.71982742135E+03  0.77759598918E+03  0.00000000000E+00 0.  1.
        -11    1    3    3    0    0  0.17524048900E+02 -0.19992040598E+02  0.26396796436E+02  0.37464180749E+02  0.00000000000E+00 0. -1.
          4    1    6    6  502    0 -0.11850116850E+02 -0.58417888466E+02  0.69285658021E+02  0.91397906812E+02  0.00000000000E+00 0. -1.
          1    1    5    5  503    0  0.77906521325E+02  0.41288211683E+03 -0.58580789111E+03  0.72091050328E+03  0.00000000000E+00 0. -1.
         -2    1    5    5    0  503  0.24972577827E+02  0.27173337728E+02 -0.33334880134E+02  0.49731621330E+02  0.00000000000E+00 0.  1.
         -3    1    6    6    0  502 -0.12286652879E+03 -0.67878390427E+02  0.11914347039E+03  0.18411633909E+03  0.00000000000E+00 0.  1.
<mgrwt>
<rscale>  0 0.18342792E+04</rscale>
<asrwt>0</asrwt>
<pdfrwt beam="1">  1        1 0.11890046E+00 0.18342792E+04</pdfrwt>
<pdfrwt beam="2">  1       -1 0.16744055E+00 0.18342792E+04</pdfrwt>
<totfact> 0.56492131E+00</totfact>
</mgrwt>
</event>
<event>
12    1  0.2433511E-007  0.1620392E+04  0.7818608E-02  0.8808117E-01
         -1   -1    0    0    0  501 -0.00000000000E+00  0.00000000000E+00  0.18127713580E+04  0.18127713580E+04  0.00000000000E+00 0.  1.
          1   -1    0    0  501    0  0.00000000000E+00 -0.00000000000E+00 -0.36210724541E+03  0.36210724541E+03  0.00000000000E+00 0. -1.
         23    2    1    2    0    0  0.38354547363E+03 -0.10493013634E+03 -0.17305933617E+02  0.40760860834E+03  0.87908011030E+02 0.  0.
        254    2    1    2    0    0 -0.38354547363E+03  0.10493013634E+03  0.14679700462E+04  0.17672699951E+04  0.90010539108E+03 0.  0.
        -24    2    4    4    0    0 -0.14713458824E+03 -0.21737273951E+03  0.12938426742E+04  0.13226098451E+04  0.79802517247E+02 0.  0.
         24    2    4    4    0    0 -0.23641088539E+03  0.32230287585E+03  0.17412737205E+03  0.44466015003E+03  0.87367367017E+02 0.  0.
         13    1    3    3    0    0  0.16435027795E+02 -0.24329190695E+02 -0.11996877960E+02  0.31716631903E+02  0.00000000000E+00 0.  1.
        -13    1    3    3    0    0  0.36711044584E+03 -0.80600945645E+02 -0.53090556569E+01  0.37589197644E+03  0.00000000000E+00 0. -1.
          2    1    6    6  502    0 -0.21025356436E+03  0.23871961699E+03  0.15953487229E+03  0.35587215730E+03  0.00000000000E+00 0. -1.
          3    1    5    5  503    0 -0.50454193262E+01 -0.54453874171E+02  0.18600135882E+03  0.19387415029E+03  0.00000000000E+00 0. -1.
         -4    1    5    5    0  503 -0.14208916891E+03 -0.16291886534E+03  0.11078413154E+04  0.11287356948E+04  0.00000000000E+00 0.  1.
         -3    1    6    6    0  502 -0.26157321028E+02  0.83583258858E+02  0.14592499758E+02  0.88787992735E+02  0.00000000000E+00 0.  1.
<mgrwt>
<rscale>  0 0.16203921E+04</rscale>
<asrwt>0</asrwt>
<pdfrwt beam="1">  1        1 0.55708808E-01 0.16203921E+04</pdfrwt>
<pdfrwt beam="2">  1       -1 0.27888790E+00 0.16203921E+04</pdfrwt>
<totfact> 0.29715642E+00</totfact>
</mgrwt>
</event>
<event>
12    1  0.2433511E-007  0.1496362E+04  0.7818608E-02  0.8886875E-01
         -2   -1    0    0    0  501 -0.00000000000E+00  0.00000000000E+00  0.50018593469E+03  0.50018593469E+03  0.00000000000E+00 0.  1.
          2   -1    0    0  501    0  0.00000000000E+00 -0.00000000000E+00 -0.11191340748E+04  0.11191340748E+04  0.00000000000E+00 0. -1.
         23    2    1    2    0    0  0.40651702360E+03 -0.31555138049E+02  0.58512725676E+02  0.42197044028E+03  0.91561433952E+02 0.  0.
        254    2    1    2    0    0 -0.40651702360E+03  0.31555138049E+02 -0.67746086584E+03  0.11973495693E+04  0.89913344340E+03 0.  0.
        -24    2    4    4    0    0  0.83334694233E+02  0.36246551544E+03 -0.18444261070E+03  0.42326656592E+03  0.82520228025E+02 0.  0.
         24    2    4    4    0    0 -0.48985171784E+03 -0.33091037740E+03 -0.49301825514E+03  0.77408300334E+03  0.81738074469E+02 0.  0.
         13    1    3    3    0    0  0.17108596946E+03 -0.28408776186E+02  0.68108437610E+02  0.18632290998E+03  0.00000000000E+00 0.  1.
        -13    1    3    3    0    0  0.23543105414E+03 -0.31463618629E+01 -0.95957119336E+01  0.23564753030E+03  0.00000000000E+00 0. -1.
          2    1    6    6  502    0 -0.36905079730E+03 -0.27882557489E+03 -0.35211345191E+03  0.58131409342E+03  0.00000000000E+00 0. -1.
          1    1    5    5  503    0  0.56748102310E+02  0.28126279292E+03 -0.17782574063E+03  0.33756643765E+03  0.00000000000E+00 0. -1.
         -2    1    5    5    0  503  0.26586591923E+02  0.81202722526E+02 -0.66168700657E+01  0.85700128268E+02  0.00000000000E+00 0.  1.
         -1    1    6    6    0  502 -0.12080092054E+03 -0.52084802507E+02 -0.14090480323E+03  0.19276890992E+03  0.00000000000E+00 0.  1.
<mgrwt>
<rscale>  0 0.14963624E+04</rscale>
<asrwt>0</asrwt>
<pdfrwt beam="1">  1        2 0.17217447E+00 0.14963624E+04</pdfrwt>
<pdfrwt beam="2">  1       -2 0.76951682E-01 0.14963624E+04</pdfrwt>
<totfact> 0.30908174E+01</totfact>
</mgrwt>
</event>
<event>
12    1  0.2433511E-007  0.1490362E+04  0.7818608E-02  0.8890888E-01
          2   -1    0    0  501    0  0.00000000000E+00  0.00000000000E+00  0.18407391088E+04  0.18407391088E+04  0.00000000000E+00 0. -1.
         -2   -1    0    0    0  501 -0.00000000000E+00 -0.00000000000E+00 -0.30166925857E+03  0.30166925857E+03  0.00000000000E+00 0.  1.
         23    2    1    2    0    0  0.25546922483E+03 -0.20413609434E+03  0.11851821731E+02  0.33943275060E+03  0.90211178118E+02 0.  0.
        254    2    1    2    0    0 -0.25546922483E+03  0.20413609434E+03  0.15272180285E+04  0.18029756168E+04  0.90077194574E+03 0.  0.
        -24    2    4    4    0    0 -0.20887880043E+03  0.54455148356E+03  0.78561999275E+03  0.98180006906E+03  0.81030433102E+02 0.  0.
         24    2    4    4    0    0 -0.46590424398E+02 -0.34041538921E+03  0.74159803579E+03  0.82117554774E+03  0.79424987613E+02 0.  0.
         11    1    3    3    0    0  0.11547431572E+03 -0.13703243689E+03 -0.21982629121E+02  0.18054207912E+03  0.00000000000E+00 0.  1.
        -11    1    3    3    0    0  0.13999490911E+03 -0.67103657452E+02  0.33834450851E+02  0.15889067148E+03  0.00000000000E+00 0. -1.
          2    1    6    6  502    0 -0.50378519237E+02 -0.28194421489E+03  0.67005586949E+03  0.72870117589E+03  0.00000000000E+00 0. -1.
          1    1    5    5  503    0 -0.71399535475E+02  0.14797749542E+03  0.16739080636E+03  0.23455258445E+03  0.00000000000E+00 0. -1.
         -2    1    5    5    0  503 -0.13747926495E+03  0.39657398814E+03  0.61822918639E+03  0.74724748462E+03  0.00000000000E+00 0.  1.
         -1    1    6    6    0  502  0.37880948387E+01 -0.58471174325E+02  0.71542166303E+02  0.92474371849E+02  0.00000000000E+00 0.  1.
<mgrwt>
<rscale>  0 0.14903616E+04</rscale>
<asrwt>0</asrwt>
<pdfrwt beam="1">  1        2 0.28319063E+00 0.14903616E+04</pdfrwt>
<pdfrwt beam="2">  1       -2 0.46410656E-01 0.14903616E+04</pdfrwt>
<totfact> 0.34861286E+01</totfact>
</mgrwt>
</event>
<event>
12    1  0.2433511E-007  0.2378710E+04  0.7818608E-02  0.8447517E-01
          1   -1    0    0  501    0  0.00000000000E+00  0.00000000000E+00  0.37523092132E+03  0.37523092132E+03  0.00000000000E+00 0. -1.
         -1   -1    0    0    0  501 -0.00000000000E+00 -0.00000000000E+00 -0.37698531139E+04  0.37698531139E+04  0.00000000000E+00 0.  1.
         23    2    1    2    0    0 -0.57675212020E+03 -0.65034952099E+03 -0.53498077733E+03  0.10249554843E+04  0.93444128019E+02 0.  0.
        254    2    1    2    0    0  0.57675212020E+03  0.65034952099E+03 -0.28596414152E+04  0.31201285509E+04  0.89557559305E+03 0.  0.
        -24    2    4    4    0    0  0.23654862069E+03  0.36332779378E+02 -0.96584422139E+02  0.26820944262E+03  0.73023514723E+02 0.  0.
         24    2    4    4    0    0  0.34020349951E+03  0.61401674162E+03 -0.27630569931E+04  0.28519191083E+04  0.78763399296E+02 0.  0.
         13    1    3    3    0    0 -0.14788886846E+03 -0.23105138848E+03 -0.17681498805E+03  0.32637310173E+03  0.00000000000E+00 0. -1.
        -13    1    3    3    0    0 -0.42886325173E+03 -0.41929813252E+03 -0.35816578928E+03  0.69858238257E+03  0.00000000000E+00 0.  1.
          2    1    6    6  502    0  0.32763374754E+03  0.60071574045E+03 -0.26276247996E+04  0.27152560397E+04  0.00000000000E+00 0. -1.
          1    1    5    5  503    0  0.11968410401E+03 -0.54294057114E+00 -0.81365505281E+02  0.14472361586E+03  0.00000000000E+00 0. -1.
         -2    1    5    5    0  503  0.11686451668E+03  0.36875719949E+02 -0.15218916857E+02  0.12348582676E+03  0.00000000000E+00 0.  1.
         -1    1    6    6    0  502  0.12569751968E+02  0.13301001164E+02 -0.13543219347E+03  0.13666306862E+03  0.00000000000E+00 0.  1.
<mgrwt>
<rscale>  0 0.23787101E+04</rscale>
<asrwt>0</asrwt>
<pdfrwt beam="1">  1        1 0.57727834E-01 0.23787101E+04</pdfrwt>
<pdfrwt beam="2">  1       -1 0.57997740E+00 0.23787101E+04</pdfrwt>
<totfact> 0.30890049E-02</totfact>
</mgrwt>
</event>
<event>
12    1  0.2433511E-007  0.2639709E+04  0.7818608E-02  0.8354837E-01
          2   -1    0    0  501    0  0.00000000000E+00  0.00000000000E+00  0.25451414757E+04  0.25451414757E+04  0.00000000000E+00 0. -1.
         -2   -1    0    0    0  501 -0.00000000000E+00 -0.00000000000E+00 -0.68444738767E+03  0.68444738767E+03  0.00000000000E+00 0.  1.
         23    2    1    2    0    0 -0.94546872130E+03 -0.32363261321E+03  0.92115948299E+02  0.10075157974E+04  0.89182749159E+02 0.  0.
        254    2    1    2    0    0  0.94546872130E+03  0.32363261321E+03  0.17685781397E+04  0.22220730660E+04  0.90060585328E+03 0.  0.
        -24    2    4    4    0    0  0.66179914416E+03  0.56802138325E+03  0.82251256282E+03  0.12014402494E+04  0.79406282756E+02 0.  0.
         24    2    4    4    0    0  0.28366957714E+03 -0.24438877004E+03  0.94606557688E+03  0.10206328166E+04  0.80355277708E+02 0.  0.
         11    1    3    3    0    0 -0.17204837923E+03 -0.93943859077E+02  0.30187556138E+02  0.19833653723E+03  0.00000000000E+00 0. -1.
        -11    1    3    3    0    0 -0.77342034208E+03 -0.22968875413E+03  0.61928392161E+02  0.80917926016E+03  0.00000000000E+00 0.  1.
          2    1    6    6  502    0  0.74409905474E+02 -0.37845597674E+02  0.28829805416E+03  0.30014145220E+03  0.00000000000E+00 0. -1.
          1    1    5    5  503    0  0.27710538605E+03  0.19026414401E+03  0.29716940223E+03  0.44866189173E+03  0.00000000000E+00 0. -1.
         -2    1    5    5    0  503  0.38469375811E+03  0.37775723924E+03  0.52534316059E+03  0.75277835762E+03  0.00000000000E+00 0.  1.
         -1    1    6    6    0  502  0.20925967167E+03 -0.20654317237E+03  0.65776752273E+03  0.72049136441E+03  0.00000000000E+00 0.  1.
<mgrwt>
<rscale>  0 0.26397086E+04</rscale>
<asrwt>0</asrwt>
<pdfrwt beam="1">  1        2 0.39156022E+00 0.26397086E+04</pdfrwt>
<pdfrwt beam="2">  1       -2 0.10529960E+00 0.26397086E+04</pdfrwt>
<totfact> 0.21087127E+00</totfact>
</mgrwt>
</event>
<event>
12    1  0.2433511E-007  0.1739886E+04  0.7818608E-02  0.8738937E-01
          1   -1    0    0  501    0  0.00000000000E+00  0.00000000000E+00  0.93633129655E+03  0.93633129655E+03  0.00000000000E+00 0. -1.
         -1   -1    0    0    0  501 -0.00000000000E+00 -0.00000000000E+00 -0.80826224281E+03  0.80826224281E+03  0.00000000000E+00 0.  1.
         23    2    1    2    0    0  0.32686273576E+03 -0.33076282721E+03 -0.38455652232E+03  0.61032539113E+03  0.91488077394E+02 0.  0.
        254    2    1    2    0    0 -0.32686273576E+03  0.33076282721E+03  0.51262557606E+03  0.11342681482E+04  0.89863004345E+03 0.  0.
        -24    2    4    4    0    0 -0.14845875077E+03 -0.26505704831E+03 -0.15012415314E+02  0.31450526304E+03  0.79955914913E+02 0.  0.
         24    2    4    4    0    0 -0.17840398499E+03  0.59581987552E+03  0.52763799137E+03  0.81976288520E+03  0.82340950288E+02 0.  0.
         13    1    3    3    0    0  0.10726463836E+03 -0.78261834440E+02 -0.15714925370E+03  0.20573406454E+03  0.00000000000E+00 0.  1.
        -13    1    3    3    0    0  0.21959809739E+03 -0.25250099277E+03 -0.22740726861E+03  0.40459132659E+03  0.00000000000E+00 0. -1.
          2    1    6    6  502    0 -0.10718565116E+02  0.62726685640E+02  0.25807230844E+02  0.68669774235E+02  0.00000000000E+00 0. -1.
          3    1    5    5  503    0 -0.13717287646E+03 -0.18678412126E+03  0.88178171534E+01  0.23191045662E+03  0.00000000000E+00 0. -1.
         -4    1    5    5    0  503 -0.11285874303E+02 -0.78272927051E+02 -0.23830232467E+02  0.82594806419E+02  0.00000000000E+00 0.  1.
         -1    1    6    6    0  502 -0.16768541987E+03  0.53309318988E+03  0.50183076053E+03  0.75109311097E+03  0.00000000000E+00 0.  1.
<mgrwt>
<rscale>  0 0.17398865E+04</rscale>
<asrwt>0</asrwt>
<pdfrwt beam="1">  1        1 0.14405097E+00 0.17398865E+04</pdfrwt>
<pdfrwt beam="2">  1       -1 0.12434804E+00 0.17398865E+04</pdfrwt>
<totfact> 0.91426146E+00</totfact>
</mgrwt>
</event>
<event>
12    1  0.2433511E-007  0.3661468E+04  0.7818608E-02  0.8076555E-01
         -1   -1    0    0    0  501 -0.00000000000E+00  0.00000000000E+00  0.14299427516E+04  0.14299427516E+04  0.00000000000E+00 0.  1.
          1   -1    0    0  501    0  0.00000000000E+00 -0.00000000000E+00 -0.23438608088E+04  0.23438608088E+04  0.00000000000E+00 0. -1.
         23    2    1    2    0    0 -0.68041206739E+03 -0.14621495130E+04  0.18357500397E+03  0.16255239844E+04  0.88242064710E+02 0.  0.
        254    2    1    2    0    0  0.68041206739E+03  0.14621495130E+04 -0.10974930612E+04  0.21482795760E+04  0.89987351183E+03 0.  0.
        -24    2    4    4    0    0 -0.20109119769E+03  0.15611950859E+03 -0.12095230225E+03  0.29279625458E+03  0.79304580731E+02 0.  0.
         24    2    4    4    0    0  0.88150326508E+03  0.13060300044E+04 -0.97654075891E+03  0.18554833214E+04  0.80150628658E+02 0.  0.
         11    1    3    3    0    0 -0.29354458690E+03 -0.72751081425E+03  0.10603760496E+03  0.79163399562E+03  0.00000000000E+00 0.  1.
        -11    1    3    3    0    0 -0.38686748049E+03 -0.73463869879E+03  0.77537399006E+02  0.83388998883E+03  0.00000000000E+00 0. -1.
          4    1    6    6  502    0  0.81406346549E+03  0.11667065086E+04 -0.89113216043E+03  0.16786959017E+04  0.00000000000E+00 0. -1.
          3    1    5    5  503    0 -0.20223580148E+03  0.13410818451E+03 -0.10023771915E+03  0.26254890000E+03  0.00000000000E+00 0. -1.
         -4    1    5    5    0  503  0.11446037920E+01  0.22011324083E+02 -0.20714583102E+02  0.30247354576E+02  0.00000000000E+00 0.  1.
         -3    1    6    6    0  502  0.67439799586E+02  0.13932349582E+03 -0.85408598473E+02  0.17678741966E+03  0.00000000000E+00 0.  1.
<mgrwt>
<rscale>  0 0.36614679E+04</rscale>
<asrwt>0</asrwt>
<pdfrwt beam="1">  1        1 0.36059397E+00 0.36614679E+04</pdfrwt>
<pdfrwt beam="2">  1       -1 0.21999119E+00 0.36614679E+04</pdfrwt>
<totfact> 0.15384643E-01</totfact>
</mgrwt>
</event>
<event>
12    1  0.2433511E-007  0.3851921E+04  0.7818608E-02  0.8035104E-01
          1   -1    0    0  501    0  0.00000000000E+00  0.00000000000E+00  0.14627225904E+04  0.14627225904E+04  0.00000000000E+00 0. -1.
         -1   -1    0    0    0  501 -0.00000000000E+00 -0.00000000000E+00 -0.25359038613E+04  0.25359038613E+04  0.00000000000E+00 0.  1.
         23    2    1    2    0    0 -0.27043987317E+03 -0.58279555564E+03 -0.22750869196E+04  0.23657755841E+04  0.89917951678E+02 0.  0.
        254    2    1    2    0    0  0.27043987317E+03  0.58279555564E+03  0.12019056487E+04  0.16328508676E+04  0.89935331358E+03 0.  0.
        -24    2    4    4    0    0 -0.30006128765E+03  0.37172726913E+03  0.43730997923E+03  0.65263256847E+03  0.80444468655E+02 0.  0.
         24    2    4    4    0    0  0.57050116081E+03  0.21106828651E+03  0.76459566951E+03  0.98021829911E+03  0.78739951931E+02 0.  0.
         13    1    3    3    0    0 -0.16174823980E+03 -0.40426664442E+03 -0.14043276471E+04  0.14702823379E+04  0.00000000000E+00 0. -1.
        -13    1    3    3    0    0 -0.10869163337E+03 -0.17852891122E+03 -0.87075927251E+03  0.89549324619E+03  0.00000000000E+00 0.  1.
          2    1    6    6  502    0  0.30395951348E+03  0.73771384439E+02  0.36597219520E+03  0.48142418993E+03  0.00000000000E+00 0. -1.
          3    1    5    5  503    0 -0.69051345731E+02  0.82113802389E+02  0.56114714616E+02  0.12107694284E+03  0.00000000000E+00 0. -1.
         -4    1    5    5    0  503 -0.23100994192E+03  0.28961346675E+03  0.38119526461E+03  0.53155562564E+03  0.00000000000E+00 0.  1.
         -1    1    6    6    0  502  0.26654164733E+03  0.13729690207E+03  0.39862347431E+03  0.49879410918E+03  0.00000000000E+00 0.  1.
<mgrwt>
<rscale>  0 0.38519210E+04</rscale>
<asrwt>0</asrwt>
<pdfrwt beam="1">  1        1 0.22503424E+00 0.38519210E+04</pdfrwt>
<pdfrwt beam="2">  1       -1 0.39013906E+00 0.38519210E+04</pdfrwt>
<totfact> 0.45912598E-02</totfact>
</mgrwt>
</event>
<event>
12    1  0.2433511E-007  0.1838021E+04  0.7818608E-02  0.8686338E-01
         -2   -1    0    0    0  501 -0.00000000000E+00  0.00000000000E+00  0.11117612778E+04  0.11117612778E+04  0.00000000000E+00 0.  1.
          2   -1    0    0  501    0  0.00000000000E+00 -0.00000000000E+00 -0.75967789683E+03  0.75967789683E+03  0.00000000000E+00 0. -1.
         23    2    1    2    0    0 -0.40679613365E+03 -0.36740691717E+03  0.57722788728E+03  0.80126009993E+03  0.91404467928E+02 0.  0.
        254    2    1    2    0    0  0.40679613365E+03  0.36740691717E+03 -0.22514450628E+03  0.10701790747E+04  0.89113538036E+03 0.  0.
        -24    2    4    4    0    0  0.15163254660E+03  0.62795973986E+03 -0.24789034964E+03  0.69639617364E+03  0.78690159173E+02 0.  0.
         24    2    4    4    0    0  0.25516358705E+03 -0.26055282269E+03  0.22745843360E+02  0.37378290108E+03  0.78740422798E+02 0.  0.
         11    1    3    3    0    0 -0.14991081118E+03 -0.19656941064E+03  0.25499438253E+03  0.35515478263E+03  0.00000000000E+00 0. -1.
        -11    1    3    3    0    0 -0.25688532247E+03 -0.17083750653E+03  0.32223350475E+03  0.44610531730E+03  0.00000000000E+00 0.  1.
          4    1    6    6  502    0  0.18358908878E+03 -0.23212937341E+03  0.21947501895E+02  0.29676706751E+03  0.00000000000E+00 0. -1.
          1    1    5    5  503    0  0.14957339371E+03  0.60500443697E+03 -0.22162625554E+03  0.66145352520E+03  0.00000000000E+00 0. -1.
         -2    1    5    5    0  503  0.20591528887E+01  0.22955302891E+02 -0.26264094096E+02  0.34942648442E+02  0.00000000000E+00 0.  1.
         -3    1    6    6    0  502  0.71574498274E+02 -0.28423449282E+02  0.79834146459E+00  0.77015833575E+02  0.00000000000E+00 0.  1.
<mgrwt>
<rscale>  0 0.18380212E+04</rscale>
<asrwt>0</asrwt>
<pdfrwt beam="1">  1        2 0.11687352E+00 0.18380212E+04</pdfrwt>
<pdfrwt beam="2">  1       -2 0.17104020E+00 0.18380212E+04</pdfrwt>
<totfact> 0.72688828E+00</totfact>
</mgrwt>
</event>
<event>
12    1  0.2433511E-007  0.2704347E+04  0.7818608E-02  0.8333596E-01
         -2   -1    0    0    0  501 -0.00000000000E+00  0.00000000000E+00  0.12981175560E+04  0.12981175560E+04  0.00000000000E+00 0.  1.
          2   -1    0    0  501    0  0.00000000000E+00 -0.00000000000E+00 -0.14084803994E+04  0.14084803994E+04  0.00000000000E+00 0. -1.
         23    2    1    2    0    0 -0.24020492998E+03 -0.11754436633E+04 -0.10158154335E+02  0.12035471941E+04  0.95165363016E+02 0.  0.
        254    2    1    2    0    0  0.24020492998E+03  0.11754436633E+04 -0.10020468900E+03  0.15030507613E+04  0.89986354368E+03 0.  0.
        -24    2    4    4    0    0  0.43563101538E+03  0.10461823521E+04  0.15581275596E+03  0.11468970633E+04  0.82603652019E+02 0.  0.
         24    2    4    4    0    0 -0.19542608540E+03  0.12926131118E+03 -0.25601744496E+03  0.35615369800E+03  0.80004268981E+02 0.  0.
         13    1    3    3    0    0 -0.61087535688E+02 -0.28100309558E+03  0.38063306521E+02  0.29007454567E+03  0.00000000000E+00 0. -1.
        -13    1    3    3    0    0 -0.17911739429E+03 -0.89444056774E+03 -0.48221460856E+02  0.91347264844E+03  0.00000000000E+00 0.  1.
          2    1    6    6  502    0 -0.67595192303E+02  0.44387599060E+01 -0.55387646259E+02  0.87502022663E+02  0.00000000000E+00 0. -1.
          1    1    5    5  503    0  0.29926639562E+03  0.66974796913E+03  0.65668151951E+02  0.73650188315E+03  0.00000000000E+00 0. -1.
         -2    1    5    5    0  503  0.13636461975E+03  0.37643438302E+03  0.90144604006E+02  0.41039518012E+03  0.00000000000E+00 0.  1.
         -1    1    6    6    0  502 -0.12783089309E+03  0.12482255127E+03 -0.20062979870E+03  0.26865167534E+03  0.00000000000E+00 0.  1.
<mgrwt>
<rscale>  0 0.27043470E+04</rscale>
<asrwt>0</asrwt>
<pdfrwt beam="1">  1        2 0.21668929E+00 0.27043470E+04</pdfrwt>
<pdfrwt beam="2">  1       -2 0.19971039E+00 0.27043470E+04</pdfrwt>
<totfact> 0.16765519E+00</totfact>
</mgrwt>
</event>
<event>
12    1  0.2433511E-007  0.1202742E+04  0.7818608E-02  0.9110460E-01
         -2   -1    0    0    0  501 -0.00000000000E+00  0.00000000000E+00  0.64079937235E+03  0.64079937235E+03  0.00000000000E+00 0.  1.
          2   -1    0    0  501    0  0.00000000000E+00 -0.00000000000E+00 -0.56436859198E+03  0.56436859198E+03  0.00000000000E+00 0. -1.
         23    2    1    2    0    0 -0.20923360109E+03 -0.94457991226E+02 -0.83711436610E+02  0.26067094857E+03  0.90778449410E+02 0.  0.
        254    2    1    2    0    0  0.20923360109E+03  0.94457991226E+02  0.16014221698E+03  0.94449701577E+03  0.90206877299E+03 0.  0.
        -24    2    4    4    0    0  0.28375444485E+03 -0.34947572057E+03  0.16924550710E+03  0.48746516450E+03  0.79551119950E+02 0.  0.
         24    2    4    4    0    0 -0.74520843765E+02  0.44393371179E+03 -0.91032901156E+01  0.45703185127E+03  0.78515900081E+02 0.  0.
         11    1    3    3    0    0  0.41409756886E+01 -0.12490882102E+02 -0.18997368744E+02  0.23109950985E+02  0.00000000000E+00 0. -1.
        -11    1    3    3    0    0 -0.21337457677E+03 -0.81967109124E+02 -0.64714067866E+02  0.23756099758E+03  0.00000000000E+00 0.  1.
          2    1    6    6  502    0 -0.32909259076E+02  0.17586810520E+03  0.34664484756E+02  0.18224773322E+03  0.00000000000E+00 0. -1.
          3    1    5    5  503    0  0.21603333568E+03 -0.26239263911E+03  0.89879284866E+02  0.35156590425E+03  0.00000000000E+00 0. -1.
         -4    1    5    5    0  503  0.67721109172E+02 -0.87083081453E+02  0.79366222232E+02  0.13589926024E+03  0.00000000000E+00 0.  1.
         -1    1    6    6    0  502 -0.41611584689E+02  0.26806560659E+03 -0.43767774872E+02  0.27478411805E+03  0.00000000000E+00 0.  1.
<mgrwt>
<rscale>  0 0.12027419E+04</rscale>
<asrwt>0</asrwt>
<pdfrwt beam="1">  1        2 0.86825938E-01 0.12027419E+04</pdfrwt>
<pdfrwt beam="2">  1       -2 0.98584518E-01 0.12027419E+04</pdfrwt>
<totfact> 0.45009667E+01</totfact>
</mgrwt>
</event>
<event>
12    1  0.2433511E-007  0.2680017E+04  0.7818608E-02  0.8341518E-01
          1   -1    0    0  501    0  0.00000000000E+00  0.00000000000E+00  0.19021774886E+04  0.19021774886E+04  0.00000000000E+00 0. -1.
         -1   -1    0    0    0  501 -0.00000000000E+00 -0.00000000000E+00 -0.94398287499E+03  0.94398287499E+03  0.00000000000E+00 0.  1.
         23    2    1    2    0    0 -0.85913035894E+03 -0.68917965487E+03  0.88000911503E+03  0.14124984957E+04  0.87535064653E+02 0.  0.
        254    2    1    2    0    0  0.85913035894E+03  0.68917965487E+03  0.78185498567E+02  0.14336618679E+04  0.91443961464E+03 0.  0.
        -24    2    4    4    0    0  0.20889395402E+03  0.28245917067E+03  0.45073348247E+03  0.57723241863E+03  0.81343258955E+02 0.  0.
         24    2    4    4    0    0  0.65023640492E+03  0.40672048420E+03 -0.37254798390E+03  0.85642944923E+03  0.80314797125E+02 0.  0.
         13    1    3    3    0    0 -0.46218875471E+03 -0.33705914950E+03  0.41178059916E+03  0.70483372301E+03  0.00000000000E+00 0.  1.
        -13    1    3    3    0    0 -0.39694160423E+03 -0.35212050537E+03  0.46822851587E+03  0.70766477272E+03  0.00000000000E+00 0. -1.
          4    1    6    6  502    0  0.82676282142E+02  0.84761447139E+02 -0.49765239306E+02  0.12843850510E+03  0.00000000000E+00 0. -1.
          3    1    5    5  503    0  0.58500776496E+02  0.81720872041E+02  0.19296040880E+03  0.21756461372E+03  0.00000000000E+00 0. -1.
         -4    1    5    5    0  503  0.15039317752E+03  0.20073829863E+03  0.25777307367E+03  0.35966780491E+03  0.00000000000E+00 0.  1.
         -3    1    6    6    0  502  0.56756012278E+03  0.32195903706E+03 -0.32278274460E+03  0.72799094413E+03  0.00000000000E+00 0.  1.
<mgrwt>
<rscale>  0 0.26800171E+04</rscale>
<asrwt>0</asrwt>
<pdfrwt beam="1">  1        1 0.29264269E+00 0.26800171E+04</pdfrwt>
<pdfrwt beam="2">  1       -1 0.14522813E+00 0.26800171E+04</pdfrwt>
<totfact> 0.11554480E+00</totfact>
</mgrwt>
</event>
<event>
12    1  0.2607664E-007  0.2300622E+04  0.7818608E-02  0.8477676E-01
         -1   -1    0    0    0  501 -0.00000000000E+00  0.00000000000E+00  0.13295629355E+04  0.13295629355E+04  0.00000000000E+00 0.  1.
          1   -1    0    0  501    0  0.00000000000E+00 -0.00000000000E+00 -0.99522588660E+03  0.99522588660E+03  0.00000000000E+00 0. -1.
         23    2    1    2    0    0 -0.45014826376E+03  0.79521007403E+03  0.47678750047E+03  0.10347220316E+04  0.91273439773E+02 0.  0.
        254    2    1    2    0    0  0.45014826376E+03 -0.79521007403E+03 -0.14245045157E+03  0.12900667905E+04  0.89943741956E+03 0.  0.
        -24    2    4    4    0    0  0.47831346763E+03 -0.12674095149E+03 -0.31804980597E+03  0.59380460199E+03  0.81247671808E+02 0.  0.
         24    2    4    4    0    0 -0.28165203863E+02 -0.66846912254E+03  0.17559935440E+03  0.69626218855E+03  0.79382966956E+02 0.  0.
         11    1    3    3    0    0 -0.19458081578E+03  0.32331693961E+03  0.14787797642E+03  0.40529425510E+03  0.00000000000E+00 0. -1.
        -11    1    3    3    0    0 -0.25556744799E+03  0.47189313441E+03  0.32890952405E+03  0.62942777647E+03  0.00000000000E+00 0.  1.
          4    1    6    6  502    0 -0.19841929074E+02 -0.66385964664E+03  0.17440222447E+03  0.68667275210E+03  0.00000000000E+00 0. -1.
          1    1    5    5  503    0  0.41308880943E+03 -0.12948837313E+03 -0.25188354702E+03  0.50085419486E+03  0.00000000000E+00 0. -1.
         -2    1    5    5    0  503  0.65224658197E+02  0.27474216392E+01 -0.66166258949E+02  0.92950407132E+02  0.00000000000E+00 0.  1.
         -3    1    6    6    0  502 -0.83232747891E+01 -0.46094759023E+01  0.11971299367E+01  0.95894364482E+01  0.00000000000E+00 0.  1.
<mgrwt>
<rscale>  0 0.23006220E+04</rscale>
<asrwt>0</asrwt>
<pdfrwt beam="1">  1        1 0.15311168E+00 0.23006220E+04</pdfrwt>
<pdfrwt beam="2">  1       -1 0.20454814E+00 0.23006220E+04</pdfrwt>
<totfact> 0.19317876E+00</totfact>
</mgrwt>
</event>
<event>
12    1  0.2433511E-007  0.5084449E+04  0.7818608E-02  0.7815611E-01
          2   -1    0    0  501    0  0.00000000000E+00  0.00000000000E+00  0.19225879379E+04  0.19225879379E+04  0.00000000000E+00 0.  1.
         -2   -1    0    0    0  501 -0.00000000000E+00 -0.00000000000E+00 -0.33615659806E+04  0.33615659806E+04  0.00000000000E+00 0. -1.
         23    2    1    2    0    0  0.24245964616E+04 -0.42556462632E+03 -0.66933809467E+03  0.25528948094E+04  0.97391836798E+02 0.  0.
        254    2    1    2    0    0 -0.24245964616E+04  0.42556462632E+03 -0.76963994802E+03  0.27312591092E+04  0.89869762387E+03 0.  0.
        -24    2    4    4    0    0 -0.19861731001E+04  0.49617623658E+03 -0.93307368731E+03  0.22511976785E+04  0.78676809826E+02 0.  0.
         24    2    4    4    0    0 -0.43842336149E+03 -0.70611610255E+02  0.16343373929E+03  0.48006143068E+03  0.80915676439E+02 0.  0.
         11    1    3    3    0    0  0.90213617049E+03 -0.13844065973E+03 -0.29255795802E+03  0.95843917135E+03  0.00000000000E+00 0. -1.
        -11    1    3    3    0    0  0.15224602911E+04 -0.28712396659E+03 -0.37678013665E+03  0.15944556380E+04  0.00000000000E+00 0.  1.
          4    1    6    6  502    0 -0.41882484113E+02  0.51135824622E+01  0.39403777415E+02  0.57731697322E+02  0.00000000000E+00 0. -1.
          3    1    5    5  503    0 -0.69049425422E+03  0.13732351038E+03 -0.30398876394E+03  0.76684368043E+03  0.00000000000E+00 0. -1.
         -2    1    5    5    0  503 -0.12956788459E+04  0.35885272620E+03 -0.62908492336E+03  0.14843539981E+04  0.00000000000E+00 0.  1.
         -3    1    6    6    0  502 -0.39654087737E+03 -0.75725192717E+02  0.12402996187E+03  0.42232973336E+03  0.00000000000E+00 0.  1.
<mgrwt>
<rscale>  0 0.50844493E+04</rscale>
<asrwt>0</asrwt>
<pdfrwt beam="1">  1        2 0.29578276E+00 0.50844493E+04</pdfrwt>
<pdfrwt beam="2">  1       -2 0.51716400E+00 0.50844493E+04</pdfrwt>
<totfact> 0.69863695E-03</totfact>
</mgrwt>
</event>
<event>
12    1  0.2433511E-007  0.1346374E+04  0.7818608E-02  0.8993578E-01
          1   -1    0    0  501    0  0.00000000000E+00  0.00000000000E+00  0.48103445147E+03  0.48103445147E+03  0.00000000000E+00 0. -1.
         -1   -1    0    0    0  501 -0.00000000000E+00 -0.00000000000E+00 -0.94209577938E+03  0.94209577938E+03  0.00000000000E+00 0.  1.
         23    2    1    2    0    0 -0.16308530158E+02  0.36127864239E+03 -0.15688988609E+03  0.40526965387E+03  0.94025690032E+02 0.  0.
        254    2    1    2    0    0  0.16308530158E+02 -0.36127864239E+03 -0.30417144182E+03  0.10178605770E+04  0.90151631297E+03 0.  0.
        -24    2    4    4    0    0  0.32521016080E+03  0.14150581258E+03 -0.38275855670E+02  0.36548067964E+03  0.79533278453E+02 0.  0.
         24    2    4    4    0    0 -0.30890163064E+03 -0.50278445497E+03 -0.26589558615E+03  0.65237989734E+03  0.81771890924E+02 0.  0.
         11    1    3    3    0    0 -0.24073876795E+01  0.79656056427E+02 -0.80198820817E+02  0.11306075226E+03  0.00000000000E+00 0. -1.
        -11    1    3    3    0    0 -0.13901142478E+02  0.28162258596E+03 -0.76691065271E+02  0.29220890161E+03  0.00000000000E+00 0.  1.
          4    1    6    6  502    0 -0.48093047386E+02 -0.86711295166E+02 -0.79666582226E+02  0.12719494581E+03  0.00000000000E+00 0. -1.
          3    1    5    5  503    0  0.15180752119E+03  0.35924499676E+02  0.11586878258E+02  0.15643001283E+03  0.00000000000E+00 0. -1.
         -4    1    5    5    0  503  0.17340263961E+03  0.10558131290E+03 -0.49862733928E+02  0.20905066681E+03  0.00000000000E+00 0.  1.
         -1    1    6    6    0  502 -0.26080858326E+03 -0.41607315980E+03 -0.18622900393E+03  0.52518495153E+03  0.00000000000E+00 0.  1.
<mgrwt>
<rscale>  0 0.13463737E+04</rscale>
<asrwt>0</asrwt>
<pdfrwt beam="1">  1        1 0.74005302E-01 0.13463737E+04</pdfrwt>
<pdfrwt beam="2">  1       -1 0.14493781E+00 0.13463737E+04</pdfrwt>
<totfact> 0.17510593E+01</totfact>
</mgrwt>
</event>
<event>
12    1  0.2433511E-007  0.1274426E+04  0.7818608E-02  0.9050095E-01
          2   -1    0    0  501    0  0.00000000000E+00  0.00000000000E+00  0.27288618450E+03  0.27288618450E+03  0.00000000000E+00 0. -1.
         -2   -1    0    0    0  501 -0.00000000000E+00 -0.00000000000E+00 -0.14879486586E+04  0.14879486586E+04  0.00000000000E+00 0.  1.
         23    2    1    2    0    0  0.17573455836E+03  0.23410735828E+03 -0.44396433424E+03  0.54033970604E+03  0.95779839428E+02 0.  0.
        254    2    1    2    0    0 -0.17573455836E+03 -0.23410735828E+03 -0.77109813986E+03  0.12204951371E+04  0.89962611572E+03 0.  0.
        -24    2    4    4    0    0 -0.29974709947E+03 -0.43675632428E+03 -0.15867468636E+03  0.55875141330E+03  0.80131612538E+02 0.  0.
         24    2    4    4    0    0  0.12401254111E+03  0.20264896600E+03 -0.61242345350E+03  0.66174372376E+03  0.79978470652E+02 0.  0.
         11    1    3    3    0    0 -0.62420295596E+01  0.92565270513E+01 -0.88916833487E+00  0.11199859213E+02  0.00000000000E+00 0. -1.
        -11    1    3    3    0    0  0.18197658792E+03  0.22485083123E+03 -0.44307516591E+03  0.52913984683E+03  0.00000000000E+00 0.  1.
          4    1    6    6  502    0 -0.11365970157E+02  0.16409270745E+02 -0.38722929544E+02  0.43565063026E+02  0.00000000000E+00 0. -1.
          3    1    5    5  503    0 -0.75442786813E+02 -0.59435665174E+02 -0.39963980663E+02  0.10402563207E+03  0.00000000000E+00 0. -1.
         -4    1    5    5    0  503 -0.22430431266E+03 -0.37732065911E+03 -0.11871070570E+03  0.45472578123E+03  0.00000000000E+00 0.  1.
         -3    1    6    6    0  502  0.13537851127E+03  0.18623969526E+03 -0.57370052395E+03  0.61817866073E+03  0.00000000000E+00 0.  1.
<mgrwt>
<rscale>  0 0.12744264E+04</rscale>
<asrwt>0</asrwt>
<pdfrwt beam="1">  1        2 0.41982491E-01 0.12744264E+04</pdfrwt>
<pdfrwt beam="2">  1       -2 0.22891517E+00 0.12744264E+04</pdfrwt>
<totfact> 0.10412087E+01</totfact>
</mgrwt>
</event>
<event>
12    1  0.2433511E-007  0.2219618E+04  0.7818608E-02  0.8510307E-01
          1   -1    0    0  501    0  0.00000000000E+00  0.00000000000E+00  0.14779149971E+04  0.14779149971E+04  0.00000000000E+00 0. -1.
         -1   -1    0    0    0  501 -0.00000000000E+00 -0.00000000000E+00 -0.83338736508E+03  0.83338736508E+03  0.00000000000E+00 0.  1.
         23    2    1    2    0    0  0.32585850785E+03  0.51037321762E+03 -0.45689154497E+03  0.76625970818E+03  0.10834882605E+03 0.  0.
        254    2    1    2    0    0 -0.32585850785E+03 -0.51037321762E+03  0.11014191770E+04  0.15450426540E+04  0.89853659405E+03 0.  0.
        -24    2    4    4    0    0 -0.10298993598E+03 -0.16877673884E+03 -0.12747573744E+03  0.24778478511E+03  0.77812091651E+02 0.  0.
         24    2    4    4    0    0 -0.22286857187E+03 -0.34159647878E+03  0.12288949145E+04  0.12972578689E+04  0.79603473726E+02 0.  0.
         13    1    3    3    0    0  0.24002555374E+03  0.33820413001E+03 -0.36752254471E+03  0.55413637389E+03  0.00000000000E+00 0.  1.
        -13    1    3    3    0    0  0.85832954117E+02  0.17216908761E+03 -0.89369000268E+02  0.21212333429E+03  0.00000000000E+00 0. -1.
          4    1    6    6  502    0  0.19526918454E+00 -0.24826062012E+02  0.42664859615E+02  0.49362553935E+02  0.00000000000E+00 0. -1.
          1    1    5    5  503    0 -0.22263008639E+02 -0.10927313443E+03 -0.57252266014E+02  0.12535581927E+03  0.00000000000E+00 0. -1.
         -2    1    5    5    0  503 -0.80726927341E+02 -0.59503604412E+02 -0.70223471428E+02  0.12242896583E+03  0.00000000000E+00 0.  1.
         -3    1    6    6    0  502 -0.22306384106E+03 -0.31677041677E+03  0.11862300549E+04  0.12478953150E+04  0.00000000000E+00 0.  1.
<mgrwt>
<rscale>  0 0.22196177E+04</rscale>
<asrwt>0</asrwt>
<pdfrwt beam="1">  1        1 0.22737154E+00 0.22196177E+04</pdfrwt>
<pdfrwt beam="2">  1       -1 0.12821344E+00 0.22196177E+04</pdfrwt>
<totfact> 0.32393233E+00</totfact>
</mgrwt>
</event>
<event>
12    1  0.2433511E-007  0.1868790E+04  0.7818608E-02  0.8670549E-01
         -2   -1    0    0    0  501 -0.00000000000E+00  0.00000000000E+00  0.66172077558E+03  0.66172077558E+03  0.00000000000E+00 0.  1.
          2   -1    0    0  501    0  0.00000000000E+00 -0.00000000000E+00 -0.13194298624E+04  0.13194298624E+04  0.00000000000E+00 0. -1.
         23    2    1    2    0    0 -0.55417437668E+03 -0.37465424851E+03  0.10280404254E+02  0.67519529617E+03  0.91147987172E+02 0.  0.
        254    2    1    2    0    0  0.55417437668E+03  0.37465424851E+03 -0.66798949112E+03  0.13059553419E+04  0.90101850647E+03 0.  0.
        -24    2    4    4    0    0 -0.12649001870E+03  0.29872322583E+03 -0.49253197705E+03  0.59513757134E+03  0.79785273872E+02 0.  0.
         24    2    4    4    0    0  0.68066439538E+03  0.75931022678E+02 -0.17545751407E+03  0.71081777052E+03  0.73532471037E+02 0.  0.
         13    1    3    3    0    0 -0.28619414690E+03 -0.18263972441E+03  0.49894416035E+02  0.34315275229E+03  0.00000000000E+00 0.  1.
        -13    1    3    3    0    0 -0.26798022978E+03 -0.19201452410E+03 -0.39614011781E+02  0.33204254388E+03  0.00000000000E+00 0. -1.
          2    1    6    6  502    0  0.49971759738E+03  0.25179355893E+02 -0.14004596312E+03  0.51958112829E+03  0.00000000000E+00 0. -1.
          1    1    5    5  503    0 -0.26886051818E+02  0.16264012494E+03 -0.26099454395E+03  0.30869535467E+03  0.00000000000E+00 0. -1.
         -2    1    5    5    0  503 -0.99603966885E+02  0.13608310089E+03 -0.23153743310E+03  0.28644221668E+03  0.00000000000E+00 0.  1.
         -1    1    6    6    0  502  0.18094679800E+03  0.50751666784E+02 -0.35411550953E+02  0.19123664222E+03  0.00000000000E+00 0.  1.
<mgrwt>
<rscale>  0 0.18687901E+04</rscale>
<asrwt>0</asrwt>
<pdfrwt beam="1">  1        2 0.20298921E+00 0.18687901E+04</pdfrwt>
<pdfrwt beam="2">  1       -2 0.10180320E+00 0.18687901E+04</pdfrwt>
<totfact> 0.11972218E+01</totfact>
</mgrwt>
</event>
<event>
12    1  0.2433511E-007  0.3378686E+04  0.7818608E-02  0.8143157E-01
          2   -1    0    0  501    0  0.00000000000E+00  0.00000000000E+00  0.12583549133E+04  0.12583549133E+04  0.00000000000E+00 0. -1.
         -2   -1    0    0    0  501 -0.00000000000E+00 -0.00000000000E+00 -0.22679449211E+04  0.22679449211E+04  0.00000000000E+00 0.  1.
         23    2    1    2    0    0  0.12209889431E+04 -0.97843806474E+00 -0.14975329221E+04  0.19342552330E+04  0.89014026398E+02 0.  0.
        254    2    1    2    0    0 -0.12209889431E+04  0.97843806474E+00  0.48794291443E+03  0.15920446014E+04  0.89760947446E+03 0.  0.
        -24    2    4    4    0    0 -0.10123229785E+04 -0.34964471688E+03  0.21654712813E+03  0.10955248816E+04  0.78948505812E+02 0.  0.
         24    2    4    4    0    0 -0.20866596458E+03  0.35062315495E+03  0.27139578630E+03  0.49651971983E+03  0.79987985369E+02 0.  0.
         13    1    3    3    0    0  0.77932457664E+03  0.23531540940E+02 -0.10105037515E+04  0.12763300361E+04  0.00000000000E+00 0. -1.
        -13    1    3    3    0    0  0.44166436647E+03 -0.24509979004E+02 -0.48702917060E+03  0.65792519688E+03  0.00000000000E+00 0.  1.
          2    1    6    6  502    0 -0.92864796204E+01  0.71490959698E+02  0.58070216093E+02  0.92570762228E+02  0.00000000000E+00 0. -1.
          3    1    5    5  503    0 -0.32404831109E+03 -0.97463126668E+02  0.10333582425E+03  0.35381444509E+03  0.00000000000E+00 0. -1.
         -4    1    5    5    0  503 -0.68827466744E+03 -0.25218159021E+03  0.11321130388E+03  0.74171043650E+03  0.00000000000E+00 0.  1.
         -1    1    6    6    0  502 -0.19937948496E+03  0.27913219525E+03  0.21332557021E+03  0.40394895761E+03  0.00000000000E+00 0.  1.
<mgrwt>
<rscale>  0 0.33786859E+04</rscale>
<asrwt>0</asrwt>
<pdfrwt beam="1">  1        2 0.19359307E+00 0.33786859E+04</pdfrwt>
<pdfrwt beam="2">  1       -2 0.34891460E+00 0.33786859E+04</pdfrwt>
<totfact> 0.22928351E-01</totfact>
</mgrwt>
</event>
<event>
12    1  0.2433511E-007  0.3114860E+04  0.7818608E-02  0.8211672E-01
          2   -1    0    0  501    0  0.00000000000E+00  0.00000000000E+00  0.21260930302E+04  0.21260930302E+04  0.00000000000E+00 0. -1.
         -2   -1    0    0    0  501 -0.00000000000E+00 -0.00000000000E+00 -0.11408663369E+04  0.11408663369E+04  0.00000000000E+00 0.  1.
         23    2    1    2    0    0  0.12483888961E+04  0.67731398848E+03  0.31792173815E+03  0.14583267339E+04  0.91725439405E+02 0.  0.
        254    2    1    2    0    0 -0.12483888961E+04 -0.67731398848E+03  0.66730495520E+03  0.18086326333E+04  0.89923691204E+03 0.  0.
        -24    2    4    4    0    0 -0.39370112823E+03  0.20386804527E+03  0.18987313176E+03  0.48911038011E+03  0.81328958660E+02 0.  0.
         24    2    4    4    0    0 -0.85468776786E+03 -0.88118203375E+03  0.47743182343E+03  0.13195222531E+04  0.78897866766E+02 0.  0.
         11    1    3    3    0    0  0.76095526221E+03  0.42580054118E+03  0.15076745994E+03  0.88492363452E+03  0.00000000000E+00 0.  1.
        -11    1    3    3    0    0  0.48743363389E+03  0.25151344730E+03  0.16715427822E+03  0.57340309935E+03  0.00000000000E+00 0. -1.
          4    1    6    6  502    0 -0.38409356393E+03 -0.45068465775E+03  0.21889405740E+03  0.63131540054E+03  0.00000000000E+00 0. -1.
          1    1    5    5  503    0 -0.18384573781E+03  0.57987666122E+02  0.56826096433E+02  0.20097519739E+03  0.00000000000E+00 0. -1.
         -2    1    5    5    0  503 -0.20985539043E+03  0.14588037915E+03  0.13304703533E+03  0.28813518272E+03  0.00000000000E+00 0.  1.
         -3    1    6    6    0  502 -0.47059420393E+03 -0.43049737600E+03  0.25853776603E+03  0.68820685261E+03  0.00000000000E+00 0.  1.
<mgrwt>
<rscale>  0 0.31148598E+04</rscale>
<asrwt>0</asrwt>
<pdfrwt beam="1">  1        2 0.32709123E+00 0.31148598E+04</pdfrwt>
<pdfrwt beam="2">  1       -2 0.17551790E+00 0.31148598E+04</pdfrwt>
<totfact> 0.93874844E-01</totfact>
</mgrwt>
</event>
<event>
12    1  0.2433511E-007  0.1959034E+04  0.7818608E-02  0.8626017E-01
         -2   -1    0    0    0  501 -0.00000000000E+00  0.00000000000E+00  0.48068828666E+03  0.48068828666E+03  0.00000000000E+00 0. -1.
          2   -1    0    0  501    0  0.00000000000E+00 -0.00000000000E+00 -0.19959998444E+04  0.19959998444E+04  0.00000000000E+00 0.  1.
         23    2    1    2    0    0  0.35498196938E+03  0.60542100615E+03 -0.19871395690E+03  0.73522446036E+03  0.92309139149E+02 0.  0.
        254    2    1    2    0    0 -0.35498196938E+03 -0.60542100615E+03 -0.13165976008E+04  0.17414636707E+04  0.89817575147E+03 0.  0.
        -24    2    4    4    0    0 -0.34696670505E+02  0.22697650449E+03 -0.29863981905E+03  0.38567363113E+03  0.82681410799E+02 0.  0.
         24    2    4    4    0    0 -0.32028529888E+03 -0.83239751064E+03 -0.10179577818E+04  0.13557900395E+04  0.80375975638E+02 0.  0.
         11    1    3    3    0    0  0.97620349977E+02  0.13440968838E+03 -0.10526099776E+02  0.16645268348E+03  0.00000000000E+00 0. -1.
        -11    1    3    3    0    0  0.25736161940E+03  0.47101131777E+03 -0.18818785712E+03  0.56877177688E+03  0.00000000000E+00 0.  1.
          2    1    6    6  502    0 -0.29465305024E+03 -0.79673801949E+03 -0.98607781227E+03  0.13015227019E+04  0.00000000000E+00 0. -1.
          3    1    5    5  503    0 -0.14828751089E+02  0.14580918182E+03 -0.24768872511E+03  0.28780186572E+03  0.00000000000E+00 0. -1.
         -4    1    5    5    0  503 -0.19867919416E+02  0.81167322676E+02 -0.50951093938E+02  0.97871765417E+02  0.00000000000E+00 0.  1.
         -1    1    6    6    0  502 -0.25632248633E+02 -0.35659491150E+02 -0.31879969498E+02  0.54267337637E+02  0.00000000000E+00 0.  1.
<mgrwt>
<rscale>  0 0.19590342E+04</rscale>
<asrwt>0</asrwt>
<pdfrwt beam="1">  1        2 0.30707690E+00 0.19590342E+04</pdfrwt>
<pdfrwt beam="2">  1       -2 0.73952044E-01 0.19590342E+04</pdfrwt>
<totfact> 0.10311538E+01</totfact>
</mgrwt>
</event>
<event>
12    1  0.2433511E-007  0.1371061E+04  0.7818608E-02  0.8975036E-01
         -3   -1    0    0    0  501 -0.00000000000E+00  0.00000000000E+00  0.21479020415E+04  0.21479020415E+04  0.00000000000E+00 0.  1.
          3   -1    0    0  501    0  0.00000000000E+00 -0.00000000000E+00 -0.21879601037E+03  0.21879601037E+03  0.00000000000E+00 0. -1.
         23    2    1    2    0    0  0.19171540872E+03 -0.13825880274E+03  0.10433721308E+04  0.10736703922E+04  0.90952808150E+02 0.  0.
        254    2    1    2    0    0 -0.19171540872E+03  0.13825880274E+03  0.88573390034E+03  0.12930276597E+04  0.91188030572E+03 0.  0.
        -24    2    4    4    0    0 -0.45837213810E+03  0.22002997319E+03  0.85936359172E+03  0.10017041851E+04  0.79920495773E+02 0.  0.
         24    2    4    4    0    0  0.26665672938E+03 -0.81771170448E+02  0.26370308620E+02  0.29132347453E+03  0.79885155035E+02 0.  0.
         11    1    3    3    0    0  0.16884709210E+03 -0.81031644667E+02  0.69003276374E+03  0.71499698110E+03  0.00000000000E+00 0.  1.
        -11    1    3    3    0    0  0.22868316629E+02 -0.57227158075E+02  0.35333936705E+03  0.35867341111E+03  0.00000000000E+00 0. -1.
          4    1    6    6  502    0  0.43025441771E+02 -0.35915519800E+02 -0.17801864545E+02  0.58804928223E+02  0.00000000000E+00 0. -1.
          3    1    5    5  503    0 -0.56099880806E+01 -0.63503806569E+01  0.13259380008E+02  0.15735642947E+02  0.00000000000E+00 0. -1.
         -4    1    5    5    0  503 -0.45276215002E+03  0.22638035385E+03  0.84610421171E+03  0.98596854218E+03  0.00000000000E+00 0.  1.
         -3    1    6    6    0  502  0.22363128761E+03 -0.45855650648E+02  0.44172173165E+02  0.23251854630E+03  0.00000000000E+00 0.  1.
<mgrwt>
<rscale>  0 0.13710615E+04</rscale>
<asrwt>0</asrwt>
<pdfrwt beam="1">  1        3 0.33660926E-01 0.13710615E+04</pdfrwt>
<pdfrwt beam="2">  1       -3 0.33044645E+00 0.13710615E+04</pdfrwt>
<totfact> 0.57671454E-01</totfact>
</mgrwt>
</event>
<event>
12    1  0.2433511E-007  0.3293300E+04  0.7818608E-02  0.8164602E-01
          2   -1    0    0  501    0  0.00000000000E+00  0.00000000000E+00  0.15044552648E+04  0.15044552648E+04  0.00000000000E+00 0.  1.
         -2   -1    0    0    0  501 -0.00000000000E+00 -0.00000000000E+00 -0.18022845559E+04  0.18022845559E+04  0.00000000000E+00 0. -1.
         23    2    1    2    0    0  0.12424480769E+03 -0.12090452066E+04  0.78364067626E+03  0.14489559284E+04  0.90296672143E+02 0.  0.
        254    2    1    2    0    0 -0.12424480769E+03  0.12090452066E+04 -0.10814699673E+04  0.18577838923E+04  0.89697080017E+03 0.  0.
        -24    2    4    4    0    0 -0.39204027546E+03  0.11576147067E+04 -0.84472857706E+03  0.14878603714E+04  0.79967050596E+02 0.  0.
         24    2    4    4    0    0  0.26779546778E+03  0.51430499936E+02 -0.23674139022E+03  0.36992352086E+03  0.80233512674E+02 0.  0.
         11    1    3    3    0    0  0.83269296256E+02 -0.46264093752E+03  0.33346305313E+03  0.57634019517E+03  0.00000000000E+00 0. -1.
        -11    1    3    3    0    0  0.40975511430E+02 -0.74640426913E+03  0.45017762314E+03  0.87261573323E+03  0.00000000000E+00 0.  1.
          2    1    6    6  502    0  0.20264127147E+03  0.48328285579E+02 -0.13229197375E+03  0.24677980956E+03  0.00000000000E+00 0. -1.
          1    1    5    5  503    0 -0.32399610445E+03  0.10225170899E+04 -0.75888767134E+03  0.13139349955E+04  0.00000000000E+00 0. -1.
         -2    1    5    5    0  503 -0.68044171012E+02  0.13509761685E+03 -0.85840905724E+02  0.17392537591E+03  0.00000000000E+00 0.  1.
         -1    1    6    6    0  502  0.65154196307E+02  0.31022143561E+01 -0.10444941647E+03  0.12314371130E+03  0.00000000000E+00 0.  1.
<mgrwt>
<rscale>  0 0.32933002E+04</rscale>
<asrwt>0</asrwt>
<pdfrwt beam="1">  1        2 0.23145466E+00 0.32933002E+04</pdfrwt>
<pdfrwt beam="2">  1       -2 0.27727455E+00 0.32933002E+04</pdfrwt>
<totfact> 0.46145533E-01</totfact>
</mgrwt>
</event>
<event>
12    1  0.2433511E-007  0.3738613E+04  0.7818608E-02  0.8059458E-01
          1   -1    0    0  501    0  0.00000000000E+00  0.00000000000E+00  0.37236665359E+04  0.37236665359E+04  0.00000000000E+00 0. -1.
         -1   -1    0    0    0  501 -0.00000000000E+00 -0.00000000000E+00 -0.93840483121E+03  0.93840483121E+03  0.00000000000E+00 0.  1.
         23    2    1    2    0    0  0.94186841408E+03 -0.14004192744E+04  0.19464869418E+04  0.25778406559E+04  0.90337030501E+02 0.  0.
        254    2    1    2    0    0 -0.94186841408E+03  0.14004192744E+04  0.83877476297E+03  0.20842307113E+04  0.89004735901E+03 0.  0.
        -24    2    4    4    0    0 -0.26031067926E+03  0.10026331342E+04  0.75963174022E+03  0.12871676397E+04  0.82007929387E+02 0.  0.
         24    2    4    4    0    0 -0.68155773482E+03  0.39778614022E+03  0.79143022750E+02  0.79706307156E+03  0.79316850389E+02 0.  0.
         11    1    3    3    0    0  0.28047902035E+03 -0.48062756387E+03  0.67699168216E+03  0.87634985806E+03  0.00000000000E+00 0. -1.
        -11    1    3    3    0    0  0.66138939373E+03 -0.91979171053E+03  0.12694952596E+04  0.17014907978E+04  0.00000000000E+00 0.  1.
          4    1    6    6  502    0 -0.25407520626E+03  0.12577872718E+03  0.61350165679E+02  0.29006609846E+03  0.00000000000E+00 0. -1.
          3    1    5    5  503    0 -0.11183541833E+03  0.58288491116E+03  0.41713129746E+03  0.72543814331E+03  0.00000000000E+00 0. -1.
         -4    1    5    5    0  503 -0.14847526093E+03  0.41974822302E+03  0.34250044275E+03  0.56172949640E+03  0.00000000000E+00 0.  1.
         -1    1    6    6    0  502 -0.42748252856E+03  0.27200741304E+03  0.17792857071E+02  0.50699697310E+03  0.00000000000E+00 0.  1.
<mgrwt>
<rscale>  0 0.37386129E+04</rscale>
<asrwt>0</asrwt>
<pdfrwt beam="1">  1        1 0.57287177E+00 0.37386129E+04</pdfrwt>
<pdfrwt beam="2">  1       -1 0.14436998E+00 0.37386129E+04</pdfrwt>
<totfact> 0.50885138E-02</totfact>
</mgrwt>
</event>
<event>
12    1  0.2433511E-007  0.4869858E+04  0.7818608E-02  0.7848902E-01
          2   -1    0    0  501    0  0.00000000000E+00  0.00000000000E+00  0.25093094912E+04  0.25093094912E+04  0.00000000000E+00 0.  1.
         -2   -1    0    0    0  501 -0.00000000000E+00 -0.00000000000E+00 -0.23627533208E+04  0.23627533208E+04  0.00000000000E+00 0. -1.
         23    2    1    2    0    0 -0.17687108515E+04 -0.14950833297E+04 -0.33301887089E+03  0.23416009503E+04  0.92634783287E+02 0.  0.
        254    2    1    2    0    0  0.17687108515E+04  0.14950833297E+04  0.47957504122E+03  0.25304618617E+04  0.89979596246E+03 0.  0.
        -24    2    4    4    0    0  0.77061299097E+03  0.17627211897E+03 -0.38133719591E+02  0.79540543550E+03  0.79368661796E+02 0.  0.
         24    2    4    4    0    0  0.99809786056E+03  0.13188112108E+04  0.51770876081E+03  0.17350564262E+04  0.83283204130E+02 0.  0.
         11    1    3    3    0    0 -0.32659056279E+03 -0.32430462299E+03 -0.63424720928E+02  0.46460475613E+03  0.00000000000E+00 0.  1.
        -11    1    3    3    0    0 -0.14421202887E+04 -0.11707787068E+04 -0.26959414996E+03  0.18769961942E+04  0.00000000000E+00 0. -1.
          2    1    6    6  502    0  0.38243612281E+02  0.74156892336E+02  0.38173455969E+02  0.91755279422E+02  0.00000000000E+00 0. -1.
          3    1    5    5  503    0  0.18663286486E+03  0.99998577882E+01  0.17306336795E+01  0.18690858326E+03  0.00000000000E+00 0. -1.
         -2    1    5    5    0  503  0.58398012611E+03  0.16627226118E+03 -0.39864353270E+02  0.60849685224E+03  0.00000000000E+00 0.  1.
         -1    1    6    6    0  502  0.95985424828E+03  0.12446543184E+04  0.47953530484E+03  0.16433011468E+04  0.00000000000E+00 0.  1.
<mgrwt>
<rscale>  0 0.48698580E+04</rscale>
<asrwt>0</asrwt>
<pdfrwt beam="1">  1        2 0.38604761E+00 0.48698580E+04</pdfrwt>
<pdfrwt beam="2">  1       -2 0.36350051E+00 0.48698580E+04</pdfrwt>
<totfact> 0.32311769E-02</totfact>
</mgrwt>
</event>
<event>
12    1  0.2433511E-007  0.1607539E+04  0.7818608E-02  0.8815930E-01
          2   -1    0    0  501    0  0.00000000000E+00  0.00000000000E+00  0.16919962700E+04  0.16919962700E+04  0.00000000000E+00 0. -1.
         -2   -1    0    0    0  501 -0.00000000000E+00 -0.00000000000E+00 -0.38182457743E+03  0.38182457743E+03  0.00000000000E+00 0.  1.
         23    2    1    2    0    0  0.37388035968E+03  0.37630500571E+03  0.62406776799E+03  0.82425575945E+03  0.92439154369E+02 0.  0.
        254    2    1    2    0    0 -0.37388035968E+03 -0.37630500571E+03  0.68610392453E+03  0.12495650879E+04  0.89960120780E+03 0.  0.
        -24    2    4    4    0    0  0.10938102533E+03 -0.28095386721E+03  0.68213430938E+03  0.75076818541E+03  0.86292340245E+02 0.  0.
         24    2    4    4    0    0 -0.48326138501E+03 -0.95351138499E+02  0.39696151575E+01  0.49879690254E+03  0.78416747489E+02 0.  0.
         11    1    3    3    0    0  0.16799288651E+03  0.11797342775E+03  0.28105067594E+03  0.34803566199E+03  0.00000000000E+00 0.  1.
        -11    1    3    3    0    0  0.20588747317E+03  0.25833157796E+03  0.34301709206E+03  0.47622009746E+03  0.00000000000E+00 0. -1.
          2    1    6    6  502    0 -0.78134991241E+01 -0.13758935068E+02 -0.40471809928E+01  0.16332138156E+02  0.00000000000E+00 0. -1.
          1    1    5    5  503    0  0.10118865426E+03 -0.15960014834E+03  0.36304716854E+03  0.40928547212E+03  0.00000000000E+00 0. -1.
         -2    1    5    5    0  503  0.81923710698E+01 -0.12135371887E+03  0.31908714084E+03  0.34148271329E+03  0.00000000000E+00 0.  1.
         -1    1    6    6    0  502 -0.47544788588E+03 -0.81592203431E+02  0.80167961503E+01  0.48246476438E+03  0.00000000000E+00 0.  1.
<mgrwt>
<rscale>  0 0.16075394E+04</rscale>
<asrwt>0</asrwt>
<pdfrwt beam="1">  1        2 0.26030711E+00 0.16075394E+04</pdfrwt>
<pdfrwt beam="2">  1       -2 0.58742244E-01 0.16075394E+04</pdfrwt>
<totfact> 0.25715953E+01</totfact>
</mgrwt>
</event>
<event>
12    1  0.2433511E-007  0.1907157E+04  0.7818608E-02  0.8651302E-01
         -2   -1    0    0    0  501 -0.00000000000E+00  0.00000000000E+00  0.36304446130E+03  0.36304446130E+03  0.00000000000E+00 0.  1.
          2   -1    0    0  501    0  0.00000000000E+00 -0.00000000000E+00 -0.25046856495E+04  0.25046856495E+04  0.00000000000E+00 0. -1.
         23    2    1    2    0    0 -0.21704197442E+02  0.65115236080E+03 -0.31410217341E+03  0.72920722032E+03  0.92803694247E+02 0.  0.
        254    2    1    2    0    0  0.21704197442E+02 -0.65115236080E+03 -0.18275390148E+04  0.21385228905E+04  0.89939470390E+03 0.  0.
        -24    2    4    4    0    0 -0.39236446094E+03 -0.54124553331E+03 -0.10513047581E+04  0.12484212071E+04  0.80107542104E+02 0.  0.
         24    2    4    4    0    0  0.41406865838E+03 -0.10990682748E+03 -0.77623425666E+03  0.89010168340E+03  0.78797341297E+02 0.  0.
         13    1    3    3    0    0 -0.15148625266E+02  0.32931483193E+03 -0.21008903170E+03  0.39091577176E+03  0.00000000000E+00 0. -1.
        -13    1    3    3    0    0 -0.65555721760E+01  0.32183752887E+03 -0.10401314171E+03  0.33829144855E+03  0.00000000000E+00 0.  1.
          4    1    6    6  502    0  0.20592818745E+03 -0.16924473930E+02 -0.33896080566E+03  0.39697264891E+03  0.00000000000E+00 0. -1.
          1    1    5    5  503    0 -0.30943629916E+03 -0.46663538911E+03 -0.90900460946E+03  0.10676089123E+04  0.00000000000E+00 0. -1.
         -2    1    5    5    0  503 -0.82928161779E+02 -0.74610144205E+02 -0.14230014866E+03  0.18081229477E+03  0.00000000000E+00 0.  1.
         -1    1    6    6    0  502  0.20814047093E+03 -0.92982353552E+02 -0.43727345100E+03  0.49312903449E+03  0.00000000000E+00 0.  1.
<mgrwt>
<rscale>  0 0.19071573E+04</rscale>
<asrwt>0</asrwt>
<pdfrwt beam="1">  1        2 0.38533626E+00 0.19071573E+04</pdfrwt>
<pdfrwt beam="2">  1       -2 0.55852993E-01 0.19071573E+04</pdfrwt>
<totfact> 0.97572860E+00</totfact>
</mgrwt>
</event>
<event>
12    1  0.2433511E-007  0.1599648E+04  0.7818608E-02  0.8820764E-01
          2   -1    0    0  501    0  0.00000000000E+00  0.00000000000E+00  0.95541389717E+03  0.95541389717E+03  0.00000000000E+00 0. -1.
         -2   -1    0    0    0  501 -0.00000000000E+00 -0.00000000000E+00 -0.66957227999E+03  0.66957227999E+03  0.00000000000E+00 0.  1.
         23    2    1    2    0    0 -0.46407724068E+03 -0.17603525741E+03 -0.12352365261E+03  0.51962017495E+03  0.91602053948E+02 0.  0.
        254    2    1    2    0    0  0.46407724068E+03  0.17603525741E+03  0.40936526979E+03  0.11053660022E+04  0.89883145114E+03 0.  0.
        -24    2    4    4    0    0  0.53183751748E+03 -0.23704508886E+03  0.32222607147E+03  0.67040932795E+03  0.81101829363E+02 0.  0.
         24    2    4    4    0    0 -0.67760276795E+02  0.41308034627E+03  0.87139198320E+02  0.43495667426E+03  0.79794993655E+02 0.  0.
         11    1    3    3    0    0 -0.26148629097E+03 -0.52403267867E+02 -0.51653613161E+02  0.27164182042E+03  0.00000000000E+00 0. -1.
        -11    1    3    3    0    0 -0.20259094971E+03 -0.12363198954E+03 -0.71870039447E+02  0.24797835453E+03  0.00000000000E+00 0.  1.
          4    1    6    6  502    0 -0.22751365238E+02  0.31174098845E+03  0.42594424277E+02  0.31545895688E+03  0.00000000000E+00 0. -1.
          3    1    5    5  503    0  0.19889514114E+03 -0.12775947754E+03  0.14985186130E+03  0.27988808765E+03  0.00000000000E+00 0. -1.
         -4    1    5    5    0  503  0.33294237633E+03 -0.10928561132E+03  0.17237421017E+03  0.39052124031E+03  0.00000000000E+00 0.  1.
         -3    1    6    6    0  502 -0.45008911557E+02  0.10133935782E+03  0.44544774043E+02  0.11949771738E+03  0.00000000000E+00 0.  1.
<mgrwt>
<rscale>  0 0.15996483E+04</rscale>
<asrwt>0</asrwt>
<pdfrwt beam="1">  1        2 0.14698675E+00 0.15996483E+04</pdfrwt>
<pdfrwt beam="2">  1       -2 0.10301112E+00 0.15996483E+04</pdfrwt>
<totfact> 0.19876162E+01</totfact>
</mgrwt>
</event>
<event>
12    1  0.2433511E-007  0.2421430E+04  0.7818608E-02  0.8431524E-01
          2   -1    0    0  501    0  0.00000000000E+00  0.00000000000E+00  0.13468506296E+04  0.13468506296E+04  0.00000000000E+00 0. -1.
         -2   -1    0    0    0  501 -0.00000000000E+00 -0.00000000000E+00 -0.10883398966E+04  0.10883398966E+04  0.00000000000E+00 0.  1.
         23    2    1    2    0    0 -0.89661928785E+03 -0.52719239011E+03  0.15024862413E+03  0.10545514075E+04  0.87441742767E+02 0.  0.
        254    2    1    2    0    0  0.89661928785E+03  0.52719239011E+03  0.10826210886E+03  0.13806391187E+04  0.90143537109E+03 0.  0.
        -24    2    4    4    0    0  0.70697233081E+03  0.42885204304E+03  0.46887672747E+03  0.95391396577E+03  0.79890657564E+02 0.  0.
         24    2    4    4    0    0  0.18964695703E+03  0.98340347077E+02 -0.36061461862E+03  0.42672515290E+03  0.80091577475E+02 0.  0.
         11    1    3    3    0    0 -0.35085787152E+03 -0.25541760811E+03  0.70561531709E+02  0.43967980429E+03  0.00000000000E+00 0. -1.
        -11    1    3    3    0    0 -0.54576141632E+03 -0.27177478200E+03  0.79687092423E+02  0.61487160316E+03  0.00000000000E+00 0.  1.
          2    1    6    6  502    0  0.11411893777E+03  0.50696711725E+02 -0.27932768978E+03  0.30596935601E+03  0.00000000000E+00 0. -1.
          3    1    5    5  503    0  0.66822890279E+03  0.42160251648E+03  0.45695010076E+03  0.91273322664E+03  0.00000000000E+00 0. -1.
         -2    1    5    5    0  503  0.38743428026E+02  0.72495265595E+01  0.11926626709E+02  0.41180739129E+02  0.00000000000E+00 0.  1.
         -1    1    6    6    0  502  0.75528019265E+02  0.47643635352E+02 -0.81286928834E+02  0.12075579689E+03  0.00000000000E+00 0.  1.
<mgrwt>
<rscale>  0 0.24214304E+04</rscale>
<asrwt>0</asrwt>
<pdfrwt beam="1">  1        2 0.20720779E+00 0.24214304E+04</pdfrwt>
<pdfrwt beam="2">  1       -2 0.16743691E+00 0.24214304E+04</pdfrwt>
<totfact> 0.30990541E+00</totfact>
</mgrwt>
</event>
<event>
12    1  0.2433511E-007  0.1638274E+04  0.7818608E-02  0.8797374E-01
         -1   -1    0    0    0  501 -0.00000000000E+00  0.00000000000E+00  0.43939565951E+03  0.43939565951E+03  0.00000000000E+00 0.  1.
          1   -1    0    0  501    0  0.00000000000E+00 -0.00000000000E+00 -0.15270643114E+04  0.15270643114E+04  0.00000000000E+00 0. -1.
         23    2    1    2    0    0  0.11241691000E+03  0.55485500093E+03 -0.35048966567E+03  0.67218348344E+03  0.92119465683E+02 0.  0.
        254    2    1    2    0    0 -0.11241691000E+03 -0.55485500093E+03 -0.73717898619E+03  0.12942764874E+04  0.90067593203E+03 0.  0.
        -24    2    4    4    0    0 -0.15852277748E+03 -0.78578919665E+03 -0.48741051891E+03  0.94160172116E+03  0.80315968536E+02 0.  0.
         24    2    4    4    0    0  0.46105867480E+02  0.23093419572E+03 -0.24976846728E+03  0.35267476628E+03  0.80863154469E+02 0.  0.
         13    1    3    3    0    0  0.90901759850E+02  0.26063000082E+03 -0.20102572532E+03  0.34147103759E+03  0.00000000000E+00 0.  1.
        -13    1    3    3    0    0  0.21515150146E+02  0.29422500011E+03 -0.14946394034E+03  0.33071244585E+03  0.00000000000E+00 0. -1.
          4    1    6    6  502    0  0.18657734818E+02  0.21759061638E+03 -0.22200914100E+03  0.31141908434E+03  0.00000000000E+00 0. -1.
          3    1    5    5  503    0 -0.25372608591E+02 -0.20439442253E+03 -0.89256922851E+02  0.22447193033E+03  0.00000000000E+00 0. -1.
         -4    1    5    5    0  503 -0.13315016888E+03 -0.58139477411E+03 -0.39815359606E+03  0.71712979083E+03  0.00000000000E+00 0.  1.
         -3    1    6    6    0  502  0.27448132662E+02  0.13343579340E+02 -0.27759326288E+02  0.41255681938E+02  0.00000000000E+00 0.  1.
<mgrwt>
<rscale>  0 0.16382740E+04</rscale>
<asrwt>0</asrwt>
<pdfrwt beam="1">  1        1 0.23493297E+00 0.16382740E+04</pdfrwt>
<pdfrwt beam="2">  1       -1 0.67599332E-01 0.16382740E+04</pdfrwt>
<totfact> 0.13280002E+01</totfact>
</mgrwt>
</event>
<event>
12    1  0.2433511E-007  0.1538706E+04  0.7818608E-02  0.8859114E-01
         -2   -1    0    0    0  501 -0.00000000000E+00  0.00000000000E+00  0.70130844238E+03  0.70130844238E+03  0.00000000000E+00 0. -1.
          2   -1    0    0  501    0  0.00000000000E+00 -0.00000000000E+00 -0.84399998980E+03  0.84399998980E+03  0.00000000000E+00 0.  1.
         23    2    1    2    0    0 -0.46333680747E+03  0.91895426956E+02 -0.22020374837E+03  0.52931033541E+03  0.92487695003E+02 0.  0.
        254    2    1    2    0    0  0.46333680747E+03 -0.91895426956E+02  0.77512200951E+02  0.10159980968E+04  0.89616863630E+03 0.  0.
        -24    2    4    4    0    0  0.25387207447E+03  0.35071447332E+03 -0.15695204664E+03  0.46712125525E+03  0.78209015923E+02 0.  0.
         24    2    4    4    0    0  0.20946473300E+03 -0.44260990028E+03  0.23446424759E+03  0.54887684151E+03  0.80705052874E+02 0.  0.
         13    1    3    3    0    0 -0.18130065623E+03  0.81495282792E+02 -0.81395832157E+02  0.21479453103E+03  0.00000000000E+00 0. -1.
        -13    1    3    3    0    0 -0.28203615124E+03  0.10400144164E+02 -0.13880791621E+03  0.31451580438E+03  0.00000000000E+00 0.  1.
          2    1    6    6  502    0  0.28813992953E+01 -0.32708428643E+01  0.15854998007E+02  0.16443291543E+02  0.00000000000E+00 0. -1.
          1    1    5    5  503    0  0.98019889469E+01  0.23753148540E+02  0.81691417001E+01  0.26963418348E+02  0.00000000000E+00 0. -1.
         -2    1    5    5    0  503  0.24407008553E+03  0.32696132478E+03 -0.16512118834E+03  0.44015783691E+03  0.00000000000E+00 0.  1.
         -1    1    6    6    0  502  0.20658333370E+03 -0.43933905741E+03  0.21860924958E+03  0.53243354997E+03  0.00000000000E+00 0.  1.
<mgrwt>
<rscale>  0 0.15387064E+04</rscale>
<asrwt>0</asrwt>
<pdfrwt beam="1">  1        2 0.12984615E+00 0.15387064E+04</pdfrwt>
<pdfrwt beam="2">  1       -2 0.10789361E+00 0.15387064E+04</pdfrwt>
<totfact> 0.21259132E+01</totfact>
</mgrwt>
</event>
<event>
12    1  0.2433511E-007  0.2976443E+04  0.7818608E-02  0.8250490E-01
         -2   -1    0    0    0  501 -0.00000000000E+00  0.00000000000E+00  0.15782118766E+04  0.15782118766E+04  0.00000000000E+00 0.  1.
          2   -1    0    0  501    0  0.00000000000E+00 -0.00000000000E+00 -0.14033625169E+04  0.14033625169E+04  0.00000000000E+00 0. -1.
         23    2    1    2    0    0 -0.99562576942E+03 -0.75918809889E+03  0.58753292924E+03  0.13863483225E+04  0.95548344668E+02 0.  0.
        254    2    1    2    0    0  0.99562576942E+03  0.75918809889E+03 -0.41268356947E+03  0.15952260710E+04  0.89822115698E+03 0.  0.
        -24    2    4    4    0    0  0.25220058053E+03  0.35461203682E+03  0.25827184160E+03  0.51220396817E+03  0.79333040821E+02 0.  0.
         24    2    4    4    0    0  0.74342518888E+03  0.40457606207E+03 -0.67095541106E+03  0.10830221028E+04  0.79955675889E+02 0.  0.
         11    1    3    3    0    0 -0.10247917845E+03 -0.75179557005E+02  0.92897390501E+02  0.15742894578E+03  0.00000000000E+00 0.  1.
        -11    1    3    3    0    0 -0.89314659096E+03 -0.68400854188E+03  0.49463553874E+03  0.12289193767E+04  0.00000000000E+00 0. -1.
          2    1    6    6  502    0  0.25407690188E+03  0.12574691267E+03 -0.17954106627E+03  0.33556274017E+03  0.00000000000E+00 0. -1.
          3    1    5    5  503    0  0.13552226308E+03  0.23531862177E+03  0.12645497006E+03  0.29955299531E+03  0.00000000000E+00 0. -1.
         -4    1    5    5    0  503  0.11667831745E+03  0.11929341505E+03  0.13181687154E+03  0.21265097286E+03  0.00000000000E+00 0.  1.
         -1    1    6    6    0  502  0.48934828700E+03  0.27882914940E+03 -0.49141434479E+03  0.74745936265E+03  0.00000000000E+00 0.  1.
<mgrwt>
<rscale>  0 0.29764431E+04</rscale>
<asrwt>0</asrwt>
<pdfrwt beam="1">  1        2 0.21590192E+00 0.29764431E+04</pdfrwt>
<pdfrwt beam="2">  1       -2 0.24280183E+00 0.29764431E+04</pdfrwt>
<totfact> 0.87949110E-01</totfact>
</mgrwt>
</event>
<event>
12    1  0.2433511E-007  0.1686435E+04  0.7818608E-02  0.8769139E-01
         -1   -1    0    0    0  501 -0.00000000000E+00  0.00000000000E+00  0.48736902704E+03  0.48736902704E+03  0.00000000000E+00 0.  1.
          1   -1    0    0  501    0  0.00000000000E+00 -0.00000000000E+00 -0.14588856072E+04  0.14588856072E+04  0.00000000000E+00 0. -1.
         23    2    1    2    0    0  0.43548825352E+03  0.25672937099E+02  0.12323697964E+03  0.46322415501E+03  0.95289799991E+02 0.  0.
        254    2    1    2    0    0 -0.43548825352E+03 -0.25672937099E+02 -0.10947535598E+04  0.14830304792E+04  0.90032490079E+03 0.  0.
        -24    2    4    4    0    0  0.27069688399E+03  0.84170883722E+01 -0.24062983563E+03  0.37118466335E+03  0.80794097131E+02 0.  0.
         24    2    4    4    0    0 -0.70618513750E+03 -0.34090025471E+02 -0.85412372419E+03  0.11118458159E+04  0.82548191054E+02 0.  0.
         11    1    3    3    0    0  0.28775267065E+02 -0.23101235131E+02  0.10580172082E+02  0.38387798850E+02  0.00000000000E+00 0. -1.
        -11    1    3    3    0    0  0.40671298645E+03  0.48774172230E+02  0.11265680755E+03  0.42483635616E+03  0.00000000000E+00 0.  1.
          4    1    6    6  502    0 -0.39463237803E+03  0.62624410497E+01 -0.42474271189E+03  0.57981057533E+03  0.00000000000E+00 0. -1.
          1    1    5    5  503    0  0.20602934063E+03 -0.70658594836E+01 -0.22016068588E+03  0.30161025045E+03  0.00000000000E+00 0. -1.
         -2    1    5    5    0  503  0.64667543356E+02  0.15482947856E+02 -0.20469149752E+02  0.69574412894E+02  0.00000000000E+00 0.  1.
         -3    1    6    6    0  502 -0.31155275947E+03 -0.40352466521E+02 -0.42938101229E+03  0.53203524057E+03  0.00000000000E+00 0.  1.
<mgrwt>
<rscale>  0 0.16864349E+04</rscale>
<asrwt>0</asrwt>
<pdfrwt beam="1">  1        1 0.22444394E+00 0.16864349E+04</pdfrwt>
<pdfrwt beam="2">  1       -1 0.74979852E-01 0.16864349E+04</pdfrwt>
<totfact> 0.11907416E+01</totfact>
</mgrwt>
</event>
<event>
12    1  0.2433511E-007  0.1249569E+04  0.7818608E-02  0.9070542E-01
         -1   -1    0    0    0  501 -0.00000000000E+00  0.00000000000E+00  0.53575120881E+03  0.53575120881E+03  0.00000000000E+00 0. -1.
          1   -1    0    0  501    0  0.00000000000E+00 -0.00000000000E+00 -0.72861371002E+03  0.72861371002E+03  0.00000000000E+00 0.  1.
         23    2    1    2    0    0  0.37395055903E+02  0.28194296575E+03  0.98170052058E+01  0.29878177462E+03  0.91016202449E+02 0.  0.
        254    2    1    2    0    0 -0.37395055903E+02 -0.28194296575E+03 -0.20267950641E+03  0.96558314421E+03  0.90021197499E+03 0.  0.
        -24    2    4    4    0    0 -0.18566725555E+03 -0.18667227666E+03  0.31146018218E+03  0.41617974204E+03  0.82941328328E+02 0.  0.
         24    2    4    4    0    0  0.14827219965E+03 -0.95270689094E+02 -0.51413968860E+03  0.54940340216E+03  0.80270352709E+02 0.  0.
         13    1    3    3    0    0  0.19678390820E+02  0.27861780003E+03  0.15881395636E+02  0.27976300021E+03  0.00000000000E+00 0.  1.
        -13    1    3    3    0    0  0.17716665082E+02  0.33251657249E+01 -0.60643904299E+01  0.19018774409E+02  0.00000000000E+00 0. -1.
          4    1    6    6  502    0  0.92080522163E+02 -0.84792460398E+02 -0.42874291918E+03  0.44664199831E+03  0.00000000000E+00 0. -1.
          3    1    5    5  503    0 -0.11725310961E+03 -0.95282786072E+02  0.23285009142E+03  0.27757209174E+03  0.00000000000E+00 0. -1.
         -4    1    5    5    0  503 -0.68414145941E+02 -0.91389490587E+02  0.78610090762E+02  0.13860765031E+03  0.00000000000E+00 0.  1.
         -3    1    6    6    0  502  0.56191677486E+02 -0.10478228696E+02 -0.85396769416E+02  0.10276140385E+03  0.00000000000E+00 0.  1.
<mgrwt>
<rscale>  0 0.12495690E+04</rscale>
<asrwt>0</asrwt>
<pdfrwt beam="1">  1        1 0.11209442E+00 0.12495690E+04</pdfrwt>
<pdfrwt beam="2">  1       -1 0.82423263E-01 0.12495690E+04</pdfrwt>
<totfact> 0.36988817E+01</totfact>
</mgrwt>
</event>
<event>
12    1  0.2807168E-007  0.2165069E+04  0.7818608E-02  0.8533109E-01
          2   -1    0    0  501    0  0.00000000000E+00  0.00000000000E+00  0.95145923396E+03  0.95145923396E+03  0.00000000000E+00 0. -1.
         -2   -1    0    0    0  501 -0.00000000000E+00 -0.00000000000E+00 -0.12316672903E+04  0.12316672903E+04  0.00000000000E+00 0.  1.
         23    2    1    2    0    0 -0.29269855205E+03  0.82982142216E+03  0.35419173723E+02  0.88529257083E+03  0.90622199602E+02 0.  0.
        254    2    1    2    0    0  0.29269855205E+03 -0.82982142216E+03 -0.31562723004E+03  0.12978339534E+04  0.90026462068E+03 0.  0.
        -24    2    4    4    0    0  0.22839990924E+03 -0.45585866182E+03  0.27990842279E+03  0.58708771703E+03  0.79684529541E+02 0.  0.
         24    2    4    4    0    0  0.64298642804E+02 -0.37396276034E+03 -0.59553565283E+03  0.71074623638E+03  0.80715780048E+02 0.  0.
         11    1    3    3    0    0 -0.15153088681E+03  0.43122598064E+03 -0.26919167841E+02  0.45786689947E+03  0.00000000000E+00 0.  1.
        -11    1    3    3    0    0 -0.14116766523E+03  0.39859544152E+03  0.62338341564E+02  0.42742567136E+03  0.00000000000E+00 0. -1.
          4    1    6    6  502    0  0.72804436826E+02 -0.37023954268E+03 -0.58857796481E+03  0.69914363735E+03  0.00000000000E+00 0. -1.
          3    1    5    5  503    0  0.18691229522E+03 -0.42165178896E+03  0.26182541469E+03  0.53035741252E+03  0.00000000000E+00 0. -1.
         -4    1    5    5    0  503  0.41487614028E+02 -0.34206872852E+02  0.18083008099E+02  0.56730304512E+02  0.00000000000E+00 0.  1.
         -3    1    6    6    0  502 -0.85057940225E+01 -0.37232176603E+01 -0.69576880216E+01  0.11602599032E+02  0.00000000000E+00 0.  1.
<mgrwt>
<rscale>  0 0.21650693E+04</rscale>
<asrwt>0</asrwt>
<pdfrwt beam="1">  1        2 0.14637834E+00 0.21650693E+04</pdfrwt>
<pdfrwt beam="2">  1       -2 0.18948727E+00 0.21650693E+04</pdfrwt>
<totfact> 0.38785669E+00</totfact>
</mgrwt>
</event>
<event>
12    1  0.2778875E-007  0.2379080E+04  0.7818608E-02  0.8447378E-01
         -2   -1    0    0    0  501 -0.00000000000E+00  0.00000000000E+00  0.51281168024E+03  0.51281168024E+03  0.00000000000E+00 0.  1.
          2   -1    0    0  501    0  0.00000000000E+00 -0.00000000000E+00 -0.27593070293E+04  0.27593070293E+04  0.00000000000E+00 0. -1.
         23    2    1    2    0    0 -0.12206452881E+03 -0.99753869974E+03 -0.11818764900E+04  0.15541026680E+04  0.91759786235E+02 0.  0.
        254    2    1    2    0    0  0.12206452881E+03  0.99753869974E+03 -0.10646188591E+04  0.17180160416E+04  0.89898976487E+03 0.  0.
        -24    2    4    4    0    0 -0.14743221067E+03 -0.51580387456E+02  0.27498080151E+02  0.17789236622E+03  0.80577642267E+02 0.  0.
         24    2    4    4    0    0  0.26949673948E+03  0.10491190872E+04 -0.10921169393E+04  0.15401236754E+04  0.77344519772E+02 0.  0.
         13    1    3    3    0    0 -0.72696889154E+02 -0.48794653183E+03 -0.64785668665E+03  0.81430641779E+03  0.00000000000E+00 0.  1.
        -13    1    3    3    0    0 -0.49367639660E+02 -0.50959216791E+03 -0.53401980334E+03  0.73979625020E+03  0.00000000000E+00 0. -1.
          2    1    6    6  502    0  0.21183507863E+03  0.80505715122E+03 -0.79203217527E+03  0.11490457275E+04  0.00000000000E+00 0. -1.
          1    1    5    5  503    0 -0.13238836054E+03 -0.68570585696E+02  0.10355049724E+02  0.14945176575E+03  0.00000000000E+00 0. -1.
         -2    1    5    5    0  503 -0.15043850125E+02  0.16990198240E+02  0.17143030427E+02  0.28440600469E+02  0.00000000000E+00 0.  1.
         -1    1    6    6    0  502  0.57661660857E+02  0.24406193598E+03 -0.30008476398E+03  0.39107794786E+03  0.00000000000E+00 0.  1.
<mgrwt>
<rscale>  0 0.23790795E+04</rscale>
<asrwt>0</asrwt>
<pdfrwt beam="1">  1        2 0.42450877E+00 0.23790795E+04</pdfrwt>
<pdfrwt beam="2">  1       -2 0.78894106E-01 0.23790795E+04</pdfrwt>
<totfact> 0.31440547E+00</totfact>
</mgrwt>
</event>
<event>
12    1  0.2433511E-007  0.1571461E+04  0.7818608E-02  0.8838275E-01
          2   -1    0    0  501    0  0.00000000000E+00  0.00000000000E+00  0.57934587205E+03  0.57934587205E+03  0.00000000000E+00 0.  1.
         -2   -1    0    0    0  501 -0.00000000000E+00 -0.00000000000E+00 -0.10656368706E+04  0.10656368706E+04  0.00000000000E+00 0. -1.
         23    2    1    2    0    0  0.93130946841E+02  0.46398284649E+03 -0.39724974080E+03  0.62452471754E+03  0.90941251163E+02 0.  0.
        254    2    1    2    0    0 -0.93130946841E+02 -0.46398284649E+03 -0.89041257756E+02  0.10204580251E+04  0.89969593771E+03 0.  0.
        -24    2    4    4    0    0 -0.13248616719E+03 -0.68449548603E+03  0.10978361266E+03  0.71051878197E+03  0.81840350875E+02 0.  0.
         24    2    4    4    0    0  0.39355220347E+02  0.22051263954E+03 -0.19882487042E+03  0.30993924314E+03  0.79726706774E+02 0.  0.
         13    1    3    3    0    0  0.10243671974E+03  0.39140416653E+03 -0.30441442448E+03  0.50631871876E+03  0.00000000000E+00 0.  1.
        -13    1    3    3    0    0 -0.93057729030E+01  0.72578679953E+02 -0.92835316315E+02  0.11820599878E+03  0.00000000000E+00 0. -1.
          2    1    6    6  502    0  0.62246760623E+02  0.12679111547E+03 -0.11536919184E+03  0.18237515345E+03  0.00000000000E+00 0. -1.
          1    1    5    5  503    0 -0.83731746995E+02 -0.26685353158E+03  0.18820984061E+02  0.28031418482E+03  0.00000000000E+00 0. -1.
         -2    1    5    5    0  503 -0.48754420194E+02 -0.41764195445E+03  0.90962628601E+02  0.43020459715E+03  0.00000000000E+00 0.  1.
         -1    1    6    6    0  502 -0.22891540276E+02  0.93721524076E+02 -0.83455678574E+02  0.12756408969E+03  0.00000000000E+00 0.  1.
<mgrwt>
<rscale>  0 0.15714609E+04</rscale>
<asrwt>0</asrwt>
<pdfrwt beam="1">  1        2 0.89130135E-01 0.15714609E+04</pdfrwt>
<pdfrwt beam="2">  1       -2 0.16394413E+00 0.15714609E+04</pdfrwt>
<totfact> 0.11706056E+01</totfact>
</mgrwt>
</event>
<event>
12    1  0.2433511E-007  0.1513754E+04  0.7818608E-02  0.8875358E-01
          3   -1    0    0  501    0  0.00000000000E+00  0.00000000000E+00  0.11231455110E+04  0.11231455110E+04  0.00000000000E+00 0. -1.
         -3   -1    0    0    0  501 -0.00000000000E+00 -0.00000000000E+00 -0.51005186565E+03  0.51005186565E+03  0.00000000000E+00 0.  1.
         23    2    1    2    0    0  0.13995298159E+03 -0.75689832695E+02  0.69101951795E+03  0.71564852005E+03  0.96586967164E+02 0.  0.
        254    2    1    2    0    0 -0.13995298159E+03  0.75689832695E+02 -0.77925872587E+02  0.91754885661E+03  0.90028199739E+03 0.  0.
        -24    2    4    4    0    0  0.28208338490E+03 -0.23322678670E+03  0.36858263541E+02  0.37613210077E+03  0.78428665428E+02 0.  0.
         24    2    4    4    0    0 -0.42203636650E+03  0.30891661940E+03 -0.11478413613E+03  0.54141675585E+03  0.80078294298E+02 0.  0.
         13    1    3    3    0    0  0.77499608477E+00  0.46092251584E+01  0.17784590399E+03  0.17790731054E+03  0.00000000000E+00 0.  1.
        -13    1    3    3    0    0  0.13917798551E+03 -0.80299057854E+02  0.51317361396E+03  0.53774120951E+03  0.00000000000E+00 0. -1.
          2    1    6    6  502    0 -0.38231632364E+03  0.28396229689E+03 -0.12712750071E+03  0.49291151216E+03  0.00000000000E+00 0. -1.
          3    1    5    5  503    0  0.27646563505E+03 -0.21568891569E+03  0.49025556369E+02  0.35405996793E+03  0.00000000000E+00 0. -1.
         -4    1    5    5    0  503  0.56177498567E+01 -0.17537871017E+02 -0.12167292828E+02  0.22072132838E+02  0.00000000000E+00 0.  1.
         -1    1    6    6    0  502 -0.39720042852E+02  0.24954322506E+02  0.12343364583E+02  0.48505243687E+02  0.00000000000E+00 0.  1.
<mgrwt>
<rscale>  0 0.15137536E+04</rscale>
<asrwt>0</asrwt>
<pdfrwt beam="1">  1        3 0.17279162E+00 0.15137536E+04</pdfrwt>
<pdfrwt beam="2">  1       -3 0.78469518E-01 0.15137536E+04</pdfrwt>
<totfact> 0.85289641E-01</totfact>
</mgrwt>
</event>
<event>
12    1  0.2433511E-007  0.2873509E+04  0.7818608E-02  0.8280803E-01
         -3   -1    0    0    0  501 -0.00000000000E+00  0.00000000000E+00  0.19396492683E+04  0.19396492683E+04  0.00000000000E+00 0.  1.
          3   -1    0    0  501    0  0.00000000000E+00 -0.00000000000E+00 -0.10642460274E+04  0.10642460274E+04  0.00000000000E+00 0. -1.
         23    2    1    2    0    0 -0.32207067514E+03  0.68201630216E+03 -0.69736255073E+03  0.10305935711E+04  0.83263590225E+02 0.  0.
        254    2    1    2    0    0  0.32207067514E+03 -0.68201630216E+03  0.15727657917E+04  0.19733017246E+04  0.92274140717E+03 0.  0.
        -24    2    4    4    0    0  0.47140847252E+03 -0.27347349062E+03  0.13890241942E+04  0.14946092458E+04  0.86341690922E+02 0.  0.
         24    2    4    4    0    0 -0.14933779738E+03 -0.40854281154E+03  0.18374159745E+03  0.47869247872E+03  0.78590762558E+02 0.  0.
         11    1    3    3    0    0 -0.14697351070E+03  0.37471530518E+03 -0.41379528779E+03  0.57726883944E+03  0.00000000000E+00 0.  1.
        -11    1    3    3    0    0 -0.17509716443E+03  0.30730099698E+03 -0.28356726294E+03  0.45332473168E+03  0.00000000000E+00 0. -1.
          4    1    6    6  502    0 -0.14849319569E+03 -0.31970644617E+03  0.15720189669E+03  0.38597263790E+03  0.00000000000E+00 0. -1.
          1    1    5    5  503    0  0.26747187156E+03 -0.17568195847E+03  0.91614068071E+03  0.97042212437E+03  0.00000000000E+00 0. -1.
         -2    1    5    5    0  503  0.20393660096E+03 -0.97791532148E+02  0.47288351350E+03  0.52418712147E+03  0.00000000000E+00 0.  1.
         -3    1    6    6    0  502 -0.84460169845E+00 -0.88836365373E+02  0.26539700761E+02  0.92719840817E+02  0.00000000000E+00 0.  1.
<mgrwt>
<rscale>  0 0.28735094E+04</rscale>
<asrwt>0</asrwt>
<pdfrwt beam="1">  1        3 0.16373016E+00 0.28735094E+04</pdfrwt>
<pdfrwt beam="2">  1       -3 0.29840758E+00 0.28735094E+04</pdfrwt>
<totfact> 0.22383106E-02</totfact>
</mgrwt>
</event>
<event>
12    1  0.2433511E-007  0.3006048E+04  0.7818608E-02  0.8242006E-01
         -2   -1    0    0    0  501 -0.00000000000E+00  0.00000000000E+00  0.74543885807E+03  0.74543885807E+03  0.00000000000E+00 0.  1.
          2   -1    0    0  501    0  0.00000000000E+00 -0.00000000000E+00 -0.30305386162E+04  0.30305386162E+04  0.00000000000E+00 0. -1.
         23    2    1    2    0    0 -0.68714334067E+03 -0.83742028570E+03 -0.20875120866E+04  0.23535471399E+04  0.89658923160E+02 0.  0.
        254    2    1    2    0    0  0.68714334067E+03  0.83742028570E+03 -0.19758767158E+03  0.14224303344E+04  0.90046013947E+03 0.  0.
        -24    2    4    4    0    0 -0.76029360571E+02  0.42539058621E+03  0.17773515894E+03  0.47396348765E+03  0.79460596491E+02 0.  0.
         24    2    4    4    0    0  0.76317270124E+03  0.41202969949E+03 -0.37532283052E+03  0.94846684677E+03  0.80753248392E+02 0.  0.
         13    1    3    3    0    0 -0.10813876474E+03 -0.12351958845E+03 -0.25225982789E+03  0.30097525137E+03  0.00000000000E+00 0.  1.
        -13    1    3    3    0    0 -0.57900457593E+03 -0.71390069725E+03 -0.18352522587E+04  0.20525718885E+04  0.00000000000E+00 0. -1.
          2    1    6    6  502    0  0.39570583907E+03  0.16941852819E+03 -0.19726171190E+03  0.47349544005E+03  0.00000000000E+00 0. -1.
          1    1    5    5  503    0  0.16658539144E+02  0.54750197743E+02  0.26481105463E+02  0.63058227265E+02  0.00000000000E+00 0. -1.
         -2    1    5    5    0  503 -0.92687899715E+02  0.37064038847E+03  0.15125405348E+03  0.41090526038E+03  0.00000000000E+00 0.  1.
         -3    1    6    6    0  502  0.36746686217E+03  0.24261117130E+03 -0.17806111862E+03  0.47497140672E+03  0.00000000000E+00 0.  1.
<mgrwt>
<rscale>  0 0.30060481E+04</rscale>
<asrwt>0</asrwt>
<pdfrwt beam="1">  1        2 0.46623672E+00 0.30060481E+04</pdfrwt>
<pdfrwt beam="2">  1       -2 0.11468290E+00 0.30060481E+04</pdfrwt>
<totfact> 0.84555326E-01</totfact>
</mgrwt>
</event>
<event>
12    1  0.2433511E-007  0.1594202E+04  0.7818608E-02  0.8824118E-01
         -2   -1    0    0    0  501 -0.00000000000E+00  0.00000000000E+00  0.45300626478E+03  0.45300626478E+03  0.00000000000E+00 0.  1.
          2   -1    0    0  501    0  0.00000000000E+00 -0.00000000000E+00 -0.14025640477E+04  0.14025640477E+04  0.00000000000E+00 0. -1.
         23    2    1    2    0    0  0.15006063874E+03  0.19516515579E+03 -0.88205016374E+03  0.92074895248E+03  0.95700098262E+02 0.  0.
        254    2    1    2    0    0 -0.15006063874E+03 -0.19516515579E+03 -0.67507619167E+02  0.93482135999E+03  0.89929197879E+03 0.  0.
        -24    2    4    4    0    0 -0.28937375606E+03  0.24359398530E+03  0.15678267430E+03  0.41661359500E+03  0.76882248987E+02 0.  0.
         24    2    4    4    0    0  0.13931311732E+03 -0.43875914109E+03 -0.22429029347E+03  0.51820776499E+03  0.79469638193E+02 0.  0.
         13    1    3    3    0    0  0.42527501148E+02  0.13101874172E+03 -0.41858202954E+03  0.44066474160E+03  0.00000000000E+00 0. -1.
        -13    1    3    3    0    0  0.10753313759E+03  0.64146414071E+02 -0.46346813420E+03  0.48008421088E+03  0.00000000000E+00 0.  1.
          2    1    6    6  502    0  0.93170745410E+02 -0.38119504857E+03 -0.20064144943E+03  0.44073511782E+03  0.00000000000E+00 0. -1.
          1    1    5    5  503    0 -0.70354669050E+02  0.75039638464E+02  0.78430203810E+02  0.12935232378E+03  0.00000000000E+00 0. -1.
         -2    1    5    5    0  503 -0.21901908701E+03  0.16855434684E+03  0.78352470494E+02  0.28726127122E+03  0.00000000000E+00 0.  1.
         -1    1    6    6    0  502  0.46142371909E+02 -0.57564092526E+02 -0.23648844038E+02  0.77472647161E+02  0.00000000000E+00 0.  1.
<mgrwt>
<rscale>  0 0.15942024E+04</rscale>
<asrwt>0</asrwt>
<pdfrwt beam="1">  1        2 0.21577908E+00 0.15942024E+04</pdfrwt>
<pdfrwt beam="2">  1       -2 0.69693272E-01 0.15942024E+04</pdfrwt>
<totfact> 0.25966515E+01</totfact>
</mgrwt>
</event>
<event>
12    1  0.2433511E-007  0.2015465E+04  0.7818608E-02  0.8599424E-01
          2   -1    0    0  501    0  0.00000000000E+00  0.00000000000E+00  0.26987625607E+04  0.26987625607E+04  0.00000000000E+00 0. -1.
         -2   -1    0    0    0  501 -0.00000000000E+00 -0.00000000000E+00 -0.37629268996E+03  0.37629268996E+03  0.00000000000E+00 0.  1.
         23    2    1    2    0    0 -0.38701243428E+03  0.10316643275E+03 -0.13154191026E+03  0.43071557205E+03  0.88264900822E+02 0.  0.
        254    2    1    2    0    0  0.38701243428E+03 -0.10316643275E+03  0.24540117810E+04  0.26443396786E+04  0.89996476457E+03 0.  0.
        -24    2    4    4    0    0  0.31017499027E+03 -0.19569846148E+03  0.28616855680E+03  0.47166706558E+03  0.77916400324E+02 0.  0.
         24    2    4    4    0    0  0.76837444010E+02  0.92532028724E+02  0.21678432242E+04  0.21726726130E+04  0.80596957621E+02 0.  0.
         11    1    3    3    0    0 -0.21638034235E+03  0.52779457241E+02 -0.26990243174E+02  0.22435373161E+03  0.00000000000E+00 0. -1.
        -11    1    3    3    0    0 -0.17063209193E+03  0.50386975511E+02 -0.10455166709E+03  0.20636184044E+03  0.00000000000E+00 0.  1.
          2    1    6    6  502    0  0.64982184867E+02  0.15753732581E+02  0.10640588479E+04  0.10661576320E+04  0.00000000000E+00 0. -1.
          3    1    5    5  503    0  0.35315866665E+02 -0.25137598479E+02  0.70916432999E+02  0.83115881545E+02  0.00000000000E+00 0. -1.
         -4    1    5    5    0  503  0.27485912361E+03 -0.17056086300E+03  0.21525212380E+03  0.38855118404E+03  0.00000000000E+00 0.  1.
         -1    1    6    6    0  502  0.11855259143E+02  0.76778296143E+02  0.11037843762E+04  0.11065149810E+04  0.00000000000E+00 0.  1.
<mgrwt>
<rscale>  0 0.20154648E+04</rscale>
<asrwt>0</asrwt>
<pdfrwt beam="1">  1        2 0.41519423E+00 0.20154648E+04</pdfrwt>
<pdfrwt beam="2">  1       -2 0.57891185E-01 0.20154648E+04</pdfrwt>
<totfact> 0.69011577E+00</totfact>
</mgrwt>
</event>
<event>
12    1  0.2433511E-007  0.3164539E+04  0.7818608E-02  0.8198246E-01
          1   -1    0    0  501    0  0.00000000000E+00  0.00000000000E+00  0.17385166076E+04  0.17385166076E+04  0.00000000000E+00 0. -1.
         -1   -1    0    0    0  501 -0.00000000000E+00 -0.00000000000E+00 -0.14400649724E+04  0.14400649724E+04  0.00000000000E+00 0.  1.
         23    2    1    2    0    0  0.26210521389E+03 -0.12948300133E+04  0.74553521664E+03  0.15197739531E+04  0.92769623005E+02 0.  0.
        254    2    1    2    0    0 -0.26210521389E+03  0.12948300133E+04 -0.44708358139E+03  0.16588076269E+04  0.89803959145E+03 0.  0.
        -24    2    4    4    0    0 -0.28038763225E+03  0.12315304656E+04 -0.65462619575E+03  0.14253979551E+04  0.89103099777E+02 0.  0.
         24    2    4    4    0    0  0.18282418368E+02  0.63299547735E+02  0.20754261436E+03  0.23340967177E+03  0.84053902550E+02 0.  0.
         13    1    3    3    0    0  0.78524531222E+02 -0.54415106243E+03  0.27150901055E+03  0.61317503501E+03  0.00000000000E+00 0.  1.
        -13    1    3    3    0    0  0.18358068266E+03 -0.75067895086E+03  0.47402620608E+03  0.90659891813E+03  0.00000000000E+00 0. -1.
          2    1    6    6  502    0 -0.97901795688E+01  0.68845879013E+02  0.18280342344E+03  0.19558296014E+03  0.00000000000E+00 0. -1.
          3    1    5    5  503    0 -0.17836083167E+03  0.63141067751E+03 -0.30685390608E+03  0.72432820574E+03  0.00000000000E+00 0. -1.
         -4    1    5    5    0  503 -0.10202680058E+03  0.60011978804E+03 -0.34777228967E+03  0.70106974938E+03  0.00000000000E+00 0.  1.
         -1    1    6    6    0  502  0.28072597937E+02 -0.55463312781E+01  0.24739190919E+02  0.37826711632E+02  0.00000000000E+00 0.  1.
<mgrwt>
<rscale>  0 0.31645391E+04</rscale>
<asrwt>0</asrwt>
<pdfrwt beam="1">  1        1 0.26746409E+00 0.31645391E+04</pdfrwt>
<pdfrwt beam="2">  1       -1 0.22154846E+00 0.31645391E+04</pdfrwt>
<totfact> 0.40456147E-01</totfact>
</mgrwt>
</event>
<event>
12    1  0.2433511E-007  0.2294809E+04  0.7818608E-02  0.8479971E-01
          2   -1    0    0  501    0  0.00000000000E+00  0.00000000000E+00  0.31788937709E+04  0.31788937709E+04  0.00000000000E+00 0. -1.
         -2   -1    0    0    0  501 -0.00000000000E+00 -0.00000000000E+00 -0.41414945680E+03  0.41414945680E+03  0.00000000000E+00 0.  1.
         23    2    1    2    0    0  0.52255433317E+03  0.44416491438E+03  0.22473535707E+04  0.23514060130E+04  0.90369596582E+02 0.  0.
        254    2    1    2    0    0 -0.52255433317E+03 -0.44416491438E+03  0.51739074341E+03  0.12416372147E+04  0.89645094081E+03 0.  0.
        -24    2    4    4    0    0 -0.46218900382E+03 -0.67832382717E+03  0.22685995568E+03  0.85560849043E+03  0.82816421372E+02 0.  0.
         24    2    4    4    0    0 -0.60365329356E+02  0.23415891279E+03  0.29053078774E+03  0.38602872428E+03  0.78330504386E+02 0.  0.
         13    1    3    3    0    0  0.30694283733E+03  0.20934568932E+03  0.11341855090E+04  0.11934891252E+04  0.00000000000E+00 0.  1.
        -13    1    3    3    0    0  0.21561149584E+03  0.23481922506E+03  0.11131680617E+04  0.11579168879E+04  0.00000000000E+00 0. -1.
          4    1    6    6  502    0  0.26864582620E+01  0.13505013991E+03  0.13340797329E+03  0.18985111189E+03  0.00000000000E+00 0. -1.
          3    1    5    5  503    0 -0.18495808695E+03 -0.20487016220E+03  0.64593306332E+02  0.28346705719E+03  0.00000000000E+00 0. -1.
         -4    1    5    5    0  503 -0.27723091686E+03 -0.47345366497E+03  0.16226664935E+03  0.57214143324E+03  0.00000000000E+00 0.  1.
         -3    1    6    6    0  502 -0.63051787618E+02  0.99108772882E+02  0.15712281444E+03  0.19617761239E+03  0.00000000000E+00 0.  1.
<mgrwt>
<rscale>  0 0.22948090E+04</rscale>
<asrwt>0</asrwt>
<pdfrwt beam="1">  1        2 0.48906056E+00 0.22948090E+04</pdfrwt>
<pdfrwt beam="2">  1       -2 0.63715303E-01 0.22948090E+04</pdfrwt>
<totfact> 0.27702965E+00</totfact>
</mgrwt>
</event>
<event>
12    1  0.2433511E-007  0.1485310E+04  0.7818608E-02  0.8894281E-01
          1   -1    0    0  501    0  0.00000000000E+00  0.00000000000E+00  0.63894694176E+03  0.63894694176E+03  0.00000000000E+00 0. -1.
         -1   -1    0    0    0  501 -0.00000000000E+00 -0.00000000000E+00 -0.86319615674E+03  0.86319615674E+03  0.00000000000E+00 0.  1.
         23    2    1    2    0    0 -0.77180212625E+02 -0.12457264547E+03 -0.51510276151E+03  0.54297662241E+03  0.89541210359E+02 0.  0.
        254    2    1    2    0    0  0.77180212625E+02  0.12457264547E+03  0.29085354653E+03  0.95916647608E+03  0.90218036671E+03 0.  0.
        -24    2    4    4    0    0  0.47295855877E+03  0.18598687860E+02  0.61196237877E+02  0.48298711181E+03  0.74134075463E+02 0.  0.
         24    2    4    4    0    0 -0.39577834614E+03  0.10597395761E+03  0.22965730865E+03  0.47617936427E+03  0.78315570439E+02 0.  0.
         13    1    3    3    0    0 -0.61594893458E+02 -0.12791772279E+03 -0.50383404879E+03  0.52345546460E+03  0.00000000000E+00 0.  1.
        -13    1    3    3    0    0 -0.15585319168E+02  0.33450773254E+01 -0.11268712724E+02  0.19521157812E+02  0.00000000000E+00 0. -1.
          2    1    6    6  502    0 -0.26538540252E+03  0.74753925570E+02  0.19497652888E+03  0.33768832979E+03  0.00000000000E+00 0. -1.
          1    1    5    5  503    0  0.37626182993E+03  0.30044208108E+02  0.22247430714E+02  0.37811448964E+03  0.00000000000E+00 0. -1.
         -2    1    5    5    0  503  0.96696728839E+02 -0.11445520249E+02  0.38948807163E+02  0.10487262217E+03  0.00000000000E+00 0.  1.
         -1    1    6    6    0  502 -0.13039294362E+03  0.31220032036E+02  0.34680779770E+02  0.13849103448E+03  0.00000000000E+00 0.  1.
<mgrwt>
<rscale>  0 0.14853101E+04</rscale>
<asrwt>0</asrwt>
<pdfrwt beam="1">  1        1 0.98299530E-01 0.14853101E+04</pdfrwt>
<pdfrwt beam="2">  1       -1 0.13279941E+00 0.14853101E+04</pdfrwt>
<totfact> 0.14538956E+01</totfact>
</mgrwt>
</event>
<event>
12    1  0.2433511E-007  0.1656312E+04  0.7818608E-02  0.8786681E-01
          1   -1    0    0  501    0  0.00000000000E+00  0.00000000000E+00  0.19475363596E+04  0.19475363596E+04  0.00000000000E+00 0. -1.
         -1   -1    0    0    0  501 -0.00000000000E+00 -0.00000000000E+00 -0.35215915024E+03  0.35215915024E+03  0.00000000000E+00 0.  1.
         23    2    1    2    0    0 -0.29401291010E+03  0.47436712514E+03  0.78145017247E+03  0.96443541658E+03  0.89462506023E+02 0.  0.
        254    2    1    2    0    0  0.29401291010E+03 -0.47436712514E+03  0.81392703692E+03  0.13352600933E+04  0.89943011656E+03 0.  0.
        -24    2    4    4    0    0  0.33819388057E+03  0.14267692375E+03  0.10245638291E+03  0.38905382266E+03  0.78318331833E+02 0.  0.
         24    2    4    4    0    0 -0.44180970469E+02 -0.61704404889E+03  0.71147065401E+03  0.94620627063E+03  0.80128014027E+02 0.  0.
         13    1    3    3    0    0 -0.25247382334E+03  0.34963826161E+03  0.55874301192E+03  0.70582129383E+03  0.00000000000E+00 0.  1.
        -13    1    3    3    0    0 -0.41539086758E+02  0.12472886353E+03  0.22270716055E+03  0.25861412275E+03  0.00000000000E+00 0. -1.
          4    1    6    6  502    0 -0.13186914354E+02 -0.53838635360E+03  0.59899017041E+03  0.80549549017E+03  0.00000000000E+00 0. -1.
          1    1    5    5  503    0  0.33250661862E+03  0.12514508471E+03  0.89064169770E+02  0.36627089700E+03  0.00000000000E+00 0. -1.
         -2    1    5    5    0  503  0.56872619478E+01  0.17531839047E+02  0.13392213136E+02  0.22782925658E+02  0.00000000000E+00 0.  1.
         -3    1    6    6    0  502 -0.30994056115E+02 -0.78657695297E+02  0.11248048361E+03  0.14071078045E+03  0.00000000000E+00 0.  1.
<mgrwt>
<rscale>  0 0.16563125E+04</rscale>
<asrwt>0</asrwt>
<pdfrwt beam="1">  1        1 0.29962097E+00 0.16563125E+04</pdfrwt>
<pdfrwt beam="2">  1       -1 0.54178332E-01 0.16563125E+04</pdfrwt>
<totfact> 0.10630395E+01</totfact>
</mgrwt>
</event>
<event>
12    1  0.2433511E-007  0.3079501E+04  0.7818608E-02  0.8221386E-01
          1   -1    0    0  501    0  0.00000000000E+00  0.00000000000E+00  0.12925196775E+04  0.12925196775E+04  0.00000000000E+00 0. -1.
         -1   -1    0    0    0  501 -0.00000000000E+00 -0.00000000000E+00 -0.18342706971E+04  0.18342706971E+04  0.00000000000E+00 0.  1.
         23    2    1    2    0    0  0.34702525851E+03  0.13618167826E+04 -0.29363922951E+03  0.14393170623E+04  0.10216716330E+03 0.  0.
        254    2    1    2    0    0 -0.34702525851E+03 -0.13618167826E+04 -0.24811179012E+03  0.16874733123E+04  0.90057494970E+03 0.  0.
        -24    2    4    4    0    0 -0.16260834061E+03  0.88460327837E+02 -0.20944410743E+02  0.20576851417E+03  0.87380266911E+02 0.  0.
         24    2    4    4    0    0 -0.18441691790E+03 -0.14502771104E+04 -0.22716737938E+03  0.14817047982E+04  0.80813328047E+02 0.  0.
         13    1    3    3    0    0  0.29394806403E+03  0.10430193182E+04 -0.19200654616E+03  0.11005277262E+04  0.00000000000E+00 0. -1.
        -13    1    3    3    0    0  0.53077194476E+02  0.31879746444E+03 -0.10163268336E+03  0.33878933607E+03  0.00000000000E+00 0.  1.
          2    1    6    6  502    0 -0.12046441980E+03 -0.83243367441E+03 -0.16829498823E+03  0.85777660366E+03  0.00000000000E+00 0. -1.
          3    1    5    5  503    0 -0.11465122112E+03  0.10332109882E+03 -0.12347042217E+02  0.15483088006E+03  0.00000000000E+00 0. -1.
         -4    1    5    5    0  503 -0.47957119483E+02 -0.14860770986E+02 -0.85973685255E+01  0.50937634113E+02  0.00000000000E+00 0.  1.
         -1    1    6    6    0  502 -0.63952498095E+02 -0.61784343603E+03 -0.58872391146E+02  0.62392819451E+03  0.00000000000E+00 0.  1.
<mgrwt>
<rscale>  0 0.30795006E+04</rscale>
<asrwt>0</asrwt>
<pdfrwt beam="1">  1        1 0.19884918E+00 0.30795006E+04</pdfrwt>
<pdfrwt beam="2">  1       -1 0.28219549E+00 0.30795006E+04</pdfrwt>
<totfact> 0.33341507E-01</totfact>
</mgrwt>
</event>
<event>
12    1  0.2433511E-007  0.3031082E+04  0.7818608E-02  0.8234911E-01
         -2   -1    0    0    0  501 -0.00000000000E+00  0.00000000000E+00  0.10694497835E+04  0.10694497835E+04  0.00000000000E+00 0.  1.
          2   -1    0    0  501    0  0.00000000000E+00 -0.00000000000E+00 -0.21477068014E+04  0.21477068014E+04  0.00000000000E+00 0. -1.
         23    2    1    2    0    0 -0.70155377025E+03  0.84467832390E+02  0.76705265167E+03  0.10465163991E+04  0.86685038710E+02 0.  0.
        254    2    1    2    0    0  0.70155377025E+03 -0.84467832390E+02 -0.18453096696E+04  0.21706401857E+04  0.89844228087E+03 0.  0.
        -24    2    4    4    0    0  0.88323166374E+03 -0.20131712588E+03 -0.14039696000E+04  0.16728319781E+04  0.81298415665E+02 0.  0.
         24    2    4    4    0    0 -0.18167789350E+03  0.11684929349E+03 -0.44134006959E+03  0.49780820760E+03  0.79820674979E+02 0.  0.
         11    1    3    3    0    0 -0.53529138221E+03  0.78082080881E+02  0.53364567295E+03  0.75987589742E+03  0.00000000000E+00 0. -1.
        -11    1    3    3    0    0 -0.16626238803E+03  0.63857515092E+01  0.23340697873E+03  0.28664050170E+03  0.00000000000E+00 0.  1.
          4    1    6    6  502    0  0.23395715093E+01  0.24026651841E+02 -0.43379446573E+02  0.49644032658E+02  0.00000000000E+00 0. -1.
          1    1    5    5  503    0  0.50675824012E+03 -0.15009807635E+03 -0.77662904451E+03  0.93940727016E+03  0.00000000000E+00 0. -1.
         -2    1    5    5    0  503  0.37647342362E+03 -0.51219049528E+02 -0.62734055546E+03  0.73342470797E+03  0.00000000000E+00 0.  1.
         -3    1    6    6    0  502 -0.18401746500E+03  0.92822641646E+02 -0.39796062302E+03  0.44816417494E+03  0.00000000000E+00 0.  1.
<mgrwt>
<rscale>  0 0.30310820E+04</rscale>
<asrwt>0</asrwt>
<pdfrwt beam="1">  1        2 0.33041643E+00 0.30310820E+04</pdfrwt>
<pdfrwt beam="2">  1       -2 0.16453074E+00 0.30310820E+04</pdfrwt>
<totfact> 0.11008497E+00</totfact>
</mgrwt>
</event>
<event>
12    1  0.2433511E-007  0.3601917E+04  0.7818608E-02  0.8090053E-01
          2   -1    0    0  501    0  0.00000000000E+00  0.00000000000E+00  0.14353149605E+04  0.14353149605E+04  0.00000000000E+00 0. -1.
         -2   -1    0    0    0  501 -0.00000000000E+00 -0.00000000000E+00 -0.22597493272E+04  0.22597493272E+04  0.00000000000E+00 0.  1.
         23    2    1    2    0    0 -0.15551979151E+04  0.27003858927E+03  0.22437030625E+03  0.15970912468E+04  0.93792438751E+02 0.  0.
        254    2    1    2    0    0  0.15551979151E+04 -0.27003858927E+03 -0.10488046730E+04  0.20979730410E+04  0.89996569032E+03 0.  0.
        -24    2    4    4    0    0  0.11322751937E+04 -0.23280280335E+03 -0.11722674874E+04  0.16483870112E+04  0.82002545293E+02 0.  0.
         24    2    4    4    0    0  0.42292272142E+03 -0.37235785912E+02  0.12346281438E+03  0.44958602973E+03  0.81451823488E+02 0.  0.
         13    1    3    3    0    0 -0.12962517781E+04  0.25117841180E+03  0.16377394695E+03  0.13304815566E+04  0.00000000000E+00 0.  1.
        -13    1    3    3    0    0 -0.25894613695E+03  0.18860177466E+02  0.60596359297E+02  0.26660969018E+03  0.00000000000E+00 0. -1.
          4    1    6    6  502    0  0.22176545692E+03 -0.60321723567E+02  0.66049208576E+02  0.23912575389E+03  0.00000000000E+00 0. -1.
          1    1    5    5  503    0  0.46751567657E+03 -0.72729725514E+02 -0.52697008300E+03  0.70820758905E+03  0.00000000000E+00 0. -1.
         -2    1    5    5    0  503  0.66475951708E+03 -0.16007307784E+03 -0.64529740436E+03  0.94017942217E+03  0.00000000000E+00 0.  1.
         -3    1    6    6    0  502  0.20115726450E+03  0.23085937655E+02  0.57413605800E+02  0.21046027584E+03  0.00000000000E+00 0.  1.
<mgrwt>
<rscale>  0 0.36019173E+04</rscale>
<asrwt>0</asrwt>
<pdfrwt beam="1">  1        2 0.22081769E+00 0.36019173E+04</pdfrwt>
<pdfrwt beam="2">  1       -2 0.34765374E+00 0.36019173E+04</pdfrwt>
<totfact> 0.18112829E-01</totfact>
</mgrwt>
</event>
<event>
12    1  0.2433511E-007  0.2744010E+04  0.7818608E-02  0.8320865E-01
         -1   -1    0    0    0  501 -0.00000000000E+00  0.00000000000E+00  0.50995488917E+03  0.50995488917E+03  0.00000000000E+00 0.  1.
          1   -1    0    0  501    0  0.00000000000E+00 -0.00000000000E+00 -0.36913010918E+04  0.36913010918E+04  0.00000000000E+00 0. -1.
         23    2    1    2    0    0 -0.30023731768E+03 -0.10815148356E+04 -0.67996444558E+03  0.13154481870E+04  0.90749648583E+02 0.  0.
        254    2    1    2    0    0  0.30023731768E+03  0.10815148356E+04 -0.25013817571E+04  0.28858077940E+04  0.90064373797E+03 0.  0.
        -24    2    4    4    0    0  0.39024197025E+03  0.52379476883E+03 -0.56535628664E+03  0.86744731571E+03  0.78659770463E+02 0.  0.
         24    2    4    4    0    0 -0.90004652573E+02  0.55772006682E+03 -0.19360254705E+04  0.20183604783E+04  0.80199051164E+02 0.  0.
         11    1    3    3    0    0 -0.37744499945E+02 -0.25029050184E+03 -0.17955197989E+03  0.31033674624E+03  0.00000000000E+00 0. -1.
        -11    1    3    3    0    0 -0.26249281773E+03 -0.83122433381E+03 -0.50041246570E+03  0.10051114407E+04  0.00000000000E+00 0.  1.
          4    1    6    6  502    0 -0.76145888428E+02  0.53169812961E+03 -0.17687544590E+04  0.18485111397E+04  0.00000000000E+00 0. -1.
          1    1    5    5  503    0  0.38627270198E+03  0.51584895124E+03 -0.54065714106E+03  0.84119967009E+03  0.00000000000E+00 0. -1.
         -2    1    5    5    0  503  0.39692682673E+01  0.79458175922E+01 -0.24699145585E+02  0.26247645616E+02  0.00000000000E+00 0.  1.
         -3    1    6    6    0  502 -0.13858764144E+02  0.26021937209E+02 -0.16727101146E+03  0.16984933864E+03  0.00000000000E+00 0.  1.
<mgrwt>
<rscale>  0 0.27440095E+04</rscale>
<asrwt>0</asrwt>
<pdfrwt beam="1">  1        1 0.56789246E+00 0.27440095E+04</pdfrwt>
<pdfrwt beam="2">  1       -1 0.78454600E-01 0.27440095E+04</pdfrwt>
<totfact> 0.24809825E-01</totfact>
</mgrwt>
</event>
<event>
12    1  0.2433511E-007  0.2130155E+04  0.7818608E-02  0.8548075E-01
          2   -1    0    0  501    0  0.00000000000E+00  0.00000000000E+00  0.24072598746E+04  0.24072598746E+04  0.00000000000E+00 0. -1.
         -2   -1    0    0    0  501 -0.00000000000E+00 -0.00000000000E+00 -0.47123696693E+03  0.47123696693E+03  0.00000000000E+00 0.  1.
         23    2    1    2    0    0  0.30511374231E+03 -0.96502851540E+02  0.18924160559E+04  0.19212070259E+04  0.85969248226E+02 0.  0.
        254    2    1    2    0    0 -0.30511374231E+03  0.96502851540E+02  0.43606851708E+02  0.95728981557E+03  0.90116315802E+03 0.  0.
        -24    2    4    4    0    0 -0.52445828969E+03 -0.13515927368E+03  0.21421397132E+03  0.58696681098E+03  0.72923828754E+02 0.  0.
         24    2    4    4    0    0  0.21934454738E+03  0.23166212522E+03 -0.17060711961E+03  0.37032300458E+03  0.79075708901E+02 0.  0.
         13    1    3    3    0    0  0.25943680936E+03 -0.10113728589E+03  0.17360765439E+04  0.17582656156E+04  0.00000000000E+00 0. -1.
        -13    1    3    3    0    0  0.45676932953E+02  0.46344343501E+01  0.15633951204E+03  0.16294141037E+03  0.00000000000E+00 0.  1.
          2    1    6    6  502    0  0.21173785409E+03  0.18510023572E+03 -0.15122159921E+03  0.31931643896E+03  0.00000000000E+00 0. -1.
          1    1    5    5  503    0 -0.28905258691E+03 -0.38304854100E+02  0.10387493175E+03  0.30952974218E+03  0.00000000000E+00 0. -1.
         -2    1    5    5    0  503 -0.23540570278E+03 -0.96854419575E+02  0.11033903957E+03  0.27743706880E+03  0.00000000000E+00 0.  1.
         -1    1    6    6    0  502  0.76066932867E+01  0.46561889494E+02 -0.19385520400E+02  0.51006565628E+02  0.00000000000E+00 0.  1.
<mgrwt>
<rscale>  0 0.21301548E+04</rscale>
<asrwt>0</asrwt>
<pdfrwt beam="1">  1        2 0.37034767E+00 0.21301548E+04</pdfrwt>
<pdfrwt beam="2">  1       -2 0.72497996E-01 0.21301548E+04</pdfrwt>
<totfact> 0.62309964E+00</totfact>
</mgrwt>
</event>
<event>
12    1  0.2433511E-007  0.3142617E+04  0.7818608E-02  0.8204138E-01
          1   -1    0    0  501    0  0.00000000000E+00  0.00000000000E+00  0.14401635611E+04  0.14401635611E+04  0.00000000000E+00 0. -1.
         -1   -1    0    0    0  501 -0.00000000000E+00 -0.00000000000E+00 -0.17143963109E+04  0.17143963109E+04  0.00000000000E+00 0.  1.
         23    2    1    2    0    0  0.91448074405E+03 -0.10578565992E+04 -0.47127667439E+03  0.14784306318E+04  0.91213010558E+02 0.  0.
        254    2    1    2    0    0 -0.91448074405E+03  0.10578565992E+04  0.19704392458E+03  0.16761292402E+04  0.90291046384E+03 0.  0.
        -24    2    4    4    0    0 -0.19322255726E+03 -0.14613532908E+03 -0.11157835939E+02  0.25507540153E+03  0.79047277761E+02 0.  0.
         24    2    4    4    0    0 -0.72125818679E+03  0.12039919283E+04  0.20820176052E+03  0.14210538386E+04  0.78969004944E+02 0.  0.
         13    1    3    3    0    0  0.59975973645E+03 -0.62813729645E+03 -0.28072222010E+03  0.91272842046E+03  0.00000000000E+00 0. -1.
        -13    1    3    3    0    0  0.31472100760E+03 -0.42971930279E+03 -0.19055445428E+03  0.56570221129E+03  0.00000000000E+00 0.  1.
          4    1    6    6  502    0 -0.16216607996E+03  0.26858661862E+03  0.13460050837E+02  0.31403468305E+03  0.00000000000E+00 0. -1.
          3    1    5    5  503    0 -0.11760153841E+03 -0.11412796795E+03  0.24232602236E+02  0.16565788214E+03  0.00000000000E+00 0. -1.
         -4    1    5    5    0  503 -0.75621018855E+02 -0.32007361131E+02 -0.35390438175E+02  0.89417519388E+02  0.00000000000E+00 0.  1.
         -3    1    6    6    0  502 -0.55909210683E+03  0.93540530970E+03  0.19474170968E+03  0.11070191556E+04  0.00000000000E+00 0.  1.
<mgrwt>
<rscale>  0 0.31426174E+04</rscale>
<asrwt>0</asrwt>
<pdfrwt beam="1">  1        1 0.22156363E+00 0.31426174E+04</pdfrwt>
<pdfrwt beam="2">  1       -1 0.26375328E+00 0.31426174E+04</pdfrwt>
<totfact> 0.34339767E-01</totfact>
</mgrwt>
</event>
<event>
12    1  0.2433511E-007  0.1212375E+04  0.7818608E-02  0.9102093E-01
          1   -1    0    0  501    0  0.00000000000E+00  0.00000000000E+00  0.10752103993E+04  0.10752103993E+04  0.00000000000E+00 0. -1.
         -1   -1    0    0    0  501 -0.00000000000E+00 -0.00000000000E+00 -0.34175929221E+03  0.34175929221E+03  0.00000000000E+00 0.  1.
         23    2    1    2    0    0  0.16008701943E+03  0.19149696798E+03  0.79980445086E+02  0.27741863638E+03  0.90913616587E+02 0.  0.
        254    2    1    2    0    0 -0.16008701943E+03 -0.19149696798E+03  0.65347066200E+03  0.11395510551E+04  0.89958532590E+03 0.  0.
        -24    2    4    4    0    0  0.15164817034E+03 -0.44183260943E+03  0.53623908892E+03  0.71549886340E+03  0.78568700602E+02 0.  0.
         24    2    4    4    0    0 -0.31173518977E+03  0.25033564145E+03  0.11723157308E+03  0.42405219172E+03  0.78931981150E+02 0.  0.
         11    1    3    3    0    0  0.28585264322E+02  0.30796480629E+02 -0.20483174449E+02  0.46745063814E+02  0.00000000000E+00 0.  1.
        -11    1    3    3    0    0  0.13150175511E+03  0.16070048735E+03  0.10046361954E+03  0.23067357257E+03  0.00000000000E+00 0. -1.
          2    1    6    6  502    0 -0.29050795194E+03  0.24980537356E+03  0.12236356912E+03  0.40220695897E+03  0.00000000000E+00 0. -1.
          3    1    5    5  503    0  0.14745721322E+03 -0.38133458854E+03  0.43123968158E+03  0.59424520286E+03  0.00000000000E+00 0. -1.
         -4    1    5    5    0  503  0.41909571202E+01 -0.60498020887E+02  0.10499940734E+03  0.12125366054E+03  0.00000000000E+00 0.  1.
         -1    1    6    6    0  502 -0.21227237836E+02  0.53026789108E+00 -0.51319960422E+01  0.21845232742E+02  0.00000000000E+00 0.  1.
<mgrwt>
<rscale>  0 0.12123748E+04</rscale>
<asrwt>0</asrwt>
<pdfrwt beam="1">  1        1 0.16541698E+00 0.12123748E+04</pdfrwt>
<pdfrwt beam="2">  1       -1 0.52578353E-01 0.12123748E+04</pdfrwt>
<totfact> 0.47709826E+01</totfact>
</mgrwt>
</event>
<event>
12    1  0.2433511E-007  0.1376046E+04  0.7818608E-02  0.8971343E-01
         -1   -1    0    0    0  501 -0.00000000000E+00  0.00000000000E+00  0.27025465797E+03  0.27025465797E+03  0.00000000000E+00 0.  1.
          1   -1    0    0  501    0  0.00000000000E+00 -0.00000000000E+00 -0.17515904222E+04  0.17515904222E+04  0.00000000000E+00 0. -1.
         23    2    1    2    0    0 -0.23956131241E+03  0.26775607537E+03 -0.63691765170E+03  0.73711733370E+03  0.92708846847E+02 0.  0.
        254    2    1    2    0    0  0.23956131241E+03 -0.26775607537E+03 -0.84441811252E+03  0.12847277465E+04  0.89911094727E+03 0.  0.
        -24    2    4    4    0    0 -0.73112896467E+02  0.29652079301E+03 -0.32074035905E+03  0.44990783487E+03  0.79199783054E+02 0.  0.
         24    2    4    4    0    0  0.31267420888E+03 -0.56427686838E+03 -0.52367775347E+03  0.83481991161E+03  0.80699134118E+02 0.  0.
         11    1    3    3    0    0 -0.14202535430E+03  0.11804412950E+03 -0.39814197260E+03  0.43888796761E+03  0.00000000000E+00 0. -1.
        -11    1    3    3    0    0 -0.97535958115E+02  0.14971194587E+03 -0.23877567911E+03  0.29822936609E+03  0.00000000000E+00 0.  1.
          4    1    6    6  502    0  0.31585966414E+03 -0.56219686190E+03 -0.52412786660E+03  0.83098896473E+03  0.00000000000E+00 0. -1.
          3    1    5    5  503    0 -0.40312176236E+02  0.25003745148E+03 -0.29077219477E+03  0.38560636398E+03  0.00000000000E+00 0. -1.
         -4    1    5    5    0  503 -0.32800720231E+02  0.46483341527E+02 -0.29968164282E+02  0.64301470882E+02  0.00000000000E+00 0.  1.
         -3    1    6    6    0  502 -0.31854552571E+01 -0.20800064760E+01  0.45011312476E+00  0.38309468752E+01  0.00000000000E+00 0.  1.
<mgrwt>
<rscale>  0 0.13760457E+04</rscale>
<asrwt>0</asrwt>
<pdfrwt beam="1">  1        1 0.26947545E+00 0.13760457E+04</pdfrwt>
<pdfrwt beam="2">  1       -1 0.41577640E-01 0.13760457E+04</pdfrwt>
<totfact> 0.24361391E+01</totfact>
</mgrwt>
</event>
<event>
12    1  0.2433511E-007  0.1549349E+04  0.7818608E-02  0.8852284E-01
         -2   -1    0    0    0  501 -0.00000000000E+00  0.00000000000E+00  0.38603754621E+03  0.38603754621E+03  0.00000000000E+00 0.  1.
          2   -1    0    0  501    0  0.00000000000E+00 -0.00000000000E+00 -0.15545656520E+04  0.15545656520E+04  0.00000000000E+00 0. -1.
         23    2    1    2    0    0 -0.50639589188E+02  0.15481856722E+03 -0.99256224119E+03  0.10094920188E+04  0.85797299739E+02 0.  0.
        254    2    1    2    0    0  0.50639589188E+02 -0.15481856722E+03 -0.17596586458E+03  0.93111117939E+03  0.89970599984E+03 0.  0.
        -24    2    4    4    0    0 -0.35762914452E+03 -0.34944215535E+02  0.14078072575E+03  0.39477694724E+03  0.83125941336E+02 0.  0.
         24    2    4    4    0    0  0.40826873371E+03 -0.11987435168E+03 -0.31674659033E+03  0.53633423215E+03  0.79200927852E+02 0.  0.
         13    1    3    3    0    0 -0.72352540926E+02  0.96570186261E+02 -0.70907444876E+03  0.71926856246E+03  0.00000000000E+00 0. -1.
        -13    1    3    3    0    0  0.21712951739E+02  0.58248380957E+02 -0.28348779242E+03  0.29022345634E+03  0.00000000000E+00 0.  1.
          2    1    6    6  502    0  0.38237242559E+03 -0.89561505745E+02 -0.28244668880E+03  0.48374173603E+03  0.00000000000E+00 0. -1.
          3    1    5    5  503    0 -0.19877344217E+03 -0.59712419515E+02  0.69131103687E+02  0.21875914576E+03  0.00000000000E+00 0. -1.
         -4    1    5    5    0  503 -0.15885570235E+03  0.24768203980E+02  0.71649622066E+02  0.17601780149E+03  0.00000000000E+00 0.  1.
         -1    1    6    6    0  502  0.25896308119E+02 -0.30312845938E+02 -0.34299901527E+02  0.52592496117E+02  0.00000000000E+00 0.  1.
<mgrwt>
<rscale>  0 0.15493492E+04</rscale>
<asrwt>0</asrwt>
<pdfrwt beam="1">  1        2 0.23916395E+00 0.15493492E+04</pdfrwt>
<pdfrwt beam="2">  1       -2 0.59390392E-01 0.15493492E+04</pdfrwt>
<totfact> 0.30123335E+01</totfact>
</mgrwt>
</event>
<event>
12    1  0.2433511E-007  0.1259764E+04  0.7818608E-02  0.9062096E-01
          2   -1    0    0  501    0  0.00000000000E+00  0.00000000000E+00  0.10593552024E+04  0.10593552024E+04  0.00000000000E+00 0.  1.
         -2   -1    0    0    0  501 -0.00000000000E+00 -0.00000000000E+00 -0.37452140124E+03  0.37452140124E+03  0.00000000000E+00 0. -1.
         23    2    1    2    0    0 -0.17780318949E+03  0.21756004502E+03  0.28932491378E+03  0.41350469717E+03  0.91273662505E+02 0.  0.
        254    2    1    2    0    0  0.17780318949E+03 -0.21756004502E+03  0.39550888740E+03  0.10203719065E+04  0.89765539054E+03 0.  0.
        -24    2    4    4    0    0  0.22034020085E+03 -0.49157202830E+03  0.17621303222E+02  0.54468171968E+03  0.78579910330E+02 0.  0.
         24    2    4    4    0    0 -0.42537011358E+02  0.27401198329E+03  0.37788758418E+03  0.47569018681E+03  0.81179820354E+02 0.  0.
         11    1    3    3    0    0 -0.16436678878E+03  0.13793737033E+03  0.20532672342E+03  0.29698859025E+03  0.00000000000E+00 0.  1.
        -11    1    3    3    0    0 -0.13436400708E+02  0.79622674683E+02  0.83998190362E+02  0.11651610692E+03  0.00000000000E+00 0. -1.
          2    1    6    6  502    0 -0.50500722235E+02  0.82882478542E+02  0.11318246353E+03  0.14909761314E+03  0.00000000000E+00 0. -1.
          1    1    5    5  503    0  0.19535599207E+03 -0.44166097733E+03  0.39904190564E+02  0.48458304443E+03  0.00000000000E+00 0. -1.
         -2    1    5    5    0  503  0.24984208778E+02 -0.49911050979E+02 -0.22282887342E+02  0.60098675247E+02  0.00000000000E+00 0.  1.
         -1    1    6    6    0  502  0.79637108774E+01  0.19112950475E+03  0.26470512065E+03  0.32659257367E+03  0.00000000000E+00 0.  1.
<mgrwt>
<rscale>  0 0.12597638E+04</rscale>
<asrwt>0</asrwt>
<pdfrwt beam="1">  1        2 0.16297772E+00 0.12597638E+04</pdfrwt>
<pdfrwt beam="2">  1       -2 0.57618678E-01 0.12597638E+04</pdfrwt>
<totfact> 0.64027130E+01</totfact>
</mgrwt>
</event>
<event>
12    1  0.2433511E-007  0.1292255E+04  0.7818608E-02  0.9035730E-01
         -2   -1    0    0    0  501 -0.00000000000E+00  0.00000000000E+00  0.64069862392E+03  0.64069862392E+03  0.00000000000E+00 0.  1.
          2   -1    0    0  501    0  0.00000000000E+00 -0.00000000000E+00 -0.65160250839E+03  0.65160250839E+03  0.00000000000E+00 0. -1.
         23    2    1    2    0    0  0.24231783476E+03 -0.12542362453E+03 -0.17496070871E+03  0.33645949490E+03  0.90248121785E+02 0.  0.
        254    2    1    2    0    0 -0.24231783476E+03  0.12542362453E+03  0.16405682424E+03  0.95584163741E+03  0.90125999334E+03 0.  0.
        -24    2    4    4    0    0  0.12565765947E+03 -0.22898417048E+03 -0.18700308470E+03  0.33105711831E+03  0.80031644860E+02 0.  0.
         24    2    4    4    0    0 -0.36797549423E+03  0.35440779501E+03  0.35105990894E+03  0.62478451911E+03  0.78113930482E+02 0.  0.
         11    1    3    3    0    0  0.18491158179E+03 -0.13134877425E+03 -0.11928021699E+03  0.25626658725E+03  0.00000000000E+00 0.  1.
        -11    1    3    3    0    0  0.57406252976E+02  0.59251497213E+01 -0.55680491722E+02  0.80192907656E+02  0.00000000000E+00 0. -1.
          4    1    6    6  502    0 -0.35423041672E+03  0.31190937834E+03  0.32526891228E+03  0.57320721709E+03  0.00000000000E+00 0. -1.
          1    1    5    5  503    0  0.82522902602E+02 -0.92021955088E+02 -0.12117309668E+03  0.17309242916E+03  0.00000000000E+00 0. -1.
         -2    1    5    5    0  503  0.43134756869E+02 -0.13696221539E+03 -0.65829988020E+02  0.15796468915E+03  0.00000000000E+00 0.  1.
         -3    1    6    6    0  502 -0.13745077514E+02  0.42498416666E+02  0.25790996653E+02  0.51577302017E+02  0.00000000000E+00 0.  1.
<mgrwt>
<rscale>  0 0.12922551E+04</rscale>
<asrwt>0</asrwt>
<pdfrwt beam="1">  1        2 0.10024654E+00 0.12922551E+04</pdfrwt>
<pdfrwt beam="2">  1       -2 0.98569019E-01 0.12922551E+04</pdfrwt>
<totfact> 0.37580491E+01</totfact>
</mgrwt>
</event>
<event>
12    1  0.2433511E-007  0.1378877E+04  0.7818608E-02  0.8969252E-01
          2   -1    0    0  501    0  0.00000000000E+00  0.00000000000E+00  0.22560818292E+04  0.22560818292E+04  0.00000000000E+00 0. -1.
         -2   -1    0    0    0  501 -0.00000000000E+00 -0.00000000000E+00 -0.21068618856E+03  0.21068618856E+03  0.00000000000E+00 0.  1.
         23    2    1    2    0    0 -0.55055959703E+02 -0.10041198073E+03  0.12529945050E+04  0.12617744911E+04  0.94688501693E+02 0.  0.
        254    2    1    2    0    0  0.55055959703E+02  0.10041198073E+03  0.79240113564E+03  0.12049935266E+04  0.90055322713E+03 0.  0.
        -24    2    4    4    0    0 -0.41230726241E+03  0.94778384080E+02  0.32741331635E+03  0.54088223934E+03  0.79836685700E+02 0.  0.
         24    2    4    4    0    0  0.46736322211E+03  0.56335966510E+01  0.46498781929E+03  0.66411128730E+03  0.79812348899E+02 0.  0.
         13    1    3    3    0    0 -0.66868940288E+02 -0.30310159723E+02  0.48915871877E+03  0.49463765840E+03  0.00000000000E+00 0.  1.
        -13    1    3    3    0    0  0.11812980585E+02 -0.70101821007E+02  0.76383578624E+03  0.76713683275E+03  0.00000000000E+00 0. -1.
          4    1    6    6  502    0  0.33194384080E+03  0.23104055413E+02  0.37094122375E+03  0.49831506329E+03  0.00000000000E+00 0. -1.
          1    1    5    5  503    0 -0.27065369896E+03  0.94019518010E+02  0.19189860056E+03  0.34484513543E+03  0.00000000000E+00 0. -1.
         -2    1    5    5    0  503 -0.14165356344E+03  0.75886606951E+00  0.13551471579E+03  0.19603710391E+03  0.00000000000E+00 0.  1.
         -3    1    6    6    0  502  0.13541938131E+03 -0.17470458762E+02  0.94046595538E+02  0.16579622401E+03  0.00000000000E+00 0.  1.
<mgrwt>
<rscale>  0 0.13788768E+04</rscale>
<asrwt>0</asrwt>
<pdfrwt beam="1">  1        2 0.34708950E+00 0.13788768E+04</pdfrwt>
<pdfrwt beam="2">  1       -2 0.32413261E-01 0.13788768E+04</pdfrwt>
<totfact> 0.41577063E+01</totfact>
</mgrwt>
</event>
<event>
12    1  0.2433511E-007  0.1585472E+04  0.7818608E-02  0.8829523E-01
         -2   -1    0    0    0  501 -0.00000000000E+00  0.00000000000E+00  0.42189264822E+03  0.42189264822E+03  0.00000000000E+00 0.  1.
          2   -1    0    0  501    0  0.00000000000E+00 -0.00000000000E+00 -0.14895513351E+04  0.14895513351E+04  0.00000000000E+00 0. -1.
         23    2    1    2    0    0 -0.33627959433E+03  0.32913960185E+03 -0.66100547102E+03  0.81738558255E+03  0.98864122769E+02 0.  0.
        254    2    1    2    0    0  0.33627959433E+03 -0.32913960185E+03 -0.40665321582E+03  0.10940584007E+04  0.90010005178E+03 0.  0.
        -24    2    4    4    0    0  0.86450413981E+02 -0.61598740874E+03 -0.24025242898E+03  0.67176636896E+03  0.81453440854E+02 0.  0.
         24    2    4    4    0    0  0.24982918035E+03  0.28684780689E+03 -0.16640078684E+03  0.42229203178E+03  0.77104179994E+02 0.  0.
         11    1    3    3    0    0 -0.24762891226E+03  0.17714868477E+03 -0.43479803021E+03  0.53080228125E+03  0.00000000000E+00 0.  1.
        -11    1    3    3    0    0 -0.88650682068E+02  0.15199091708E+03 -0.22620744081E+03  0.28658330130E+03  0.00000000000E+00 0. -1.
          2    1    6    6  502    0  0.18392718294E+03  0.24064325778E+03 -0.15729829647E+03  0.34129333456E+03  0.00000000000E+00 0. -1.
          1    1    5    5  503    0  0.62392572594E+02 -0.18977843703E+03 -0.62155479314E+02  0.20921757069E+03  0.00000000000E+00 0. -1.
         -4    1    5    5    0  503  0.24057841387E+02 -0.42620897171E+03 -0.17809694966E+03  0.46254879827E+03  0.00000000000E+00 0.  1.
         -1    1    6    6    0  502  0.65901997411E+02  0.46204549104E+02 -0.91024903688E+01  0.80998697222E+02  0.00000000000E+00 0.  1.
<mgrwt>
<rscale>  0 0.15854725E+04</rscale>
<asrwt>0</asrwt>
<pdfrwt beam="1">  1        2 0.22916174E+00 0.15854725E+04</pdfrwt>
<pdfrwt beam="2">  1       -2 0.64906561E-01 0.15854725E+04</pdfrwt>
<totfact> 0.27049399E+01</totfact>
</mgrwt>
</event>
<event>
12    1  0.2433511E-007  0.2409635E+04  0.7818608E-02  0.8435905E-01
          2   -1    0    0  501    0  0.00000000000E+00  0.00000000000E+00  0.13491869804E+04  0.13491869804E+04  0.00000000000E+00 0. -1.
         -2   -1    0    0    0  501 -0.00000000000E+00 -0.00000000000E+00 -0.10758959844E+04  0.10758959844E+04  0.00000000000E+00 0.  1.
         23    2    1    2    0    0  0.23612876665E+03  0.10053704619E+04  0.53832781354E+02  0.10380751252E+04  0.90418122985E+02 0.  0.
        254    2    1    2    0    0 -0.23612876665E+03 -0.10053704619E+04  0.21945821466E+03  0.13870078397E+04  0.89950112790E+03 0.  0.
        -24    2    4    4    0    0 -0.37084279804E+03 -0.17063163303E+03  0.32948868833E+03  0.53055157073E+03  0.79263096188E+02 0.  0.
         24    2    4    4    0    0  0.13471403139E+03 -0.83473882892E+03 -0.11003047367E+03  0.85645626892E+03  0.80460255349E+02 0.  0.
         11    1    3    3    0    0  0.13560265866E+03  0.50082120480E+03  0.68770372866E+02  0.52339213254E+03  0.00000000000E+00 0.  1.
        -11    1    3    3    0    0  0.10052610798E+03  0.50454925714E+03 -0.14937591512E+02  0.51468299263E+03  0.00000000000E+00 0. -1.
          2    1    6    6  502    0  0.44552608416E+02 -0.29751982771E+03 -0.58343625300E+00  0.30083770242E+03  0.00000000000E+00 0. -1.
          1    1    5    5  503    0 -0.20357740145E+03 -0.51928166182E+02  0.15203268077E+03  0.25933420300E+03  0.00000000000E+00 0. -1.
         -2    1    5    5    0  503 -0.16726539659E+03 -0.11870346685E+03  0.17745600756E+03  0.27121736772E+03  0.00000000000E+00 0.  1.
         -1    1    6    6    0  502  0.90161422977E+02 -0.53721900121E+03 -0.10944703742E+03  0.55561856651E+03  0.00000000000E+00 0.  1.
<mgrwt>
<rscale>  0 0.24096347E+04</rscale>
<asrwt>0</asrwt>
<pdfrwt beam="1">  1        2 0.20756723E+00 0.24096347E+04</pdfrwt>
<pdfrwt beam="2">  1       -2 0.16552246E+00 0.24096347E+04</pdfrwt>
<totfact> 0.31923500E+00</totfact>
</mgrwt>
</event>
<event>
12    1  0.2433511E-007  0.2269264E+04  0.7818608E-02  0.8490139E-01
          1   -1    0    0  501    0  0.00000000000E+00  0.00000000000E+00  0.16636854209E+04  0.16636854209E+04  0.00000000000E+00 0. -1.
         -1   -1    0    0    0  501 -0.00000000000E+00 -0.00000000000E+00 -0.77381787812E+03  0.77381787812E+03  0.00000000000E+00 0.  1.
         23    2    1    2    0    0  0.94470387571E+03  0.10791327738E+03  0.25703127518E+03  0.98775260334E+03  0.74023244806E+02 0.  0.
        254    2    1    2    0    0 -0.94470387571E+03 -0.10791327738E+03  0.63283626763E+03  0.14497506957E+04  0.89285197534E+03 0.  0.
        -24    2    4    4    0    0 -0.10619081384E+04 -0.22174796375E+03  0.41083087183E+03  0.11627558613E+04  0.79988336299E+02 0.  0.
         24    2    4    4    0    0  0.11720426267E+03  0.11383468637E+03  0.22200539580E+03  0.28699483441E+03  0.79902842301E+02 0.  0.
         13    1    3    3    0    0  0.27869976037E+03 -0.90908720417E+00  0.66250682321E+02  0.28646733806E+03  0.00000000000E+00 0.  1.
        -13    1    3    3    0    0  0.66600411534E+03  0.10882236458E+03  0.19078059286E+03  0.70128526528E+03  0.00000000000E+00 0. -1.
          2    1    6    6  502    0  0.61299751801E+02  0.13224885588E+02  0.10865107573E+03  0.12544964499E+03  0.00000000000E+00 0. -1.
          1    1    5    5  503    0 -0.13244196638E+03 -0.49327149738E+02  0.71394584278E+02  0.15833896811E+03  0.00000000000E+00 0. -1.
         -2    1    5    5    0  503 -0.92946617200E+03 -0.17242081401E+03  0.33943628756E+03  0.10044168932E+04  0.00000000000E+00 0.  1.
         -1    1    6    6    0  502  0.55904510867E+02  0.10060980078E+03  0.11335432006E+03  0.16154518942E+03  0.00000000000E+00 0.  1.
<mgrwt>
<rscale>  0 0.22692638E+04</rscale>
<asrwt>0</asrwt>
<pdfrwt beam="1">  1        1 0.25595160E+00 0.22692638E+04</pdfrwt>
<pdfrwt beam="2">  1       -1 0.11904890E+00 0.22692638E+04</pdfrwt>
<totfact> 0.28868847E+00</totfact>
</mgrwt>
</event>
<event>
12    1  0.2433511E-007  0.2485280E+04  0.7818608E-02  0.8408248E-01
         -1   -1    0    0    0  501 -0.00000000000E+00  0.00000000000E+00  0.12087380873E+04  0.12087380873E+04  0.00000000000E+00 0.  1.
          1   -1    0    0  501    0  0.00000000000E+00 -0.00000000000E+00 -0.12774931534E+04  0.12774931534E+04  0.00000000000E+00 0. -1.
         23    2    1    2    0    0  0.49742476309E+02  0.86789323910E+03 -0.66539885149E+03  0.11004446639E+04  0.11184738834E+03 0.  0.
        254    2    1    2    0    0 -0.49742476309E+02 -0.86789323910E+03  0.59664378536E+03  0.13857865768E+04  0.89928173643E+03 0.  0.
        -24    2    4    4    0    0 -0.18645071941E+03  0.28421784424E+02  0.40747816166E+03  0.45626838282E+03  0.81059955139E+02 0.  0.
         24    2    4    4    0    0  0.13670824310E+03 -0.89631502352E+03  0.18916562369E+03  0.92951819400E+03  0.78426237157E+02 0.  0.
         11    1    3    3    0    0  0.26795048640E+02  0.22439831182E+03 -0.11607601890E+03  0.25405947954E+03  0.00000000000E+00 0. -1.
        -11    1    3    3    0    0  0.22947427669E+02  0.64349492727E+03 -0.54932283259E+03  0.84638518434E+03  0.00000000000E+00 0.  1.
          4    1    6    6  502    0 -0.37071163000E+01 -0.10288357825E+03  0.37757255445E+02  0.10965575098E+03  0.00000000000E+00 0. -1.
          3    1    5    5  503    0 -0.47260406217E+02 -0.38451594078E+01  0.40156162689E+02  0.62135727634E+02  0.00000000000E+00 0. -1.
         -4    1    5    5    0  503 -0.13919031320E+03  0.32266943831E+02  0.36732199897E+03  0.39413265518E+03  0.00000000000E+00 0.  1.
         -3    1    6    6    0  502  0.14041535940E+03 -0.79343144527E+03  0.15140836825E+03  0.81986244302E+03  0.00000000000E+00 0.  1.
<mgrwt>
<rscale>  0 0.24852804E+04</rscale>
<asrwt>0</asrwt>
<pdfrwt beam="1">  1        1 0.19653741E+00 0.24852804E+04</pdfrwt>
<pdfrwt beam="2">  1       -1 0.18595970E+00 0.24852804E+04</pdfrwt>
<totfact> 0.15758608E+00</totfact>
</mgrwt>
</event>
<event>
12    1  0.2433511E-007  0.1501066E+04  0.7818608E-02  0.8883745E-01
          2   -1    0    0  501    0  0.00000000000E+00  0.00000000000E+00  0.83457980886E+03  0.83457980886E+03  0.00000000000E+00 0. -1.
         -2   -1    0    0    0  501 -0.00000000000E+00 -0.00000000000E+00 -0.67494988801E+03  0.67494988801E+03  0.00000000000E+00 0.  1.
         23    2    1    2    0    0 -0.41221639753E+03  0.16097130915E+03 -0.12545724166E+03  0.46952996518E+03  0.94258940996E+02 0.  0.
        254    2    1    2    0    0  0.41221639753E+03 -0.16097130915E+03  0.28508716251E+03  0.10399997317E+04  0.89693401703E+03 0.  0.
        -24    2    4    4    0    0  0.80475639037E+02  0.52898524652E+02 -0.30266616460E+03  0.32745093360E+03  0.79641222589E+02 0.  0.
         24    2    4    4    0    0  0.33174075850E+03 -0.21386983380E+03  0.58775332711E+03  0.71254879808E+03  0.80495835039E+02 0.  0.
         13    1    3    3    0    0 -0.27600500417E+03  0.13980420013E+03 -0.53335686710E+02  0.31395648135E+03  0.00000000000E+00 0. -1.
        -13    1    3    3    0    0 -0.13621139336E+03  0.21167109019E+02 -0.72121554951E+02  0.15557348384E+03  0.00000000000E+00 0.  1.
          4    1    6    6  502    0  0.33106065679E+03 -0.20282821989E+03  0.58313301775E+03  0.70056017703E+03  0.00000000000E+00 0. -1.
          3    1    5    5  503    0  0.18124353971E+02  0.38059713843E+02 -0.21360605920E+03  0.21772593450E+03  0.00000000000E+00 0. -1.
         -4    1    5    5    0  503  0.62351285065E+02  0.14838810810E+02 -0.89060105400E+02  0.10972499911E+03  0.00000000000E+00 0.  1.
         -3    1    6    6    0  502  0.68010170573E+00 -0.11041613905E+02  0.46203093645E+01  0.11988621046E+02  0.00000000000E+00 0.  1.
<mgrwt>
<rscale>  0 0.15010657E+04</rscale>
<asrwt>0</asrwt>
<pdfrwt beam="1">  1        2 0.12839689E+00 0.15010657E+04</pdfrwt>
<pdfrwt beam="2">  1       -2 0.10383844E+00 0.15010657E+04</pdfrwt>
<totfact> 0.23738857E+01</totfact>
</mgrwt>
</event>
<event>
12    1  0.2433511E-007  0.1969406E+04  0.7818608E-02  0.8621059E-01
          1   -1    0    0  501    0  0.00000000000E+00  0.00000000000E+00  0.57548114461E+03  0.57548114461E+03  0.00000000000E+00 0. -1.
         -1   -1    0    0    0  501 -0.00000000000E+00 -0.00000000000E+00 -0.16849205038E+04  0.16849205038E+04  0.00000000000E+00 0.  1.
         23    2    1    2    0    0 -0.75278869064E+03 -0.18722888524E+03 -0.44365064703E+03  0.89837614758E+03  0.92240651116E+02 0.  0.
        254    2    1    2    0    0  0.75278869064E+03  0.18722888524E+03 -0.66578871218E+03  0.13620255008E+04  0.90005188042E+03 0.  0.
        -24    2    4    4    0    0  0.98739076227E+02  0.27136834429E+03  0.12891985730E+03  0.32611145594E+03  0.79612616025E+02 0.  0.
         24    2    4    4    0    0  0.65404961441E+03 -0.84139459052E+02 -0.79470856948E+03  0.10359140449E+04  0.81828181833E+02 0.  0.
         11    1    3    3    0    0 -0.58038858710E+03 -0.15958163877E+03 -0.30144887370E+03  0.67319286606E+03  0.00000000000E+00 0. -1.
        -11    1    3    3    0    0 -0.17240010354E+03 -0.27647246470E+02 -0.14220177333E+03  0.22518328152E+03  0.00000000000E+00 0.  1.
          4    1    6    6  502    0  0.23419765887E+03 -0.17104404159E+02 -0.22661014400E+03  0.32633305292E+03  0.00000000000E+00 0. -1.
          1    1    5    5  503    0  0.47084275666E+02  0.18789670711E+03  0.11926035332E+03  0.22747556667E+03  0.00000000000E+00 0. -1.
         -2    1    5    5    0  503  0.51654800561E+02  0.83471637185E+02  0.96595039808E+01  0.98635889273E+02  0.00000000000E+00 0.  1.
         -3    1    6    6    0  502  0.41985195554E+03 -0.67035054893E+02 -0.56809842548E+03  0.70958099198E+03  0.00000000000E+00 0.  1.
<mgrwt>
<rscale>  0 0.19694060E+04</rscale>
<asrwt>0</asrwt>
<pdfrwt beam="1">  1        1 0.88535561E-01 0.19694060E+04</pdfrwt>
<pdfrwt beam="2">  1       -1 0.25921854E+00 0.19694060E+04</pdfrwt>
<totfact> 0.20537504E+00</totfact>
</mgrwt>
</event>
<event>
12    1  0.2433511E-007  0.1888286E+04  0.7818608E-02  0.8660709E-01
         -2   -1    0    0    0  501 -0.00000000000E+00  0.00000000000E+00  0.65091631435E+03  0.65091631435E+03  0.00000000000E+00 0.  1.
          2   -1    0    0  501    0  0.00000000000E+00 -0.00000000000E+00 -0.13694630805E+04  0.13694630805E+04  0.00000000000E+00 0. -1.
         23    2    1    2    0    0  0.25723742437E+03 -0.55256858774E+03  0.14254194715E+03  0.63258808853E+03  0.91358340576E+02 0.  0.
        254    2    1    2    0    0 -0.25723742437E+03  0.55256858774E+03 -0.86108871332E+03  0.13877913063E+04  0.90165836163E+03 0.  0.
        -24    2    4    4    0    0 -0.12160604754E+03  0.78924872788E+02 -0.87315870609E+03  0.88838893053E+03  0.76233847647E+02 0.  0.
         24    2    4    4    0    0 -0.13563137682E+03  0.47364371496E+03  0.12069992768E+02  0.49940237581E+03  0.80763909897E+02 0.  0.
         13    1    3    3    0    0  0.16823517998E+03 -0.27080947652E+03  0.48355022952E+02  0.32245783693E+03  0.00000000000E+00 0. -1.
        -13    1    3    3    0    0  0.89002244392E+02 -0.28175911122E+03  0.94186924197E+02  0.31013025159E+03  0.00000000000E+00 0.  1.
          2    1    6    6  502    0 -0.11608492723E+03  0.36883356874E+03  0.41249441218E+02  0.38886427987E+03  0.00000000000E+00 0. -1.
          1    1    5    5  503    0 -0.10520513978E+03  0.60806918241E+02 -0.82952185818E+03  0.83837468708E+03  0.00000000000E+00 0. -1.
         -2    1    5    5    0  503 -0.16400907758E+02  0.18117954547E+02 -0.43636847911E+02  0.50014243450E+02  0.00000000000E+00 0.  1.
         -1    1    6    6    0  502 -0.19546449595E+02  0.10481014622E+03 -0.29179448450E+02  0.11053809594E+03  0.00000000000E+00 0.  1.
<mgrwt>
<rscale>  0 0.18882858E+04</rscale>
<asrwt>0</asrwt>
<pdfrwt beam="1">  1        2 0.21068662E+00 0.18882858E+04</pdfrwt>
<pdfrwt beam="2">  1       -2 0.10014097E+00 0.18882858E+04</pdfrwt>
<totfact> 0.11629814E+01</totfact>
</mgrwt>
</event>
<event>
12    1  0.2433511E-007  0.1846396E+04  0.7818608E-02  0.8682008E-01
         -1   -1    0    0    0  501 -0.00000000000E+00  0.00000000000E+00  0.61945058938E+03  0.61945058938E+03  0.00000000000E+00 0.  1.
          1   -1    0    0  501    0  0.00000000000E+00 -0.00000000000E+00 -0.13758882629E+04  0.13758882629E+04  0.00000000000E+00 0. -1.
         23    2    1    2    0    0  0.78572893231E+02 -0.63894320847E+03  0.10349677359E+02  0.64893115428E+03  0.81132015747E+02 0.  0.
        254    2    1    2    0    0 -0.78572893231E+02  0.63894320847E+03 -0.76678735087E+03  0.13464076980E+04  0.90023814880E+03 0.  0.
        -24    2    4    4    0    0 -0.44374515930E+03  0.13411579614E+03 -0.24659198953E+03  0.53081664728E+03  0.77858143778E+02 0.  0.
         24    2    4    4    0    0  0.36517226607E+03  0.50482741233E+03 -0.52019536133E+03  0.81559105071E+03  0.79900237144E+02 0.  0.
         13    1    3    3    0    0  0.40319166600E+02 -0.10868144635E+03  0.17563856676E+02  0.11724240290E+03  0.00000000000E+00 0.  1.
        -13    1    3    3    0    0  0.38253726632E+02 -0.53026176212E+03 -0.72141793176E+01  0.53168875138E+03  0.00000000000E+00 0. -1.
          4    1    6    6  502    0  0.54032934490E+02  0.11058126072E+03 -0.72871918269E+02  0.14303177865E+03  0.00000000000E+00 0. -1.
          1    1    5    5  503    0 -0.37444275686E+03  0.84888179967E+02 -0.18744717932E+03  0.42725850055E+03  0.00000000000E+00 0. -1.
         -2    1    5    5    0  503 -0.69302402440E+02  0.49227616170E+02 -0.59144810211E+02  0.10355814672E+03  0.00000000000E+00 0.  1.
         -3    1    6    6    0  502  0.31113933158E+03  0.39424615162E+03 -0.44732344307E+03  0.67255927206E+03  0.00000000000E+00 0.  1.
<mgrwt>
<rscale>  0 0.18463963E+04</rscale>
<asrwt>0</asrwt>
<pdfrwt beam="1">  1        1 0.21167511E+00 0.18463963E+04</pdfrwt>
<pdfrwt beam="2">  1       -1 0.95300092E-01 0.18463963E+04</pdfrwt>
<totfact> 0.79835817E+00</totfact>
</mgrwt>
</event>
<event>
12    1  0.2433511E-007  0.1849387E+04  0.7818608E-02  0.8680468E-01
          2   -1    0    0  501    0  0.00000000000E+00  0.00000000000E+00  0.17432034466E+04  0.17432034466E+04  0.00000000000E+00 0. -1.
         -2   -1    0    0    0  501 -0.00000000000E+00 -0.00000000000E+00 -0.49050972633E+03  0.49050972633E+03  0.00000000000E+00 0.  1.
         23    2    1    2    0    0 -0.23138720450E+03 -0.64633309041E+02  0.12690816697E+04  0.12949616931E+04  0.92951595771E+02 0.  0.
        254    2    1    2    0    0  0.23138720450E+03  0.64633309041E+02 -0.16387949404E+02  0.93875147988E+03  0.90734132114E+03 0.  0.
        -24    2    4    4    0    0 -0.21103673901E+03  0.27764647041E+02  0.30800347114E+03  0.38275498293E+03  0.79547833918E+02 0.  0.
         24    2    4    4    0    0  0.44242394351E+03  0.36868662000E+02 -0.32439142055E+03  0.55599649695E+03  0.82486767825E+02 0.  0.
         13    1    3    3    0    0 -0.16232918849E+03 -0.86736119926E+02  0.96062289567E+03  0.97809522420E+03  0.00000000000E+00 0. -1.
        -13    1    3    3    0    0 -0.69058016012E+02  0.22102810885E+02  0.30845877400E+03  0.31686646885E+03  0.00000000000E+00 0.  1.
          2    1    6    6  502    0  0.43615963419E+02 -0.13877400141E+02 -0.57299975570E+02  0.73336360014E+02  0.00000000000E+00 0. -1.
          1    1    5    5  503    0 -0.22314507470E+02  0.13755033514E+02  0.91606703428E+02  0.95283399937E+02  0.00000000000E+00 0. -1.
         -2    1    5    5    0  503 -0.18872223154E+03  0.14009613527E+02  0.21639676772E+03  0.28747158299E+03  0.00000000000E+00 0.  1.
         -1    1    6    6    0  502  0.39880798009E+03  0.50746062141E+02 -0.26709144498E+03  0.48266013693E+03  0.00000000000E+00 0.  1.
<mgrwt>
<rscale>  0 0.18493872E+04</rscale>
<asrwt>0</asrwt>
<pdfrwt beam="1">  1        2 0.26818514E+00 0.18493872E+04</pdfrwt>
<pdfrwt beam="2">  1       -2 0.75463036E-01 0.18493872E+04</pdfrwt>
<totfact> 0.13742461E+01</totfact>
</mgrwt>
</event>
<event>
12    1  0.2433511E-007  0.1302026E+04  0.7818608E-02  0.9027960E-01
         -1   -1    0    0    0  501 -0.00000000000E+00  0.00000000000E+00  0.72832831919E+03  0.72832831919E+03  0.00000000000E+00 0.  1.
          1   -1    0    0  501    0  0.00000000000E+00 -0.00000000000E+00 -0.58190543569E+03  0.58190543569E+03  0.00000000000E+00 0. -1.
         23    2    1    2    0    0 -0.18683340503E+03 -0.13600965035E+03 -0.19615894531E+03  0.32010693124E+03  0.10288230839E+03 0.  0.
        254    2    1    2    0    0  0.18683340503E+03  0.13600965035E+03  0.34258182881E+03  0.99012682365E+03  0.89976856538E+03 0.  0.
        -24    2    4    4    0    0 -0.66334327593E+02 -0.34709850463E+03  0.48098865369E+02  0.36515531889E+03  0.78404662699E+02 0.  0.
         24    2    4    4    0    0  0.25316773262E+03  0.48310815498E+03  0.29448296344E+03  0.62497150475E+03  0.79886017214E+02 0.  0.
         13    1    3    3    0    0 -0.13129762942E+03 -0.14462664378E+03 -0.13754343790E+03  0.23890192734E+03  0.00000000000E+00 0. -1.
        -13    1    3    3    0    0 -0.55535775612E+02  0.86169934220E+01 -0.58615507414E+02  0.81205003897E+02  0.00000000000E+00 0.  1.
          4    1    6    6  502    0  0.37359286945E+02  0.13614113953E+03  0.95889089865E+02  0.17066002387E+03  0.00000000000E+00 0. -1.
          1    1    5    5  503    0 -0.66233163989E+02 -0.17857957665E+03  0.21272971859E+01  0.19047840455E+03  0.00000000000E+00 0. -1.
         -2    1    5    5    0  503 -0.10116360365E+00 -0.16851892798E+03  0.45971568183E+02  0.17467691434E+03  0.00000000000E+00 0.  1.
         -3    1    6    6    0  502  0.21580844568E+03  0.34696701545E+03  0.19859387357E+03  0.45431148088E+03  0.00000000000E+00 0.  1.
<mgrwt>
<rscale>  0 0.13020264E+04</rscale>
<asrwt>0</asrwt>
<pdfrwt beam="1">  1        1 0.89523913E-01 0.13020264E+04</pdfrwt>
<pdfrwt beam="2">  1       -1 0.11205051E+00 0.13020264E+04</pdfrwt>
<totfact> 0.25696564E+01</totfact>
</mgrwt>
</event>
<event>
12    1  0.2433511E-007  0.1358965E+04  0.7818608E-02  0.8984069E-01
          1   -1    0    0  501    0  0.00000000000E+00  0.00000000000E+00  0.19311288658E+04  0.19311288658E+04  0.00000000000E+00 0. -1.
         -1   -1    0    0    0  501 -0.00000000000E+00 -0.00000000000E+00 -0.23908113903E+03  0.23908113903E+03  0.00000000000E+00 0.  1.
         23    2    1    2    0    0  0.33290093003E+03 -0.38518485130E+01  0.20994306952E+03  0.40409806404E+03  0.91549369027E+02 0.  0.
        254    2    1    2    0    0 -0.33290093003E+03  0.38518485130E+01  0.14821046573E+04  0.17661119408E+04  0.90093246497E+03 0.  0.
        -24    2    4    4    0    0  0.25200653724E+03 -0.17508597662E+02  0.13693197659E+03  0.29693489511E+03  0.74874026970E+02 0.  0.
         24    2    4    4    0    0 -0.58490746727E+03  0.21360446175E+02  0.13451726807E+04  0.14691770457E+04  0.80116395640E+02 0.  0.
         11    1    3    3    0    0  0.13304007634E+03  0.14733892100E+02  0.36296897842E+02  0.13868746981E+03  0.00000000000E+00 0.  1.
        -11    1    3    3    0    0  0.19986085369E+03 -0.18585740613E+02  0.17364617168E+03  0.26541059423E+03  0.00000000000E+00 0. -1.
          2    1    6    6  502    0 -0.23203243530E+02  0.17300749091E+02  0.60472057025E+02  0.67041599848E+02  0.00000000000E+00 0. -1.
          1    1    5    5  503    0 -0.29811405421E+00 -0.50154627942E+01  0.16184047302E+02  0.16946006199E+02  0.00000000000E+00 0. -1.
         -2    1    5    5    0  503  0.25230465130E+03 -0.12493134868E+02  0.12074792929E+03  0.27998888891E+03  0.00000000000E+00 0.  1.
         -1    1    6    6    0  502 -0.56170422374E+03  0.40596970836E+01  0.12847006237E+04  0.14021354459E+04  0.00000000000E+00 0.  1.
<mgrwt>
<rscale>  0 0.13589650E+04</rscale>
<asrwt>0</asrwt>
<pdfrwt beam="1">  1        1 0.29709674E+00 0.13589650E+04</pdfrwt>
<pdfrwt beam="2">  1       -1 0.36781715E-01 0.13589650E+04</pdfrwt>
<totfact> 0.23052255E+01</totfact>
</mgrwt>
</event>
<event>
12    1  0.2433511E-007  0.1449089E+04  0.7818608E-02  0.8919032E-01
          2   -1    0    0  501    0  0.00000000000E+00  0.00000000000E+00  0.39471860983E+04  0.39471860983E+04  0.00000000000E+00 0. -1.
         -2   -1    0    0    0  501 -0.00000000000E+00 -0.00000000000E+00 -0.13299718687E+03  0.13299718687E+03  0.00000000000E+00 0.  1.
         23    2    1    2    0    0 -0.13763584054E+03  0.29271135077E+03  0.20320694146E+04  0.20597281445E+04  0.92468177709E+02 0.  0.
        254    2    1    2    0    0  0.13763584054E+03 -0.29271135077E+03  0.17821194969E+04  0.20204551407E+04  0.89535775819E+03 0.  0.
        -24    2    4    4    0    0 -0.13310865683E+03 -0.23814331167E+03  0.16971961254E+04  0.17208182936E+04  0.79440291770E+02 0.  0.
         24    2    4    4    0    0  0.27074449737E+03 -0.54568039102E+02  0.84923371452E+02  0.29963684717E+03  0.79309566975E+02 0.  0.
         13    1    3    3    0    0 -0.59459991877E+01 -0.67390731571E+01  0.70127385452E+02  0.70700920812E+02  0.00000000000E+00 0.  1.
        -13    1    3    3    0    0 -0.13168984135E+03  0.29945042392E+03  0.19619420291E+04  0.19890272237E+04  0.00000000000E+00 0. -1.
          2    1    6    6  502    0 -0.17395419428E+01  0.68726719382E+01 -0.15023454474E+01  0.72468384544E+01  0.00000000000E+00 0. -1.
          1    1    5    5  503    0  0.30366784526E+01 -0.54564336188E+02  0.27546382915E+03  0.28083235101E+03  0.00000000000E+00 0. -1.
         -4    1    5    5    0  503 -0.13614533528E+03 -0.18357897548E+03  0.14217322963E+04  0.14399859426E+04  0.00000000000E+00 0.  1.
         -1    1    6    6    0  502  0.27248403931E+03 -0.61440711040E+02  0.86425716899E+02  0.29239000871E+03  0.00000000000E+00 0.  1.
<mgrwt>
<rscale>  0 0.14490889E+04</rscale>
<asrwt>0</asrwt>
<pdfrwt beam="1">  1        2 0.60725931E+00 0.14490889E+04</pdfrwt>
<pdfrwt beam="2">  1       -2 0.20461109E-01 0.14490889E+04</pdfrwt>
<totfact> 0.77004188E+00</totfact>
</mgrwt>
</event>
<event>
12    1  0.2433511E-007  0.1445090E+04  0.7818608E-02  0.8921812E-01
         -2   -1    0    0    0  501 -0.00000000000E+00  0.00000000000E+00  0.20766480280E+03  0.20766480280E+03  0.00000000000E+00 0. -1.
          2   -1    0    0  501    0  0.00000000000E+00 -0.00000000000E+00 -0.25140081692E+04  0.25140081692E+04  0.00000000000E+00 0.  1.
         23    2    1    2    0    0  0.33203439635E+03  0.10053149433E+03 -0.12114302762E+04  0.12634478615E+04  0.91562889946E+02 0.  0.
        254    2    1    2    0    0 -0.33203439635E+03 -0.10053149433E+03 -0.10949130902E+04  0.14582251105E+04  0.89846111558E+03 0.  0.
        -24    2    4    4    0    0 -0.12171592128E+03  0.24856275917E+03 -0.98822875273E+03  0.10293243726E+04  0.79463108491E+02 0.  0.
         24    2    4    4    0    0 -0.21031847507E+03 -0.34909425349E+03 -0.10668433744E+03  0.42890073789E+03  0.80458910837E+02 0.  0.
         11    1    3    3    0    0  0.87593339995E+02  0.50269836612E+01 -0.43815237604E+03  0.44685049895E+03  0.00000000000E+00 0.  1.
        -11    1    3    3    0    0  0.24444105636E+03  0.95504510666E+02 -0.77327790020E+03  0.81659736256E+03  0.00000000000E+00 0. -1.
          4    1    6    6  502    0 -0.49578784833E+02 -0.53828615138E+02  0.81770017336E+01  0.73637212539E+02  0.00000000000E+00 0. -1.
          3    1    5    5  503    0 -0.87064778724E+02  0.91488785084E+02 -0.39693007803E+03  0.41653806589E+03  0.00000000000E+00 0. -1.
         -4    1    5    5    0  503 -0.34651142554E+02  0.15707397408E+03 -0.59129867470E+03  0.61278630673E+03  0.00000000000E+00 0.  1.
         -3    1    6    6    0  502 -0.16073969024E+03 -0.29526563836E+03 -0.11486133917E+03  0.35526352536E+03  0.00000000000E+00 0.  1.
<mgrwt>
<rscale>  0 0.14450896E+04</rscale>
<asrwt>0</asrwt>
<pdfrwt beam="1">  1        2 0.38677050E+00 0.14450896E+04</pdfrwt>
<pdfrwt beam="2">  1       -2 0.31948430E-01 0.14450896E+04</pdfrwt>
<totfact> 0.30302419E+01</totfact>
</mgrwt>
</event>
<event>
12    1  0.2433511E-007  0.1586542E+04  0.7818608E-02  0.8828859E-01
          1   -1    0    0  501    0  0.00000000000E+00  0.00000000000E+00  0.58626893174E+03  0.58626893174E+03  0.00000000000E+00 0. -1.
         -1   -1    0    0    0  501 -0.00000000000E+00 -0.00000000000E+00 -0.10733618514E+04  0.10733618514E+04  0.00000000000E+00 0.  1.
         23    2    1    2    0    0  0.53150033812E+03 -0.43856504181E+02 -0.17248705779E+03  0.56760940716E+03  0.89513415841E+02 0.  0.
        254    2    1    2    0    0 -0.53150033812E+03  0.43856504181E+02 -0.31460586192E+03  0.10920213760E+04  0.89950977479E+03 0.  0.
        -24    2    4    4    0    0 -0.34862742472E+03  0.45803845815E+03 -0.12986056539E+03  0.59619394991E+03  0.85106692212E+02 0.  0.
         24    2    4    4    0    0 -0.18287291340E+03 -0.41418195397E+03 -0.18474529652E+03  0.49582742610E+03  0.82004990346E+02 0.  0.
         11    1    3    3    0    0  0.75465483677E+02  0.25074814982E+02 -0.23274825339E+02  0.82858331310E+02  0.00000000000E+00 0. -1.
        -11    1    3    3    0    0  0.45603485444E+03 -0.68931319163E+02 -0.14921223245E+03  0.48475107585E+03  0.00000000000E+00 0.  1.
          4    1    6    6  502    0 -0.70960101855E+02 -0.94583032507E+02 -0.74281849260E+02  0.13963910349E+03  0.00000000000E+00 0. -1.
          1    1    5    5  503    0 -0.40275847182E+02  0.72311359048E+02  0.88809111211E+01  0.83246303798E+02  0.00000000000E+00 0. -1.
         -2    1    5    5    0  503 -0.30835157754E+03  0.38572709910E+03 -0.13874147651E+03  0.51294764611E+03  0.00000000000E+00 0.  1.
         -1    1    6    6    0  502 -0.11191281154E+03 -0.31959892146E+03 -0.11046344726E+03  0.35618832261E+03  0.00000000000E+00 0.  1.
<mgrwt>
<rscale>  0 0.15865418E+04</rscale>
<asrwt>0</asrwt>
<pdfrwt beam="1">  1        1 0.90195221E-01 0.15865418E+04</pdfrwt>
<pdfrwt beam="2">  1       -1 0.16513259E+00 0.15865418E+04</pdfrwt>
<totfact> 0.90948464E+00</totfact>
</mgrwt>
</event>
<event>
12    1  0.2433511E-007  0.2630095E+04  0.7818608E-02  0.8358050E-01
         -2   -1    0    0    0  501 -0.00000000000E+00  0.00000000000E+00  0.11220647391E+04  0.11220647391E+04  0.00000000000E+00 0. -1.
          2   -1    0    0  501    0  0.00000000000E+00 -0.00000000000E+00 -0.15412210724E+04  0.15412210724E+04  0.00000000000E+00 0.  1.
         23    2    1    2    0    0 -0.72258867718E+03 -0.38621586257E+03  0.64485855758E+03  0.10467296543E+04  0.92213453739E+02 0.  0.
        254    2    1    2    0    0  0.72258867718E+03  0.38621586257E+03 -0.10640148909E+04  0.16165561572E+04  0.89990501310E+03 0.  0.
        -24    2    4    4    0    0  0.10948933714E+02 -0.12734877134E+03  0.79771818211E+02  0.17263181515E+03  0.84265128677E+02 0.  0.
         24    2    4    4    0    0  0.71163974347E+03  0.51356463391E+03 -0.11437867091E+04  0.14439243421E+04  0.80558749305E+02 0.  0.
         11    1    3    3    0    0 -0.39604057988E+03 -0.22166200039E+03  0.29959247623E+03  0.54381783268E+03  0.00000000000E+00 0.  1.
        -11    1    3    3    0    0 -0.32654809730E+03 -0.16455386218E+03  0.34526608135E+03  0.50291182164E+03  0.00000000000E+00 0. -1.
          4    1    6    6  502    0  0.71376612199E+03  0.51166512591E+03 -0.11379271909E+04  0.14374079344E+04  0.00000000000E+00 0. -1.
          1    1    5    5  503    0  0.38741916807E+02 -0.11685218885E+03  0.68303036859E+02  0.14078591905E+03  0.00000000000E+00 0. -1.
         -2    1    5    5    0  503 -0.27792983093E+02 -0.10496582488E+02  0.11468781352E+02  0.31845896106E+02  0.00000000000E+00 0.  1.
         -3    1    6    6    0  502 -0.21263785245E+01  0.18995079950E+01 -0.58595181375E+01  0.65164076804E+01  0.00000000000E+00 0.  1.
<mgrwt>
<rscale>  0 0.26300949E+04</rscale>
<asrwt>0</asrwt>
<pdfrwt beam="1">  1        2 0.23711093E+00 0.26300949E+04</pdfrwt>
<pdfrwt beam="2">  1       -2 0.17262534E+00 0.26300949E+04</pdfrwt>
<totfact> 0.21682218E+00</totfact>
</mgrwt>
</event>
<event>
12    1  0.2433511E-007  0.2305647E+04  0.7818608E-02  0.8475698E-01
         -2   -1    0    0    0  501 -0.00000000000E+00  0.00000000000E+00  0.83110597340E+03  0.83110597340E+03  0.00000000000E+00 0.  1.
          2   -1    0    0  501    0  0.00000000000E+00 -0.00000000000E+00 -0.15990763425E+04  0.15990763425E+04  0.00000000000E+00 0. -1.
         23    2    1    2    0    0  0.88476056769E+03 -0.35734489666E+03 -0.11563705593E+03  0.96534951117E+03  0.89616475632E+02 0.  0.
        254    2    1    2    0    0 -0.88476056769E+03  0.35734489666E+03 -0.65233331320E+03  0.14648328048E+04  0.89983318291E+03 0.  0.
        -24    2    4    4    0    0 -0.37789640502E+03  0.61588030590E+03 -0.27480851076E+03  0.77725475356E+03  0.80566681845E+02 0.  0.
         24    2    4    4    0    0 -0.50686416267E+03 -0.25853540924E+03 -0.37752480244E+03  0.68757805120E+03  0.80540442028E+02 0.  0.
         11    1    3    3    0    0  0.55926639848E+03 -0.26620836608E+03 -0.95792851909E+02  0.62675519074E+03  0.00000000000E+00 0. -1.
        -11    1    3    3    0    0  0.32549416921E+03 -0.91136530574E+02 -0.19844204025E+02  0.33859432043E+03  0.00000000000E+00 0.  1.
          2    1    6    6  502    0 -0.38584526969E+03 -0.19266477543E+03 -0.24303779156E+03  0.49503904488E+03  0.00000000000E+00 0. -1.
          1    1    5    5  503    0 -0.20370951862E+03  0.40634028879E+03 -0.17484643840E+03  0.48701260281E+03  0.00000000000E+00 0. -1.
         -2    1    5    5    0  503 -0.17418688640E+03  0.20954001711E+03 -0.99962072357E+02  0.29024215075E+03  0.00000000000E+00 0.  1.
         -1    1    6    6    0  502 -0.12101889298E+03 -0.65870633810E+02 -0.13448701089E+03  0.19253900632E+03  0.00000000000E+00 0.  1.
<mgrwt>
<rscale>  0 0.23056469E+04</rscale>
<asrwt>0</asrwt>
<pdfrwt beam="1">  1        2 0.24601175E+00 0.23056469E+04</pdfrwt>
<pdfrwt beam="2">  1       -2 0.12786246E+00 0.23056469E+04</pdfrwt>
<totfact> 0.45831390E+00</totfact>
</mgrwt>
</event>
<event>
12    1  0.2433511E-007  0.1993710E+04  0.7818608E-02  0.8609567E-01
         -1   -1    0    0    0  501 -0.00000000000E+00  0.00000000000E+00  0.11361558338E+04  0.11361558338E+04  0.00000000000E+00 0.  1.
          1   -1    0    0  501    0  0.00000000000E+00 -0.00000000000E+00 -0.87463304035E+03  0.87463304035E+03  0.00000000000E+00 0. -1.
         23    2    1    2    0    0  0.47496731802E+03 -0.62980467228E+03  0.16464676790E+03  0.81094806507E+03  0.90996305625E+02 0.  0.
        254    2    1    2    0    0 -0.47496731802E+03  0.62980467228E+03  0.96876025557E+02  0.11998408091E+04  0.89887992769E+03 0.  0.
        -24    2    4    4    0    0 -0.22763936132E+03  0.71392704028E+03  0.34646272468E+03  0.82972605592E+03  0.83050650905E+02 0.  0.
         24    2    4    4    0    0 -0.24732795671E+03 -0.84122367996E+02 -0.24958669912E+03  0.37011475317E+03  0.80272779745E+02 0.  0.
         13    1    3    3    0    0  0.16958902358E+03 -0.28124776854E+03  0.98276371680E+02  0.34281042787E+03  0.00000000000E+00 0.  1.
        -13    1    3    3    0    0  0.30537829444E+03 -0.34855690374E+03  0.66370396217E+02  0.46813763719E+03  0.00000000000E+00 0. -1.
          4    1    6    6  502    0 -0.12898263766E+03 -0.42767772808E+02 -0.75091391481E+02  0.15525566104E+03  0.00000000000E+00 0. -1.
          3    1    5    5  503    0 -0.97114001895E+01  0.41793029145E+02  0.30294933938E+00  0.42907579250E+02  0.00000000000E+00 0. -1.
         -4    1    5    5    0  503 -0.21792796113E+03  0.67213401113E+03  0.34615977534E+03  0.78681847667E+03  0.00000000000E+00 0.  1.
         -3    1    6    6    0  502 -0.11834531905E+03 -0.41354595188E+02 -0.17449530764E+03  0.21485909213E+03  0.00000000000E+00 0.  1.
<mgrwt>
<rscale>  0 0.19937095E+04</rscale>
<asrwt>0</asrwt>
<pdfrwt beam="1">  1        1 0.13455893E+00 0.19937095E+04</pdfrwt>
<pdfrwt beam="2">  1       -1 0.17479320E+00 0.19937095E+04</pdfrwt>
<totfact> 0.40230518E+00</totfact>
</mgrwt>
</event>
<event>
12    1  0.2433511E-007  0.2917047E+04  0.7818608E-02  0.8267824E-01
         -1   -1    0    0    0  501 -0.00000000000E+00  0.00000000000E+00  0.11976658857E+04  0.11976658857E+04  0.00000000000E+00 0.  1.
          1   -1    0    0  501    0  0.00000000000E+00 -0.00000000000E+00 -0.17761970966E+04  0.17761970966E+04  0.00000000000E+00 0. -1.
         23    2    1    2    0    0  0.11926154744E+04 -0.34275457431E+03 -0.71875723082E+03  0.14368866684E+04  0.90658552414E+02 0.  0.
        254    2    1    2    0    0 -0.11926154744E+04  0.34275457431E+03  0.14022601998E+03  0.15369763139E+04  0.89600250270E+03 0.  0.
        -24    2    4    4    0    0 -0.45080215516E+03  0.61168596797E+02 -0.36874004444E+03  0.59110412462E+03  0.80440570792E+02 0.  0.
         24    2    4    4    0    0 -0.74181331921E+03  0.28158597751E+03  0.50896606443E+03  0.94587218927E+03  0.77782262809E+02 0.  0.
         11    1    3    3    0    0  0.10782077567E+04 -0.32072890580E+03 -0.67816461143E+03  0.13135091312E+04  0.00000000000E+00 0. -1.
        -11    1    3    3    0    0  0.11440771768E+03 -0.22025668511E+02 -0.40592619391E+02  0.12337753721E+03  0.00000000000E+00 0.  1.
          4    1    6    6  502    0 -0.80501255739E+02  0.10780590531E+02  0.35465730073E+02  0.88625568079E+02  0.00000000000E+00 0. -1.
          3    1    5    5  503    0 -0.25789878305E+02 -0.16407420293E+00 -0.11047123155E+01  0.25814049133E+02  0.00000000000E+00 0. -1.
         -4    1    5    5    0  503 -0.42501227686E+03  0.61332671000E+02 -0.36763533213E+03  0.56529007548E+03  0.00000000000E+00 0.  1.
         -3    1    6    6    0  502 -0.66131206347E+03  0.27080538698E+03  0.47350033435E+03  0.85724662119E+03  0.00000000000E+00 0.  1.
<mgrwt>
<rscale>  0 0.29170469E+04</rscale>
<asrwt>0</asrwt>
<pdfrwt beam="1">  1        1 0.27326109E+00 0.29170469E+04</pdfrwt>
<pdfrwt beam="2">  1       -1 0.18425629E+00 0.29170469E+04</pdfrwt>
<totfact> 0.70326303E-01</totfact>
</mgrwt>
</event>
<event>
12    1  0.2433511E-007  0.3229906E+04  0.7818608E-02  0.8180964E-01
         -2   -1    0    0    0  501 -0.00000000000E+00  0.00000000000E+00  0.79959732022E+03  0.79959732022E+03  0.00000000000E+00 0. -1.
          2   -1    0    0  501    0  0.00000000000E+00 -0.00000000000E+00 -0.32617323813E+04  0.32617323813E+04  0.00000000000E+00 0.  1.
         23    2    1    2    0    0 -0.10252756155E+04 -0.77232455032E+03 -0.19035803024E+03  0.13008572701E+04  0.91203939333E+02 0.  0.
        254    2    1    2    0    0  0.10252756155E+04  0.77232455032E+03 -0.22717770308E+04  0.27604724314E+04  0.90086728663E+03 0.  0.
        -24    2    4    4    0    0  0.84249807595E+03  0.94617298869E+03 -0.20679984768E+04  0.24262382629E+04  0.70484576543E+02 0.  0.
         24    2    4    4    0    0  0.18277753958E+03 -0.17384843837E+03 -0.20377855399E+03  0.33423416857E+03  0.80968338688E+02 0.  0.
         11    1    3    3    0    0 -0.56762824542E+03 -0.38819254256E+03 -0.68630593525E+02  0.69109003282E+03  0.00000000000E+00 0. -1.
        -11    1    3    3    0    0 -0.45764737012E+03 -0.38413200776E+03 -0.12172743671E+03  0.60976723724E+03  0.00000000000E+00 0.  1.
          2    1    6    6  502    0 -0.62887892376E+01 -0.37797123059E+01  0.14138505651E+01  0.74722197914E+01  0.00000000000E+00 0. -1.
          1    1    5    5  503    0  0.24570664281E+03  0.27630639324E+03 -0.54359480764E+03  0.65742854529E+03  0.00000000000E+00 0. -1.
         -2    1    5    5    0  503  0.59679143315E+03  0.66986659545E+03 -0.15244036692E+04  0.17688097176E+04  0.00000000000E+00 0.  1.
         -1    1    6    6    0  502  0.18906632882E+03 -0.17006872607E+03 -0.20519240456E+03  0.32676194878E+03  0.00000000000E+00 0.  1.
<mgrwt>
<rscale>  0 0.32299056E+04</rscale>
<asrwt>0</asrwt>
<pdfrwt beam="1">  1        2 0.50180498E+00 0.32299056E+04</pdfrwt>
<pdfrwt beam="2">  1       -2 0.12301497E+00 0.32299056E+04</pdfrwt>
<totfact> 0.49464402E-01</totfact>
</mgrwt>
</event>
<event>
12    1  0.2433511E-007  0.2192581E+04  0.7818608E-02  0.8521522E-01
         -1   -1    0    0    0  501 -0.00000000000E+00  0.00000000000E+00  0.86714812902E+03  0.86714812902E+03  0.00000000000E+00 0.  1.
          1   -1    0    0  501    0  0.00000000000E+00 -0.00000000000E+00 -0.13859839230E+04  0.13859839230E+04  0.00000000000E+00 0. -1.
         23    2    1    2    0    0  0.84555997014E+03  0.32921549643E+03 -0.16116753334E+03  0.92587168270E+03  0.88931956202E+02 0.  0.
        254    2    1    2    0    0 -0.84555997014E+03 -0.32921549643E+03 -0.35766826060E+03  0.13272603693E+04  0.90018831197E+03 0.  0.
        -24    2    4    4    0    0 -0.94153031376E+03 -0.46060892456E+03 -0.42480147634E+03  0.11337585339E+04  0.79449391021E+02 0.  0.
         24    2    4    4    0    0  0.95970343622E+02  0.13139342813E+03  0.67133215735E+02  0.19350183539E+03  0.80383778433E+02 0.  0.
         11    1    3    3    0    0  0.40919330278E+03  0.15446100726E+03 -0.12260039285E+03  0.45423366028E+03  0.00000000000E+00 0. -1.
        -11    1    3    3    0    0  0.43636666736E+03  0.17475448917E+03 -0.38567140481E+02  0.47163802242E+03  0.00000000000E+00 0.  1.
          4    1    6    6  502    0 -0.30021891835E+01  0.12926529853E+02 -0.13848360968E+02  0.19180339294E+02  0.00000000000E+00 0. -1.
          3    1    5    5  503    0 -0.88140132553E+02 -0.35335536615E+02 -0.15844742149E+02  0.96272212855E+02  0.00000000000E+00 0. -1.
         -4    1    5    5    0  503 -0.85339018121E+03 -0.42527338794E+03 -0.40895673419E+03  0.10374863210E+04  0.00000000000E+00 0.  1.
         -3    1    6    6    0  502  0.98972532805E+02  0.11846689828E+03  0.80981576703E+02  0.17432149610E+03  0.00000000000E+00 0.  1.
<mgrwt>
<rscale>  0 0.21925815E+04</rscale>
<asrwt>0</asrwt>
<pdfrwt beam="1">  1        1 0.21322830E+00 0.21925815E+04</pdfrwt>
<pdfrwt beam="2">  1       -1 0.13340740E+00 0.21925815E+04</pdfrwt>
<totfact> 0.34050097E+00</totfact>
</mgrwt>
</event>
<event>
12    1  0.2433511E-007  0.1820006E+04  0.7818608E-02  0.8695732E-01
          2   -1    0    0  501    0  0.00000000000E+00  0.00000000000E+00  0.14580001473E+04  0.14580001473E+04  0.00000000000E+00 0. -1.
         -2   -1    0    0    0  501 -0.00000000000E+00 -0.00000000000E+00 -0.56797328888E+03  0.56797328888E+03  0.00000000000E+00 0.  1.
         23    2    1    2    0    0  0.37307814626E+03 -0.50204391587E+03  0.64386986293E+03  0.90229076108E+03  0.91240454065E+02 0.  0.
        254    2    1    2    0    0 -0.37307814626E+03  0.50204391587E+03  0.24615699548E+03  0.11236826751E+04  0.90046326476E+03 0.  0.
        -24    2    4    4    0    0 -0.32836552771E+03  0.63064416045E+03 -0.11976913713E+03  0.72544919940E+03  0.79974482222E+02 0.  0.
         24    2    4    4    0    0 -0.44712618554E+02 -0.12860024458E+03  0.36592613261E+03  0.39823347569E+03  0.78426560983E+02 0.  0.
         11    1    3    3    0    0  0.65941100376E+02 -0.40763160081E+02  0.68703071125E+02  0.10358559707E+03  0.00000000000E+00 0.  1.
        -11    1    3    3    0    0  0.30713704589E+03 -0.46128075579E+03  0.57516679180E+03  0.79870516401E+03  0.00000000000E+00 0. -1.
          2    1    6    6  502    0 -0.14990277854E+02 -0.78309228309E+02  0.29876542251E+03  0.30922131452E+03  0.00000000000E+00 0. -1.
          3    1    5    5  503    0 -0.92125656838E+02  0.16754808581E+03 -0.68288915817E+02  0.20303416887E+03  0.00000000000E+00 0. -1.
         -4    1    5    5    0  503 -0.23623987087E+03  0.46309607464E+03 -0.51480221313E+02  0.52241503053E+03  0.00000000000E+00 0.  1.
         -1    1    6    6    0  502 -0.29722340700E+02 -0.50291016266E+02  0.67160710105E+02  0.89012161167E+02  0.00000000000E+00 0.  1.
<mgrwt>
<rscale>  0 0.18200056E+04</rscale>
<asrwt>0</asrwt>
<pdfrwt beam="1">  1        2 0.22430771E+00 0.18200056E+04</pdfrwt>
<pdfrwt beam="2">  1       -2 0.87380507E-01 0.18200056E+04</pdfrwt>
<totfact> 0.14297152E+01</totfact>
</mgrwt>
</event>
<event>
12    1  0.2433511E-007  0.1126589E+04  0.7818608E-02  0.9179657E-01
          2   -1    0    0  501    0  0.00000000000E+00  0.00000000000E+00  0.88710801899E+03  0.88710801899E+03  0.00000000000E+00 0. -1.
         -2   -1    0    0    0  501 -0.00000000000E+00 -0.00000000000E+00 -0.35768004912E+03  0.35768004912E+03  0.00000000000E+00 0.  1.
         23    2    1    2    0    0 -0.14840774610E+03  0.10506139554E+03  0.14548687115E+03  0.25044589119E+03  0.92162675743E+02 0.  0.
        254    2    1    2    0    0  0.14840774610E+03 -0.10506139554E+03  0.38394109872E+03  0.99434217692E+03  0.89902327088E+03 0.  0.
        -24    2    4    4    0    0 -0.22336394038E+03 -0.10602920756E+03  0.52776709408E+03  0.58831425668E+03  0.80261549286E+02 0.  0.
         24    2    4    4    0    0  0.37177168649E+03  0.96781201488E+00 -0.14382599536E+03  0.40602792025E+03  0.77185695198E+02 0.  0.
         11    1    3    3    0    0 -0.12041900556E+03  0.10779982058E+03  0.15168052029E+03  0.22164953971E+03  0.00000000000E+00 0. -1.
        -11    1    3    3    0    0 -0.27988740549E+02 -0.27384250367E+01 -0.61936491399E+01  0.28796351486E+02  0.00000000000E+00 0.  1.
          2    1    6    6  502    0  0.36576128374E+03 -0.69886706424E+01 -0.12849317089E+03  0.38773786656E+03  0.00000000000E+00 0. -1.
          1    1    5    5  503    0 -0.12557033729E+03 -0.16233602222E+02  0.23816315600E+03  0.26972787829E+03  0.00000000000E+00 0. -1.
         -4    1    5    5    0  503 -0.97793603091E+02 -0.89795605337E+02  0.28960393808E+03  0.31858637839E+03  0.00000000000E+00 0.  1.
         -1    1    6    6    0  502  0.60104027459E+01  0.79564826573E+01 -0.15332824470E+02  0.18290053682E+02  0.00000000000E+00 0.  1.
<mgrwt>
<rscale>  0 0.11265893E+04</rscale>
<asrwt>0</asrwt>
<pdfrwt beam="1">  1        2 0.13647816E+00 0.11265893E+04</pdfrwt>
<pdfrwt beam="2">  1       -2 0.55027700E-01 0.11265893E+04</pdfrwt>
<totfact> 0.92122152E+01</totfact>
</mgrwt>
</event>
<event>
12    1  0.2433511E-007  0.1024272E+04  0.7818608E-02  0.9282317E-01
          2   -1    0    0  501    0  0.00000000000E+00  0.00000000000E+00  0.11931342805E+04  0.11931342805E+04  0.00000000000E+00 0.  1.
         -2   -1    0    0    0  501 -0.00000000000E+00 -0.00000000000E+00 -0.21982724930E+03  0.21982724930E+03  0.00000000000E+00 0. -1.
         23    2    1    2    0    0  0.66315918407E+02  0.58675085411E+01  0.16288481211E+03  0.19817440083E+03  0.91155923776E+02 0.  0.
        254    2    1    2    0    0 -0.66315918407E+02 -0.58675085411E+01  0.81042221905E+03  0.12147871289E+04  0.90249175441E+03 0.  0.
        -24    2    4    4    0    0 -0.41134133981E+03  0.21418690425E+03  0.54782727295E+03  0.72226047836E+03  0.80422321673E+02 0.  0.
         24    2    4    4    0    0  0.34502542140E+03 -0.22005441280E+03  0.26259494610E+03  0.49252665057E+03  0.78485092855E+02 0.  0.
         13    1    3    3    0    0  0.52309469562E+01  0.25389728257E+02  0.11567050025E+03  0.11853972218E+03  0.00000000000E+00 0.  1.
        -13    1    3    3    0    0  0.61084971450E+02 -0.19522219716E+02  0.47214311862E+02  0.79634678654E+02  0.00000000000E+00 0. -1.
          2    1    6    6  502    0  0.27801543865E+02  0.27315328095E+01  0.27323255037E+02  0.39076174052E+02  0.00000000000E+00 0. -1.
          1    1    5    5  503    0 -0.75652383825E+02  0.40977904162E+02  0.58273058460E+02  0.10391448961E+03  0.00000000000E+00 0. -1.
         -2    1    5    5    0  503 -0.33568895598E+03  0.17320900009E+03  0.48955421449E+03  0.61834598875E+03  0.00000000000E+00 0.  1.
         -1    1    6    6    0  502  0.31722387753E+03 -0.22278594560E+03  0.23527169106E+03  0.45345047652E+03  0.00000000000E+00 0.  1.
<mgrwt>
<rscale>  0 0.10242723E+04</rscale>
<asrwt>0</asrwt>
<pdfrwt beam="1">  1        2 0.18355912E+00 0.10242723E+04</pdfrwt>
<pdfrwt beam="2">  1       -2 0.33819577E-01 0.10242723E+04</pdfrwt>
<totfact> 0.15575558E+02</totfact>
</mgrwt>
</event>
<event>
12    1  0.2433511E-007  0.1765012E+04  0.7818608E-02  0.8725130E-01
         -2   -1    0    0    0  501 -0.00000000000E+00  0.00000000000E+00  0.21312486279E+04  0.21312486279E+04  0.00000000000E+00 0.  1.
          2   -1    0    0  501    0  0.00000000000E+00 -0.00000000000E+00 -0.36542734938E+03  0.36542734938E+03  0.00000000000E+00 0. -1.
         23    2    1    2    0    0  0.48227823047E+03  0.65347196783E+02  0.12567196934E+04  0.13507103010E+04  0.90616675326E+02 0.  0.
        254    2    1    2    0    0 -0.48227823047E+03 -0.65347196783E+02  0.50910158510E+03  0.11459656762E+04  0.90398581815E+03 0.  0.
        -24    2    4    4    0    0 -0.31355712214E+03 -0.44318606469E+03  0.98662801956E+02  0.55775070094E+03  0.81360550218E+02 0.  0.
         24    2    4    4    0    0 -0.16872110833E+03  0.37783886791E+03  0.41043878315E+03  0.58821497528E+03  0.79421910934E+02 0.  0.
         13    1    3    3    0    0  0.43944895942E+03  0.55475659104E+02  0.11987306215E+04  0.12779468062E+04  0.00000000000E+00 0.  1.
        -13    1    3    3    0    0  0.42829271055E+02  0.98715376794E+01  0.57989071943E+02  0.72763494831E+02  0.00000000000E+00 0. -1.
          2    1    6    6  502    0 -0.76371719100E+02  0.86399274204E+02  0.10240210284E+03  0.15421953419E+03  0.00000000000E+00 0. -1.
          1    1    5    5  503    0 -0.24394107411E+03 -0.37099155661E+03  0.10821879169E+03  0.45700469318E+03  0.00000000000E+00 0. -1.
         -2    1    5    5    0  503 -0.69616048031E+02 -0.72194508080E+02 -0.95559897336E+01  0.10074600776E+03  0.00000000000E+00 0.  1.
         -1    1    6    6    0  502 -0.92349389233E+02  0.29143959371E+03  0.30803668031E+03  0.43399544109E+03  0.00000000000E+00 0.  1.
<mgrwt>
<rscale>  0 0.17650117E+04</rscale>
<asrwt>0</asrwt>
<pdfrwt beam="1">  1        2 0.56219594E-01 0.17650117E+04</pdfrwt>
<pdfrwt beam="2">  1       -2 0.32788439E+00 0.17650117E+04</pdfrwt>
<totfact> 0.17889768E+00</totfact>
</mgrwt>
</event>
<event>
12    1  0.2433511E-007  0.1104321E+04  0.7818608E-02  0.9200991E-01
          1   -1    0    0  501    0  0.00000000000E+00  0.00000000000E+00  0.64152895795E+03  0.64152895795E+03  0.00000000000E+00 0. -1.
         -1   -1    0    0    0  501 -0.00000000000E+00 -0.00000000000E+00 -0.47524125222E+03  0.47524125222E+03  0.00000000000E+00 0.  1.
         23    2    1    2    0    0  0.16068843596E+03  0.30061332942E+02  0.56628954369E+01  0.18756958941E+03  0.91792294330E+02 0.  0.
        254    2    1    2    0    0 -0.16068843596E+03 -0.30061332942E+02  0.16062481030E+03  0.92920062075E+03  0.90049375719E+03 0.  0.
        -24    2    4    4    0    0 -0.18270853265E+03 -0.41718695469E+03  0.24632525490E+03  0.52409733133E+03  0.81083404252E+02 0.  0.
         24    2    4    4    0    0  0.22020096685E+02  0.38712562175E+03 -0.85700444604E+02  0.40510328942E+03  0.80081066550E+02 0.  0.
         11    1    3    3    0    0  0.10318722383E+03  0.33779326780E+02  0.45284248310E+02  0.11764059344E+03  0.00000000000E+00 0. -1.
        -11    1    3    3    0    0  0.57501212134E+02 -0.37179938379E+01 -0.39621352873E+02  0.69928995978E+02  0.00000000000E+00 0.  1.
          4    1    6    6  502    0 -0.27815523768E+01 -0.11433535920E+01 -0.77470949631E+01  0.83103412342E+01  0.00000000000E+00 0. -1.
          3    1    5    5  503    0 -0.97683128114E+01 -0.54941512676E+01  0.21284184081E+02  0.24054565582E+02  0.00000000000E+00 0. -1.
         -4    1    5    5    0  503 -0.17294021984E+03 -0.41169280342E+03  0.22504107082E+03  0.50004276575E+03  0.00000000000E+00 0.  1.
         -3    1    6    6    0  502  0.24801649062E+02  0.38826897534E+03 -0.77953349641E+02  0.39679294818E+03  0.00000000000E+00 0.  1.
<mgrwt>
<rscale>  0 0.11043207E+04</rscale>
<asrwt>0</asrwt>
<pdfrwt beam="1">  1        1 0.98696763E-01 0.11043207E+04</pdfrwt>
<pdfrwt beam="2">  1       -1 0.73114039E-01 0.11043207E+04</pdfrwt>
<totfact> 0.58358196E+01</totfact>
</mgrwt>
</event>
<event>
12    1  0.2433511E-007  0.2356484E+04  0.7818608E-02  0.8455977E-01
          1   -1    0    0  501    0  0.00000000000E+00  0.00000000000E+00  0.12460052998E+04  0.12460052998E+04  0.00000000000E+00 0. -1.
         -1   -1    0    0    0  501 -0.00000000000E+00 -0.00000000000E+00 -0.11141636061E+04  0.11141636061E+04  0.00000000000E+00 0.  1.
         23    2    1    2    0    0 -0.57312139685E+03  0.77038027864E+03  0.34598939246E+03  0.10251748955E+04  0.96545312428E+02 0.  0.
        254    2    1    2    0    0  0.57312139685E+03 -0.77038027864E+03 -0.21414769883E+03  0.13349940104E+04  0.90243884101E+03 0.  0.
        -24    2    4    4    0    0  0.45585885494E+03 -0.79878463736E+03 -0.47387337735E+03  0.10376813749E+04  0.79765064026E+02 0.  0.
         24    2    4    4    0    0  0.11726254191E+03  0.28404358716E+02  0.25972567853E+03  0.29731263559E+03  0.79875301980E+02 0.  0.
         13    1    3    3    0    0 -0.18051983315E+03  0.26665995984E+03  0.16247606012E+03  0.36068464682E+03  0.00000000000E+00 0. -1.
        -13    1    3    3    0    0 -0.39260156371E+03  0.50372031881E+03  0.18351333234E+03  0.66449024865E+03  0.00000000000E+00 0.  1.
          2    1    6    6  502    0  0.56440314411E+02  0.24542802857E+02  0.51183314572E+02  0.80047423154E+02  0.00000000000E+00 0. -1.
          1    1    5    5  503    0  0.39858551158E+02 -0.12008230525E+03 -0.52457504388E+02  0.13696807621E+03  0.00000000000E+00 0. -1.
         -2    1    5    5    0  503  0.41600030378E+03 -0.67870233211E+03 -0.42141587297E+03  0.90071329864E+03  0.00000000000E+00 0.  1.
         -1    1    6    6    0  502  0.60822227498E+02  0.38615558591E+01  0.20854236396E+03  0.21726521244E+03  0.00000000000E+00 0.  1.
<mgrwt>
<rscale>  0 0.23564836E+04</rscale>
<asrwt>0</asrwt>
<pdfrwt beam="1">  1        1 0.19169312E+00 0.23564836E+04</pdfrwt>
<pdfrwt beam="2">  1       -1 0.17140979E+00 0.23564836E+04</pdfrwt>
<totfact> 0.21380739E+00</totfact>
</mgrwt>
</event>
<event>
12    1  0.2433511E-007  0.1094761E+04  0.7818608E-02  0.9210313E-01
          2   -1    0    0  501    0  0.00000000000E+00  0.00000000000E+00  0.24523594629E+04  0.24523594629E+04  0.00000000000E+00 0. -1.
         -2   -1    0    0    0  501 -0.00000000000E+00 -0.00000000000E+00 -0.12217845714E+03  0.12217845714E+03  0.00000000000E+00 0.  1.
         23    2    1    2    0    0 -0.60253985587E+02 -0.10107073728E+03  0.62755215385E+03  0.64499585177E+03  0.91389858729E+02 0.  0.
        254    2    1    2    0    0  0.60253985587E+02  0.10107073728E+03  0.17026288519E+04  0.19295420682E+04  0.90018984064E+03 0.  0.
        -24    2    4    4    0    0 -0.17389448061E+03  0.37338325217E+03  0.41492889827E+03  0.59021892696E+03  0.80858195239E+02 0.  0.
         24    2    4    4    0    0  0.23414846619E+03 -0.27231251489E+03  0.12876999536E+04  0.13393231413E+04  0.81459783298E+02 0.  0.
         11    1    3    3    0    0 -0.30222934985E+02 -0.42013135263E+02  0.93657082853E+02  0.10700550688E+03  0.00000000000E+00 0.  1.
        -11    1    3    3    0    0 -0.30031050602E+02 -0.59057602018E+02  0.53389507100E+03  0.53799034489E+03  0.00000000000E+00 0. -1.
          4    1    6    6  502    0  0.84440598531E+02 -0.15540853101E+03  0.68036274518E+03  0.70297616689E+03  0.00000000000E+00 0. -1.
          1    1    5    5  503    0 -0.11431974904E+03  0.24561381023E+03  0.32454006753E+03  0.42275454372E+03  0.00000000000E+00 0. -1.
         -2    1    5    5    0  503 -0.59574731563E+02  0.12776944193E+03  0.90388830735E+02  0.16746438324E+03  0.00000000000E+00 0.  1.
         -3    1    6    6    0  502  0.14970786766E+03 -0.11690398388E+03  0.60733720843E+03  0.63634697440E+03  0.00000000000E+00 0.  1.
<mgrwt>
<rscale>  0 0.10947612E+04</rscale>
<asrwt>0</asrwt>
<pdfrwt beam="1">  1        2 0.37728604E+00 0.10947612E+04</pdfrwt>
<pdfrwt beam="2">  1       -2 0.18796687E-01 0.10947612E+04</pdfrwt>
<totfact> 0.88502439E+01</totfact>
</mgrwt>
</event>
<event>
12    1  0.2433511E-007  0.3669054E+04  0.7818608E-02  0.8074855E-01
         -1   -1    0    0    0  501 -0.00000000000E+00  0.00000000000E+00  0.20516486361E+04  0.20516486361E+04  0.00000000000E+00 0.  1.
          1   -1    0    0  501    0  0.00000000000E+00 -0.00000000000E+00 -0.16403830055E+04  0.16403830055E+04  0.00000000000E+00 0. -1.
         23    2    1    2    0    0 -0.17184726933E+04  0.11984425709E+03  0.22803759587E+03  0.17399254770E+04  0.88478681832E+02 0.  0.
        254    2    1    2    0    0  0.17184726933E+04 -0.11984425709E+03  0.18322803472E+03  0.19521061645E+04  0.89979715568E+03 0.  0.
        -24    2    4    4    0    0  0.21602676614E+03  0.22545612441E+03 -0.17480988590E+03  0.36733604637E+03  0.82941226373E+02 0.  0.
         24    2    4    4    0    0  0.15024459271E+04 -0.34530038150E+03  0.35803792062E+03  0.15847701181E+04  0.82030831784E+02 0.  0.
         13    1    3    3    0    0 -0.80323408052E+03  0.65755621257E+02  0.15013662529E+03  0.81978643322E+03  0.00000000000E+00 0.  1.
        -13    1    3    3    0    0 -0.91523861273E+03  0.54088635837E+02  0.77900970582E+02  0.92013904383E+03  0.00000000000E+00 0. -1.
          4    1    6    6  502    0  0.55361126560E+03 -0.11228037966E+03  0.93568173852E+02  0.57257953178E+03  0.00000000000E+00 0. -1.
          1    1    5    5  503    0  0.67651040530E+02  0.98329471767E+02 -0.10764581032E+03  0.16072637861E+03  0.00000000000E+00 0. -1.
         -2    1    5    5    0  503  0.14837572561E+03  0.12712665264E+03 -0.67164075580E+02  0.20660966776E+03  0.00000000000E+00 0.  1.
         -3    1    6    6    0  502  0.94883466152E+03 -0.23302000184E+03  0.26446974676E+03  0.10121905864E+04  0.00000000000E+00 0.  1.
<mgrwt>
<rscale>  0 0.36690541E+04</rscale>
<asrwt>0</asrwt>
<pdfrwt beam="1">  1        1 0.25236662E+00 0.36690541E+04</pdfrwt>
<pdfrwt beam="2">  1       -1 0.31563825E+00 0.36690541E+04</pdfrwt>
<totfact> 0.11002498E-01</totfact>
</mgrwt>
</event>
<event>
12    1  0.2433511E-007  0.1986780E+04  0.7818608E-02  0.8612826E-01
         -2   -1    0    0    0  501 -0.00000000000E+00  0.00000000000E+00  0.63919332012E+03  0.63919332012E+03  0.00000000000E+00 0.  1.
          2   -1    0    0  501    0  0.00000000000E+00 -0.00000000000E+00 -0.15438581960E+04  0.15438581960E+04  0.00000000000E+00 0. -1.
         23    2    1    2    0    0  0.66403082773E+03 -0.33655557547E+03 -0.73264304938E+02  0.75319775258E+03  0.87935206611E+02 0.  0.
        254    2    1    2    0    0 -0.66403082773E+03  0.33655557547E+03 -0.83140057099E+03  0.14298537636E+04  0.89389500516E+03 0.  0.
        -24    2    4    4    0    0  0.10685835917E+03 -0.16710457661E+03 -0.56048563787E+02  0.22335968610E+03  0.86054979074E+02 0.  0.
         24    2    4    4    0    0 -0.77088918690E+03  0.50366015208E+03 -0.77535200720E+03  0.12064940775E+04  0.80706484773E+02 0.  0.
         11    1    3    3    0    0  0.22163562730E+03 -0.69521353242E+02 -0.87802426372E+01  0.23244926867E+03  0.00000000000E+00 0.  1.
        -11    1    3    3    0    0  0.44239520043E+03 -0.26703422223E+03 -0.64484062301E+02  0.52074848391E+03  0.00000000000E+00 0. -1.
          4    1    6    6  502    0 -0.22169384366E+03  0.18876462238E+03 -0.23489304550E+03  0.37410558109E+03  0.00000000000E+00 0. -1.
          1    1    5    5  503    0  0.29271102890E+02 -0.11289677517E+03 -0.72058977026E+01  0.11685206147E+03  0.00000000000E+00 0. -1.
         -2    1    5    5    0  503  0.77587256276E+02 -0.54207801438E+02 -0.48842666085E+02  0.10650762463E+03  0.00000000000E+00 0.  1.
         -3    1    6    6    0  502 -0.54919534323E+03  0.31489552970E+03 -0.54045896171E+03  0.83238849640E+03  0.00000000000E+00 0.  1.
<mgrwt>
<rscale>  0 0.19867802E+04</rscale>
<asrwt>0</asrwt>
<pdfrwt beam="1">  1        2 0.23751664E+00 0.19867802E+04</pdfrwt>
<pdfrwt beam="2">  1       -2 0.98337434E-01 0.19867802E+04</pdfrwt>
<totfact> 0.95852434E+00</totfact>
</mgrwt>
</event>
<event>
12    1  0.2433511E-007  0.1352039E+04  0.7818608E-02  0.8989286E-01
         -1   -1    0    0    0  501 -0.00000000000E+00  0.00000000000E+00  0.30604382766E+03  0.30604382766E+03  0.00000000000E+00 0.  1.
          1   -1    0    0  501    0  0.00000000000E+00 -0.00000000000E+00 -0.14932579260E+04  0.14932579260E+04  0.00000000000E+00 0. -1.
         23    2    1    2    0    0 -0.34605106538E+03 -0.11938710003E+03 -0.25623091721E+03  0.45561602890E+03  0.89034057226E+02 0.  0.
        254    2    1    2    0    0  0.34605106538E+03  0.11938710003E+03 -0.93098318110E+03  0.13436857247E+04  0.89708250671E+03 0.  0.
        -24    2    4    4    0    0  0.44508396734E+03 -0.15627939846E+03 -0.92352482831E+03  0.10401493687E+04  0.80558130098E+02 0.  0.
         24    2    4    4    0    0 -0.99032901955E+02  0.27566649850E+03 -0.74583527930E+01  0.30353635604E+03  0.79241140496E+02 0.  0.
         11    1    3    3    0    0 -0.51781130905E+02 -0.53581333668E+02 -0.40080717578E+02  0.84609152915E+02  0.00000000000E+00 0.  1.
        -11    1    3    3    0    0 -0.29426993448E+03 -0.65805766366E+02 -0.21615019963E+03  0.37100687598E+03  0.00000000000E+00 0. -1.
          2    1    6    6  502    0 -0.78362585238E+02  0.26680686956E+03  0.44021189030E+01  0.27811145079E+03  0.00000000000E+00 0. -1.
          1    1    5    5  503    0  0.13241065267E+03 -0.32668689145E+02 -0.34562485010E+03  0.37155936430E+03  0.00000000000E+00 0. -1.
         -2    1    5    5    0  503  0.31267331467E+03 -0.12361070932E+03 -0.57789997821E+03  0.66859000440E+03  0.00000000000E+00 0.  1.
         -1    1    6    6    0  502 -0.20670316718E+02  0.88596289400E+01 -0.11860471696E+02  0.25424905251E+02  0.00000000000E+00 0.  1.
<mgrwt>
<rscale>  0 0.13520390E+04</rscale>
<asrwt>0</asrwt>
<pdfrwt beam="1">  1        1 0.22973198E+00 0.13520390E+04</pdfrwt>
<pdfrwt beam="2">  1       -1 0.47083667E-01 0.13520390E+04</pdfrwt>
<totfact> 0.29107995E+01</totfact>
</mgrwt>
</event>
<event>
12    1  0.2433511E-007  0.1818559E+04  0.7818608E-02  0.8696492E-01
         -2   -1    0    0    0  501 -0.00000000000E+00  0.00000000000E+00  0.49188790792E+03  0.49188790792E+03  0.00000000000E+00 0. -1.
          2   -1    0    0  501    0  0.00000000000E+00 -0.00000000000E+00 -0.16808479639E+04  0.16808479639E+04  0.00000000000E+00 0.  1.
         23    2    1    2    0    0  0.40090659070E+03  0.55171676719E+03 -0.42685893842E+03  0.80975143493E+03  0.91495067658E+02 0.  0.
        254    2    1    2    0    0 -0.40090659070E+03 -0.55171676719E+03 -0.76210111755E+03  0.13629844369E+04  0.90100553613E+03 0.  0.
        -24    2    4    4    0    0 -0.42199635947E+03  0.78363471584E+02 -0.52988188772E+03  0.68658527175E+03  0.80017244175E+02 0.  0.
         24    2    4    4    0    0  0.21089768769E+02 -0.63008023877E+03 -0.23221922983E+03  0.67639916512E+03  0.78384783220E+02 0.  0.
         11    1    3    3    0    0  0.39101983558E+03  0.49869678825E+03 -0.40107907831E+03  0.74997294984E+03  0.00000000000E+00 0. -1.
        -11    1    3    3    0    0  0.98867551205E+01  0.53019978935E+02 -0.25779860108E+02  0.59778485095E+02  0.00000000000E+00 0.  1.
          4    1    6    6  502    0  0.30379632652E+02 -0.10207899416E+03 -0.27264280628E+02  0.10993809224E+03  0.00000000000E+00 0. -1.
          1    1    5    5  503    0 -0.14553714805E+03  0.71613083985E+00 -0.22313829956E+03  0.26640622184E+03  0.00000000000E+00 0. -1.
         -2    1    5    5    0  503 -0.27645921142E+03  0.77647340744E+02 -0.30674358816E+03  0.42017904991E+03  0.00000000000E+00 0.  1.
         -3    1    6    6    0  502 -0.92898638827E+01 -0.52800124462E+03 -0.20495494920E+03  0.56646107288E+03  0.00000000000E+00 0.  1.
<mgrwt>
<rscale>  0 0.18185585E+04</rscale>
<asrwt>0</asrwt>
<pdfrwt beam="1">  1        2 0.25859199E+00 0.18185585E+04</pdfrwt>
<pdfrwt beam="2">  1       -2 0.75675063E-01 0.18185585E+04</pdfrwt>
<totfact> 0.14829595E+01</totfact>
</mgrwt>
</event>
<event>
12    1  0.2433511E-007  0.1568945E+04  0.7818608E-02  0.8839857E-01
         -1   -1    0    0    0  501 -0.00000000000E+00  0.00000000000E+00  0.36214189633E+03  0.36214189633E+03  0.00000000000E+00 0.  1.
          1   -1    0    0  501    0  0.00000000000E+00 -0.00000000000E+00 -0.16993255461E+04  0.16993255461E+04  0.00000000000E+00 0. -1.
         23    2    1    2    0    0  0.91823231932E+02 -0.45939864240E+03 -0.74016555525E+03  0.88077980794E+03  0.91920630647E+02 0.  0.
        254    2    1    2    0    0 -0.91823231932E+02  0.45939864240E+03 -0.59701809454E+03  0.11806876345E+04  0.90449658180E+03 0.  0.
        -24    2    4    4    0    0  0.28660861455E+03 -0.10926009372E+03 -0.28232540844E+03  0.42438976978E+03  0.79478138047E+02 0.  0.
         24    2    4    4    0    0 -0.37843184648E+03  0.56865873612E+03 -0.31469268610E+03  0.75629786473E+03  0.79822007636E+02 0.  0.
         13    1    3    3    0    0 -0.74046859278E+01 -0.10363233219E+03 -0.21442438743E+03  0.23826940125E+03  0.00000000000E+00 0. -1.
        -13    1    3    3    0    0  0.99227917860E+02 -0.35576631021E+03 -0.52574116782E+03  0.64251040669E+03  0.00000000000E+00 0.  1.
          4    1    6    6  502    0 -0.51361225812E+02  0.12034613766E+03 -0.38310257736E+02  0.13634091174E+03  0.00000000000E+00 0. -1.
          1    1    5    5  503    0  0.15106431851E+02 -0.17000799095E+02 -0.11266632128E+01  0.22770613148E+02  0.00000000000E+00 0. -1.
         -2    1    5    5    0  503  0.27150218270E+03 -0.92259294624E+02 -0.28119874523E+03  0.40161915663E+03  0.00000000000E+00 0.  1.
         -3    1    6    6    0  502 -0.32707062067E+03  0.44831259847E+03 -0.27638242837E+03  0.61995695299E+03  0.00000000000E+00 0.  1.
<mgrwt>
<rscale>  0 0.15689448E+04</rscale>
<asrwt>0</asrwt>
<pdfrwt beam="1">  1        1 0.26143470E+00 0.15689448E+04</pdfrwt>
<pdfrwt beam="2">  1       -1 0.55714138E-01 0.15689448E+04</pdfrwt>
<totfact> 0.14954456E+01</totfact>
</mgrwt>
</event>
<event>
12    1  0.2433511E-007  0.2823015E+04  0.7818608E-02  0.8296159E-01
          2   -1    0    0  501    0  0.00000000000E+00  0.00000000000E+00  0.14684955525E+04  0.14684955525E+04  0.00000000000E+00 0. -1.
         -2   -1    0    0    0  501 -0.00000000000E+00 -0.00000000000E+00 -0.13567308487E+04  0.13567308487E+04  0.00000000000E+00 0.  1.
         23    2    1    2    0    0 -0.51395773025E+03  0.98722856116E+03 -0.55650990293E+03  0.12477298257E+04  0.91398388823E+02 0.  0.
        254    2    1    2    0    0  0.51395773025E+03 -0.98722856116E+03  0.66827460664E+03  0.15774965755E+04  0.89617616311E+03 0.  0.
        -24    2    4    4    0    0  0.44049015832E+03 -0.59444192794E+03 -0.56174037966E+02  0.74629167066E+03  0.80018434677E+02 0.  0.
         24    2    4    4    0    0  0.73467571928E+02 -0.39278663322E+03  0.72444864460E+03  0.83120490482E+03  0.79980821255E+02 0.  0.
         13    1    3    3    0    0 -0.28082782044E+03  0.62404341338E+03 -0.36498998642E+03  0.77557213507E+03  0.00000000000E+00 0. -1.
        -13    1    3    3    0    0 -0.23312990981E+03  0.36318514778E+03 -0.19151991650E+03  0.47215769065E+03  0.00000000000E+00 0.  1.
          2    1    6    6  502    0  0.59870667067E+02 -0.24958822967E+03  0.53455150925E+03  0.59297900233E+03  0.00000000000E+00 0. -1.
          1    1    5    5  503    0  0.11464592303E+02 -0.40681429221E+02  0.73783617467E+01  0.42905195282E+02  0.00000000000E+00 0. -1.
         -2    1    5    5    0  503  0.42902556602E+03 -0.55376049871E+03 -0.63552399713E+02  0.70338647538E+03  0.00000000000E+00 0.  1.
         -1    1    6    6    0  502  0.13596904861E+02 -0.14319840355E+03  0.18989713536E+03  0.23822590249E+03  0.00000000000E+00 0.  1.
<mgrwt>
<rscale>  0 0.28230149E+04</rscale>
<asrwt>0</asrwt>
<pdfrwt beam="1">  1        2 0.22592239E+00 0.28230149E+04</pdfrwt>
<pdfrwt beam="2">  1       -2 0.20872782E+00 0.28230149E+04</pdfrwt>
<totfact> 0.13405678E+00</totfact>
</mgrwt>
</event>
<event>
12    1  0.2433511E-007  0.3214990E+04  0.7818608E-02  0.8184869E-01
          1   -1    0    0  501    0  0.00000000000E+00  0.00000000000E+00  0.15627907947E+04  0.15627907947E+04  0.00000000000E+00 0. -1.
         -1   -1    0    0    0  501 -0.00000000000E+00 -0.00000000000E+00 -0.16534783327E+04  0.16534783327E+04  0.00000000000E+00 0.  1.
         23    2    1    2    0    0  0.91306056674E+03 -0.89763661267E+03 -0.78495217994E+03  0.15047065680E+04  0.92524828790E+02 0.  0.
        254    2    1    2    0    0 -0.91306056674E+03  0.89763661267E+03  0.69426464197E+03  0.17115625595E+04  0.89889482971E+03 0.  0.
        -24    2    4    4    0    0 -0.64620085149E+03  0.90441261125E+03  0.18313620076E+03  0.11294295624E+04  0.80836604247E+02 0.  0.
         24    2    4    4    0    0 -0.26685971525E+03 -0.67759985765E+01  0.51112844121E+03  0.58213299703E+03  0.79790482139E+02 0.  0.
         11    1    3    3    0    0  0.11193627058E+03 -0.15462237713E+03 -0.12653160865E+03  0.22901540596E+03  0.00000000000E+00 0. -1.
        -11    1    3    3    0    0  0.80112429616E+03 -0.74301423554E+03 -0.65842057129E+03  0.12756911620E+04  0.00000000000E+00 0.  1.
          4    1    6    6  502    0 -0.11348629565E+03  0.25445520208E+02  0.27663282091E+03  0.30008720633E+03  0.00000000000E+00 0. -1.
          3    1    5    5  503    0 -0.60580972326E+03  0.87512529361E+03  0.17972293894E+03  0.10794211574E+04  0.00000000000E+00 0. -1.
         -4    1    5    5    0  503 -0.40391128225E+02  0.29287317642E+02  0.34132618172E+01  0.50008404996E+02  0.00000000000E+00 0.  1.
         -3    1    6    6    0  502 -0.15337341960E+03 -0.32221518784E+02  0.23449562030E+03  0.28204579070E+03  0.00000000000E+00 0.  1.
<mgrwt>
<rscale>  0 0.32149903E+04</rscale>
<asrwt>0</asrwt>
<pdfrwt beam="1">  1        1 0.24042935E+00 0.32149903E+04</pdfrwt>
<pdfrwt beam="2">  1       -1 0.25438128E+00 0.32149903E+04</pdfrwt>
<totfact> 0.32284526E-01</totfact>
</mgrwt>
</event>
<event>
12    1  0.2433511E-007  0.1501664E+04  0.7818608E-02  0.8883347E-01
          2   -1    0    0  501    0  0.00000000000E+00  0.00000000000E+00  0.83336827020E+03  0.83336827020E+03  0.00000000000E+00 0. -1.
         -2   -1    0    0    0  501 -0.00000000000E+00 -0.00000000000E+00 -0.67646996974E+03  0.67646996974E+03  0.00000000000E+00 0.  1.
         23    2    1    2    0    0 -0.46495806046E+03 -0.81619387524E+02  0.12703623582E+03  0.49926583019E+03  0.10139251246E+03 0.  0.
        254    2    1    2    0    0  0.46495806046E+03  0.81619387524E+02  0.29862064645E+02  0.10105724098E+04  0.89303814591E+03 0.  0.
        -24    2    4    4    0    0 -0.18362114781E+03  0.10088160744E+03  0.23560090427E+03  0.32556501691E+03  0.81184786151E+02 0.  0.
         24    2    4    4    0    0  0.64857920826E+03 -0.19262219918E+02 -0.20573883963E+03  0.68500739284E+03  0.76685302398E+02 0.  0.
         13    1    3    3    0    0 -0.78186566782E+02 -0.37200027384E+02 -0.85757820447E+01  0.87008765651E+02  0.00000000000E+00 0.  1.
        -13    1    3    3    0    0 -0.38677149367E+03 -0.44419360140E+02  0.13561201786E+03  0.41225706454E+03  0.00000000000E+00 0. -1.
          2    1    6    6  502    0  0.36367749404E+03  0.25077223049E+02 -0.10144052129E+03  0.37839181564E+03  0.00000000000E+00 0. -1.
          3    1    5    5  503    0 -0.15054321329E+03  0.54191235133E+02  0.20690561294E+03  0.26155282774E+03  0.00000000000E+00 0. -1.
         -4    1    5    5    0  503 -0.33077934513E+02  0.46690372309E+02  0.28695291335E+02  0.64012189173E+02  0.00000000000E+00 0.  1.
         -1    1    6    6    0  502  0.28490171423E+03 -0.44339442967E+02 -0.10429831833E+03  0.30661557720E+03  0.00000000000E+00 0.  1.
<mgrwt>
<rscale>  0 0.15016639E+04</rscale>
<asrwt>0</asrwt>
<pdfrwt beam="1">  1        2 0.12821050E+00 0.15016639E+04</pdfrwt>
<pdfrwt beam="2">  1       -2 0.10407230E+00 0.15016639E+04</pdfrwt>
<totfact> 0.23656609E+01</totfact>
</mgrwt>
</event>
<event>
12    1  0.2433511E-007  0.3066322E+04  0.7818608E-02  0.8225042E-01
         -1   -1    0    0    0  501 -0.00000000000E+00  0.00000000000E+00  0.83087896561E+03  0.83087896561E+03  0.00000000000E+00 0.  1.
          1   -1    0    0  501    0  0.00000000000E+00 -0.00000000000E+00 -0.28290312067E+04  0.28290312067E+04  0.00000000000E+00 0. -1.
         23    2    1    2    0    0 -0.86606241878E+03  0.68048518607E+03 -0.19431866668E+04  0.22355038573E+04  0.91536180241E+02 0.  0.
        254    2    1    2    0    0  0.86606241878E+03 -0.68048518607E+03 -0.54965574314E+02  0.14244063150E+04  0.90154752191E+03 0.  0.
        -24    2    4    4    0    0 -0.13552572006E+03  0.22303434552E+02 -0.11583367505E+03  0.19675972613E+03  0.80201530909E+02 0.  0.
         24    2    4    4    0    0  0.10015881388E+04 -0.70278862062E+03  0.60868100734E+02  0.12276465889E+04  0.79502052975E+02 0.  0.
         13    1    3    3    0    0 -0.45965390470E+03  0.41734285294E+03 -0.10704380430E+04  0.12374547963E+04  0.00000000000E+00 0.  1.
        -13    1    3    3    0    0 -0.40640851408E+03  0.26314233313E+03 -0.87274862376E+03  0.99804906096E+03  0.00000000000E+00 0. -1.
          2    1    6    6  502    0  0.27974988627E+03 -0.16633832362E+03 -0.89658170768E+01  0.32558996092E+03  0.00000000000E+00 0. -1.
          3    1    5    5  503    0 -0.50054752077E+02 -0.27001933421E+02 -0.23216352175E+02  0.61429484958E+02  0.00000000000E+00 0. -1.
         -4    1    5    5    0  503 -0.85470967984E+02  0.49305367972E+02 -0.92617322873E+02  0.13533024117E+03  0.00000000000E+00 0.  1.
         -1    1    6    6    0  502  0.72183825257E+03 -0.53645029700E+03  0.69833917811E+02  0.90205662799E+03  0.00000000000E+00 0.  1.
<mgrwt>
<rscale>  0 0.30663219E+04</rscale>
<asrwt>0</asrwt>
<pdfrwt beam="1">  1        1 0.43523558E+00 0.30663219E+04</pdfrwt>
<pdfrwt beam="2">  1       -1 0.12782753E+00 0.30663219E+04</pdfrwt>
<totfact> 0.35554983E-01</totfact>
</mgrwt>
</event>
<event>
12    1  0.2433511E-007  0.2390786E+04  0.7818608E-02  0.8442961E-01
          1   -1    0    0  501    0  0.00000000000E+00  0.00000000000E+00  0.11319591004E+04  0.11319591004E+04  0.00000000000E+00 0. -1.
         -1   -1    0    0    0  501 -0.00000000000E+00 -0.00000000000E+00 -0.12623820070E+04  0.12623820070E+04  0.00000000000E+00 0.  1.
         23    2    1    2    0    0  0.57224854188E+03  0.83804122452E+03  0.79820120325E+02  0.10222925831E+04  0.94495429593E+02 0.  0.
        254    2    1    2    0    0 -0.57224854188E+03 -0.83804122452E+03 -0.21024302692E+03  0.13720485244E+04  0.89918492825E+03 0.  0.
        -24    2    4    4    0    0  0.72541559283E+02  0.12462367882E+03 -0.12690724325E+03  0.20764902584E+03  0.78862731354E+02 0.  0.
         24    2    4    4    0    0 -0.64479010116E+03 -0.96266490334E+03 -0.83335783672E+02  0.11643994985E+04  0.80020926487E+02 0.  0.
         13    1    3    3    0    0  0.92304439603E+00  0.27421552924E+02  0.14063077975E+01  0.27473100978E+02  0.00000000000E+00 0.  1.
        -13    1    3    3    0    0  0.57132549748E+03  0.81061967160E+03  0.78413812528E+02  0.99481948214E+03  0.00000000000E+00 0. -1.
          4    1    6    6  502    0 -0.17193783692E+03 -0.32245413124E+03 -0.19807532910E+02  0.36596669914E+03  0.00000000000E+00 0. -1.
          1    1    5    5  503    0  0.19429543339E+02  0.10631409780E+03 -0.80024699136E+02  0.13447731042E+03  0.00000000000E+00 0. -1.
         -4    1    5    5    0  503  0.53112015944E+02  0.18309581015E+02 -0.46882544113E+02  0.73171715417E+02  0.00000000000E+00 0.  1.
         -3    1    6    6    0  502 -0.47285226424E+03 -0.64021077209E+03 -0.63528250762E+02  0.79843279939E+03  0.00000000000E+00 0.  1.
<mgrwt>
<rscale>  0 0.23907863E+04</rscale>
<asrwt>0</asrwt>
<pdfrwt beam="1">  1        1 0.17414755E+00 0.23907863E+04</pdfrwt>
<pdfrwt beam="2">  1       -1 0.19421262E+00 0.23907863E+04</pdfrwt>
<totfact> 0.17764224E+00</totfact>
</mgrwt>
</event>
<event>
12    1  0.2433511E-007  0.1295800E+04  0.7818608E-02  0.9032903E-01
          2   -1    0    0  501    0  0.00000000000E+00  0.00000000000E+00  0.18189092260E+04  0.18189092260E+04  0.00000000000E+00 0. -1.
         -2   -1    0    0    0  501 -0.00000000000E+00 -0.00000000000E+00 -0.23078354172E+03  0.23078354172E+03  0.00000000000E+00 0.  1.
         23    2    1    2    0    0  0.30864469659E+02  0.19513659922E+02  0.93330257645E+03  0.93737461880E+03  0.79272178920E+02 0.  0.
        254    2    1    2    0    0 -0.30864469659E+02 -0.19513659922E+02  0.65482310784E+03  0.11123181489E+04  0.89840133765E+03 0.  0.
        -24    2    4    4    0    0 -0.80761533293E+02  0.34679167987E+03  0.63650770146E+03  0.73366937630E+03  0.79635451983E+02 0.  0.
         24    2    4    4    0    0  0.49897063635E+02 -0.36630533979E+03  0.18315406377E+02  0.37864877264E+03  0.79813031459E+02 0.  0.
         13    1    3    3    0    0  0.45095386087E+02  0.35677731843E+02  0.82193010977E+03  0.82393907527E+03  0.00000000000E+00 0. -1.
        -13    1    3    3    0    0 -0.14230916429E+02 -0.16164071921E+02  0.11137246668E+03  0.11343554354E+03  0.00000000000E+00 0.  1.
          2    1    6    6  502    0  0.50482565736E+02 -0.36783682061E+03  0.24653134762E+02  0.37210239598E+03  0.00000000000E+00 0. -1.
          3    1    5    5  503    0 -0.17702385547E+02  0.24045785695E+03  0.41129020128E+03  0.47675254073E+03  0.00000000000E+00 0. -1.
         -4    1    5    5    0  503 -0.63059147747E+02  0.10633382292E+03  0.22521750018E+03  0.25691683557E+03  0.00000000000E+00 0.  1.
         -1    1    6    6    0  502 -0.58550210134E+00  0.15314808233E+01 -0.63377283848E+01  0.65463766545E+01  0.00000000000E+00 0.  1.
<mgrwt>
<rscale>  0 0.12957999E+04</rscale>
<asrwt>0</asrwt>
<pdfrwt beam="1">  1        2 0.27983218E+00 0.12957999E+04</pdfrwt>
<pdfrwt beam="2">  1       -2 0.35505161E-01 0.12957999E+04</pdfrwt>
<totfact> 0.61558159E+01</totfact>
</mgrwt>
</event>
<event>
12    1  0.2433511E-007  0.1917460E+04  0.7818608E-02  0.8646214E-01
         -2   -1    0    0    0  501 -0.00000000000E+00  0.00000000000E+00  0.67645342727E+03  0.67645342727E+03  0.00000000000E+00 0.  1.
          2   -1    0    0  501    0  0.00000000000E+00 -0.00000000000E+00 -0.13587971365E+04  0.13587971365E+04  0.00000000000E+00 0. -1.
         23    2    1    2    0    0 -0.17412272275E+03 -0.46767952471E+03 -0.85034149026E+03  0.99007803721E+03  0.90172109376E+02 0.  0.
        254    2    1    2    0    0  0.17412272275E+03  0.46767952471E+03  0.16799778106E+03  0.10451725265E+04  0.90283968418E+03 0.  0.
        -24    2    4    4    0    0 -0.69175359843E+02  0.30691158713E+03 -0.32982000994E+03  0.46277995426E+03  0.80025585833E+02 0.  0.
         24    2    4    4    0    0  0.24329808259E+03  0.16076793758E+03  0.49781779101E+03  0.58239257225E+03  0.79487536290E+02 0.  0.
         11    1    3    3    0    0 -0.16380594884E+03 -0.46095762107E+03 -0.84554650228E+03  0.97686396433E+03  0.00000000000E+00 0. -1.
        -11    1    3    3    0    0 -0.10316773906E+02 -0.67219036343E+01 -0.47949879797E+01  0.13214072878E+02  0.00000000000E+00 0.  1.
          2    1    6    6  502    0  0.14884155400E+03  0.59637074935E+02  0.22253054169E+03  0.27428129883E+03  0.00000000000E+00 0. -1.
          1    1    5    5  503    0 -0.48136916918E+02  0.23413275755E+03 -0.29420556264E+03  0.37906757184E+03  0.00000000000E+00 0. -1.
         -2    1    5    5    0  503 -0.21038442925E+02  0.72778829576E+02 -0.35614447301E+02  0.83712382427E+02  0.00000000000E+00 0.  1.
         -1    1    6    6    0  502  0.94456528595E+02  0.10113086264E+03  0.27528724932E+03  0.30811127342E+03  0.00000000000E+00 0.  1.
<mgrwt>
<rscale>  0 0.19174598E+04</rscale>
<asrwt>0</asrwt>
<pdfrwt beam="1">  1        2 0.20904571E+00 0.19174598E+04</pdfrwt>
<pdfrwt beam="2">  1       -2 0.10406976E+00 0.19174598E+04</pdfrwt>
<totfact> 0.10734814E+01</totfact>
</mgrwt>
</event>
<event>
12    1  0.2433511E-007  0.1576210E+04  0.7818608E-02  0.8835298E-01
          2   -1    0    0  501    0  0.00000000000E+00  0.00000000000E+00  0.10925777860E+04  0.10925777860E+04  0.00000000000E+00 0. -1.
         -2   -1    0    0    0  501 -0.00000000000E+00 -0.00000000000E+00 -0.56848064332E+03  0.56848064332E+03  0.00000000000E+00 0.  1.
         23    2    1    2    0    0  0.27546223294E+02 -0.50811631966E+03  0.32436541280E+03  0.61015538006E+03  0.90197993792E+02 0.  0.
        254    2    1    2    0    0 -0.27546223294E+02  0.50811631966E+03  0.19973172990E+03  0.10509030493E+04  0.89753187481E+03 0.  0.
        -24    2    4    4    0    0  0.38547236215E+03  0.78332882965E+02  0.20205369663E+03  0.44951386650E+03  0.80697195271E+02 0.  0.
         24    2    4    4    0    0 -0.41301858544E+03  0.42978343669E+03 -0.23219667266E+01  0.60138918276E+03  0.79783477249E+02 0.  0.
         11    1    3    3    0    0  0.41950452629E+02 -0.39611678991E+03  0.21364846541E+03  0.45201108227E+03  0.00000000000E+00 0. -1.
        -11    1    3    3    0    0 -0.14404229335E+02 -0.11199952975E+03  0.11071694738E+03  0.15814429779E+03  0.00000000000E+00 0.  1.
          4    1    6    6  502    0 -0.10096596017E+03  0.11330500125E+03 -0.34975906606E+02  0.15574165295E+03  0.00000000000E+00 0. -1.
          3    1    5    5  503    0  0.19855637705E+03  0.14655194059E+01  0.85290370947E+02  0.21610467369E+03  0.00000000000E+00 0. -1.
         -4    1    5    5    0  503  0.18691598509E+03  0.76867363560E+02  0.11676332568E+03  0.23340919281E+03  0.00000000000E+00 0.  1.
         -3    1    6    6    0  502 -0.31205262527E+03  0.31647843544E+03  0.32653939879E+02  0.44564752981E+03  0.00000000000E+00 0.  1.
<mgrwt>
<rscale>  0 0.15762098E+04</rscale>
<asrwt>0</asrwt>
<pdfrwt beam="1">  1        2 0.16808889E+00 0.15762098E+04</pdfrwt>
<pdfrwt beam="2">  1       -2 0.87458561E-01 0.15762098E+04</pdfrwt>
<totfact> 0.23881873E+01</totfact>
</mgrwt>
</event>
<event>
12    1  0.2433511E-007  0.1102441E+04  0.7818608E-02  0.9202816E-01
          1   -1    0    0  501    0  0.00000000000E+00  0.00000000000E+00  0.75703485340E+03  0.75703485340E+03  0.00000000000E+00 0.  1.
         -1   -1    0    0    0  501 -0.00000000000E+00 -0.00000000000E+00 -0.40136045788E+03  0.40136045788E+03  0.00000000000E+00 0. -1.
         23    2    1    2    0    0 -0.27394149740E+02 -0.15554011245E+03 -0.14540915965E+02  0.18404569422E+03  0.93371373045E+02 0.  0.
        254    2    1    2    0    0  0.27394149740E+02  0.15554011245E+03  0.37021531148E+03  0.97434961706E+03  0.88733005888E+03 0.  0.
        -24    2    4    4    0    0  0.12388973877E+03  0.25494642325E+02 -0.27022485214E+03  0.30898007025E+03  0.80302982129E+02 0.  0.
         24    2    4    4    0    0 -0.96495589031E+02  0.13004547012E+03  0.64044016362E+03  0.66536954681E+03  0.79560088265E+02 0.  0.
         11    1    3    3    0    0 -0.11763094348E+02  0.57869153677E+01  0.14319173880E+02  0.19413848632E+02  0.00000000000E+00 0. -1.
        -11    1    3    3    0    0 -0.15631055392E+02 -0.16132702782E+03 -0.28860089844E+02  0.16463184559E+03  0.00000000000E+00 0.  1.
          2    1    6    6  502    0 -0.55817579653E+02  0.11692434974E+03  0.55387678046E+03  0.56882896700E+03  0.00000000000E+00 0. -1.
          3    1    5    5  503    0  0.97236189189E+02  0.51986319860E+02 -0.17787924332E+03  0.20928086187E+03  0.00000000000E+00 0. -1.
         -4    1    5    5    0  503  0.26653549582E+02 -0.26491677535E+02 -0.92345608814E+02  0.99699208378E+02  0.00000000000E+00 0.  1.
         -1    1    6    6    0  502 -0.40678009378E+02  0.13121120383E+02  0.86563383157E+02  0.96540579813E+02  0.00000000000E+00 0.  1.
<mgrwt>
<rscale>  0 0.11024407E+04</rscale>
<asrwt>0</asrwt>
<pdfrwt beam="1">  1        1 0.11646690E+00 0.11024407E+04</pdfrwt>
<pdfrwt beam="2">  1       -1 0.61747763E-01 0.11024407E+04</pdfrwt>
<totfact> 0.63981838E+01</totfact>
</mgrwt>
</event>
<event>
12    1  0.2433511E-007  0.1006059E+04  0.7818608E-02  0.9301924E-01
         -2   -1    0    0    0  501 -0.00000000000E+00  0.00000000000E+00  0.25056414238E+03  0.25056414238E+03  0.00000000000E+00 0. -1.
          2   -1    0    0  501    0  0.00000000000E+00 -0.00000000000E+00 -0.10098768501E+04  0.10098768501E+04  0.00000000000E+00 0.  1.
         23    2    1    2    0    0 -0.16238205247E+01  0.99787042748E+01 -0.51364718883E+02  0.11571979634E+03  0.10320138365E+03 0.  0.
        254    2    1    2    0    0  0.16238205247E+01 -0.99787042748E+01 -0.70794798883E+03  0.11447211961E+04  0.89949655401E+03 0.  0.
        -24    2    4    4    0    0 -0.10543258824E+03 -0.23560365343E+03  0.10526387714E+03  0.29027782541E+03  0.80966782834E+02 0.  0.
         24    2    4    4    0    0  0.10705640876E+03  0.22562494915E+03 -0.81321186597E+03  0.85444337074E+03  0.79951500994E+02 0.  0.
         11    1    3    3    0    0  0.44094165029E+02 -0.19499076482E+02 -0.15833971445E+02  0.50746665161E+02  0.00000000000E+00 0.  1.
        -11    1    3    3    0    0 -0.45717985554E+02  0.29477780757E+02 -0.35530747438E+02  0.64973131177E+02  0.00000000000E+00 0. -1.
          4    1    6    6  502    0  0.19593470496E+01  0.36488026214E+02 -0.55551570523E+02  0.66492045279E+02  0.00000000000E+00 0. -1.
          3    1    5    5  503    0  0.10433698115E+02 -0.45675889642E+02  0.28939717724E+02  0.55069557950E+02  0.00000000000E+00 0. -1.
         -4    1    5    5    0  503 -0.11586628635E+03 -0.18992776378E+03  0.76324159412E+02  0.23520826746E+03  0.00000000000E+00 0.  1.
         -3    1    6    6    0  502  0.10509706171E+03  0.18913692294E+03 -0.75766029545E+03  0.78795132546E+03  0.00000000000E+00 0.  1.
<mgrwt>
<rscale>  0 0.10060595E+04</rscale>
<asrwt>0</asrwt>
<pdfrwt beam="1">  1        2 0.15536567E+00 0.10060595E+04</pdfrwt>
<pdfrwt beam="2">  1       -2 0.38548329E-01 0.10060595E+04</pdfrwt>
<totfact> 0.15734856E+02</totfact>
</mgrwt>
</event>
<event>
12    1  0.2433511E-007  0.2030440E+04  0.7818608E-02  0.8592520E-01
         -1   -1    0    0    0  501 -0.00000000000E+00  0.00000000000E+00  0.80129462681E+03  0.80129462681E+03  0.00000000000E+00 0.  1.
          1   -1    0    0  501    0  0.00000000000E+00 -0.00000000000E+00 -0.12862577614E+04  0.12862577614E+04  0.00000000000E+00 0. -1.
         23    2    1    2    0    0  0.66425164299E+03 -0.20229567195E+03  0.23724301792E+03  0.73941343980E+03  0.91072505755E+02 0.  0.
        254    2    1    2    0    0 -0.66425164299E+03  0.20229567195E+03 -0.72220615254E+03  0.13481389484E+04  0.90207711056E+03 0.  0.
        -24    2    4    4    0    0 -0.20643818548E+03  0.13533454157E+03  0.19081544992E+03  0.32187236383E+03  0.79114601053E+02 0.  0.
         24    2    4    4    0    0 -0.45781345751E+03  0.66961130383E+02 -0.91302160246E+03  0.10262665846E+04  0.74415732541E+02 0.  0.
         11    1    3    3    0    0  0.12921787495E+03 -0.28975531914E+02  0.82818645598E+02  0.15619144892E+03  0.00000000000E+00 0.  1.
        -11    1    3    3    0    0  0.53503376804E+03 -0.17332014004E+03  0.15442437232E+03  0.58322199088E+03  0.00000000000E+00 0. -1.
          2    1    6    6  502    0 -0.58587358968E+02  0.12363127122E+02 -0.71584190270E+02  0.93325354753E+02  0.00000000000E+00 0. -1.
          3    1    5    5  503    0 -0.68408801149E+02  0.58850632525E+02  0.26492298176E+02  0.94047875499E+02  0.00000000000E+00 0. -1.
         -4    1    5    5    0  503 -0.13802938433E+03  0.76483909045E+02  0.16432315175E+03  0.22782448833E+03  0.00000000000E+00 0.  1.
         -1    1    6    6    0  502 -0.39922609854E+03  0.54598003261E+02 -0.84143741219E+03  0.93294122985E+03  0.00000000000E+00 0.  1.
<mgrwt>
<rscale>  0 0.20304398E+04</rscale>
<asrwt>0</asrwt>
<pdfrwt beam="1">  1        1 0.19788581E+00 0.20304398E+04</pdfrwt>
<pdfrwt beam="2">  1       -1 0.12327610E+00 0.20304398E+04</pdfrwt>
<totfact> 0.49597133E+00</totfact>
</mgrwt>
</event>
<event>
12    1  0.2433511E-007  0.1816697E+04  0.7818608E-02  0.8697470E-01
          1   -1    0    0  501    0  0.00000000000E+00  0.00000000000E+00  0.67610596872E+03  0.67610596872E+03  0.00000000000E+00 0. -1.
         -1   -1    0    0    0  501 -0.00000000000E+00 -0.00000000000E+00 -0.12203661040E+04  0.12203661040E+04  0.00000000000E+00 0.  1.
         23    2    1    2    0    0  0.39758290928E+03  0.54403168541E+03 -0.98146828650E+02  0.68657077790E+03  0.87772368205E+02 0.  0.
        254    2    1    2    0    0 -0.39758290928E+03 -0.54403168541E+03 -0.44611330664E+03  0.12099012948E+04  0.90044512125E+03 0.  0.
        -24    2    4    4    0    0  0.28521808179E+01 -0.39140015612E+03 -0.62187594955E+03  0.73990723819E+03  0.86780224406E+02 0.  0.
         24    2    4    4    0    0 -0.40043509010E+03 -0.15263152928E+03  0.17576264292E+03  0.46999405663E+03  0.79732436985E+02 0.  0.
         13    1    3    3    0    0  0.39986666192E+03  0.53087445754E+03 -0.89398837550E+02  0.67060658298E+03  0.00000000000E+00 0. -1.
        -13    1    3    3    0    0 -0.22837526391E+01  0.13157227869E+02 -0.87479911000E+01  0.15964194925E+02  0.00000000000E+00 0.  1.
          2    1    6    6  502    0 -0.15157480037E+03 -0.89603782099E+02  0.44264665119E+02  0.18155747975E+03  0.00000000000E+00 0. -1.
          3    1    5    5  503    0  0.43185176972E+02 -0.18263916693E+03 -0.31212093753E+03  0.36419981391E+03  0.00000000000E+00 0. -1.
         -4    1    5    5    0  503 -0.40332996155E+02 -0.20876098919E+03 -0.30975501202E+03  0.37570742428E+03  0.00000000000E+00 0.  1.
         -1    1    6    6    0  502 -0.24886028972E+03 -0.63027747186E+02  0.13149797780E+03  0.28843657688E+03  0.00000000000E+00 0.  1.
<mgrwt>
<rscale>  0 0.18166968E+04</rscale>
<asrwt>0</asrwt>
<pdfrwt beam="1">  1        1 0.10401630E+00 0.18166968E+04</pdfrwt>
<pdfrwt beam="2">  1       -1 0.18774863E+00 0.18166968E+04</pdfrwt>
<totfact> 0.49581396E+00</totfact>
</mgrwt>
</event>
<event>
12    1  0.2433511E-007  0.2058170E+04  0.7818608E-02  0.8579897E-01
         -2   -1    0    0    0  501 -0.00000000000E+00  0.00000000000E+00  0.60927129260E+03  0.60927129260E+03  0.00000000000E+00 0.  1.
          2   -1    0    0  501    0  0.00000000000E+00 -0.00000000000E+00 -0.17381684411E+04  0.17381684411E+04  0.00000000000E+00 0. -1.
         23    2    1    2    0    0  0.65681990876E+03 -0.21996474565E+03 -0.97672793595E+03  0.12009537891E+04  0.92171908645E+02 0.  0.
        254    2    1    2    0    0 -0.65681990876E+03  0.21996474565E+03 -0.15216921256E+03  0.11464859446E+04  0.90082055380E+03 0.  0.
        -24    2    4    4    0    0  0.15602209358E+03 -0.10940914891E+03 -0.16690564674E+03  0.26549434001E+03  0.79476374576E+02 0.  0.
         24    2    4    4    0    0 -0.81284200234E+03  0.32937389456E+03  0.14736434176E+02  0.88099160464E+03  0.82035125134E+02 0.  0.
         13    1    3    3    0    0  0.30847530263E+03 -0.15174316374E+03 -0.47415587306E+03  0.58566781714E+03  0.00000000000E+00 0. -1.
        -13    1    3    3    0    0  0.34834460613E+03 -0.68221581911E+02 -0.50257206289E+03  0.61528597193E+03  0.00000000000E+00 0.  1.
          4    1    6    6  502    0 -0.18864568624E+03  0.11428224631E+03  0.91490118036E+01  0.22075174105E+03  0.00000000000E+00 0. -1.
          1    1    5    5  503    0  0.18845157482E+02 -0.46935700001E+02 -0.69770190061E+02  0.86174122080E+02  0.00000000000E+00 0. -1.
         -2    1    5    5    0  503  0.13717693610E+03 -0.62473448911E+02 -0.97135456677E+02  0.17932021793E+03  0.00000000000E+00 0.  1.
         -3    1    6    6    0  502 -0.62419631610E+03  0.21509164826E+03  0.55874223728E+01  0.66023986359E+03  0.00000000000E+00 0.  1.
<mgrwt>
<rscale>  0 0.20581702E+04</rscale>
<asrwt>0</asrwt>
<pdfrwt beam="1">  1        2 0.26741052E+00 0.20581702E+04</pdfrwt>
<pdfrwt beam="2">  1       -2 0.93734047E-01 0.20581702E+04</pdfrwt>
<totfact> 0.83046701E+00</totfact>
</mgrwt>
</event>
<event>
12    1  0.2433511E-007  0.3476963E+04  0.7818608E-02  0.8119271E-01
          2   -1    0    0  501    0  0.00000000000E+00  0.00000000000E+00  0.39042892520E+04  0.39042892520E+04  0.00000000000E+00 0. -1.
         -2   -1    0    0    0  501 -0.00000000000E+00 -0.00000000000E+00 -0.77410180151E+03  0.77410180151E+03  0.00000000000E+00 0.  1.
         23    2    1    2    0    0 -0.10588414604E+04  0.58007877056E+03  0.65299633419E+01  0.12106947742E+04  0.90014318915E+02 0.  0.
        254    2    1    2    0    0  0.10588414604E+04 -0.58007877056E+03  0.31236574871E+04  0.34676962793E+04  0.90002487208E+03 0.  0.
        -24    2    4    4    0    0  0.10715772452E+04 -0.67851556126E+03  0.30833687791E+04  0.33349908293E+04  0.79621884678E+02 0.  0.
         24    2    4    4    0    0 -0.12735784886E+02  0.98436790701E+02  0.40288708031E+02  0.13270544995E+03  0.78329780241E+02 0.  0.
         11    1    3    3    0    0 -0.97953226484E+03  0.50763425984E+03  0.68745717322E+01  0.11032784143E+04  0.00000000000E+00 0.  1.
        -11    1    3    3    0    0 -0.79309195514E+02  0.72444510720E+02 -0.34460839029E+00  0.10741635993E+03  0.00000000000E+00 0. -1.
          4    1    6    6  502    0  0.70890672557E+01  0.57347727688E+02  0.59736866367E+02  0.83111430915E+02  0.00000000000E+00 0. -1.
          1    1    5    5  503    0  0.67679005361E+03 -0.45457647225E+03  0.18976972631E+04  0.20654150789E+04  0.00000000000E+00 0. -1.
         -2    1    5    5    0  503  0.39478719164E+03 -0.22393908901E+03  0.11856715160E+04  0.12695757504E+04  0.00000000000E+00 0.  1.
         -3    1    6    6    0  502 -0.19824852141E+02  0.41089063013E+02 -0.19448158336E+02  0.49594019038E+02  0.00000000000E+00 0.  1.
<mgrwt>
<rscale>  0 0.34769627E+04</rscale>
<asrwt>0</asrwt>
<pdfrwt beam="1">  1        2 0.60065987E+00 0.34769627E+04</pdfrwt>
<pdfrwt beam="2">  1       -2 0.11909259E+00 0.34769627E+04</pdfrwt>
<totfact> 0.18127430E-01</totfact>
</mgrwt>
</event>
<event>
12    1  0.2433511E-007  0.3896339E+04  0.7818608E-02  0.8025791E-01
          1   -1    0    0  501    0  0.00000000000E+00  0.00000000000E+00  0.26774544600E+04  0.26774544600E+04  0.00000000000E+00 0. -1.
         -1   -1    0    0    0  501 -0.00000000000E+00 -0.00000000000E+00 -0.14175269728E+04  0.14175269728E+04  0.00000000000E+00 0.  1.
         23    2    1    2    0    0  0.97809007305E+03 -0.13102050314E+03  0.22322456533E+04  0.24427580580E+04  0.10158597401E+03 0.  0.
        254    2    1    2    0    0 -0.97809007305E+03  0.13102050314E+03 -0.97231816613E+03  0.16522233748E+04  0.90034043605E+03 0.  0.
        -24    2    4    4    0    0 -0.44432795185E+03  0.15810021213E+03  0.65371217290E+02  0.48228151762E+03  0.76805340449E+02 0.  0.
         24    2    4    4    0    0 -0.53376212120E+03 -0.27079708986E+02 -0.10376893834E+04  0.11699418572E+04  0.79557400894E+02 0.  0.
         13    1    3    3    0    0  0.10163556466E+03 -0.45614341677E+02  0.24441344404E+03  0.26860451932E+03  0.00000000000E+00 0.  1.
        -13    1    3    3    0    0  0.87645450839E+03 -0.85406161463E+02  0.19878322093E+04  0.21741535387E+04  0.00000000000E+00 0. -1.
          2    1    6    6  502    0 -0.49236562628E+03 -0.30564866977E+01 -0.93918893389E+03  0.10604287367E+04  0.00000000000E+00 0. -1.
          3    1    5    5  503    0 -0.15312452747E+03  0.35296177485E+02  0.53579565269E+02  0.16602322390E+03  0.00000000000E+00 0. -1.
         -4    1    5    5    0  503 -0.29120342437E+03  0.12280403464E+03  0.11791652021E+02  0.31625829372E+03  0.00000000000E+00 0.  1.
         -1    1    6    6    0  502 -0.41396494921E+02 -0.24023222288E+02 -0.98500449534E+02  0.10951312049E+03  0.00000000000E+00 0.  1.
<mgrwt>
<rscale>  0 0.38963388E+04</rscale>
<asrwt>0</asrwt>
<pdfrwt beam="1">  1        1 0.41191607E+00 0.38963388E+04</pdfrwt>
<pdfrwt beam="2">  1       -1 0.21808107E+00 0.38963388E+04</pdfrwt>
<totfact> 0.91076392E-02</totfact>
</mgrwt>
</event>
<event>
12    1  0.2433511E-007  0.1659820E+04  0.7818608E-02  0.8784618E-01
          1   -1    0    0  501    0  0.00000000000E+00  0.00000000000E+00  0.25982617236E+04  0.25982617236E+04  0.00000000000E+00 0. -1.
         -1   -1    0    0    0  501 -0.00000000000E+00 -0.00000000000E+00 -0.26508118640E+03  0.26508118640E+03  0.00000000000E+00 0.  1.
         23    2    1    2    0    0  0.18602596523E+01  0.57967778844E+03  0.91462810731E+03  0.10867063981E+04  0.91413467700E+02 0.  0.
        254    2    1    2    0    0 -0.18602596523E+01 -0.57967778844E+03  0.14185524299E+04  0.17766365119E+04  0.89895300211E+03 0.  0.
        -24    2    4    4    0    0 -0.43306193470E+03 -0.18201546178E+03  0.59636651224E+03  0.76331520907E+03  0.79528761203E+02 0.  0.
         24    2    4    4    0    0  0.43120167505E+03 -0.39766232666E+03  0.82218591769E+03  0.10133213028E+04  0.82220246412E+02 0.  0.
         11    1    3    3    0    0 -0.37894155491E+02  0.14833452742E+03  0.21814884817E+03  0.26651082343E+03  0.00000000000E+00 0. -1.
        -11    1    3    3    0    0  0.39754415143E+02  0.43134326102E+03  0.69647925913E+03  0.82019557470E+03  0.00000000000E+00 0.  1.
          2    1    6    6  502    0  0.21713553897E+03 -0.21321733407E+03  0.35768651838E+03  0.46962657427E+03  0.00000000000E+00 0. -1.
          3    1    5    5  503    0 -0.31735946626E+03 -0.14263912480E+03  0.49198885534E+03  0.60259105912E+03  0.00000000000E+00 0. -1.
         -4    1    5    5    0  503 -0.11570246844E+03 -0.39376336982E+02  0.10437765690E+03  0.16072414995E+03  0.00000000000E+00 0.  1.
         -1    1    6    6    0  502  0.21406613608E+03 -0.18444499260E+03  0.46449939931E+03  0.54369472857E+03  0.00000000000E+00 0.  1.
<mgrwt>
<rscale>  0 0.16598196E+04</rscale>
<asrwt>0</asrwt>
<pdfrwt beam="1">  1        1 0.39973256E+00 0.16598196E+04</pdfrwt>
<pdfrwt beam="2">  1       -1 0.40781723E-01 0.16598196E+04</pdfrwt>
<totfact> 0.65081136E+00</totfact>
</mgrwt>
</event>
<event>
12    1  0.2433511E-007  0.3108378E+04  0.7818608E-02  0.8213442E-01
          1   -1    0    0  501    0  0.00000000000E+00  0.00000000000E+00  0.13116654392E+04  0.13116654392E+04  0.00000000000E+00 0. -1.
         -1   -1    0    0    0  501 -0.00000000000E+00 -0.00000000000E+00 -0.18415544923E+04  0.18415544923E+04  0.00000000000E+00 0.  1.
         23    2    1    2    0    0 -0.69911178553E+03  0.11322747265E+04 -0.75201325062E+03  0.15311215697E+04  0.89476182306E+02 0.  0.
        254    2    1    2    0    0  0.69911178553E+03 -0.11322747265E+04  0.22212419751E+03  0.16220983618E+04  0.90058902468E+03 0.  0.
        -24    2    4    4    0    0  0.87249541178E+03 -0.78465089093E+03  0.31019083312E+03  0.12161854318E+04  0.77222971600E+02 0.  0.
         24    2    4    4    0    0 -0.17338362625E+03 -0.34762383552E+03 -0.88066635616E+02  0.40591292999E+03  0.78136813032E+02 0.  0.
         11    1    3    3    0    0 -0.40615932951E+03  0.63433281996E+03 -0.37647618617E+03  0.84206760191E+03  0.00000000000E+00 0.  1.
        -11    1    3    3    0    0 -0.29295245602E+03  0.49794190650E+03 -0.37553706445E+03  0.68905396778E+03  0.00000000000E+00 0. -1.
          2    1    6    6  502    0 -0.57192163406E+02 -0.15715858944E+03 -0.33900689159E+01  0.16727599456E+03  0.00000000000E+00 0. -1.
          3    1    5    5  503    0  0.56999036490E+03 -0.47103315166E+03  0.21671136887E+03  0.77053556922E+03  0.00000000000E+00 0. -1.
         -4    1    5    5    0  503  0.30250504689E+03 -0.31361773927E+03  0.93479464253E+02  0.44564986258E+03  0.00000000000E+00 0.  1.
         -1    1    6    6    0  502 -0.11619146284E+03 -0.19046524609E+03 -0.84676566700E+02  0.23863693544E+03  0.00000000000E+00 0.  1.
<mgrwt>
<rscale>  0 0.31083780E+04</rscale>
<asrwt>0</asrwt>
<pdfrwt beam="1">  1        1 0.20179468E+00 0.31083780E+04</pdfrwt>
<pdfrwt beam="2">  1       -1 0.28331608E+00 0.31083780E+04</pdfrwt>
<totfact> 0.31692966E-01</totfact>
</mgrwt>
</event>
<event>
12    1  0.2433511E-007  0.1668697E+04  0.7818608E-02  0.8779422E-01
          2   -1    0    0  501    0  0.00000000000E+00  0.00000000000E+00  0.65518590105E+03  0.65518590105E+03  0.00000000000E+00 0. -1.
         -2   -1    0    0    0  501 -0.00000000000E+00 -0.00000000000E+00 -0.10625033709E+04  0.10625033709E+04  0.00000000000E+00 0.  1.
         23    2    1    2    0    0  0.51866963971E+01 -0.57628140493E+03 -0.25161775902E+03  0.63549957525E+03  0.91766300985E+02 0.  0.
        254    2    1    2    0    0 -0.51866963971E+01  0.57628140493E+03 -0.15569971084E+03  0.10821896967E+04  0.90264332945E+03 0.  0.
        -24    2    4    4    0    0 -0.22758667215E+03 -0.15767544970E+03  0.28284028507E+02  0.28938583621E+03  0.79290195816E+02 0.  0.
         24    2    4    4    0    0  0.22239997575E+03  0.73395685464E+03 -0.18398373934E+03  0.79280386049E+03  0.80830261527E+02 0.  0.
         11    1    3    3    0    0 -0.33867224509E+02 -0.43035836351E+03 -0.20096517592E+03  0.47617466530E+03  0.00000000000E+00 0. -1.
        -11    1    3    3    0    0  0.39053920906E+02 -0.14592304143E+03 -0.50652583099E+02  0.15932490995E+03  0.00000000000E+00 0.  1.
          4    1    6    6  502    0  0.15779918204E+03  0.54420507022E+03 -0.99550786387E+02  0.57530000814E+03  0.00000000000E+00 0. -1.
          1    1    5    5  503    0 -0.18099367511E+03 -0.15464099176E+03  0.72376368244E+01  0.23816996063E+03  0.00000000000E+00 0. -1.
         -2    1    5    5    0  503 -0.46592997046E+02 -0.30344579433E+01  0.21046391682E+02  0.51215875582E+02  0.00000000000E+00 0.  1.
         -3    1    6    6    0  502  0.64600793715E+02  0.18975178442E+03 -0.84432952956E+02  0.21750385235E+03  0.00000000000E+00 0.  1.
<mgrwt>
<rscale>  0 0.16686968E+04</rscale>
<asrwt>0</asrwt>
<pdfrwt beam="1">  1        2 0.10079783E+00 0.16686968E+04</pdfrwt>
<pdfrwt beam="2">  1       -2 0.16346206E+00 0.16686968E+04</pdfrwt>
<totfact> 0.10081066E+01</totfact>
</mgrwt>
</event>
<event>
12    1  0.2433511E-007  0.2202729E+04  0.7818608E-02  0.8517293E-01
         -2   -1    0    0    0  501 -0.00000000000E+00  0.00000000000E+00  0.16412227835E+04  0.16412227835E+04  0.00000000000E+00 0. -1.
          2   -1    0    0  501    0  0.00000000000E+00 -0.00000000000E+00 -0.73908557212E+03  0.73908557212E+03  0.00000000000E+00 0.  1.
         23    2    1    2    0    0 -0.83250129786E+03  0.30662084041E+03  0.62019546919E+03  0.10858786251E+04  0.86111659044E+02 0.  0.
        254    2    1    2    0    0  0.83250129786E+03 -0.30662084041E+03  0.28194174222E+03  0.12944297305E+04  0.89943450597E+03 0.  0.
        -24    2    4    4    0    0  0.25290710960E+03  0.26972307191E+03 -0.96034434933E+02  0.39037791836E+03  0.80372662266E+02 0.  0.
         24    2    4    4    0    0  0.57959418826E+03 -0.57634391233E+03  0.37797617716E+03  0.90405181216E+03  0.79636425242E+02 0.  0.
         13    1    3    3    0    0 -0.83064094114E+03  0.30141326548E+03  0.60833825215E+03  0.10727953014E+04  0.00000000000E+00 0.  1.
        -13    1    3    3    0    0 -0.18603567149E+01  0.52075749293E+01  0.11857217039E+02  0.13083323724E+02  0.00000000000E+00 0. -1.
          4    1    6    6  502    0  0.52738640652E+03 -0.50020968741E+03  0.35494079590E+03  0.80890612666E+03  0.00000000000E+00 0. -1.
          1    1    5    5  503    0  0.23953854525E+03  0.26583929126E+03 -0.75739629877E+02  0.36576732354E+03  0.00000000000E+00 0. -1.
         -2    1    5    5    0  503  0.13368564345E+02  0.38837806573E+01 -0.20294805056E+02  0.24610594814E+02  0.00000000000E+00 0.  1.
         -3    1    6    6    0  502  0.52207781736E+02 -0.76134224921E+02  0.23035381253E+02  0.95145685491E+02  0.00000000000E+00 0.  1.
<mgrwt>
<rscale>  0 0.22027293E+04</rscale>
<asrwt>0</asrwt>
<pdfrwt beam="1">  1        2 0.11370547E+00 0.22027293E+04</pdfrwt>
<pdfrwt beam="2">  1       -2 0.25249581E+00 0.22027293E+04</pdfrwt>
<totfact> 0.21660886E+00</totfact>
</mgrwt>
</event>
<event>
12    1  0.2433511E-007  0.2003036E+04  0.7818608E-02  0.8605203E-01
          2   -1    0    0  501    0  0.00000000000E+00  0.00000000000E+00  0.30900697336E+04  0.30900697336E+04  0.00000000000E+00 0. -1.
         -2   -1    0    0    0  501 -0.00000000000E+00 -0.00000000000E+00 -0.32460038510E+03  0.32460038510E+03  0.00000000000E+00 0.  1.
         23    2    1    2    0    0  0.49993921678E+03  0.49533518488E+03  0.47306756263E+03  0.85303156266E+03  0.92594612339E+02 0.  0.
        254    2    1    2    0    0 -0.49993921678E+03 -0.49533518488E+03  0.22924017859E+04  0.25616385561E+04  0.90088288811E+03 0.  0.
        -24    2    4    4    0    0  0.84558160929E+02 -0.40882901117E+03  0.42440135682E+03  0.60096327567E+03  0.82152931071E+02 0.  0.
         24    2    4    4    0    0 -0.58449737771E+03 -0.86506173715E+02  0.18680004291E+04  0.19606752804E+04  0.75507943160E+02 0.  0.
         13    1    3    3    0    0  0.13125771211E+03  0.89554251249E+02  0.76295936168E+02  0.17626576747E+03  0.00000000000E+00 0.  1.
        -13    1    3    3    0    0  0.36868150467E+03  0.40578093363E+03  0.39677162646E+03  0.67676579520E+03  0.00000000000E+00 0. -1.
          4    1    6    6  502    0 -0.39469921237E+02 -0.22322004411E+02  0.18417007501E+03  0.18967014286E+03  0.00000000000E+00 0. -1.
          3    1    5    5  503    0  0.31819826986E+01 -0.83645653573E+02  0.13113873030E+03  0.15557662729E+03  0.00000000000E+00 0. -1.
         -4    1    5    5    0  503  0.81376178230E+02 -0.32518335759E+03  0.29326262652E+03  0.44538664838E+03  0.00000000000E+00 0.  1.
         -3    1    6    6    0  502 -0.54502745647E+03 -0.64184169305E+02  0.16838303541E+04  0.17710051375E+04  0.00000000000E+00 0.  1.
<mgrwt>
<rscale>  0 0.20030355E+04</rscale>
<asrwt>0</asrwt>
<pdfrwt beam="1">  1        2 0.47539532E+00 0.20030355E+04</pdfrwt>
<pdfrwt beam="2">  1       -2 0.49938523E-01 0.20030355E+04</pdfrwt>
<totfact> 0.53961831E+00</totfact>
</mgrwt>
</event>
<event>
12    1  0.2433511E-007  0.2086894E+04  0.7818608E-02  0.8567039E-01
         -1   -1    0    0    0  501 -0.00000000000E+00  0.00000000000E+00  0.41379414837E+03  0.41379414837E+03  0.00000000000E+00 0.  1.
          1   -1    0    0  501    0  0.00000000000E+00 -0.00000000000E+00 -0.26312160050E+04  0.26312160050E+04  0.00000000000E+00 0. -1.
         23    2    1    2    0    0 -0.68352138623E+03  0.29700120685E+03 -0.15092514940E+04  0.16857371112E+04  0.91969200690E+02 0.  0.
        254    2    1    2    0    0  0.68352138623E+03 -0.29700120685E+03 -0.70817036263E+03  0.13592730421E+04  0.88921692415E+03 0.  0.
        -24    2    4    4    0    0 -0.39872820830E+02 -0.34635347755E+03 -0.21949582181E+02  0.35831334272E+03  0.79725116272E+02 0.  0.
         24    2    4    4    0    0  0.72339420706E+03  0.49352270699E+02 -0.68622078045E+03  0.10009596994E+04  0.72708560978E+02 0.  0.
         13    1    3    3    0    0 -0.45223706524E+03  0.19847432643E+03 -0.89885309871E+03  0.10255960776E+04  0.00000000000E+00 0.  1.
        -13    1    3    3    0    0 -0.23128432098E+03  0.98526880421E+02 -0.61039839526E+03  0.66014103359E+03  0.00000000000E+00 0. -1.
          2    1    6    6  502    0  0.54135391018E+03  0.56515453886E+01 -0.51766340611E+03  0.74904699322E+03  0.00000000000E+00 0. -1.
          1    1    5    5  503    0 -0.48566436907E+02 -0.31587479930E+03  0.30399049618E+00  0.31958673320E+03  0.00000000000E+00 0. -1.
         -2    1    5    5    0  503  0.86936160773E+01 -0.30478678244E+02 -0.22253572677E+02  0.38726609520E+02  0.00000000000E+00 0.  1.
         -1    1    6    6    0  502  0.18204029687E+03  0.43700725311E+02 -0.16855737435E+03  0.25191270616E+03  0.00000000000E+00 0.  1.
<mgrwt>
<rscale>  0 0.20868941E+04</rscale>
<asrwt>0</asrwt>
<pdfrwt beam="1">  1        1 0.40480248E+00 0.20868941E+04</pdfrwt>
<pdfrwt beam="2">  1       -1 0.63660636E-01 0.20868941E+04</pdfrwt>
<totfact> 0.25292184E+00</totfact>
</mgrwt>
</event>
<event>
12    1  0.2433511E-007  0.2140391E+04  0.7818608E-02  0.8543656E-01
         -2   -1    0    0    0  501 -0.00000000000E+00  0.00000000000E+00  0.15733349888E+04  0.15733349888E+04  0.00000000000E+00 0.  1.
          2   -1    0    0  501    0  0.00000000000E+00 -0.00000000000E+00 -0.72795605579E+03  0.72795605579E+03  0.00000000000E+00 0. -1.
         23    2    1    2    0    0 -0.75724075658E+03 -0.10049943198E+03  0.81465350036E+03  0.11204405350E+04  0.90625425048E+02 0.  0.
        254    2    1    2    0    0  0.75724075658E+03  0.10049943198E+03  0.30725432623E+02  0.11808505095E+04  0.89997231866E+03 0.  0.
        -24    2    4    4    0    0  0.45272806637E+03  0.45425073899E+03  0.20286480593E+03  0.67721458948E+03  0.78479518141E+02 0.  0.
         24    2    4    4    0    0  0.30451269021E+03 -0.35375130701E+03 -0.17213937331E+03  0.50363592004E+03  0.78416901202E+02 0.  0.
         11    1    3    3    0    0 -0.50676070977E+03 -0.10303154969E+03  0.51417138070E+03  0.72924215863E+03  0.00000000000E+00 0. -1.
        -11    1    3    3    0    0 -0.25048004681E+03  0.25321177088E+01  0.30048211966E+03  0.39119837641E+03  0.00000000000E+00 0.  1.
          4    1    6    6  502    0  0.16446791483E+03 -0.24159325333E+03 -0.86293490072E+02  0.30473523179E+03  0.00000000000E+00 0. -1.
          3    1    5    5  503    0  0.42812290543E+03  0.39942613221E+03  0.17605907509E+03  0.61141414375E+03  0.00000000000E+00 0. -1.
         -4    1    5    5    0  503  0.24605160940E+02  0.54824606778E+02  0.26805730842E+02  0.65800445738E+02  0.00000000000E+00 0.  1.
         -3    1    6    6    0  502  0.14004477538E+03 -0.11215805368E+03 -0.85845883236E+02  0.19890068825E+03  0.00000000000E+00 0.  1.
<mgrwt>
<rscale>  0 0.21403913E+04</rscale>
<asrwt>0</asrwt>
<pdfrwt beam="1">  1        2 0.11199324E+00 0.21403913E+04</pdfrwt>
<pdfrwt beam="2">  1       -2 0.24205154E+00 0.21403913E+04</pdfrwt>
<totfact> 0.25746349E+00</totfact>
</mgrwt>
</event>
<event>
12    1  0.2433511E-007  0.2269532E+04  0.7818608E-02  0.8490032E-01
          1   -1    0    0  501    0  0.00000000000E+00  0.00000000000E+00  0.18064327860E+04  0.18064327860E+04  0.00000000000E+00 0. -1.
         -1   -1    0    0    0  501 -0.00000000000E+00 -0.00000000000E+00 -0.71283785959E+03  0.71283785959E+03  0.00000000000E+00 0.  1.
         23    2    1    2    0    0  0.25264005243E+03 -0.61170888355E+03 -0.30066210298E+03  0.73218675495E+03  0.87664072837E+02 0.  0.
        254    2    1    2    0    0 -0.25264005243E+03  0.61170888355E+03  0.13942570294E+04  0.17870838906E+04  0.90094473406E+03 0.  0.
        -24    2    4    4    0    0  0.26639934544E+03  0.47381377371E+03  0.89045383654E+03  0.10461555374E+04  0.77879843310E+02 0.  0.
         24    2    4    4    0    0 -0.51903939787E+03  0.13789510983E+03  0.50380319282E+03  0.74092835321E+03  0.82098779732E+02 0.  0.
         11    1    3    3    0    0  0.16106122355E+03 -0.40095950046E+03 -0.14991729914E+03  0.45736684983E+03  0.00000000000E+00 0. -1.
        -11    1    3    3    0    0  0.91578828879E+02 -0.21074938308E+03 -0.15074480384E+03  0.27481990513E+03  0.00000000000E+00 0.  1.
          2    1    6    6  502    0 -0.39567879542E+03  0.93266861268E+02  0.42389510874E+03  0.58732229633E+03  0.00000000000E+00 0. -1.
          1    1    5    5  503    0  0.25497241968E+03  0.41701241209E+03  0.76276486057E+03  0.90593626661E+03  0.00000000000E+00 0. -1.
         -2    1    5    5    0  503  0.11426925760E+02  0.56801361620E+02  0.12768897598E+03  0.14021927079E+03  0.00000000000E+00 0.  1.
         -1    1    6    6    0  502 -0.12336060245E+03  0.44628248565E+02  0.79908084076E+02  0.15360605687E+03  0.00000000000E+00 0.  1.
<mgrwt>
<rscale>  0 0.22695318E+04</rscale>
<asrwt>0</asrwt>
<pdfrwt beam="1">  1        1 0.27791273E+00 0.22695318E+04</pdfrwt>
<pdfrwt beam="2">  1       -1 0.10966736E+00 0.22695318E+04</pdfrwt>
<totfact> 0.28092259E+00</totfact>
</mgrwt>
</event>
<event>
12    1  0.2433511E-007  0.1384293E+04  0.7818608E-02  0.8965267E-01
          1   -1    0    0  501    0  0.00000000000E+00  0.00000000000E+00  0.12134236010E+04  0.12134236010E+04  0.00000000000E+00 0. -1.
         -1   -1    0    0    0  501 -0.00000000000E+00 -0.00000000000E+00 -0.39480604934E+03  0.39480604934E+03  0.00000000000E+00 0.  1.
         23    2    1    2    0    0  0.36457706666E+03 -0.49297062103E+01  0.40605685039E+03  0.55345456355E+03  0.92136033275E+02 0.  0.
        254    2    1    2    0    0 -0.36457706666E+03  0.49297062103E+01  0.41256070128E+03  0.10547750868E+04  0.89966850114E+03 0.  0.
        -24    2    4    4    0    0  0.21675260415E+03 -0.50092402732E+02  0.40159730647E+03  0.46527416869E+03  0.75556040609E+02 0.  0.
         24    2    4    4    0    0 -0.58132967081E+03  0.55022108942E+02  0.10963394811E+02  0.58950091810E+03  0.80121893260E+02 0.  0.
         11    1    3    3    0    0  0.13479064644E+03  0.22444680841E+02  0.20794758468E+03  0.24882620449E+03  0.00000000000E+00 0. -1.
        -11    1    3    3    0    0  0.22978642022E+03 -0.27374387051E+02  0.19810926571E+03  0.30462835906E+03  0.00000000000E+00 0.  1.
          4    1    6    6  502    0 -0.51400662424E+03  0.44620541958E+02  0.35340814298E+02  0.51714869784E+03  0.00000000000E+00 0. -1.
          1    1    5    5  503    0  0.14483360179E+03 -0.65079258151E+02  0.24011907415E+03  0.28787019960E+03  0.00000000000E+00 0. -1.
         -2    1    5    5    0  503  0.71919002358E+02  0.14986855419E+02  0.16147823232E+03  0.17740396909E+03  0.00000000000E+00 0.  1.
         -3    1    6    6    0  502 -0.67323046570E+02  0.10401566984E+02 -0.24377419487E+02  0.72352220256E+02  0.00000000000E+00 0.  1.
<mgrwt>
<rscale>  0 0.13842933E+04</rscale>
<asrwt>0</asrwt>
<pdfrwt beam="1">  1        1 0.18668055E+00 0.13842933E+04</pdfrwt>
<pdfrwt beam="2">  1       -1 0.60739393E-01 0.13842933E+04</pdfrwt>
<totfact> 0.28034182E+01</totfact>
</mgrwt>
</event>
<event>
12    1  0.2433511E-007  0.1488680E+04  0.7818608E-02  0.8892016E-01
         -1   -1    0    0    0  501 -0.00000000000E+00  0.00000000000E+00  0.61518879241E+03  0.61518879241E+03  0.00000000000E+00 0.  1.
          1   -1    0    0  501    0  0.00000000000E+00 -0.00000000000E+00 -0.90060440763E+03  0.90060440763E+03  0.00000000000E+00 0. -1.
         23    2    1    2    0    0  0.41852023497E+03  0.15211835455E+03  0.46188424045E+02  0.45806827836E+03  0.96922630270E+02 0.  0.
        254    2    1    2    0    0 -0.41852023497E+03 -0.15211835455E+03 -0.33160403926E+03  0.10577249217E+04  0.90028972571E+03 0.  0.
        -24    2    4    4    0    0 -0.41038875292E+03  0.31446991121E+03 -0.23806011128E+03  0.57511216631E+03  0.82286898582E+02 0.  0.
         24    2    4    4    0    0 -0.81314820458E+01 -0.46658826576E+03 -0.93543927988E+02  0.48261275536E+03  0.79961706048E+02 0.  0.
         11    1    3    3    0    0  0.13406197375E+03  0.42206765155E+02  0.59957146517E+02  0.15280341374E+03  0.00000000000E+00 0.  1.
        -11    1    3    3    0    0  0.28445826121E+03  0.10991158939E+03 -0.13768722471E+02  0.30526486462E+03  0.00000000000E+00 0. -1.
          2    1    6    6  502    0  0.27631746414E+02 -0.35078295530E+03 -0.61001224005E+02  0.35711810997E+03  0.00000000000E+00 0. -1.
          1    1    5    5  503    0 -0.40243612477E+03  0.29869049580E+03 -0.21324954009E+03  0.54465237826E+03  0.00000000000E+00 0. -1.
         -2    1    5    5    0  503 -0.79526281484E+01  0.15779415413E+02 -0.24810571186E+02  0.30459788046E+02  0.00000000000E+00 0.  1.
         -1    1    6    6    0  502 -0.35763228460E+02 -0.11580531046E+03 -0.32542703983E+02  0.12549464540E+03  0.00000000000E+00 0.  1.
<mgrwt>
<rscale>  0 0.14886796E+04</rscale>
<asrwt>0</asrwt>
<pdfrwt beam="1">  1        1 0.13855452E+00 0.14886796E+04</pdfrwt>
<pdfrwt beam="2">  1       -1 0.94644430E-01 0.14886796E+04</pdfrwt>
<totfact> 0.19009364E+01</totfact>
</mgrwt>
</event>
<event>
12    1  0.2433511E-007  0.1545977E+04  0.7818608E-02  0.8854441E-01
          2   -1    0    0  501    0  0.00000000000E+00  0.00000000000E+00  0.24075244805E+04  0.24075244805E+04  0.00000000000E+00 0. -1.
         -2   -1    0    0    0  501 -0.00000000000E+00 -0.00000000000E+00 -0.24818492300E+03  0.24818492300E+03  0.00000000000E+00 0.  1.
         23    2    1    2    0    0  0.26550912410E+03 -0.43021359147E+03  0.72431095005E+03  0.88796056582E+03  0.90932858918E+02 0.  0.
        254    2    1    2    0    0 -0.26550912410E+03  0.43021359147E+03  0.14350286074E+04  0.17677488377E+04  0.90002778825E+03 0.  0.
        -24    2    4    4    0    0 -0.33087882863E+03 -0.80315165589E+02  0.14859559680E+03  0.37986976158E+03  0.79303589524E+02 0.  0.
         24    2    4    4    0    0  0.65369704528E+02  0.51052875706E+03  0.12864330106E+04  0.13878790761E+04  0.79910130245E+02 0.  0.
         13    1    3    3    0    0  0.18405753908E+03 -0.22030148056E+03  0.37283345667E+03  0.47054724145E+03  0.00000000000E+00 0. -1.
        -13    1    3    3    0    0  0.81451585029E+02 -0.20991211091E+03  0.35147749338E+03  0.41741332437E+03  0.00000000000E+00 0.  1.
          2    1    6    6  502    0  0.47711411184E+02  0.46979685625E+03  0.12177070471E+04  0.13060612227E+04  0.00000000000E+00 0. -1.
          3    1    5    5  503    0 -0.30827546161E+03 -0.64450300495E+02  0.11251885221E+03  0.33443697996E+03  0.00000000000E+00 0. -1.
         -4    1    5    5    0  503 -0.22603367026E+02 -0.15864865094E+02  0.36076744585E+02  0.45432781614E+02  0.00000000000E+00 0.  1.
         -1    1    6    6    0  502  0.17658293344E+02  0.40731900805E+02  0.68725963556E+02  0.81817853392E+02  0.00000000000E+00 0.  1.
<mgrwt>
<rscale>  0 0.15459771E+04</rscale>
<asrwt>0</asrwt>
<pdfrwt beam="1">  1        2 0.37038837E+00 0.15459771E+04</pdfrwt>
<pdfrwt beam="2">  1       -2 0.38182297E-01 0.15459771E+04</pdfrwt>
<totfact> 0.24592714E+01</totfact>
</mgrwt>
</event>
<event>
12    1  0.2433511E-007  0.2490489E+04  0.7818608E-02  0.8406382E-01
          1   -1    0    0  501    0  0.00000000000E+00  0.00000000000E+00  0.84981802302E+03  0.84981802302E+03  0.00000000000E+00 0. -1.
         -1   -1    0    0    0  501 -0.00000000000E+00 -0.00000000000E+00 -0.18246663368E+04  0.18246663368E+04  0.00000000000E+00 0.  1.
         23    2    1    2    0    0  0.17894314336E+03 -0.97298861822E+03  0.41595052480E+02  0.99425676216E+03  0.89938095176E+02 0.  0.
        254    2    1    2    0    0 -0.17894314336E+03  0.97298861822E+03 -0.10164433663E+04  0.16802275977E+04  0.90071092114E+03 0.  0.
        -24    2    4    4    0    0 -0.53500687678E+02  0.82469391309E+03 -0.11597339646E+04  0.14260886461E+04  0.75918272420E+02 0.  0.
         24    2    4    4    0    0 -0.12544245569E+03  0.14829470513E+03  0.14329059832E+03  0.25413895157E+03  0.79544213377E+02 0.  0.
         13    1    3    3    0    0  0.68415551783E+02 -0.61267584394E+03  0.22885101266E+02  0.61690850645E+03  0.00000000000E+00 0. -1.
        -13    1    3    3    0    0  0.11052759158E+03 -0.36031277428E+03  0.18709951213E+02  0.37734825571E+03  0.00000000000E+00 0.  1.
          2    1    6    6  502    0 -0.48166791412E+02  0.86309842638E+01  0.46289626796E+02  0.67359210456E+02  0.00000000000E+00 0. -1.
          1    1    5    5  503    0  0.26635143790E+01  0.40433027059E+03 -0.52368865404E+03  0.66161912638E+03  0.00000000000E+00 0. -1.
         -2    1    5    5    0  503 -0.56164202057E+02  0.42036364250E+03 -0.63604531058E+03  0.76446951976E+03  0.00000000000E+00 0.  1.
         -1    1    6    6    0  502 -0.77275664273E+02  0.13966372087E+03  0.97000971521E+02  0.18677974112E+03  0.00000000000E+00 0.  1.
<mgrwt>
<rscale>  0 0.24904894E+04</rscale>
<asrwt>0</asrwt>
<pdfrwt beam="1">  1        1 0.13074123E+00 0.24904894E+04</pdfrwt>
<pdfrwt beam="2">  1       -1 0.28071790E+00 0.24904894E+04</pdfrwt>
<totfact> 0.78441060E-01</totfact>
</mgrwt>
</event>
<event>
12    1  0.2433511E-007  0.2413570E+04  0.7818608E-02  0.8434441E-01
          1   -1    0    0  501    0  0.00000000000E+00  0.00000000000E+00  0.12495525427E+04  0.12495525427E+04  0.00000000000E+00 0. -1.
         -1   -1    0    0    0  501 -0.00000000000E+00 -0.00000000000E+00 -0.11654813318E+04  0.11654813318E+04  0.00000000000E+00 0.  1.
         23    2    1    2    0    0  0.21545354519E+03  0.10072143304E+04 -0.78243179870E+02  0.10368872873E+04  0.90068384189E+02 0.  0.
        254    2    1    2    0    0 -0.21545354519E+03 -0.10072143304E+04  0.16231439086E+03  0.13781465872E+04  0.90113324030E+03 0.  0.
        -24    2    4    4    0    0 -0.99809838085E+02 -0.47192946885E+03 -0.36859697455E+03  0.61127783782E+03  0.71536270605E+02 0.  0.
         24    2    4    4    0    0 -0.11564370711E+03 -0.53528486157E+03  0.53091136541E+03  0.76686874938E+03  0.79482393260E+02 0.  0.
         13    1    3    3    0    0  0.21325506075E+03  0.10008870402E+04 -0.69277676747E+02  0.10256958539E+04  0.00000000000E+00 0. -1.
        -13    1    3    3    0    0  0.21984844379E+01  0.63272901836E+01 -0.89655031233E+01  0.11191433382E+02  0.00000000000E+00 0.  1.
          4    1    6    6  502    0 -0.70092929472E+02 -0.43176660498E+03  0.38870663319E+03  0.58517370636E+03  0.00000000000E+00 0. -1.
          1    1    5    5  503    0 -0.10283896750E+03 -0.35793424640E+03 -0.29983795258E+03  0.47811669683E+03  0.00000000000E+00 0. -1.
         -2    1    5    5    0  503  0.30291294103E+01 -0.11399522245E+03 -0.68759021964E+02  0.13316114098E+03  0.00000000000E+00 0.  1.
         -3    1    6    6    0  502 -0.45550777634E+02 -0.10351825659E+03  0.14220473222E+03  0.18169504301E+03  0.00000000000E+00 0.  1.
<mgrwt>
<rscale>  0 0.24135701E+04</rscale>
<asrwt>0</asrwt>
<pdfrwt beam="1">  1        1 0.19223885E+00 0.24135701E+04</pdfrwt>
<pdfrwt beam="2">  1       -1 0.17930482E+00 0.24135701E+04</pdfrwt>
<totfact> 0.18531693E+00</totfact>
</mgrwt>
</event>
<event>
12    1  0.2433511E-007  0.1839735E+04  0.7818608E-02  0.8685449E-01
         -2   -1    0    0    0  501 -0.00000000000E+00  0.00000000000E+00  0.48946727151E+03  0.48946727151E+03  0.00000000000E+00 0.  1.
          2   -1    0    0  501    0  0.00000000000E+00 -0.00000000000E+00 -0.17287295539E+04  0.17287295539E+04  0.00000000000E+00 0. -1.
         23    2    1    2    0    0 -0.33993614571E+03 -0.21021877626E+03 -0.11595954318E+04  0.12301966661E+04  0.94729903978E+02 0.  0.
        254    2    1    2    0    0  0.33993614571E+03  0.21021877626E+03 -0.79666850525E+02  0.98800015928E+03  0.90002721659E+03 0.  0.
        -24    2    4    4    0    0 -0.36948583688E+02  0.26255261314E+03 -0.39881120300E+03  0.48610110657E+03  0.83335692637E+02 0.  0.
         24    2    4    4    0    0  0.37688472940E+03 -0.52333836878E+02  0.31914435248E+03  0.50189905271E+03  0.72585202733E+02 0.  0.
         13    1    3    3    0    0 -0.11413908860E+03 -0.96732060463E+02 -0.31725043727E+03  0.35076012175E+03  0.00000000000E+00 0. -1.
        -13    1    3    3    0    0 -0.22579705711E+03 -0.11348671580E+03 -0.84234499455E+03  0.87943654433E+03  0.00000000000E+00 0.  1.
          4    1    6    6  502    0  0.31168235379E+03 -0.64382894339E+02  0.23976593681E+03  0.39847051485E+03  0.00000000000E+00 0. -1.
          3    1    5    5  503    0  0.53638976846E+01  0.14920633648E+03 -0.16286642337E+03  0.22094518348E+03  0.00000000000E+00 0. -1.
         -4    1    5    5    0  503 -0.42312481372E+02  0.11334627666E+03 -0.23594477963E+03  0.26515592309E+03  0.00000000000E+00 0.  1.
         -3    1    6    6    0  502  0.65202375608E+02  0.12049057461E+02  0.79378415662E+02  0.10342853786E+03  0.00000000000E+00 0.  1.
<mgrwt>
<rscale>  0 0.18397353E+04</rscale>
<asrwt>0</asrwt>
<pdfrwt beam="1">  1        2 0.26595839E+00 0.18397353E+04</pdfrwt>
<pdfrwt beam="2">  1       -2 0.75302657E-01 0.18397353E+04</pdfrwt>
<totfact> 0.14076620E+01</totfact>
</mgrwt>
</event>
<event>
12    1  0.2433511E-007  0.1482423E+04  0.7818608E-02  0.8896226E-01
         -1   -1    0    0    0  501 -0.00000000000E+00  0.00000000000E+00  0.46882606370E+03  0.46882606370E+03  0.00000000000E+00 0.  1.
          1   -1    0    0  501    0  0.00000000000E+00 -0.00000000000E+00 -0.11718511607E+04  0.11718511607E+04  0.00000000000E+00 0. -1.
         23    2    1    2    0    0  0.23386704900E+03  0.27950219219E+03  0.94504045804E+02  0.38781271376E+03  0.93018354288E+02 0.  0.
        254    2    1    2    0    0 -0.23386704900E+03 -0.27950219219E+03 -0.79752914279E+03  0.12528645106E+04  0.89487511775E+03 0.  0.
        -24    2    4    4    0    0 -0.36088939387E+02  0.29576808826E+03 -0.10553569904E+03  0.32801926927E+03  0.87622392451E+02 0.  0.
         24    2    4    4    0    0 -0.19777810961E+03 -0.57527028045E+03 -0.69199344375E+03  0.92484524137E+03  0.80197992947E+02 0.  0.
         11    1    3    3    0    0  0.17302132674E+03  0.14974751329E+03  0.30467383050E+02  0.23084401372E+03  0.00000000000E+00 0.  1.
        -11    1    3    3    0    0  0.60845722260E+02  0.12975467890E+03  0.64036662754E+02  0.15696870004E+03  0.00000000000E+00 0. -1.
          2    1    6    6  502    0 -0.96783510746E+02 -0.22833016108E+03 -0.22914967159E+03  0.33765556771E+03  0.00000000000E+00 0. -1.
          3    1    5    5  503    0 -0.48867907615E+02  0.14811988971E+03 -0.87187670840E+02  0.17868761588E+03  0.00000000000E+00 0. -1.
         -4    1    5    5    0  503  0.12778968228E+02  0.14764819855E+03 -0.18348028200E+02  0.14933165339E+03  0.00000000000E+00 0.  1.
         -1    1    6    6    0  502 -0.10099459886E+03 -0.34694011937E+03 -0.46284377216E+03  0.58718967366E+03  0.00000000000E+00 0.  1.
<mgrwt>
<rscale>  0 0.14824228E+04</rscale>
<asrwt>0</asrwt>
<pdfrwt beam="1">  1        1 0.18028479E+00 0.14824228E+04</pdfrwt>
<pdfrwt beam="2">  1       -1 0.72127088E-01 0.14824228E+04</pdfrwt>
<totfact> 0.21058280E+01</totfact>
</mgrwt>
</event>
<event>
12    1  0.2433511E-007  0.3417658E+04  0.7818608E-02  0.8133586E-01
         -2   -1    0    0    0  501 -0.00000000000E+00  0.00000000000E+00  0.10292211821E+04  0.10292211821E+04  0.00000000000E+00 0.  1.
          2   -1    0    0  501    0  0.00000000000E+00 -0.00000000000E+00 -0.28371898087E+04  0.28371898087E+04  0.00000000000E+00 0. -1.
         23    2    1    2    0    0  0.13838828235E+04  0.32006562687E+03 -0.16478563305E+04  0.21773432056E+04  0.88426660602E+02 0.  0.
        254    2    1    2    0    0 -0.13838828235E+04 -0.32006562687E+03 -0.16011229611E+03  0.16890677852E+04  0.89985574453E+03 0.  0.
        -24    2    4    4    0    0 -0.38439247719E+03 -0.51511334093E+03 -0.16227071337E+03  0.66756102495E+03  0.78782022633E+02 0.  0.
         24    2    4    4    0    0 -0.99949034632E+03  0.19504771406E+03  0.21584172607E+01  0.10215067603E+04  0.80292212158E+02 0.  0.
         13    1    3    3    0    0  0.68582967672E+03  0.19336277536E+03 -0.78221061091E+03  0.10581138635E+04  0.00000000000E+00 0.  1.
        -13    1    3    3    0    0  0.69805314680E+03  0.12670285151E+03 -0.86564571955E+03  0.11192293420E+04  0.00000000000E+00 0. -1.
          2    1    6    6  502    0 -0.14996496386E+03  0.89971835472E+01 -0.20029768407E+02  0.15156395126E+03  0.00000000000E+00 0. -1.
          3    1    5    5  503    0 -0.21312245017E+03 -0.32641710780E+03 -0.67256947950E+02  0.39559171387E+03  0.00000000000E+00 0. -1.
         -4    1    5    5    0  503 -0.17127002702E+03 -0.18869623314E+03 -0.95013765425E+02  0.27196931109E+03  0.00000000000E+00 0.  1.
         -1    1    6    6    0  502 -0.84952538246E+03  0.18605053052E+03  0.22188185667E+02  0.86994280900E+03  0.00000000000E+00 0.  1.
<mgrwt>
<rscale>  0 0.34176576E+04</rscale>
<asrwt>0</asrwt>
<pdfrwt beam="1">  1        2 0.43649073E+00 0.34176576E+04</pdfrwt>
<pdfrwt beam="2">  1       -2 0.15834172E+00 0.34176576E+04</pdfrwt>
<totfact> 0.47034637E-01</totfact>
</mgrwt>
</event>
<event>
12    1  0.2433511E-007  0.3440358E+04  0.7818608E-02  0.8128072E-01
         -2   -1    0    0    0  501 -0.00000000000E+00  0.00000000000E+00  0.15608652233E+04  0.15608652233E+04  0.00000000000E+00 0.  1.
          2   -1    0    0  501    0  0.00000000000E+00 -0.00000000000E+00 -0.18957537983E+04  0.18957537983E+04  0.00000000000E+00 0. -1.
         23    2    1    2    0    0  0.90541706715E+03  0.52745771450E+03 -0.13719607737E+04  0.17287043385E+04  0.90280780756E+02 0.  0.
        254    2    1    2    0    0 -0.90541706715E+03 -0.52745771450E+03  0.10370721986E+04  0.17279146831E+04  0.90120957650E+03 0.  0.
        -24    2    4    4    0    0  0.78884171188E+02  0.89969005226E+02 -0.33341099093E+02  0.14613577574E+03  0.76986373456E+02 0.  0.
         24    2    4    4    0    0 -0.98430123834E+03 -0.61742671972E+03  0.10704132977E+04  0.15817789073E+04  0.78582451909E+02 0.  0.
         11    1    3    3    0    0  0.32808022985E+03  0.15431082299E+03 -0.52180916301E+03  0.63540008648E+03  0.00000000000E+00 0. -1.
        -11    1    3    3    0    0  0.57733683730E+03  0.37314689151E+03 -0.85015161068E+03  0.10933042520E+04  0.00000000000E+00 0.  1.
          2    1    6    6  502    0 -0.23978772076E+03 -0.18280754927E+03  0.30603095540E+03  0.42961808244E+03  0.00000000000E+00 0. -1.
          1    1    5    5  503    0 -0.21932148195E+01  0.42719189498E+02 -0.29978922077E+02  0.52234807471E+02  0.00000000000E+00 0. -1.
         -2    1    5    5    0  503  0.81077386008E+02  0.47249815728E+02 -0.33621770159E+01  0.93900968272E+02  0.00000000000E+00 0.  1.
         -1    1    6    6    0  502 -0.74451351758E+03 -0.43461917046E+03  0.76438234232E+03  0.11521608249E+04  0.00000000000E+00 0.  1.
<mgrwt>
<rscale>  0 0.34403582E+04</rscale>
<asrwt>0</asrwt>
<pdfrwt beam="1">  1        2 0.29165443E+00 0.34403582E+04</pdfrwt>
<pdfrwt beam="2">  1       -2 0.24013311E+00 0.34403582E+04</pdfrwt>
<totfact> 0.46612887E-01</totfact>
</mgrwt>
</event>
<event>
12    1  0.2433511E-007  0.1719942E+04  0.7818608E-02  0.8750072E-01
         -2   -1    0    0    0  501 -0.00000000000E+00  0.00000000000E+00  0.69865120331E+03  0.69865120331E+03  0.00000000000E+00 0.  1.
          2   -1    0    0  501    0  0.00000000000E+00 -0.00000000000E+00 -0.10585392535E+04  0.10585392535E+04  0.00000000000E+00 0. -1.
         23    2    1    2    0    0  0.55766179477E+03  0.12092339519E+03 -0.38025754168E+03  0.69174353818E+03  0.91127272300E+02 0.  0.
        254    2    1    2    0    0 -0.55766179477E+03 -0.12092339519E+03  0.20369491516E+02  0.10654469186E+04  0.89952936323E+03 0.  0.
        -24    2    4    4    0    0 -0.78338138716E+02  0.30315240318E+03 -0.20462518345E+03  0.38237918443E+03  0.79398560765E+02 0.  0.
         24    2    4    4    0    0 -0.47932365605E+03 -0.42407579837E+03  0.22499467496E+03  0.68306773417E+03  0.79796464092E+02 0.  0.
         11    1    3    3    0    0  0.23822043844E+03  0.69777255766E+02 -0.11587320485E+03  0.27394240693E+03  0.00000000000E+00 0.  1.
        -11    1    3    3    0    0  0.31944135633E+03  0.51146139428E+02 -0.26438433682E+03  0.41780113125E+03  0.00000000000E+00 0. -1.
          2    1    6    6  502    0 -0.24195462731E+03 -0.19041067364E+03  0.14595642409E+03  0.34073676650E+03  0.00000000000E+00 0. -1.
          3    1    5    5  503    0 -0.37431831722E+02  0.25650185577E+03 -0.18019805285E+03  0.31569872076E+03  0.00000000000E+00 0. -1.
         -4    1    5    5    0  503 -0.40906306995E+02  0.46650547409E+02 -0.24427130599E+02  0.66680463666E+02  0.00000000000E+00 0.  1.
         -1    1    6    6    0  502 -0.23736902875E+03 -0.23366512473E+03  0.79038250879E+02  0.34233096767E+03  0.00000000000E+00 0.  1.
<mgrwt>
<rscale>  0 0.17199415E+04</rscale>
<asrwt>0</asrwt>
<pdfrwt beam="1">  1        2 0.16285219E+00 0.17199415E+04</pdfrwt>
<pdfrwt beam="2">  1       -2 0.10748480E+00 0.17199415E+04</pdfrwt>
<totfact> 0.15265092E+01</totfact>
</mgrwt>
</event>
<event>
12    1  0.2752661E-007  0.2043546E+04  0.7818608E-02  0.8586528E-01
          1   -1    0    0  501    0  0.00000000000E+00  0.00000000000E+00  0.15005387475E+04  0.15005387475E+04  0.00000000000E+00 0. -1.
         -1   -1    0    0    0  501 -0.00000000000E+00 -0.00000000000E+00 -0.69576338897E+03  0.69576338897E+03  0.00000000000E+00 0.  1.
         23    2    1    2    0    0 -0.24179477275E+01 -0.65643919212E+03 -0.20394140214E+03  0.69358788855E+03  0.92486778599E+02 0.  0.
        254    2    1    2    0    0  0.24179477275E+01  0.65643919212E+03  0.10087167607E+04  0.15027142479E+04  0.89984573579E+03 0.  0.
        -24    2    4    4    0    0 -0.66328195235E+02 -0.19866403977E+03  0.36205484078E+03  0.42568439100E+03  0.79099069737E+02 0.  0.
         24    2    4    4    0    0  0.68746142963E+02  0.85510323189E+03  0.64666191993E+03  0.10770298569E+04  0.76773072734E+02 0.  0.
         13    1    3    3    0    0 -0.51614469554E+01 -0.15958522778E+03 -0.92262198450E+01  0.15993501365E+03  0.00000000000E+00 0. -1.
        -13    1    3    3    0    0  0.27434992278E+01 -0.49685396435E+03 -0.19471518230E+03  0.53365287490E+03  0.00000000000E+00 0.  1.
          4    1    6    6  502    0  0.74436100114E+02  0.83098215046E+03  0.61332477231E+03  0.10354899052E+04  0.00000000000E+00 0. -1.
          1    1    5    5  503    0 -0.80557243360E+02 -0.14318047401E+03  0.29348391439E+03  0.33633751738E+03  0.00000000000E+00 0. -1.
         -2    1    5    5    0  503  0.14229048124E+02 -0.55483565756E+02  0.68570926392E+02  0.89346873621E+02  0.00000000000E+00 0.  1.
         -3    1    6    6    0  502 -0.56899571515E+01  0.24121081433E+02  0.33337147620E+02  0.41539951774E+02  0.00000000000E+00 0.  1.
<mgrwt>
<rscale>  0 0.20435459E+04</rscale>
<asrwt>0</asrwt>
<pdfrwt beam="1">  1        1 0.23085211E+00 0.20435459E+04</pdfrwt>
<pdfrwt beam="2">  1       -1 0.10704052E+00 0.20435459E+04</pdfrwt>
<totfact> 0.49159789E+00</totfact>
</mgrwt>
</event>
<event>
12    1  0.2433511E-007  0.2139949E+04  0.7818608E-02  0.8543847E-01
         -2   -1    0    0    0  501 -0.00000000000E+00  0.00000000000E+00  0.33353613296E+03  0.33353613296E+03  0.00000000000E+00 0.  1.
          2   -1    0    0  501    0  0.00000000000E+00 -0.00000000000E+00 -0.34324494704E+04  0.34324494704E+04  0.00000000000E+00 0. -1.
         23    2    1    2    0    0  0.38679739585E+03  0.78425671103E+03 -0.14248861106E+04  0.16742846122E+04  0.90871998483E+02 0.  0.
        254    2    1    2    0    0 -0.38679739585E+03 -0.78425671103E+03 -0.16740272268E+04  0.20917009912E+04  0.89898557617E+03 0.  0.
        -24    2    4    4    0    0  0.12696570821E+03 -0.70209309209E+03 -0.10982107716E+04  0.13121303098E+04  0.81018824884E+02 0.  0.
         24    2    4    4    0    0 -0.51376310405E+03 -0.82163618942E+02 -0.57581645518E+03  0.77957068137E+03  0.73908523354E+02 0.  0.
         11    1    3    3    0    0  0.12954307972E+03  0.23688834466E+03 -0.36546734748E+03  0.45438296558E+03  0.00000000000E+00 0.  1.
        -11    1    3    3    0    0  0.25725431613E+03  0.54736836637E+03 -0.10594187631E+04  0.12199016466E+04  0.00000000000E+00 0. -1.
          2    1    6    6  502    0 -0.15528649112E+03 -0.55914432184E+02 -0.20430398071E+03  0.26264126596E+03  0.00000000000E+00 0. -1.
          3    1    5    5  503    0  0.35641632300E+02 -0.63203032823E+02 -0.11843802353E+03  0.13889749720E+03  0.00000000000E+00 0. -1.
         -4    1    5    5    0  503  0.91324075905E+02 -0.63889005926E+03 -0.97977274811E+03  0.11732328126E+04  0.00000000000E+00 0.  1.
         -1    1    6    6    0  502 -0.35847661293E+03 -0.26249186757E+02 -0.37151247447E+03  0.51692941541E+03  0.00000000000E+00 0.  1.
<mgrwt>
<rscale>  0 0.21399495E+04</rscale>
<asrwt>0</asrwt>
<pdfrwt beam="1">  1        2 0.52806915E+00 0.21399495E+04</pdfrwt>
<pdfrwt beam="2">  1       -2 0.51313252E-01 0.21399495E+04</pdfrwt>
<totfact> 0.29966292E+00</totfact>
</mgrwt>
</event>
<event>
12    1  0.2433511E-007  0.3723502E+04  0.7818608E-02  0.8062773E-01
         -2   -1    0    0    0  501 -0.00000000000E+00  0.00000000000E+00  0.21304526043E+04  0.21304526043E+04  0.00000000000E+00 0. -1.
          2   -1    0    0  501    0  0.00000000000E+00 -0.00000000000E+00 -0.16269395541E+04  0.16269395541E+04  0.00000000000E+00 0.  1.
         23    2    1    2    0    0 -0.66401714197E+03  0.12913482995E+04  0.12261703696E+04  0.19027058034E+04  0.91084596913E+02 0.  0.
        254    2    1    2    0    0  0.66401714197E+03 -0.12913482995E+04 -0.72265731938E+03  0.18546863549E+04  0.89951580219E+03 0.  0.
        -24    2    4    4    0    0  0.11201210039E+02 -0.27402602497E+02  0.16091411584E+03  0.17824113440E+03  0.70711947960E+02 0.  0.
         24    2    4    4    0    0  0.65281593193E+03 -0.12639456970E+04 -0.88357143523E+03  0.16764452205E+04  0.77735000418E+02 0.  0.
         13    1    3    3    0    0 -0.12844295448E+03  0.32615192881E+03  0.31831140697E+03  0.47349215942E+03  0.00000000000E+00 0.  1.
        -13    1    3    3    0    0 -0.53557418749E+03  0.96519637066E+03  0.90785896263E+03  0.14292136440E+04  0.00000000000E+00 0. -1.
          2    1    6    6  502    0  0.69979873501E+02 -0.19172091987E+03 -0.13681379018E+03  0.24570736048E+03  0.00000000000E+00 0. -1.
          1    1    5    5  503    0 -0.14911640063E+02 -0.25082097627E+02  0.21147817301E+02  0.36037463942E+02  0.00000000000E+00 0. -1.
         -2    1    5    5    0  503  0.26112850102E+02 -0.23205048692E+01  0.13976629854E+03  0.14220367046E+03  0.00000000000E+00 0.  1.
         -1    1    6    6    0  502  0.58283605843E+03 -0.10722247771E+04 -0.74675764504E+03  0.14307378600E+04  0.00000000000E+00 0.  1.
<mgrwt>
<rscale>  0 0.37235024E+04</rscale>
<asrwt>0</asrwt>
<pdfrwt beam="1">  1        2 0.25029839E+00 0.37235024E+04</pdfrwt>
<pdfrwt beam="2">  1       -2 0.32776194E+00 0.37235024E+04</pdfrwt>
<totfact> 0.18624565E-01</totfact>
</mgrwt>
</event>
<event>
12    1  0.2433511E-007  0.2741978E+04  0.7818608E-02  0.8321512E-01
         -2   -1    0    0    0  501 -0.00000000000E+00  0.00000000000E+00  0.10366025057E+04  0.10366025057E+04  0.00000000000E+00 0.  1.
          2   -1    0    0  501    0  0.00000000000E+00 -0.00000000000E+00 -0.18132411392E+04  0.18132411392E+04  0.00000000000E+00 0. -1.
         23    2    1    2    0    0 -0.53333654426E+03 -0.10180915898E+04  0.77070982149E+02  0.11553282798E+04  0.88798329000E+02 0.  0.
        254    2    1    2    0    0  0.53333654426E+03  0.10180915898E+04 -0.85370961563E+03  0.16945153652E+04  0.90642366492E+03 0.  0.
        -24    2    4    4    0    0 -0.20499079433E+03  0.48973548136E+03 -0.43645488971E+03  0.69200089511E+03  0.80686433906E+02 0.  0.
         24    2    4    4    0    0  0.73832733860E+03  0.52835610839E+03 -0.41725472592E+03  0.10025144700E+04  0.81524966310E+02 0.  0.
         13    1    3    3    0    0 -0.33686772969E+03 -0.69930833947E+03  0.19469260936E+02  0.77646060626E+03  0.00000000000E+00 0. -1.
        -13    1    3    3    0    0 -0.19646881457E+03 -0.31878325029E+03  0.57601721213E+02  0.37886767354E+03  0.00000000000E+00 0.  1.
          4    1    6    6  502    0  0.19016348013E+03  0.17870192334E+03 -0.10588094639E+03  0.28161552050E+03  0.00000000000E+00 0. -1.
          1    1    5    5  503    0 -0.17982599600E+03  0.38112614414E+03 -0.37805335115E+03  0.56614385354E+03  0.00000000000E+00 0. -1.
         -2    1    5    5    0  503 -0.25164798338E+02  0.10860933722E+03 -0.58401538556E+02  0.12585704157E+03  0.00000000000E+00 0.  1.
         -3    1    6    6    0  502  0.54816385847E+03  0.34965418505E+03 -0.31137377953E+03  0.72089894953E+03  0.00000000000E+00 0.  1.
<mgrwt>
<rscale>  0 0.27419776E+04</rscale>
<asrwt>0</asrwt>
<pdfrwt beam="1">  1        2 0.27896017E+00 0.27419776E+04</pdfrwt>
<pdfrwt beam="2">  1       -2 0.15947731E+00 0.27419776E+04</pdfrwt>
<totfact> 0.18853995E+00</totfact>
</mgrwt>
</event>
<event>
12    1  0.2433511E-007  0.3032810E+04  0.7818608E-02  0.8234423E-01
          2   -1    0    0  501    0  0.00000000000E+00  0.00000000000E+00  0.18803132642E+04  0.18803132642E+04  0.00000000000E+00 0. -1.
         -2   -1    0    0    0  501 -0.00000000000E+00 -0.00000000000E+00 -0.12229263557E+04  0.12229263557E+04  0.00000000000E+00 0.  1.
         23    2    1    2    0    0  0.33789105743E+03 -0.95003866726E+03  0.12651875944E+04  0.16204351254E+04  0.91468632024E+02 0.  0.
        254    2    1    2    0    0 -0.33789105743E+03  0.95003866726E+03 -0.60780068593E+03  0.14828044945E+04  0.90141203623E+03 0.  0.
        -24    2    4    4    0    0  0.29610037508E+03  0.33811066603E+03 -0.30025766542E+03  0.54621648000E+03  0.78762445184E+02 0.  0.
         24    2    4    4    0    0 -0.63399143251E+03  0.61192800123E+03 -0.30754302051E+03  0.93658801448E+03  0.78825022778E+02 0.  0.
         11    1    3    3    0    0  0.98850022092E+02 -0.21917838317E+03  0.24951223750E+03  0.34650663367E+03  0.00000000000E+00 0.  1.
        -11    1    3    3    0    0  0.23904103534E+03 -0.73086028409E+03  0.10156753569E+04  0.12739284917E+04  0.00000000000E+00 0. -1.
          2    1    6    6  502    0 -0.13366966747E+03  0.14179987005E+03 -0.35332975170E+02  0.19804848467E+03  0.00000000000E+00 0. -1.
          3    1    5    5  503    0  0.11121830318E+03  0.78283981237E+02 -0.10964951475E+03  0.17470234333E+03  0.00000000000E+00 0. -1.
         -4    1    5    5    0  503  0.18488207190E+03  0.25982668479E+03 -0.19060815067E+03  0.37151413666E+03  0.00000000000E+00 0.  1.
         -1    1    6    6    0  502 -0.50032176505E+03  0.47012813119E+03 -0.27221004534E+03  0.73853952981E+03  0.00000000000E+00 0.  1.
<mgrwt>
<rscale>  0 0.30328103E+04</rscale>
<asrwt>0</asrwt>
<pdfrwt beam="1">  1        2 0.28927896E+00 0.30328103E+04</pdfrwt>
<pdfrwt beam="2">  1       -2 0.18814252E+00 0.30328103E+04</pdfrwt>
<totfact> 0.10606462E+00</totfact>
</mgrwt>
</event>
<event>
12    1  0.2433511E-007  0.3097443E+04  0.7818608E-02  0.8216440E-01
         -1   -1    0    0    0  501 -0.00000000000E+00  0.00000000000E+00  0.23481760553E+04  0.23481760553E+04  0.00000000000E+00 0.  1.
          1   -1    0    0  501    0  0.00000000000E+00 -0.00000000000E+00 -0.10214476430E+04  0.10214476430E+04  0.00000000000E+00 0. -1.
         23    2    1    2    0    0  0.24400884105E+03  0.13631099835E+04  0.93060921457E+03  0.16708955874E+04  0.90826275393E+02 0.  0.
        254    2    1    2    0    0 -0.24400884105E+03 -0.13631099835E+04  0.39611919771E+03  0.16987281109E+04  0.90064290060E+03 0.  0.
        -24    2    4    4    0    0 -0.56313241343E+03 -0.70371664174E+03  0.12740691257E+03  0.91425280152E+03  0.85384054719E+02 0.  0.
         24    2    4    4    0    0  0.31912357237E+03 -0.65939334173E+03  0.26871228514E+03  0.78447530937E+03  0.80967803891E+02 0.  0.
         13    1    3    3    0    0  0.17838193975E+03  0.11703503994E+04  0.80538964918E+03  0.14318493848E+04  0.00000000000E+00 0.  1.
        -13    1    3    3    0    0  0.65626901301E+02  0.19275958404E+03  0.12521956540E+03  0.23904620259E+03  0.00000000000E+00 0. -1.
          4    1    6    6  502    0  0.98814019038E+02 -0.28245524577E+03  0.87578058334E+02  0.31179334906E+03  0.00000000000E+00 0. -1.
          3    1    5    5  503    0 -0.54092655289E+03 -0.64106691206E+03  0.11500820092E+03  0.84663758931E+03  0.00000000000E+00 0. -1.
         -4    1    5    5    0  503 -0.22205860543E+02 -0.62649729683E+02  0.12398711649E+02  0.67615212211E+02  0.00000000000E+00 0.  1.
         -1    1    6    6    0  502  0.22030955334E+03 -0.37693809597E+03  0.18113422680E+03  0.47268196031E+03  0.00000000000E+00 0.  1.
<mgrwt>
<rscale>  0 0.30974434E+04</rscale>
<asrwt>0</asrwt>
<pdfrwt beam="1">  1        1 0.15714579E+00 0.30974434E+04</pdfrwt>
<pdfrwt beam="2">  1       -1 0.36125785E+00 0.30974434E+04</pdfrwt>
<totfact> 0.16060854E-01</totfact>
</mgrwt>
</event>
<event>
12    1  0.2433511E-007  0.1547187E+04  0.7818608E-02  0.8853666E-01
          2   -1    0    0  501    0  0.00000000000E+00  0.00000000000E+00  0.35438043681E+03  0.35438043681E+03  0.00000000000E+00 0.  1.
         -2   -1    0    0    0  501 -0.00000000000E+00 -0.00000000000E+00 -0.16887135327E+04  0.16887135327E+04  0.00000000000E+00 0. -1.
         23    2    1    2    0    0 -0.32686917252E+03  0.23337716189E+03 -0.85288614545E+03  0.94732133726E+03  0.93244749336E+02 0.  0.
        254    2    1    2    0    0  0.32686917252E+03 -0.23337716189E+03 -0.48144695046E+03  0.10957726323E+04  0.89867577017E+03 0.  0.
        -24    2    4    4    0    0  0.11262338764E+02 -0.50584539400E+03 -0.93796706446E+02  0.52066164030E+03  0.79273694462E+02 0.  0.
         24    2    4    4    0    0  0.31560683375E+03  0.27246823210E+03 -0.38765024402E+03  0.57511099197E+03  0.81445260058E+02 0.  0.
         13    1    3    3    0    0 -0.20150506705E+03  0.17390204273E+03 -0.64075489746E+03  0.69383935542E+03  0.00000000000E+00 0. -1.
        -13    1    3    3    0    0 -0.12536410547E+03  0.59475119157E+02 -0.21213124799E+03  0.25348198183E+03  0.00000000000E+00 0.  1.
          4    1    6    6  502    0  0.25371416374E+03  0.25360158686E+03 -0.31070091046E+03  0.47457317402E+03  0.00000000000E+00 0. -1.
          1    1    5    5  503    0 -0.30231614355E+02 -0.15065221846E+03 -0.14268840157E+02  0.15431669136E+03  0.00000000000E+00 0. -1.
         -2    1    5    5    0  503  0.41493953119E+02 -0.35519317554E+03 -0.79527866289E+02  0.36634494894E+03  0.00000000000E+00 0.  1.
         -3    1    6    6    0  502  0.61892670018E+02  0.18866645248E+02 -0.76949333554E+02  0.10053781796E+03  0.00000000000E+00 0.  1.
<mgrwt>
<rscale>  0 0.15471872E+04</rscale>
<asrwt>0</asrwt>
<pdfrwt beam="1">  1        2 0.54520067E-01 0.15471872E+04</pdfrwt>
<pdfrwt beam="2">  1       -2 0.25980208E+00 0.15471872E+04</pdfrwt>
<totfact> 0.49133263E+00</totfact>
</mgrwt>
</event>
<event>
12    1  0.2433511E-007  0.1766302E+04  0.7818608E-02  0.8724428E-01
         -2   -1    0    0    0  501 -0.00000000000E+00  0.00000000000E+00  0.26347961102E+03  0.26347961102E+03  0.00000000000E+00 0.  1.
          2   -1    0    0  501    0  0.00000000000E+00 -0.00000000000E+00 -0.29602122178E+04  0.29602122178E+04  0.00000000000E+00 0. -1.
         23    2    1    2    0    0  0.26179579195E+03  0.58555115231E+03 -0.80225274694E+03  0.10305182970E+04  0.83374467119E+02 0.  0.
        254    2    1    2    0    0 -0.26179579195E+03 -0.58555115231E+03 -0.18944798599E+04  0.21931735319E+04  0.89974941670E+03 0.  0.
        -24    2    4    4    0    0 -0.35411328752E+03  0.25462581733E+01 -0.24493657424E+03  0.43778938514E+03  0.79138590525E+02 0.  0.
         24    2    4    4    0    0  0.92317495563E+02 -0.58809741048E+03 -0.16495432856E+04  0.17553841468E+04  0.77455582697E+02 0.  0.
         11    1    3    3    0    0  0.11289172743E+03  0.25501357418E+03 -0.41552502440E+03  0.50043731979E+03  0.00000000000E+00 0. -1.
        -11    1    3    3    0    0  0.14890406452E+03  0.33053757813E+03 -0.38672772254E+03  0.53008097718E+03  0.00000000000E+00 0.  1.
          4    1    6    6  502    0  0.72833351651E+02 -0.56622413979E+03 -0.15767258352E+04  0.16768955940E+04  0.00000000000E+00 0. -1.
          3    1    5    5  503    0 -0.31914120703E+03 -0.21087279999E+02 -0.22538255177E+03  0.39127110556E+03  0.00000000000E+00 0. -1.
         -4    1    5    5    0  503 -0.34972080484E+02  0.23633538172E+02 -0.19554022472E+02  0.46518279577E+02  0.00000000000E+00 0.  1.
         -3    1    6    6    0  502  0.19484143913E+02 -0.21873270689E+02 -0.72817450426E+02  0.78488552803E+02  0.00000000000E+00 0.  1.
<mgrwt>
<rscale>  0 0.17663019E+04</rscale>
<asrwt>0</asrwt>
<pdfrwt beam="1">  1        2 0.45541725E+00 0.17663019E+04</pdfrwt>
<pdfrwt beam="2">  1       -2 0.40535326E-01 0.17663019E+04</pdfrwt>
<totfact> 0.10095512E+01</totfact>
</mgrwt>
</event>
<event>
12    1  0.2433511E-007  0.2439542E+04  0.7818608E-02  0.8424846E-01
          1   -1    0    0  501    0  0.00000000000E+00  0.00000000000E+00  0.24020410419E+04  0.24020410419E+04  0.00000000000E+00 0.  1.
         -1   -1    0    0    0  501 -0.00000000000E+00 -0.00000000000E+00 -0.61940721610E+03  0.61940721610E+03  0.00000000000E+00 0. -1.
         23    2    1    2    0    0  0.91666793151E+03 -0.36329346728E+03  0.32007206798E+03  0.10407197250E+04  0.91592452135E+02 0.  0.
        254    2    1    2    0    0 -0.91666793151E+03  0.36329346728E+03  0.14625617578E+04  0.19807285330E+04  0.90107512778E+03 0.  0.
        -24    2    4    4    0    0 -0.31145832220E+03 -0.15516610876E+03  0.98733209956E+03  0.10498956210E+04  0.79833153476E+02 0.  0.
         24    2    4    4    0    0 -0.60520960931E+03  0.51845957604E+03  0.47522965822E+03  0.93083291196E+03  0.74348360711E+02 0.  0.
         13    1    3    3    0    0  0.30041024356E+03 -0.14020152944E+03  0.14838771230E+03  0.36321026479E+03  0.00000000000E+00 0.  1.
        -13    1    3    3    0    0  0.61625768796E+03 -0.22309193785E+03  0.17168435569E+03  0.67750946022E+03  0.00000000000E+00 0. -1.
          4    1    6    6  502    0 -0.14654159587E+03  0.16892454055E+03  0.13863189085E+03  0.26311355130E+03  0.00000000000E+00 0. -1.
          3    1    5    5  503    0 -0.20558644484E+03 -0.14284958244E+03  0.70262652375E+03  0.74589263395E+03  0.00000000000E+00 0. -1.
         -4    1    5    5    0  503 -0.10587187736E+03 -0.12316526319E+02  0.28470557581E+03  0.30400298704E+03  0.00000000000E+00 0.  1.
         -3    1    6    6    0  502 -0.45866801344E+03  0.34953503549E+03  0.33659776737E+03  0.66771936065E+03  0.00000000000E+00 0.  1.
<mgrwt>
<rscale>  0 0.24395422E+04</rscale>
<asrwt>0</asrwt>
<pdfrwt beam="1">  1        1 0.36954477E+00 0.24395422E+04</pdfrwt>
<pdfrwt beam="2">  1       -1 0.95293419E-01 0.24395422E+04</pdfrwt>
<totfact> 0.15033967E+00</totfact>
</mgrwt>
</event>
<event>
12    1  0.2433511E-007  0.4500507E+04  0.7818608E-02  0.7910548E-01
          2   -1    0    0  501    0  0.00000000000E+00  0.00000000000E+00  0.24412802106E+04  0.24412802106E+04  0.00000000000E+00 0. -1.
         -2   -1    0    0    0  501 -0.00000000000E+00 -0.00000000000E+00 -0.20741740485E+04  0.20741740485E+04  0.00000000000E+00 0.  1.
         23    2    1    2    0    0 -0.87593458753E+03 -0.19612592957E+04 -0.43600590972E+02  0.21503828714E+04  0.91902422708E+02 0.  0.
        254    2    1    2    0    0  0.87593458753E+03  0.19612592957E+04  0.41070675307E+03  0.23650713877E+04  0.90060157950E+03 0.  0.
        -24    2    4    4    0    0 -0.10682560796E+03  0.75925684918E+03  0.77218942658E+02  0.77455920039E+03  0.78080191262E+02 0.  0.
         24    2    4    4    0    0  0.98276019549E+03  0.12020024466E+04  0.33348781041E+03  0.15905121873E+04  0.88811118722E+02 0.  0.
         13    1    3    3    0    0 -0.39422237282E+03 -0.93327682275E+03  0.20421401718E+02  0.10133281506E+04  0.00000000000E+00 0. -1.
        -13    1    3    3    0    0 -0.48171221471E+03 -0.10279824730E+04 -0.64021992690E+02  0.11370547208E+04  0.00000000000E+00 0.  1.
          2    1    6    6  502    0  0.52391964777E+02  0.38913340548E+02  0.61663276730E+01  0.65552952968E+02  0.00000000000E+00 0. -1.
          1    1    5    5  503    0 -0.20687146131E+02  0.74973045181E+02  0.29656070578E+02  0.83236999231E+02  0.00000000000E+00 0. -1.
         -4    1    5    5    0  503 -0.86138461827E+02  0.68428380400E+03  0.47562872080E+02  0.69132220116E+03  0.00000000000E+00 0.  1.
         -1    1    6    6    0  502  0.93036823071E+03  0.11630891060E+04  0.32732148274E+03  0.15249592343E+04  0.00000000000E+00 0.  1.
<mgrwt>
<rscale>  0 0.45005067E+04</rscale>
<asrwt>0</asrwt>
<pdfrwt beam="1">  1        2 0.37558157E+00 0.45005067E+04</pdfrwt>
<pdfrwt beam="2">  1       -2 0.31910370E+00 0.45005067E+04</pdfrwt>
<totfact> 0.69165458E-02</totfact>
</mgrwt>
</event>
<event>
12    1  0.2433511E-007  0.1979842E+04  0.7818608E-02  0.8616104E-01
         -1   -1    0    0    0  501 -0.00000000000E+00  0.00000000000E+00  0.48571991565E+03  0.48571991565E+03  0.00000000000E+00 0.  1.
          1   -1    0    0  501    0  0.00000000000E+00 -0.00000000000E+00 -0.20175067313E+04  0.20175067313E+04  0.00000000000E+00 0. -1.
         23    2    1    2    0    0  0.13362471488E+03 -0.45589565387E+03  0.17437820971E+03  0.51455338803E+03  0.93064587630E+02 0.  0.
        254    2    1    2    0    0 -0.13362471488E+03  0.45589565387E+03 -0.17061650254E+04  0.19886732590E+04  0.90450308201E+03 0.  0.
        -24    2    4    4    0    0 -0.44981637235E+03  0.10432758224E+02 -0.92927058320E+03  0.10356177472E+04  0.80726019581E+02 0.  0.
         24    2    4    4    0    0  0.31619165748E+03  0.44546289564E+03 -0.77689444221E+03  0.95305551177E+03  0.79595719226E+02 0.  0.
         11    1    3    3    0    0 -0.89318538034E+01 -0.82656014237E+02  0.15416399495E+02  0.84554479924E+02  0.00000000000E+00 0.  1.
        -11    1    3    3    0    0  0.14255656868E+03 -0.37323963963E+03  0.15896181022E+03  0.42999890811E+03  0.00000000000E+00 0. -1.
          4    1    6    6  502    0  0.35388656569E+02  0.29633357321E+02 -0.10307814745E+03  0.11294068072E+03  0.00000000000E+00 0. -1.
          1    1    5    5  503    0 -0.76467438813E+02 -0.26639953082E+02 -0.14052548557E+03  0.16218621517E+03  0.00000000000E+00 0. -1.
         -2    1    5    5    0  503 -0.37334893354E+03  0.37072711306E+02 -0.78874509763E+03  0.87343153203E+03  0.00000000000E+00 0.  1.
         -3    1    6    6    0  502  0.28080300091E+03  0.41582953832E+03 -0.67381629477E+03  0.84011483105E+03  0.00000000000E+00 0.  1.
<mgrwt>
<rscale>  0 0.19798416E+04</rscale>
<asrwt>0</asrwt>
<pdfrwt beam="1">  1        1 0.31038565E+00 0.19798416E+04</pdfrwt>
<pdfrwt beam="2">  1       -1 0.74726141E-01 0.19798416E+04</pdfrwt>
<totfact> 0.48541796E+00</totfact>
</mgrwt>
</event>
<event>
12    1  0.2433511E-007  0.2823458E+04  0.7818608E-02  0.8296022E-01
         -2   -1    0    0    0  501 -0.00000000000E+00  0.00000000000E+00  0.10740447920E+04  0.10740447920E+04  0.00000000000E+00 0.  1.
          2   -1    0    0  501    0  0.00000000000E+00 -0.00000000000E+00 -0.18555823003E+04  0.18555823003E+04  0.00000000000E+00 0. -1.
         23    2    1    2    0    0 -0.27882959907E+02 -0.91660227158E+03  0.55363180425E+03  0.10765218194E+04  0.10702275068E+03 0.  0.
        254    2    1    2    0    0  0.27882959907E+02  0.91660227158E+03 -0.13351693125E+04  0.18531052729E+04  0.90021379428E+03 0.  0.
        -24    2    4    4    0    0 -0.21485452599E+03  0.53587790797E+03 -0.12616594443E+04  0.13898347062E+04  0.80798252447E+02 0.  0.
         24    2    4    4    0    0  0.24273748589E+03  0.38072436362E+03 -0.73509868269E+02  0.46327056668E+03  0.73098489076E+02 0.  0.
         11    1    3    3    0    0  0.26157771385E+01 -0.80601512062E+03  0.50984034158E+03  0.95373182334E+03  0.00000000000E+00 0. -1.
        -11    1    3    3    0    0 -0.30498737045E+02 -0.11058715096E+03  0.43791462670E+02  0.12278999602E+03  0.00000000000E+00 0.  1.
          2    1    6    6  502    0  0.50593762251E+02  0.97642498362E+02  0.11970646604E+02  0.11062134805E+03  0.00000000000E+00 0. -1.
          1    1    5    5  503    0 -0.11354227437E+03  0.24640981497E+03 -0.50244996989E+03  0.57102155583E+03  0.00000000000E+00 0. -1.
         -2    1    5    5    0  503 -0.10131225162E+03  0.28946809300E+03 -0.75920947439E+03  0.81881315035E+03  0.00000000000E+00 0.  1.
         -1    1    6    6    0  502  0.19214372364E+03  0.28308186525E+03 -0.85480514873E+02  0.35264921862E+03  0.00000000000E+00 0.  1.
<mgrwt>
<rscale>  0 0.28234578E+04</rscale>
<asrwt>0</asrwt>
<pdfrwt beam="1">  1        2 0.28547420E+00 0.28234578E+04</pdfrwt>
<pdfrwt beam="2">  1       -2 0.16523766E+00 0.28234578E+04</pdfrwt>
<totfact> 0.16098213E+00</totfact>
</mgrwt>
</event>
<event>
12    1  0.2433511E-007  0.1524421E+04  0.7818608E-02  0.8868374E-01
         -1   -1    0    0    0  501 -0.00000000000E+00  0.00000000000E+00  0.21353804917E+03  0.21353804917E+03  0.00000000000E+00 0.  1.
          1   -1    0    0  501    0  0.00000000000E+00 -0.00000000000E+00 -0.27206627796E+04  0.27206627796E+04  0.00000000000E+00 0. -1.
         23    2    1    2    0    0 -0.32691503098E+02  0.41242085341E+03 -0.31286828680E+03  0.52654607707E+03  0.90578759582E+02 0.  0.
        254    2    1    2    0    0  0.32691503098E+02 -0.41242085341E+03 -0.21942564436E+04  0.24076547517E+04  0.90048896063E+03 0.  0.
        -24    2    4    4    0    0 -0.27856688680E+03 -0.52687938404E+03 -0.10126529974E+04  0.11777470672E+04  0.80129053949E+02 0.  0.
         24    2    4    4    0    0  0.31125838990E+03  0.11445853063E+03 -0.11816034462E+04  0.12299076845E+04  0.80645321302E+02 0.  0.
         11    1    3    3    0    0  0.24784972927E+02  0.10016700767E+03 -0.10399364170E+03  0.14650051816E+03  0.00000000000E+00 0.  1.
        -11    1    3    3    0    0 -0.57476476026E+02  0.31225384574E+03 -0.20887464510E+03  0.38004555891E+03  0.00000000000E+00 0. -1.
          4    1    6    6  502    0  0.22971682333E+02  0.44464215950E+01 -0.18917575288E+03  0.19061724563E+03  0.00000000000E+00 0. -1.
          1    1    5    5  503    0 -0.31784257502E+01 -0.43798579485E+02 -0.55243007945E+02  0.70570587938E+02  0.00000000000E+00 0. -1.
         -2    1    5    5    0  503 -0.27538846105E+03 -0.48308080456E+03 -0.95740998948E+03  0.11071764792E+04  0.00000000000E+00 0.  1.
         -3    1    6    6    0  502  0.28828670756E+03  0.11001210904E+03 -0.99242769329E+03  0.10392904389E+04  0.00000000000E+00 0.  1.
<mgrwt>
<rscale>  0 0.15244212E+04</rscale>
<asrwt>0</asrwt>
<pdfrwt beam="1">  1        1 0.41856348E+00 0.15244212E+04</pdfrwt>
<pdfrwt beam="2">  1       -1 0.32852010E-01 0.15244212E+04</pdfrwt>
<totfact> 0.79909493E+00</totfact>
</mgrwt>
</event>
<event>
12    1  0.2433511E-007  0.1011420E+04  0.7818608E-02  0.9296108E-01
         -1   -1    0    0    0  501 -0.00000000000E+00  0.00000000000E+00  0.10756834599E+03  0.10756834599E+03  0.00000000000E+00 0.  1.
          1   -1    0    0  501    0  0.00000000000E+00 -0.00000000000E+00 -0.23774888432E+04  0.23774888432E+04  0.00000000000E+00 0. -1.
         23    2    1    2    0    0 -0.86199609112E+01  0.54503630766E+02 -0.27946894202E+03  0.29995675840E+03  0.93947952938E+02 0.  0.
        254    2    1    2    0    0  0.86199609112E+01 -0.54503630766E+02 -0.19904515552E+04  0.21851004308E+04  0.89984529203E+03 0.  0.
        -24    2    4    4    0    0 -0.19455267954E+03  0.25995389246E+03 -0.16154032870E+04  0.16495593834E+04  0.78048756639E+02 0.  0.
         24    2    4    4    0    0  0.20317264045E+03 -0.31445752322E+03 -0.37504826814E+03  0.53554104734E+03  0.77332749886E+02 0.  0.
         11    1    3    3    0    0 -0.23838549841E+02  0.37861515829E+02 -0.41828318427E+02  0.61248502527E+02  0.00000000000E+00 0.  1.
        -11    1    3    3    0    0  0.15218588929E+02  0.16642114937E+02 -0.23764062360E+03  0.23870825587E+03  0.00000000000E+00 0. -1.
          4    1    6    6  502    0 -0.62358000064E+01 -0.18336289379E+02 -0.23348431349E+02  0.30335687834E+02  0.00000000000E+00 0. -1.
          3    1    5    5  503    0 -0.83615339309E+02  0.60751974472E+02 -0.41362903957E+03  0.42634646679E+03  0.00000000000E+00 0. -1.
         -4    1    5    5    0  503 -0.11093734023E+03  0.19920191799E+03 -0.12017742475E+04  0.12232129167E+04  0.00000000000E+00 0.  1.
         -3    1    6    6    0  502  0.20940844046E+03 -0.29612123385E+03 -0.35169983679E+03  0.50520535950E+03  0.00000000000E+00 0.  1.
<mgrwt>
<rscale>  0 0.10114199E+04</rscale>
<asrwt>0</asrwt>
<pdfrwt beam="1">  1        1 0.36576749E+00 0.10114199E+04</pdfrwt>
<pdfrwt beam="2">  1       -1 0.16548977E-01 0.10114199E+04</pdfrwt>
<totfact> 0.46678319E+01</totfact>
</mgrwt>
</event>
<event>
12    1  0.2433511E-007  0.2614504E+04  0.7818608E-02  0.8363291E-01
         -1   -1    0    0    0  501 -0.00000000000E+00  0.00000000000E+00  0.10265516626E+04  0.10265516626E+04  0.00000000000E+00 0.  1.
          1   -1    0    0  501    0  0.00000000000E+00 -0.00000000000E+00 -0.16647067072E+04  0.16647067072E+04  0.00000000000E+00 0. -1.
         23    2    1    2    0    0  0.94393589662E+03 -0.34722320795E+03 -0.85655671003E+03  0.13242159512E+04  0.90992058874E+02 0.  0.
        254    2    1    2    0    0 -0.94393589662E+03  0.34722320795E+03  0.21840166548E+03  0.13670424186E+04  0.89973704701E+03 0.  0.
        -24    2    4    4    0    0 -0.16939889365E+02  0.40187547082E+03 -0.15330885108E+01  0.40949591848E+03  0.76770456551E+02 0.  0.
         24    2    4    4    0    0 -0.92699600725E+03 -0.54652262861E+02  0.21993475399E+03  0.95754650014E+03  0.78838674658E+02 0.  0.
         11    1    3    3    0    0  0.20418396961E+03 -0.11279077666E+03 -0.17892300253E+03  0.29398349202E+03  0.00000000000E+00 0.  1.
        -11    1    3    3    0    0  0.73975192701E+03 -0.23443243129E+03 -0.67763370750E+03  0.10302324592E+04  0.00000000000E+00 0. -1.
          2    1    6    6  502    0 -0.52591035901E+03 -0.29914247993E+02  0.16477505371E+03  0.55193059914E+03  0.00000000000E+00 0. -1.
          3    1    5    5  503    0  0.24363472660E+02  0.12218354353E+03 -0.19929537552E+02  0.12617283217E+03  0.00000000000E+00 0. -1.
         -4    1    5    5    0  503 -0.41303362025E+02  0.27969192728E+03  0.18396449042E+02  0.28332308632E+03  0.00000000000E+00 0.  1.
         -1    1    6    6    0  502 -0.40108564825E+03 -0.24738014868E+02  0.55159700276E+02  0.40561590100E+03  0.00000000000E+00 0.  1.
<mgrwt>
<rscale>  0 0.26145037E+04</rscale>
<asrwt>0</asrwt>
<pdfrwt beam="1">  1        1 0.25610872E+00 0.26145037E+04</pdfrwt>
<pdfrwt beam="2">  1       -1 0.15793103E+00 0.26145037E+04</pdfrwt>
<totfact> 0.13429753E+00</totfact>
</mgrwt>
</event>
<event>
12    1  0.2433511E-007  0.2259858E+04  0.7818608E-02  0.8493919E-01
          2   -1    0    0  501    0  0.00000000000E+00  0.00000000000E+00  0.14740498595E+04  0.14740498595E+04  0.00000000000E+00 0.  1.
         -2   -1    0    0    0  501 -0.00000000000E+00 -0.00000000000E+00 -0.86614403014E+03  0.86614403014E+03  0.00000000000E+00 0. -1.
         23    2    1    2    0    0 -0.81375998580E+03  0.56052865039E+02 -0.24339722559E+03  0.85585016536E+03  0.88825998191E+02 0.  0.
        254    2    1    2    0    0  0.81375998580E+03 -0.56052865039E+02  0.85130305495E+03  0.14843437243E+04  0.90178276890E+03 0.  0.
        -24    2    4    4    0    0  0.95198725604E+03  0.54233714227E+02  0.86440561793E+03  0.12895030597E+04  0.80000232288E+02 0.  0.
         24    2    4    4    0    0 -0.13822727024E+03 -0.11028657927E+03 -0.13102562984E+02  0.19484066461E+03  0.80754564109E+02 0.  0.
         11    1    3    3    0    0 -0.12455164753E+03  0.18686216579E+02 -0.70374537269E+02  0.14427357030E+03  0.00000000000E+00 0. -1.
        -11    1    3    3    0    0 -0.68920833827E+03  0.37366648459E+02 -0.17302268832E+03  0.71157659506E+03  0.00000000000E+00 0.  1.
          2    1    6    6  502    0 -0.68817082396E+02 -0.42608910084E+02  0.33104330251E+02  0.87448308899E+02  0.00000000000E+00 0. -1.
          3    1    5    5  503    0  0.42267141373E+03  0.85916746852E+01  0.33399505407E+03  0.53877419853E+03  0.00000000000E+00 0. -1.
         -4    1    5    5    0  503  0.52931584232E+03  0.45642039542E+02  0.53041056386E+03  0.75072886114E+03  0.00000000000E+00 0.  1.
         -1    1    6    6    0  502 -0.69410187847E+02 -0.67677669181E+02 -0.46206893236E+02  0.10739235571E+03  0.00000000000E+00 0.  1.
<mgrwt>
<rscale>  0 0.22598579E+04</rscale>
<asrwt>0</asrwt>
<pdfrwt beam="1">  1        2 0.22677690E+00 0.22598579E+04</pdfrwt>
<pdfrwt beam="2">  1       -2 0.13325293E+00 0.22598579E+04</pdfrwt>
<totfact> 0.48720600E+00</totfact>
</mgrwt>
</event>
<event>
12    1  0.2433511E-007  0.2067400E+04  0.7818608E-02  0.8575742E-01
          1   -1    0    0  501    0  0.00000000000E+00  0.00000000000E+00  0.26237500702E+04  0.26237500702E+04  0.00000000000E+00 0. -1.
         -1   -1    0    0    0  501 -0.00000000000E+00 -0.00000000000E+00 -0.40725498780E+03  0.40725498780E+03  0.00000000000E+00 0.  1.
         23    2    1    2    0    0  0.49478688583E+03 -0.55557026157E+03  0.14550454545E+04  0.16370461457E+04  0.96386878936E+02 0.  0.
        254    2    1    2    0    0 -0.49478688583E+03  0.55557026157E+03  0.76144962788E+03  0.13939589123E+04  0.89991307107E+03 0.  0.
        -24    2    4    4    0    0 -0.66561243295E+03  0.45330257475E+03  0.26232208302E+03  0.85065496046E+03  0.79232892986E+02 0.  0.
         24    2    4    4    0    0  0.17082554712E+03  0.10226768682E+03  0.49912754486E+03  0.54330395185E+03  0.80067663555E+02 0.  0.
         11    1    3    3    0    0  0.27169326602E+03 -0.27812495138E+03  0.66157852586E+03  0.76737009666E+03  0.00000000000E+00 0. -1.
        -11    1    3    3    0    0  0.22309361981E+03 -0.27744531020E+03  0.79346692865E+03  0.86967604901E+03  0.00000000000E+00 0.  1.
          4    1    6    6  502    0  0.13184686935E+03  0.80631693515E+02  0.28127972056E+03  0.32094134691E+03  0.00000000000E+00 0. -1.
          1    1    5    5  503    0 -0.59041983643E+03  0.38591070837E+03  0.25258167459E+03  0.74921302740E+03  0.00000000000E+00 0. -1.
         -2    1    5    5    0  503 -0.75192596520E+02  0.67391866382E+02  0.97404084335E+01  0.10144193306E+03  0.00000000000E+00 0.  1.
         -3    1    6    6    0  502  0.38978677768E+02  0.21635993308E+02  0.21784782429E+03  0.22236260494E+03  0.00000000000E+00 0.  1.
<mgrwt>
<rscale>  0 0.20673996E+04</rscale>
<asrwt>0</asrwt>
<pdfrwt beam="1">  1        1 0.40365385E+00 0.20673996E+04</pdfrwt>
<pdfrwt beam="2">  1       -1 0.62654615E-01 0.20673996E+04</pdfrwt>
<totfact> 0.26476093E+00</totfact>
</mgrwt>
</event>
<event>
12    1  0.2433511E-007  0.2383672E+04  0.7818608E-02  0.8445642E-01
         -2   -1    0    0    0  501 -0.00000000000E+00  0.00000000000E+00  0.14915968489E+04  0.14915968489E+04  0.00000000000E+00 0.  1.
          2   -1    0    0  501    0  0.00000000000E+00 -0.00000000000E+00 -0.95231714732E+03  0.95231714732E+03  0.00000000000E+00 0. -1.
         23    2    1    2    0    0 -0.10392966945E+03 -0.91492162973E+02  0.12663558382E+04  0.12771455087E+04  0.90946959000E+02 0.  0.
        254    2    1    2    0    0  0.10392966945E+03  0.91492162973E+02 -0.72707613663E+03  0.11667684875E+04  0.90196275029E+03 0.  0.
        -24    2    4    4    0    0  0.28061068575E+03  0.63395708831E+02  0.10115558954E+03  0.31581753196E+03  0.82139438396E+02 0.  0.
         24    2    4    4    0    0 -0.17668101630E+03  0.28096454143E+02 -0.82823172617E+03  0.85095095555E+03  0.78384592035E+02 0.  0.
         11    1    3    3    0    0 -0.10726512522E+03 -0.65614340046E+02  0.77823629678E+03  0.78832910788E+03  0.00000000000E+00 0.  1.
        -11    1    3    3    0    0  0.33354557690E+01 -0.25877822927E+02  0.48811954142E+03  0.48881640081E+03  0.00000000000E+00 0. -1.
          2    1    6    6  502    0 -0.15150963996E+03  0.20066903079E+02 -0.53126806534E+03  0.55281426252E+03  0.00000000000E+00 0. -1.
          3    1    5    5  503    0  0.22560155180E+03  0.81839706814E+02  0.92310089230E+02  0.25712827608E+03  0.00000000000E+00 0. -1.
         -4    1    5    5    0  503  0.55009133948E+02 -0.18443997983E+02  0.88455003069E+01  0.58689255874E+02  0.00000000000E+00 0.  1.
         -1    1    6    6    0  502 -0.25171376335E+02  0.80295510637E+01 -0.29696366083E+03  0.29813669303E+03  0.00000000000E+00 0.  1.
<mgrwt>
<rscale>  0 0.23836722E+04</rscale>
<asrwt>0</asrwt>
<pdfrwt beam="1">  1        2 0.14651033E+00 0.23836722E+04</pdfrwt>
<pdfrwt beam="2">  1       -2 0.22947644E+00 0.23836722E+04</pdfrwt>
<totfact> 0.20981705E+00</totfact>
</mgrwt>
</event>
<event>
12    1  0.2433511E-007  0.2321949E+04  0.7818608E-02  0.8469317E-01
          1   -1    0    0  501    0  0.00000000000E+00  0.00000000000E+00  0.12501968982E+04  0.12501968982E+04  0.00000000000E+00 0. -1.
         -1   -1    0    0    0  501 -0.00000000000E+00 -0.00000000000E+00 -0.10781198352E+04  0.10781198352E+04  0.00000000000E+00 0.  1.
         23    2    1    2    0    0 -0.89091546038E+03  0.16014573193E+03 -0.31325631731E+03  0.96213016984E+03  0.90487183489E+02 0.  0.
        254    2    1    2    0    0  0.89091546038E+03 -0.16014573193E+03  0.48533338029E+03  0.13661865636E+04  0.90085527336E+03 0.  0.
        -24    2    4    4    0    0  0.97907292798E+03 -0.23975521537E+03  0.60568800125E+03  0.11787391599E+04  0.80633061371E+02 0.  0.
         24    2    4    4    0    0 -0.88157467602E+02  0.79609483439E+02 -0.12035462096E+03  0.18744740371E+03  0.80881922730E+02 0.  0.
         11    1    3    3    0    0 -0.65371811701E+03  0.15734495122E+03 -0.23795422520E+03  0.71325102416E+03  0.00000000000E+00 0.  1.
        -11    1    3    3    0    0 -0.23719734337E+03  0.28007807116E+01 -0.75302092106E+02  0.24887914567E+03  0.00000000000E+00 0. -1.
          4    1    6    6  502    0 -0.74809516942E+02  0.14658720859E+02 -0.76182262990E+02  0.10777327645E+03  0.00000000000E+00 0. -1.
          3    1    5    5  503    0  0.65740372217E+03 -0.12687300395E+03  0.37922114546E+03  0.76947065585E+03  0.00000000000E+00 0. -1.
         -4    1    5    5    0  503  0.32166920582E+03 -0.11288221142E+03  0.22646685579E+03  0.40926850404E+03  0.00000000000E+00 0.  1.
         -3    1    6    6    0  502 -0.13347950660E+02  0.64950762580E+02 -0.44172357973E+02  0.79674127265E+02  0.00000000000E+00 0.  1.
<mgrwt>
<rscale>  0 0.23219492E+04</rscale>
<asrwt>0</asrwt>
<pdfrwt beam="1">  1        1 0.19233799E+00 0.23219492E+04</pdfrwt>
<pdfrwt beam="2">  1       -1 0.16586459E+00 0.23219492E+04</pdfrwt>
<totfact> 0.23402219E+00</totfact>
</mgrwt>
</event>
<event>
12    1  0.2433511E-007  0.1449889E+04  0.7818608E-02  0.8918477E-01
         -2   -1    0    0    0  501 -0.00000000000E+00  0.00000000000E+00  0.19970037016E+03  0.19970037016E+03  0.00000000000E+00 0.  1.
          2   -1    0    0  501    0  0.00000000000E+00 -0.00000000000E+00 -0.26316649912E+04  0.26316649912E+04  0.00000000000E+00 0. -1.
         23    2    1    2    0    0 -0.22767412514E+03 -0.27368333363E+03 -0.12521859827E+04  0.13051141965E+04  0.92818405933E+02 0.  0.
        254    2    1    2    0    0  0.22767412514E+03  0.27368333363E+03 -0.11797786384E+04  0.15262511648E+04  0.90045927624E+03 0.  0.
        -24    2    4    4    0    0  0.17985711167E+02  0.56248674139E+03 -0.90682669583E+03  0.10701772118E+04  0.78929007555E+02 0.  0.
         24    2    4    4    0    0  0.20968841397E+03 -0.28880340775E+03 -0.27295194252E+03  0.45607395305E+03  0.78256299679E+02 0.  0.
         11    1    3    3    0    0 -0.47599702473E+02 -0.10981354355E+03 -0.51650075762E+03  0.53018655079E+03  0.00000000000E+00 0. -1.
        -11    1    3    3    0    0 -0.18007442267E+03 -0.16386979008E+03 -0.73568522504E+03  0.77492764575E+03  0.00000000000E+00 0.  1.
          4    1    6    6  502    0  0.10464134129E+03 -0.16583685425E+03 -0.19498746192E+03  0.27653531933E+03  0.00000000000E+00 0. -1.
          1    1    5    5  503    0  0.30638296571E+02  0.30183596451E+03 -0.42432683233E+03  0.52162909747E+03  0.00000000000E+00 0. -1.
         -2    1    5    5    0  503 -0.12652585404E+02  0.26065077687E+03 -0.48249986351E+03  0.54854811429E+03  0.00000000000E+00 0.  1.
         -3    1    6    6    0  502  0.10504707269E+03 -0.12296655351E+03 -0.77964480602E+02  0.17953863372E+03  0.00000000000E+00 0.  1.
<mgrwt>
<rscale>  0 0.14498889E+04</rscale>
<asrwt>0</asrwt>
<pdfrwt beam="1">  1        2 0.40487151E+00 0.14498889E+04</pdfrwt>
<pdfrwt beam="2">  1       -2 0.30723136E-01 0.14498889E+04</pdfrwt>
<totfact> 0.27847269E+01</totfact>
</mgrwt>
</event>
<event>
12    1  0.2433511E-007  0.1467181E+04  0.7818608E-02  0.8906576E-01
          1   -1    0    0  501    0  0.00000000000E+00  0.00000000000E+00  0.98839584579E+03  0.98839584579E+03  0.00000000000E+00 0. -1.
         -1   -1    0    0    0  501 -0.00000000000E+00 -0.00000000000E+00 -0.54447282604E+03  0.54447282604E+03  0.00000000000E+00 0.  1.
         23    2    1    2    0    0  0.41784743790E+03 -0.10242914696E+03 -0.16964651412E+01  0.43901076270E+03  0.87403433959E+02 0.  0.
        254    2    1    2    0    0 -0.41784743790E+03  0.10242914696E+03  0.44561948489E+03  0.10938579091E+04  0.90158759338E+03 0.  0.
        -24    2    4    4    0    0 -0.52771127399E+03  0.39346817973E+03  0.20955070109E+03  0.69555313900E+03  0.81155872820E+02 0.  0.
         24    2    4    4    0    0  0.10986383608E+03 -0.29103903276E+03  0.23606878380E+03  0.39830477013E+03  0.78386466614E+02 0.  0.
         11    1    3    3    0    0  0.30121998776E+03 -0.35208887814E+02  0.13321042554E+02  0.30356316803E+03  0.00000000000E+00 0.  1.
        -11    1    3    3    0    0  0.11662745014E+03 -0.67220259150E+02 -0.15017507695E+02  0.13544759468E+03  0.00000000000E+00 0. -1.
          4    1    6    6  502    0  0.18068321784E+02 -0.15674359028E+02 -0.38373075997E+00  0.23922730453E+02  0.00000000000E+00 0. -1.
          3    1    5    5  503    0 -0.13576610827E+02  0.46570391480E+01 -0.64366298351E+01  0.15730307652E+02  0.00000000000E+00 0. -1.
         -4    1    5    5    0  503 -0.51413466316E+03  0.38881114058E+03  0.21598733093E+03  0.67982283135E+03  0.00000000000E+00 0.  1.
         -3    1    6    6    0  502  0.91795514301E+02 -0.27536467374E+03  0.23645251456E+03  0.37438203967E+03  0.00000000000E+00 0.  1.
<mgrwt>
<rscale>  0 0.14671805E+04</rscale>
<asrwt>0</asrwt>
<pdfrwt beam="1">  1        1 0.15206090E+00 0.14671805E+04</pdfrwt>
<pdfrwt beam="2">  1       -1 0.83765050E-01 0.14671805E+04</pdfrwt>
<totfact> 0.21184553E+01</totfact>
</mgrwt>
</event>
<event>
12    1  0.2433511E-007  0.1544365E+04  0.7818608E-02  0.8855475E-01
         -2   -1    0    0    0  501 -0.00000000000E+00  0.00000000000E+00  0.32857631447E+03  0.32857631447E+03  0.00000000000E+00 0.  1.
          2   -1    0    0  501    0  0.00000000000E+00 -0.00000000000E+00 -0.18146954105E+04  0.18146954105E+04  0.00000000000E+00 0. -1.
         23    2    1    2    0    0  0.44201023853E+03 -0.16918614021E+03 -0.26109601547E+03  0.54832445086E+03  0.92149732025E+02 0.  0.
        254    2    1    2    0    0 -0.44201023853E+03  0.16918614021E+03 -0.12250230806E+04  0.15949472741E+04  0.90508466912E+03 0.  0.
        -24    2    4    4    0    0 -0.42531051958E+03 -0.15969245978E+02 -0.13054297447E+04  0.13756298256E+04  0.84062736829E+02 0.  0.
         24    2    4    4    0    0 -0.16699718954E+02  0.18515538619E+03  0.80406664130E+02  0.21931744856E+03  0.84104185132E+02 0.  0.
         11    1    3    3    0    0  0.25333938973E+03 -0.14076955296E+03 -0.17876726889E+03  0.34052114451E+03  0.00000000000E+00 0. -1.
        -11    1    3    3    0    0  0.18867084881E+03 -0.28416587252E+02 -0.82328746574E+02  0.20780330636E+03  0.00000000000E+00 0.  1.
          4    1    6    6  502    0  0.29878635235E+02  0.11278050205E+03  0.33941366493E+02  0.12150798676E+03  0.00000000000E+00 0. -1.
          3    1    5    5  503    0 -0.24501454466E+03 -0.15197224774E+02 -0.61858798926E+03  0.66551798112E+03  0.00000000000E+00 0. -1.
         -4    1    5    5    0  503 -0.18029597492E+03 -0.77202120412E+00 -0.68684175548E+03  0.71011184447E+03  0.00000000000E+00 0.  1.
         -3    1    6    6    0  502 -0.46578354188E+02  0.72374884138E+02  0.46465297637E+02  0.97809461799E+02  0.00000000000E+00 0.  1.
<mgrwt>
<rscale>  0 0.15443652E+04</rscale>
<asrwt>0</asrwt>
<pdfrwt beam="1">  1        2 0.27918391E+00 0.15443652E+04</pdfrwt>
<pdfrwt beam="2">  1       -2 0.50550203E-01 0.15443652E+04</pdfrwt>
<totfact> 0.30175571E+01</totfact>
</mgrwt>
</event>
<event>
12    1  0.2433511E-007  0.2183314E+04  0.7818608E-02  0.8525405E-01
         -2   -1    0    0    0  501 -0.00000000000E+00  0.00000000000E+00  0.36208531206E+03  0.36208531206E+03  0.00000000000E+00 0. -1.
          2   -1    0    0  501    0  0.00000000000E+00 -0.00000000000E+00 -0.32912560993E+04  0.32912560993E+04  0.00000000000E+00 0.  1.
         23    2    1    2    0    0 -0.56854905831E+03  0.50700745466E+03 -0.20258039463E+04  0.21663879921E+04  0.95135234431E+02 0.  0.
        254    2    1    2    0    0  0.56854905831E+03 -0.50700745466E+03 -0.90336684097E+03  0.14869534193E+04  0.90258198015E+03 0.  0.
        -24    2    4    4    0    0 -0.17168464063E+03  0.76342279017E+02 -0.43759696854E+02  0.20897375040E+03  0.80320345454E+02 0.  0.
         24    2    4    4    0    0  0.74023369894E+03 -0.58334973368E+03 -0.85960714412E+03  0.12779796689E+04  0.77876510946E+02 0.  0.
         13    1    3    3    0    0 -0.13763320808E+03  0.72149420357E+02 -0.39648742657E+03  0.42585293031E+03  0.00000000000E+00 0.  1.
        -13    1    3    3    0    0 -0.43091585023E+03  0.43485803431E+03 -0.16293165197E+04  0.17405350618E+04  0.00000000000E+00 0. -1.
          4    1    6    6  502    0  0.12059654304E+03 -0.80017430856E+02 -0.16809262362E+03  0.22181398862E+03  0.00000000000E+00 0. -1.
          3    1    5    5  503    0 -0.22884622793E+02  0.30409951961E+02 -0.37029374544E+02  0.53100336324E+02  0.00000000000E+00 0. -1.
         -4    1    5    5    0  503 -0.14880001784E+03  0.45932327055E+02 -0.67303223096E+01  0.15587341408E+03  0.00000000000E+00 0.  1.
         -3    1    6    6    0  502  0.61963715590E+03 -0.50333230282E+03 -0.69151452050E+03  0.10561656802E+04  0.00000000000E+00 0.  1.
<mgrwt>
<rscale>  0 0.21833144E+04</rscale>
<asrwt>0</asrwt>
<pdfrwt beam="1">  1        2 0.50634709E+00 0.21833144E+04</pdfrwt>
<pdfrwt beam="2">  1       -2 0.55705433E-01 0.21833144E+04</pdfrwt>
<totfact> 0.31362197E+00</totfact>
</mgrwt>
</event>
<event>
12    1  0.2433511E-007  0.1411137E+04  0.7818608E-02  0.8945796E-01
          2   -1    0    0  501    0  0.00000000000E+00  0.00000000000E+00  0.69779538717E+03  0.69779538717E+03  0.00000000000E+00 0. -1.
         -2   -1    0    0    0  501 -0.00000000000E+00 -0.00000000000E+00 -0.71342824580E+03  0.71342824580E+03  0.00000000000E+00 0.  1.
         23    2    1    2    0    0  0.14210373798E+03 -0.31864468483E+03  0.21331790095E+03  0.41891176874E+03  0.90855025211E+02 0.  0.
        254    2    1    2    0    0 -0.14210373798E+03  0.31864468483E+03 -0.22895075958E+03  0.99231186422E+03  0.90029799403E+03 0.  0.
        -24    2    4    4    0    0 -0.45549285503E+03  0.34999650692E+03 -0.30988345458E+03  0.65688800857E+03  0.74180890734E+02 0.  0.
         24    2    4    4    0    0  0.31338911704E+03 -0.31351822091E+02  0.80932694999E+02  0.33542385565E+03  0.82239810257E+02 0.  0.
         11    1    3    3    0    0  0.36345575477E+02 -0.65453351323E+02  0.61951967972E+01  0.75123381976E+02  0.00000000000E+00 0.  1.
        -11    1    3    3    0    0  0.10575816251E+03 -0.25319133350E+03  0.20712270416E+03  0.34378838677E+03  0.00000000000E+00 0. -1.
          2    1    6    6  502    0  0.16995928150E+03 -0.49934408531E+02  0.19231731631E+02  0.17818378721E+03  0.00000000000E+00 0. -1.
          3    1    5    5  503    0 -0.10943932104E+03  0.84796302019E+02 -0.39917291123E+02  0.14408597418E+03  0.00000000000E+00 0. -1.
         -4    1    5    5    0  503 -0.34605353399E+03  0.26520020490E+03 -0.26996616346E+03  0.51280203439E+03  0.00000000000E+00 0.  1.
         -1    1    6    6    0  502  0.14342983554E+03  0.18582586441E+02  0.61700963368E+02  0.15724006844E+03  0.00000000000E+00 0.  1.
<mgrwt>
<rscale>  0 0.14111370E+04</rscale>
<asrwt>0</asrwt>
<pdfrwt beam="1">  1        2 0.10735314E+00 0.14111370E+04</pdfrwt>
<pdfrwt beam="2">  1       -2 0.10975819E+00 0.14111370E+04</pdfrwt>
<totfact> 0.26427673E+01</totfact>
</mgrwt>
</event>
<event>
12    1  0.2433511E-007  0.2433672E+04  0.7818608E-02  0.8427004E-01
          1   -1    0    0  501    0  0.00000000000E+00  0.00000000000E+00  0.22603044124E+04  0.22603044124E+04  0.00000000000E+00 0. -1.
         -1   -1    0    0    0  501 -0.00000000000E+00 -0.00000000000E+00 -0.65508451512E+03  0.65508451512E+03  0.00000000000E+00 0.  1.
         23    2    1    2    0    0  0.39610836720E+03  0.91315315582E+03  0.29718287558E+03  0.10429197787E+04  0.92808829324E+02 0.  0.
        254    2    1    2    0    0 -0.39610836720E+03 -0.91315315582E+03  0.13080370217E+04  0.18724691488E+04  0.89689984863E+03 0.  0.
        -24    2    4    4    0    0 -0.10317318058E+03 -0.70127852306E+03  0.25718758002E+03  0.75833707544E+03  0.80581614352E+02 0.  0.
         24    2    4    4    0    0 -0.29293518662E+03 -0.21187463276E+03  0.10508494417E+04  0.11141320734E+04  0.79396751828E+02 0.  0.
         11    1    3    3    0    0  0.32312836672E+03  0.64144192875E+03  0.20667216995E+03  0.74737746498E+03  0.00000000000E+00 0.  1.
        -11    1    3    3    0    0  0.72980000484E+02  0.27171122707E+03  0.90510705627E+02  0.29554231376E+03  0.00000000000E+00 0. -1.
          4    1    6    6  502    0 -0.76524674172E+02 -0.91017119484E+02  0.27383527175E+03  0.29853960852E+03  0.00000000000E+00 0. -1.
          1    1    5    5  503    0 -0.21816635599E+02 -0.45985852891E+02  0.37101201501E+01  0.51033608990E+02  0.00000000000E+00 0. -1.
         -2    1    5    5    0  503 -0.81356544982E+02 -0.65529267017E+03  0.25347745987E+03  0.70730346645E+03  0.00000000000E+00 0.  1.
         -3    1    6    6    0  502 -0.21641051245E+03 -0.12085751328E+03  0.77701416996E+03  0.81559246485E+03  0.00000000000E+00 0.  1.
<mgrwt>
<rscale>  0 0.24336725E+04</rscale>
<asrwt>0</asrwt>
<pdfrwt beam="1">  1        1 0.34773914E+00 0.24336725E+04</pdfrwt>
<pdfrwt beam="2">  1       -1 0.10078223E+00 0.24336725E+04</pdfrwt>
<totfact> 0.16570162E+00</totfact>
</mgrwt>
</event>
<event>
12    1  0.2433511E-007  0.1545526E+04  0.7818608E-02  0.8854730E-01
          2   -1    0    0  501    0  0.00000000000E+00  0.00000000000E+00  0.28969806701E+04  0.28969806701E+04  0.00000000000E+00 0. -1.
         -2   -1    0    0    0  501 -0.00000000000E+00 -0.00000000000E+00 -0.20613285625E+03  0.20613285625E+03  0.00000000000E+00 0.  1.
         23    2    1    2    0    0 -0.44603074272E+03 -0.20391641338E+03  0.99753817551E+03  0.11148075786E+04  0.84783244976E+02 0.  0.
        254    2    1    2    0    0  0.44603074272E+03  0.20391641338E+03  0.16933096384E+04  0.19883059478E+04  0.91953123028E+03 0.  0.
        -24    2    4    4    0    0  0.47817386349E+03 -0.13694431441E+02  0.28871032351E+03  0.56440135082E+03  0.79733636132E+02 0.  0.
         24    2    4    4    0    0 -0.32143120767E+02  0.21761084482E+03  0.14045993149E+04  0.14239045970E+04  0.78850528945E+02 0.  0.
         13    1    3    3    0    0 -0.10822606789E+03 -0.85791155638E+02  0.23752164670E+03  0.27475359290E+03  0.00000000000E+00 0.  1.
        -13    1    3    3    0    0 -0.33780467483E+03 -0.11812525774E+03  0.76001652881E+03  0.84005398572E+03  0.00000000000E+00 0. -1.
          2    1    6    6  502    0 -0.26874631404E+02  0.11899992947E+03  0.53592275334E+03  0.54963299262E+03  0.00000000000E+00 0. -1.
          1    1    5    5  503    0  0.32842771443E+03 -0.28017798793E+02  0.23440636682E+03  0.40447015398E+03  0.00000000000E+00 0. -1.
         -2    1    5    5    0  503  0.14974614906E+03  0.14323367352E+02  0.54303956684E+02  0.15993119684E+03  0.00000000000E+00 0.  1.
         -1    1    6    6    0  502 -0.52684893631E+01  0.98610915346E+02  0.86867656152E+03  0.87427160433E+03  0.00000000000E+00 0.  1.
<mgrwt>
<rscale>  0 0.15455263E+04</rscale>
<asrwt>0</asrwt>
<pdfrwt beam="1">  1        2 0.44568930E+00 0.15455263E+04</pdfrwt>
<pdfrwt beam="2">  1       -2 0.31712749E-01 0.15455263E+04</pdfrwt>
<totfact> 0.18052780E+01</totfact>
</mgrwt>
</event>
<event>
12    1  0.2433511E-007  0.2558162E+04  0.7818608E-02  0.8382553E-01
         -2   -1    0    0    0  501 -0.00000000000E+00  0.00000000000E+00  0.10171646864E+04  0.10171646864E+04  0.00000000000E+00 0. -1.
          2   -1    0    0  501    0  0.00000000000E+00 -0.00000000000E+00 -0.16084402121E+04  0.16084402121E+04  0.00000000000E+00 0.  1.
         23    2    1    2    0    0  0.80455243937E+03 -0.42319401450E+03  0.40945977216E+03  0.10011635219E+04  0.90957632641E+02 0.  0.
        254    2    1    2    0    0 -0.80455243937E+03  0.42319401450E+03 -0.10007352978E+04  0.16244413766E+04  0.90052254162E+03 0.  0.
        -24    2    4    4    0    0 -0.27680711660E+03 -0.18010197907E+03 -0.13351502805E+00  0.33982453309E+03  0.80136089258E+02 0.  0.
         24    2    4    4    0    0 -0.52774532277E+03  0.60329599357E+03 -0.10006017828E+04  0.12846168435E+04  0.80964962838E+02 0.  0.
         13    1    3    3    0    0  0.15562939962E+03 -0.64533237426E+02  0.11181693896E+03  0.20220800330E+03  0.00000000000E+00 0. -1.
        -13    1    3    3    0    0  0.64892303975E+03 -0.35866077707E+03  0.29764283319E+03  0.79895551859E+03  0.00000000000E+00 0.  1.
          4    1    6    6  502    0 -0.26940494938E+03  0.25294703682E+03 -0.48781929476E+03  0.61198765880E+03  0.00000000000E+00 0. -1.
          3    1    5    5  503    0 -0.18228310687E+03 -0.11688997334E+03 -0.38248916223E+02  0.21989401199E+03  0.00000000000E+00 0. -1.
         -2    1    5    5    0  503 -0.94524009732E+02 -0.63212005729E+02  0.38115401195E+02  0.11993052110E+03  0.00000000000E+00 0.  1.
         -3    1    6    6    0  502 -0.25834037339E+03  0.35034895675E+03 -0.51278248805E+03  0.67262918467E+03  0.00000000000E+00 0.  1.
<mgrwt>
<rscale>  0 0.25581623E+04</rscale>
<asrwt>0</asrwt>
<pdfrwt beam="1">  1        2 0.24745234E+00 0.25581623E+04</pdfrwt>
<pdfrwt beam="2">  1       -2 0.15648687E+00 0.25581623E+04</pdfrwt>
<totfact> 0.26200870E+00</totfact>
</mgrwt>
</event>
<event>
12    1  0.2433511E-007  0.5039546E+04  0.7818608E-02  0.7822436E-01
          2   -1    0    0  501    0  0.00000000000E+00  0.00000000000E+00  0.25947648949E+04  0.25947648949E+04  0.00000000000E+00 0.  1.
         -2   -1    0    0    0  501 -0.00000000000E+00 -0.00000000000E+00 -0.24469487341E+04  0.24469487341E+04  0.00000000000E+00 0. -1.
         23    2    1    2    0    0 -0.10047750854E+04  0.14296387766E+04 -0.16304259811E+04  0.23916901826E+04  0.91940445605E+02 0.  0.
        254    2    1    2    0    0  0.10047750854E+04 -0.14296387766E+04  0.17782421419E+04  0.26500234464E+04  0.89835357598E+03 0.  0.
        -24    2    4    4    0    0  0.93080045032E+03 -0.15367488823E+04  0.17131530684E+04  0.24838003032E+04  0.79899341285E+02 0.  0.
         24    2    4    4    0    0  0.73974635114E+02  0.10711010569E+03  0.65089073449E+02  0.16622314321E+03  0.80303950551E+02 0.  0.
         11    1    3    3    0    0 -0.81987616159E+03  0.11469152849E+04 -0.12668237596E+04  0.18953770150E+04  0.00000000000E+00 0.  1.
        -11    1    3    3    0    0 -0.18489892385E+03  0.28272349168E+03 -0.36360222151E+03  0.49631316754E+03  0.00000000000E+00 0. -1.
          2    1    6    6  502    0  0.50753915015E+02  0.11536150206E+03  0.43108013201E+02  0.13320111430E+03  0.00000000000E+00 0. -1.
          3    1    5    5  503    0  0.86102083687E+03 -0.13811751473E+04  0.15648687063E+04  0.22578343024E+04  0.00000000000E+00 0. -1.
         -4    1    5    5    0  503  0.69779613450E+02 -0.15557373499E+03  0.14828436214E+03  0.22596600082E+03  0.00000000000E+00 0.  1.
         -1    1    6    6    0  502  0.23220720099E+02 -0.82513963698E+01  0.21981060248E+02  0.33022028914E+02  0.00000000000E+00 0.  1.
<mgrwt>
<rscale>  0 0.50395463E+04</rscale>
<asrwt>0</asrwt>
<pdfrwt beam="1">  1        2 0.39919460E+00 0.50395463E+04</pdfrwt>
<pdfrwt beam="2">  1       -2 0.37645365E+00 0.50395463E+04</pdfrwt>
<totfact> 0.23481048E-02</totfact>
</mgrwt>
</event>
<event>
12    1  0.2433511E-007  0.2022144E+04  0.7818608E-02  0.8596337E-01
          2   -1    0    0  501    0  0.00000000000E+00  0.00000000000E+00  0.89661505127E+03  0.89661505127E+03  0.00000000000E+00 0. -1.
         -2   -1    0    0    0  501 -0.00000000000E+00 -0.00000000000E+00 -0.11401400637E+04  0.11401400637E+04  0.00000000000E+00 0.  1.
         23    2    1    2    0    0 -0.18857559853E+03 -0.76712250923E+03  0.73218114285E+02  0.79862141703E+03  0.91638283198E+02 0.  0.
        254    2    1    2    0    0  0.18857559853E+03  0.76712250923E+03 -0.31674312673E+03  0.12381336980E+04  0.89922808294E+03 0.  0.
        -24    2    4    4    0    0  0.22038889457E+03  0.94214157947E+03 -0.36513786170E+03  0.10372785109E+04  0.80118852571E+02 0.  0.
         24    2    4    4    0    0 -0.31813296036E+02 -0.17501907023E+03  0.48394734971E+02  0.20085518705E+03  0.79730765970E+02 0.  0.
         11    1    3    3    0    0 -0.19281349823E+03 -0.71418753056E+03  0.52497367751E+02  0.74161772331E+03  0.00000000000E+00 0.  1.
        -11    1    3    3    0    0  0.42378996960E+01 -0.52934978678E+02  0.20720746535E+02  0.57003693726E+02  0.00000000000E+00 0. -1.
          4    1    6    6  502    0 -0.28198389972E+02 -0.11999948000E+02 -0.41188837085E+00  0.30648288714E+02  0.00000000000E+00 0. -1.
          3    1    5    5  503    0  0.13689262388E+03  0.41299190552E+03 -0.15618959406E+03  0.46227382988E+03  0.00000000000E+00 0. -1.
         -4    1    5    5    0  503  0.83496270686E+02  0.52914967395E+03 -0.20894826764E+03  0.57500468103E+03  0.00000000000E+00 0.  1.
         -3    1    6    6    0  502 -0.36149060633E+01 -0.16301912223E+03  0.48806623342E+02  0.17020689834E+03  0.00000000000E+00 0.  1.
<mgrwt>
<rscale>  0 0.20221442E+04</rscale>
<asrwt>0</asrwt>
<pdfrwt beam="1">  1        2 0.13794078E+00 0.20221442E+04</pdfrwt>
<pdfrwt beam="2">  1       -2 0.17540616E+00 0.20221442E+04</pdfrwt>
<totfact> 0.53340990E+00</totfact>
</mgrwt>
</event>
<event>
12    1  0.2433511E-007  0.3697992E+04  0.7818608E-02  0.8068407E-01
         -2   -1    0    0    0  501 -0.00000000000E+00  0.00000000000E+00  0.20024835071E+04  0.20024835071E+04  0.00000000000E+00 0.  1.
          2   -1    0    0  501    0  0.00000000000E+00 -0.00000000000E+00 -0.17072728753E+04  0.17072728753E+04  0.00000000000E+00 0. -1.
         23    2    1    2    0    0  0.16167112107E+04  0.22068237541E+03 -0.46206563635E+03  0.16983919984E+04  0.92600638342E+02 0.  0.
        254    2    1    2    0    0 -0.16167112107E+04 -0.22068237541E+03  0.75727626822E+03  0.20113643840E+04  0.89981303017E+03 0.  0.
        -24    2    4    4    0    0 -0.75188638317E+03  0.17937080434E+03  0.71188442701E+03  0.10538846686E+04  0.79915196790E+02 0.  0.
         24    2    4    4    0    0 -0.86482482754E+03 -0.40005317975E+03  0.45391841207E+02  0.95747971541E+03  0.82112466829E+02 0.  0.
         13    1    3    3    0    0  0.76385094992E+03  0.57950750529E+02 -0.21094909034E+03  0.79456030727E+03  0.00000000000E+00 0. -1.
        -13    1    3    3    0    0  0.85286026079E+03  0.16273162488E+03 -0.25111654601E+03  0.90383169111E+03  0.00000000000E+00 0.  1.
          4    1    6    6  502    0 -0.29380608484E+03 -0.95158563768E+02  0.24928149518E+02  0.30983637679E+03  0.00000000000E+00 0. -1.
          3    1    5    5  503    0 -0.30405496533E+03  0.72790528171E+02  0.34185268726E+03  0.46326141942E+03  0.00000000000E+00 0. -1.
         -4    1    5    5    0  503 -0.44783141784E+03  0.10658027617E+03  0.37003173975E+03  0.59062324920E+03  0.00000000000E+00 0.  1.
         -3    1    6    6    0  502 -0.57101874271E+03 -0.30489461598E+03  0.20463691690E+02  0.64764333862E+03  0.00000000000E+00 0.  1.
<mgrwt>
<rscale>  0 0.36979918E+04</rscale>
<asrwt>0</asrwt>
<pdfrwt beam="1">  1        2 0.26265737E+00 0.36979918E+04</pdfrwt>
<pdfrwt beam="2">  1       -2 0.30807438E+00 0.36979918E+04</pdfrwt>
<totfact> 0.22274710E-01</totfact>
</mgrwt>
</event>
<event>
12    1  0.2433511E-007  0.2186804E+04  0.7818608E-02  0.8523941E-01
          2   -1    0    0  501    0  0.00000000000E+00  0.00000000000E+00  0.48586972198E+04  0.48586972198E+04  0.00000000000E+00 0.  1.
         -2   -1    0    0    0  501 -0.00000000000E+00 -0.00000000000E+00 -0.24605926765E+03  0.24605926765E+03  0.00000000000E+00 0. -1.
         23    2    1    2    0    0 -0.55459194793E+03 -0.58802233260E+03  0.28702277698E+04  0.29832456037E+04  0.90578081928E+02 0.  0.
        254    2    1    2    0    0  0.55459194793E+03  0.58802233260E+03  0.17424101823E+04  0.21215108837E+04  0.90081779181E+03 0.  0.
        -24    2    4    4    0    0  0.64467140537E+03  0.74494186902E+03  0.12583771262E+04  0.16001072949E+04  0.79314274935E+02 0.  0.
         24    2    4    4    0    0 -0.90079457439E+02 -0.15691953642E+03  0.48403305608E+03  0.52140358885E+03  0.69538863431E+02 0.  0.
         11    1    3    3    0    0 -0.43873195021E+03 -0.42713566158E+03  0.22691916670E+04  0.23503534669E+04  0.00000000000E+00 0.  1.
        -11    1    3    3    0    0 -0.11585999772E+03 -0.16088667102E+03  0.60103610284E+03  0.63289213686E+03  0.00000000000E+00 0. -1.
          4    1    6    6  502    0 -0.99254034963E+02 -0.13301265892E+03  0.38777116101E+03  0.42179403054E+03  0.00000000000E+00 0. -1.
          3    1    5    5  503    0  0.55933728233E+03  0.63435483923E+03  0.10342468828E+04  0.13360130508E+04  0.00000000000E+00 0. -1.
         -4    1    5    5    0  503  0.85334123040E+02  0.11058702978E+03  0.22413024344E+03  0.26409424404E+03  0.00000000000E+00 0.  1.
         -3    1    6    6    0  502  0.91745775234E+01 -0.23906877502E+02  0.96261895066E+02  0.99609558308E+02  0.00000000000E+00 0.  1.
<mgrwt>
<rscale>  0 0.21868036E+04</rscale>
<asrwt>0</asrwt>
<pdfrwt beam="1">  1        2 0.74749181E+00 0.21868036E+04</pdfrwt>
<pdfrwt beam="2">  1       -2 0.37855275E-01 0.21868036E+04</pdfrwt>
<totfact> 0.31218349E-01</totfact>
</mgrwt>
</event>
<event>
12    1  0.2433511E-007  0.2805964E+04  0.7818608E-02  0.8301419E-01
         -2   -1    0    0    0  501 -0.00000000000E+00  0.00000000000E+00  0.11991487949E+04  0.11991487949E+04  0.00000000000E+00 0. -1.
          2   -1    0    0  501    0  0.00000000000E+00 -0.00000000000E+00 -0.16414635012E+04  0.16414635012E+04  0.00000000000E+00 0.  1.
         23    2    1    2    0    0 -0.12075120323E+04 -0.31631784552E+03 -0.34058713684E+03  0.12971399600E+04  0.91816068041E+02 0.  0.
        254    2    1    2    0    0  0.12075120323E+04  0.31631784552E+03 -0.10172756946E+03  0.15434723362E+04  0.90211754579E+03 0.  0.
        -24    2    4    4    0    0  0.12828681550E+04  0.30090593946E+03  0.88100511013E+02  0.13231333359E+04  0.81394329297E+02 0.  0.
         24    2    4    4    0    0 -0.75356122694E+02  0.15411906061E+02 -0.18982808048E+03  0.22033900028E+03  0.81231169079E+02 0.  0.
         13    1    3    3    0    0 -0.59456949059E+03 -0.12198884702E+03 -0.13198855131E+03  0.62114018999E+03  0.00000000000E+00 0. -1.
        -13    1    3    3    0    0 -0.61294254175E+03 -0.19432899849E+03 -0.20859858554E+03  0.67599977000E+03  0.00000000000E+00 0.  1.
          2    1    6    6  502    0 -0.49612739488E+02  0.14890520375E+02 -0.33014746611E+02  0.61425768292E+02  0.00000000000E+00 0. -1.
          3    1    5    5  503    0  0.10264376300E+04  0.26096706095E+03  0.44934308045E+02  0.10600458043E+04  0.00000000000E+00 0. -1.
         -4    1    5    5    0  503  0.25643052506E+03  0.39938878503E+02  0.43166202968E+02  0.26308753159E+03  0.00000000000E+00 0.  1.
         -1    1    6    6    0  502 -0.25743383206E+02  0.52138568598E+00 -0.15681333386E+03  0.15891323198E+03  0.00000000000E+00 0.  1.
<mgrwt>
<rscale>  0 0.28059643E+04</rscale>
<asrwt>0</asrwt>
<pdfrwt beam="1">  1        2 0.25253285E+00 0.28059643E+04</pdfrwt>
<pdfrwt beam="2">  1       -2 0.18448443E+00 0.28059643E+04</pdfrwt>
<totfact> 0.15533803E+00</totfact>
</mgrwt>
</event>
<event>
12    1  0.2433511E-007  0.2343016E+04  0.7818608E-02  0.8461151E-01
         -2   -1    0    0    0  501 -0.00000000000E+00  0.00000000000E+00  0.66465079256E+03  0.66465079256E+03  0.00000000000E+00 0.  1.
          2   -1    0    0  501    0  0.00000000000E+00 -0.00000000000E+00 -0.20648902232E+04  0.20648902232E+04  0.00000000000E+00 0. -1.
         23    2    1    2    0    0  0.96604263920E+03  0.24278737543E+03 -0.60535783299E+03  0.11690116668E+04  0.89140792174E+02 0.  0.
        254    2    1    2    0    0 -0.96604263920E+03 -0.24278737543E+03 -0.79488159762E+03  0.15605293489E+04  0.90068363151E+03 0.  0.
        -24    2    4    4    0    0 -0.88217834880E+03 -0.47668351951E+03 -0.82079527433E+03  0.12984725728E+04  0.82827066762E+02 0.  0.
         24    2    4    4    0    0 -0.83864290397E+02  0.23389614408E+03  0.25913676713E+02  0.26205677612E+03  0.79130334581E+02 0.  0.
         13    1    3    3    0    0  0.52291892804E+03  0.12706997357E+03 -0.27514467934E+03  0.60439687131E+03  0.00000000000E+00 0. -1.
        -13    1    3    3    0    0  0.44312371116E+03  0.11571740186E+03 -0.33021315365E+03  0.56461479553E+03  0.00000000000E+00 0.  1.
          4    1    6    6  502    0 -0.92466660207E+02  0.19497146444E+03  0.24511844347E+01  0.21580074954E+03  0.00000000000E+00 0. -1.
          1    1    5    5  503    0 -0.57089786440E+03 -0.28753304594E+03 -0.56783218163E+03  0.85500468453E+03  0.00000000000E+00 0. -1.
         -2    1    5    5    0  503 -0.31128048440E+03 -0.18915047356E+03 -0.25296309271E+03  0.44346788823E+03  0.00000000000E+00 0.  1.
         -3    1    6    6    0  502  0.86023698093E+01  0.38924679633E+02  0.23462492278E+02  0.46256026577E+02  0.00000000000E+00 0.  1.
<mgrwt>
<rscale>  0 0.23430159E+04</rscale>
<asrwt>0</asrwt>
<pdfrwt beam="1">  1        2 0.31767542E+00 0.23430159E+04</pdfrwt>
<pdfrwt beam="2">  1       -2 0.10225397E+00 0.23430159E+04</pdfrwt>
<totfact> 0.43497462E+00</totfact>
</mgrwt>
</event>
<event>
12    1  0.2433511E-007  0.2873510E+04  0.7818608E-02  0.8280803E-01
         -2   -1    0    0    0  501 -0.00000000000E+00  0.00000000000E+00  0.96717213498E+03  0.96717213498E+03  0.00000000000E+00 0. -1.
          2   -1    0    0  501    0  0.00000000000E+00 -0.00000000000E+00 -0.21343306185E+04  0.21343306185E+04  0.00000000000E+00 0.  1.
         23    2    1    2    0    0  0.76537533653E+03  0.74694953168E+02  0.59636167955E+03  0.97750505548E+03  0.92141949522E+02 0.  0.
        254    2    1    2    0    0 -0.76537533653E+03 -0.74694953168E+02 -0.17635201631E+04  0.21239976980E+04  0.89999117428E+03 0.  0.
        -24    2    4    4    0    0 -0.14208318900E+03  0.10314786178E+03  0.47999076818E+02  0.19834373281E+03  0.78798546843E+02 0.  0.
         24    2    4    4    0    0 -0.62329214753E+03 -0.17784281495E+03 -0.18115192399E+04  0.19256539652E+04  0.80125334090E+02 0.  0.
         13    1    3    3    0    0  0.23916893679E+03 -0.18915280213E+02  0.17657304693E+03  0.29788858497E+03  0.00000000000E+00 0.  1.
        -13    1    3    3    0    0  0.52620639974E+03  0.93610233382E+02  0.41978863262E+03  0.67961647052E+03  0.00000000000E+00 0. -1.
          4    1    6    6  502    0 -0.23876051026E+03 -0.91555858181E+02 -0.62041867966E+03  0.67105021756E+03  0.00000000000E+00 0. -1.
          1    1    5    5  503    0  0.20600795761E+01  0.27338214677E+02 -0.32496133102E+01  0.27607641990E+02  0.00000000000E+00 0. -1.
         -2    1    5    5    0  503 -0.14414326857E+03  0.75809647105E+02  0.51248690128E+02  0.17073609082E+03  0.00000000000E+00 0.  1.
         -3    1    6    6    0  502 -0.38453163727E+03 -0.86286956770E+02 -0.11911005602E+04  0.12546037476E+04  0.00000000000E+00 0.  1.
<mgrwt>
<rscale>  0 0.28735101E+04</rscale>
<asrwt>0</asrwt>
<pdfrwt beam="1">  1        2 0.32835856E+00 0.28735101E+04</pdfrwt>
<pdfrwt beam="2">  1       -2 0.14879571E+00 0.28735101E+04</pdfrwt>
<totfact> 0.14882920E+00</totfact>
</mgrwt>
</event>
<event>
12    1  0.2433511E-007  0.1127236E+04  0.7818608E-02  0.9179045E-01
         -2   -1    0    0    0  501 -0.00000000000E+00  0.00000000000E+00  0.29780474294E+03  0.29780474294E+03  0.00000000000E+00 0. -1.
          2   -1    0    0  501    0  0.00000000000E+00 -0.00000000000E+00 -0.10666894673E+04  0.10666894673E+04  0.00000000000E+00 0.  1.
         23    2    1    2    0    0  0.17561224986E+02  0.17911464554E+03 -0.20527562982E+03  0.28824615274E+03  0.92505716061E+02 0.  0.
        254    2    1    2    0    0 -0.17561224986E+02 -0.17911464554E+03 -0.56360909458E+03  0.10762480575E+04  0.89903515893E+03 0.  0.
        -24    2    4    4    0    0  0.31448140459E+03 -0.15145082411E+03  0.61553823205E+02  0.36345450965E+03  0.80463665562E+02 0.  0.
         24    2    4    4    0    0 -0.33204262958E+03 -0.27663821424E+02 -0.62516291779E+03  0.71279354789E+03  0.78920043480E+02 0.  0.
         13    1    3    3    0    0  0.15283306032E+02  0.12197882519E+03 -0.19444808555E+03  0.23004884528E+03  0.00000000000E+00 0.  1.
        -13    1    3    3    0    0  0.22779189538E+01  0.57135820348E+02 -0.10827544270E+02  0.58197307467E+02  0.00000000000E+00 0. -1.
          2    1    6    6  502    0 -0.29296174803E+03 -0.15790811422E+02 -0.58990871194E+03  0.65883854164E+03  0.00000000000E+00 0. -1.
          3    1    5    5  503    0  0.69608678005E+02 -0.16117844569E+02  0.42251296231E+02  0.83007981546E+02  0.00000000000E+00 0. -1.
         -4    1    5    5    0  503  0.24487272659E+03 -0.13533297954E+03  0.19302526974E+02  0.28044652810E+03  0.00000000000E+00 0.  1.
         -1    1    6    6    0  502 -0.39080881546E+02 -0.11873010002E+02 -0.35254205853E+02  0.53955006248E+02  0.00000000000E+00 0.  1.
<mgrwt>
<rscale>  0 0.11272359E+04</rscale>
<asrwt>0</asrwt>
<pdfrwt beam="1">  1        2 0.16410607E+00 0.11272359E+04</pdfrwt>
<pdfrwt beam="2">  1       -2 0.45816115E-01 0.11272359E+04</pdfrwt>
<totfact> 0.10227491E+02</totfact>
</mgrwt>
</event>
<event>
12    1  0.2433511E-007  0.3320469E+04  0.7818608E-02  0.8157707E-01
         -2   -1    0    0    0  501 -0.00000000000E+00  0.00000000000E+00  0.22007593819E+04  0.22007593819E+04  0.00000000000E+00 0. -1.
          2   -1    0    0  501    0  0.00000000000E+00 -0.00000000000E+00 -0.12524669404E+04  0.12524669404E+04  0.00000000000E+00 0.  1.
         23    2    1    2    0    0 -0.21006725553E+03 -0.14973559063E+04  0.72457397867E+03  0.16791491889E+04  0.91277522213E+02 0.  0.
        254    2    1    2    0    0  0.21006725553E+03  0.14973559063E+04  0.22371846285E+03  0.17740771334E+04  0.90060910637E+03 0.  0.
        -24    2    4    4    0    0  0.55042686400E+03  0.77423030325E+03  0.66464127971E+02  0.95576494116E+03  0.81650764645E+02 0.  0.
         24    2    4    4    0    0 -0.34035960847E+03  0.72312560307E+03  0.15725433488E+03  0.81831219220E+03  0.78425870566E+02 0.  0.
         11    1    3    3    0    0 -0.76844506614E+02 -0.69309137628E+03  0.37933212540E+03  0.79383474063E+03  0.00000000000E+00 0. -1.
        -11    1    3    3    0    0 -0.13322274891E+03 -0.80426453004E+03  0.34524185327E+03  0.88531444829E+03  0.00000000000E+00 0.  1.
          2    1    6    6  502    0 -0.19325677065E+03  0.46697248254E+03  0.69322806156E+02  0.51011482070E+03  0.00000000000E+00 0. -1.
          1    1    5    5  503    0  0.47839491267E+03  0.63976366069E+03  0.78780471263E+02  0.80272386078E+03  0.00000000000E+00 0. -1.
         -2    1    5    5    0  503  0.72031951325E+02  0.13446664256E+03 -0.12316343292E+02  0.15304108038E+03  0.00000000000E+00 0.  1.
         -1    1    6    6    0  502 -0.14710283783E+03  0.25615312053E+03  0.87931528728E+02  0.30819737150E+03  0.00000000000E+00 0.  1.
<mgrwt>
<rscale>  0 0.33204689E+04</rscale>
<asrwt>0</asrwt>
<pdfrwt beam="1">  1        2 0.19268722E+00 0.33204689E+04</pdfrwt>
<pdfrwt beam="2">  1       -2 0.33857837E+00 0.33204689E+04</pdfrwt>
<totfact> 0.26967977E-01</totfact>
</mgrwt>
</event>
<event>
12    1  0.2433511E-007  0.1767568E+04  0.7818608E-02  0.8723739E-01
          2   -1    0    0  501    0  0.00000000000E+00  0.00000000000E+00  0.10802770608E+04  0.10802770608E+04  0.00000000000E+00 0. -1.
         -2   -1    0    0    0  501 -0.00000000000E+00 -0.00000000000E+00 -0.72303173779E+03  0.72303173779E+03  0.00000000000E+00 0.  1.
         23    2    1    2    0    0 -0.37299996099E+03  0.51431626847E+03  0.27572721038E+03  0.69807732696E+03  0.87385725107E+02 0.  0.
        254    2    1    2    0    0  0.37299996099E+03 -0.51431626847E+03  0.81518112596E+02  0.11052314716E+04  0.90068929616E+03 0.  0.
        -24    2    4    4    0    0  0.22439140241E+03 -0.81089446676E+02 -0.37670433290E+03  0.45151821215E+03  0.70961550466E+02 0.  0.
         24    2    4    4    0    0  0.14860855857E+03 -0.43322682180E+03  0.45822244549E+03  0.65371325945E+03  0.87196520683E+02 0.  0.
         11    1    3    3    0    0 -0.20217224499E+03  0.31719131795E+03  0.20230075355E+03  0.42709430307E+03  0.00000000000E+00 0. -1.
        -11    1    3    3    0    0 -0.17082771600E+03  0.19712495052E+03  0.73426456830E+02  0.27098302389E+03  0.00000000000E+00 0.  1.
          4    1    6    6  502    0  0.76090215986E+02 -0.13140799219E+03  0.19191676368E+03  0.24472397831E+03  0.00000000000E+00 0. -1.
          1    1    5    5  503    0  0.27306640152E+02  0.40111690274E+01 -0.84776270192E+02  0.89155807781E+02  0.00000000000E+00 0. -1.
         -2    1    5    5    0  503  0.19708476226E+03 -0.85100615703E+02 -0.29192806270E+03  0.36236240437E+03  0.00000000000E+00 0.  1.
         -3    1    6    6    0  502  0.72518342588E+02 -0.30181882961E+03  0.26630568181E+03  0.40898928113E+03  0.00000000000E+00 0.  1.
<mgrwt>
<rscale>  0 0.17675685E+04</rscale>
<asrwt>0</asrwt>
<pdfrwt beam="1">  1        2 0.16619647E+00 0.17675685E+04</pdfrwt>
<pdfrwt beam="2">  1       -2 0.11123565E+00 0.17675685E+04</pdfrwt>
<totfact> 0.13564612E+01</totfact>
</mgrwt>
</event>
<event>
12    1  0.2433511E-007  0.1298149E+04  0.7818608E-02  0.9031034E-01
         -2   -1    0    0    0  501 -0.00000000000E+00  0.00000000000E+00  0.14041743753E+03  0.14041743753E+03  0.00000000000E+00 0.  1.
          2   -1    0    0  501    0  0.00000000000E+00 -0.00000000000E+00 -0.30003251932E+04  0.30003251932E+04  0.00000000000E+00 0. -1.
         23    2    1    2    0    0 -0.18890121731E+03  0.13590335140E+03 -0.13165564241E+04  0.13393153908E+04  0.79319024031E+02 0.  0.
        254    2    1    2    0    0  0.18890121731E+03 -0.13590335140E+03 -0.15433513316E+04  0.18014272399E+04  0.89947394461E+03 0.  0.
        -24    2    4    4    0    0  0.24441435130E+03 -0.18131269697E+03 -0.16333282468E+04  0.16634560201E+04  0.81927405165E+02 0.  0.
         24    2    4    4    0    0 -0.55513133984E+02  0.45409345565E+02  0.89976915234E+02  0.13797121978E+03  0.76134719440E+02 0.  0.
         11    1    3    3    0    0 -0.86760299627E+02  0.16324264113E+02 -0.50602304632E+03  0.51366638454E+03  0.00000000000E+00 0.  1.
        -11    1    3    3    0    0 -0.10214091769E+03  0.11957908729E+03 -0.81053337773E+03  0.82564900630E+03  0.00000000000E+00 0. -1.
          4    1    6    6  502    0 -0.14236966679E+02 -0.32994007087E+00 -0.12136749645E+02  0.18710980001E+02  0.00000000000E+00 0. -1.
          3    1    5    5  503    0  0.10119202135E+01  0.70739710417E+01 -0.47547978882E+02  0.48081964858E+02  0.00000000000E+00 0. -1.
         -4    1    5    5    0  503  0.24340243108E+03 -0.18838666801E+03 -0.15857802679E+04  0.16153740552E+04  0.00000000000E+00 0.  1.
         -3    1    6    6    0  502 -0.41276167305E+02  0.45739285636E+02  0.10211366488E+03  0.11926023978E+03  0.00000000000E+00 0.  1.
<mgrwt>
<rscale>  0 0.12981494E+04</rscale>
<asrwt>0</asrwt>
<pdfrwt beam="1">  1        2 0.46158852E+00 0.12981494E+04</pdfrwt>
<pdfrwt beam="2">  1       -2 0.21602681E-01 0.12981494E+04</pdfrwt>
<totfact> 0.32186683E+01</totfact>
</mgrwt>
</event>
<event>
12    1  0.2433511E-007  0.2104942E+04  0.7818608E-02  0.8559069E-01
          1   -1    0    0  501    0  0.00000000000E+00  0.00000000000E+00  0.16115051891E+04  0.16115051891E+04  0.00000000000E+00 0. -1.
         -1   -1    0    0    0  501 -0.00000000000E+00 -0.00000000000E+00 -0.68736692254E+03  0.68736692254E+03  0.00000000000E+00 0.  1.
         23    2    1    2    0    0 -0.35995818412E+03  0.77558878062E+03  0.30979966372E+03  0.91399254604E+03  0.91097155014E+02 0.  0.
        254    2    1    2    0    0  0.35995818412E+03 -0.77558878062E+03  0.61433860286E+03  0.13848795656E+04  0.89965084414E+03 0.  0.
        -24    2    4    4    0    0  0.60756467255E+03 -0.35621869447E+03  0.18881634380E+03  0.73336118027E+03  0.78360828361E+02 0.  0.
         24    2    4    4    0    0 -0.24760648843E+03 -0.41937008614E+03  0.42552225906E+03  0.65151838534E+03  0.78909893024E+02 0.  0.
         11    1    3    3    0    0 -0.19627213945E+03  0.35562448690E+03  0.10906922989E+03  0.42058010570E+03  0.00000000000E+00 0.  1.
        -11    1    3    3    0    0 -0.16368604467E+03  0.41996429372E+03  0.20073043382E+03  0.49341244034E+03  0.00000000000E+00 0. -1.
          4    1    6    6  502    0 -0.16992208094E+03 -0.21809288718E+03  0.21692154636E+03  0.35141567738E+03  0.00000000000E+00 0. -1.
          3    1    5    5  503    0  0.49397520539E+03 -0.31699279261E+03  0.13835076205E+03  0.60302310691E+03  0.00000000000E+00 0. -1.
         -4    1    5    5    0  503  0.11358946716E+03 -0.39225901865E+02  0.50465581752E+02  0.13033807336E+03  0.00000000000E+00 0.  1.
         -3    1    6    6    0  502 -0.77684407490E+02 -0.20127719896E+03  0.20860071270E+03  0.30010270796E+03  0.00000000000E+00 0.  1.
<mgrwt>
<rscale>  0 0.21049421E+04</rscale>
<asrwt>0</asrwt>
<pdfrwt beam="1">  1        1 0.24792387E+00 0.21049421E+04</pdfrwt>
<pdfrwt beam="2">  1       -1 0.10574876E+00 0.21049421E+04</pdfrwt>
<totfact> 0.42176003E+00</totfact>
</mgrwt>
</event>
<event>
12    1  0.2433511E-007  0.1717488E+04  0.7818608E-02  0.8751453E-01
         -2   -1    0    0    0  501 -0.00000000000E+00  0.00000000000E+00  0.49424912733E+03  0.49424912733E+03  0.00000000000E+00 0.  1.
          2   -1    0    0  501    0  0.00000000000E+00 -0.00000000000E+00 -0.14920437853E+04  0.14920437853E+04  0.00000000000E+00 0. -1.
         23    2    1    2    0    0  0.49453738956E+03 -0.24400672872E+03 -0.39677961323E+02  0.56036933256E+03  0.91284910727E+02 0.  0.
        254    2    1    2    0    0 -0.49453738956E+03  0.24400672872E+03 -0.95811669662E+03  0.14259235800E+04  0.90064640034E+03 0.  0.
        -24    2    4    4    0    0  0.21222129508E+03  0.22907015886E+02 -0.50500145847E+03  0.55399100826E+03  0.79479272161E+02 0.  0.
         24    2    4    4    0    0 -0.70675868464E+03  0.22109971284E+03 -0.45311523815E+03  0.87193257179E+03  0.80994255225E+02 0.  0.
         13    1    3    3    0    0  0.31273622048E+03 -0.19234147500E+03  0.47913522098E+00  0.36715039994E+03  0.00000000000E+00 0.  1.
        -13    1    3    3    0    0  0.18180116908E+03 -0.51665253726E+02 -0.40157096544E+02  0.19321893262E+03  0.00000000000E+00 0. -1.
          4    1    6    6  502    0 -0.10322768768E+03  0.20534746840E+02 -0.35430615469E+02  0.11105386010E+03  0.00000000000E+00 0. -1.
          3    1    5    5  503    0  0.10945823918E+03  0.28495020266E+02 -0.35094425165E+03  0.36872068028E+03  0.00000000000E+00 0. -1.
         -4    1    5    5    0  503  0.10276305590E+03 -0.55880043801E+01 -0.15405720683E+03  0.18527032797E+03  0.00000000000E+00 0.  1.
         -3    1    6    6    0  502 -0.60353099696E+03  0.20056496600E+03 -0.41768462268E+03  0.76087871169E+03  0.00000000000E+00 0.  1.
<mgrwt>
<rscale>  0 0.17174881E+04</rscale>
<asrwt>0</asrwt>
<pdfrwt beam="1">  1        2 0.22954519E+00 0.17174881E+04</pdfrwt>
<pdfrwt beam="2">  1       -2 0.76038330E-01 0.17174881E+04</pdfrwt>
<totfact> 0.18875357E+01</totfact>
</mgrwt>
</event>
<event>
12    1  0.2433511E-007  0.3581409E+04  0.7818608E-02  0.8094764E-01
         -2   -1    0    0    0  501 -0.00000000000E+00  0.00000000000E+00  0.15457104404E+04  0.15457104404E+04  0.00000000000E+00 0. -1.
          2   -1    0    0  501    0  0.00000000000E+00 -0.00000000000E+00 -0.20745296603E+04  0.20745296603E+04  0.00000000000E+00 0.  1.
         23    2    1    2    0    0 -0.33949061062E+03  0.90373578199E+03 -0.16329373025E+04  0.18993751230E+04  0.95652420740E+02 0.  0.
        254    2    1    2    0    0  0.33949061062E+03 -0.90373578199E+03  0.11041180825E+04  0.17208649777E+04  0.90017070208E+03 0.  0.
        -24    2    4    4    0    0  0.38890991050E+03 -0.35254969358E+03  0.10271858059E+04  0.11564743090E+04  0.82340406744E+02 0.  0.
         24    2    4    4    0    0 -0.49419299877E+02 -0.55118608841E+03  0.76932276651E+02  0.56439066870E+03  0.79811530967E+02 0.  0.
         11    1    3    3    0    0 -0.41096766468E+02  0.22274983226E+03 -0.36862617685E+03  0.43265654999E+03  0.00000000000E+00 0.  1.
        -11    1    3    3    0    0 -0.29839384415E+03  0.68098594972E+03 -0.12643111257E+04  0.14667185730E+04  0.00000000000E+00 0. -1.
          4    1    6    6  502    0 -0.30074513268E+02 -0.68445941541E+02  0.23229668589E+02  0.78287551785E+02  0.00000000000E+00 0. -1.
          3    1    5    5  503    0  0.18605754840E+02 -0.18909114297E+02  0.21881633388E+02  0.34388000762E+02  0.00000000000E+00 0. -1.
         -4    1    5    5    0  503  0.37030415566E+03 -0.33364057928E+03  0.10053041725E+04  0.11220863082E+04  0.00000000000E+00 0.  1.
         -1    1    6    6    0  502 -0.19344786609E+02 -0.48274014687E+03  0.53702608061E+02  0.48610311692E+03  0.00000000000E+00 0.  1.
<mgrwt>
<rscale>  0 0.35814087E+04</rscale>
<asrwt>0</asrwt>
<pdfrwt beam="1">  1        2 0.31915841E+00 0.35814087E+04</pdfrwt>
<pdfrwt beam="2">  1       -2 0.23780161E+00 0.35814087E+04</pdfrwt>
<totfact> 0.37885923E-01</totfact>
</mgrwt>
</event>
<event>
12    1  0.2433511E-007  0.1792102E+04  0.7818608E-02  0.8710511E-01
         -2   -1    0    0    0  501 -0.00000000000E+00  0.00000000000E+00  0.40881191201E+03  0.40881191201E+03  0.00000000000E+00 0.  1.
          2   -1    0    0  501    0  0.00000000000E+00 -0.00000000000E+00 -0.19640027354E+04  0.19640027354E+04  0.00000000000E+00 0. -1.
         23    2    1    2    0    0  0.45708947384E+03 -0.21625771057E+03 -0.11569626275E+04  0.12659346631E+04  0.91268095330E+02 0.  0.
        254    2    1    2    0    0 -0.45708947384E+03  0.21625771057E+03 -0.39822819583E+03  0.11068799843E+04  0.90049953871E+03 0.  0.
        -24    2    4    4    0    0 -0.59672998833E+03  0.24193040005E+03 -0.57449805737E+03  0.86655349820E+03  0.79056624560E+02 0.  0.
         24    2    4    4    0    0  0.13964051449E+03 -0.25672689474E+02  0.17626986154E+03  0.24032648610E+03  0.80791061166E+02 0.  0.
         11    1    3    3    0    0  0.79555269613E+02 -0.35350457671E+02 -0.12536410375E+03  0.15262651896E+03  0.00000000000E+00 0. -1.
        -11    1    3    3    0    0  0.37753420423E+03 -0.18090725290E+03 -0.10315985238E+04  0.11133081441E+04  0.00000000000E+00 0.  1.
          4    1    6    6  502    0  0.56372475226E+02  0.18725684813E+02  0.30750552392E+02  0.66888741259E+02  0.00000000000E+00 0. -1.
          3    1    5    5  503    0 -0.11749197224E+03  0.15798695567E+02 -0.11508494384E+03  0.16522259719E+03  0.00000000000E+00 0. -1.
         -4    1    5    5    0  503 -0.47923801609E+03  0.22613170448E+03 -0.45941311353E+03  0.70133090102E+03  0.00000000000E+00 0.  1.
         -3    1    6    6    0  502  0.83268039260E+02 -0.44398374286E+02  0.14551930915E+03  0.17343774484E+03  0.00000000000E+00 0.  1.
<mgrwt>
<rscale>  0 0.17921024E+04</rscale>
<asrwt>0</asrwt>
<pdfrwt beam="1">  1        2 0.30215427E+00 0.17921024E+04</pdfrwt>
<pdfrwt beam="2">  1       -2 0.62894140E-01 0.17921024E+04</pdfrwt>
<totfact> 0.15484949E+01</totfact>
</mgrwt>
</event>
<event>
12    1  0.2433511E-007  0.2454448E+04  0.7818608E-02  0.8419396E-01
          2   -1    0    0  501    0  0.00000000000E+00  0.00000000000E+00  0.16311476082E+04  0.16311476082E+04  0.00000000000E+00 0. -1.
         -2   -1    0    0    0  501 -0.00000000000E+00 -0.00000000000E+00 -0.92332457361E+03  0.92332457361E+03  0.00000000000E+00 0.  1.
         23    2    1    2    0    0 -0.69523209682E+03  0.75155973764E+03  0.21532892619E+02  0.10280431313E+04  0.90660392240E+02 0.  0.
        254    2    1    2    0    0  0.69523209682E+03 -0.75155973764E+03  0.68629014200E+03  0.15264290505E+04  0.90044532290E+03 0.  0.
        -24    2    4    4    0    0  0.88638076074E+03 -0.58641843586E+03  0.40336190050E+03  0.11393224400E+04  0.76140426704E+02 0.  0.
         24    2    4    4    0    0 -0.19114866391E+03 -0.16514130178E+03  0.28292824151E+03  0.38710661052E+03  0.77418840051E+02 0.  0.
         11    1    3    3    0    0 -0.25288718119E+03  0.33752310669E+03 -0.69948922102E+00  0.42175142352E+03  0.00000000000E+00 0.  1.
        -11    1    3    3    0    0 -0.44234491563E+03  0.41403663095E+03  0.22232381840E+02  0.60629170781E+03  0.00000000000E+00 0. -1.
          4    1    6    6  502    0 -0.36005335906E+01 -0.18337146320E+02  0.19840132897E+01  0.18792314547E+02  0.00000000000E+00 0. -1.
          1    1    5    5  503    0  0.11246076952E+03 -0.78908572616E+02  0.79982323115E+02  0.15896905210E+03  0.00000000000E+00 0. -1.
         -2    1    5    5    0  503  0.77391999121E+03 -0.50750986324E+03  0.32337957738E+03  0.98035338789E+03  0.00000000000E+00 0.  1.
         -3    1    6    6    0  502 -0.18754813032E+03 -0.14680415546E+03  0.28094422822E+03  0.36831429597E+03  0.00000000000E+00 0.  1.
<mgrwt>
<rscale>  0 0.24544479E+04</rscale>
<asrwt>0</asrwt>
<pdfrwt beam="1">  1        2 0.25094579E+00 0.24544479E+04</pdfrwt>
<pdfrwt beam="2">  1       -2 0.14204993E+00 0.24544479E+04</pdfrwt>
<totfact> 0.33171405E+00</totfact>
</mgrwt>
</event>
<event>
12    1  0.2433511E-007  0.2444154E+04  0.7818608E-02  0.8423155E-01
         -2   -1    0    0    0  501 -0.00000000000E+00  0.00000000000E+00  0.11213296034E+04  0.11213296034E+04  0.00000000000E+00 0.  1.
          2   -1    0    0  501    0  0.00000000000E+00 -0.00000000000E+00 -0.13318765787E+04  0.13318765787E+04  0.00000000000E+00 0. -1.
         23    2    1    2    0    0  0.88243489927E+03 -0.20986441983E+03 -0.63029929622E+03  0.11086582702E+04  0.95454339960E+02 0.  0.
        254    2    1    2    0    0 -0.88243489927E+03  0.20986441983E+03  0.41975232097E+03  0.13445479119E+04  0.89937903595E+03 0.  0.
        -24    2    4    4    0    0 -0.94774581385E+03  0.26892860440E+01  0.52908118607E+03  0.10883668983E+04  0.79913978756E+02 0.  0.
         24    2    4    4    0    0  0.65310914571E+02  0.20717513378E+03 -0.10932886509E+03  0.25618101359E+03  0.80553456535E+02 0.  0.
         13    1    3    3    0    0  0.43750778292E+03 -0.59415683423E+02 -0.32944050890E+03  0.55088504468E+03  0.00000000000E+00 0. -1.
        -13    1    3    3    0    0  0.44492711636E+03 -0.15044873640E+03 -0.30085878732E+03  0.55777322548E+03  0.00000000000E+00 0.  1.
          2    1    6    6  502    0 -0.13401265890E+02  0.67700555997E+02 -0.50695778789E+02  0.85633061354E+02  0.00000000000E+00 0. -1.
          1    1    5    5  503    0 -0.60408497972E+03 -0.19882572113E+01  0.38048426730E+03  0.71392639225E+03  0.00000000000E+00 0. -1.
         -2    1    5    5    0  503 -0.34366083413E+03  0.46775432553E+01  0.14859691877E+03  0.37444050608E+03  0.00000000000E+00 0.  1.
         -1    1    6    6    0  502  0.78712180461E+02  0.13947457779E+03 -0.58633086304E+02  0.17054795223E+03  0.00000000000E+00 0.  1.
<mgrwt>
<rscale>  0 0.24441544E+04</rscale>
<asrwt>0</asrwt>
<pdfrwt beam="1">  1        2 0.20490409E+00 0.24441544E+04</pdfrwt>
<pdfrwt beam="2">  1       -2 0.17251225E+00 0.24441544E+04</pdfrwt>
<totfact> 0.29036230E+00</totfact>
</mgrwt>
</event>
<event>
12    1  0.2433511E-007  0.2602159E+04  0.7818608E-02  0.8367468E-01
         -2   -1    0    0    0  501 -0.00000000000E+00  0.00000000000E+00  0.11966767837E+04  0.11966767837E+04  0.00000000000E+00 0.  1.
          2   -1    0    0  501    0  0.00000000000E+00 -0.00000000000E+00 -0.14145909113E+04  0.14145909113E+04  0.00000000000E+00 0. -1.
         23    2    1    2    0    0  0.82127794129E+03  0.75791090651E+03 -0.33512544196E+03  0.11701748556E+04  0.89853947425E+02 0.  0.
        254    2    1    2    0    0 -0.82127794129E+03 -0.75791090651E+03  0.11721131433E+03  0.14410928393E+04  0.90226585900E+03 0.  0.
        -24    2    4    4    0    0 -0.35147723843E+03  0.15485259184E+03  0.12618268111E+03  0.41157035260E+03  0.77152522922E+02 0.  0.
         24    2    4    4    0    0 -0.46980070286E+03 -0.91276349835E+03 -0.89713667851E+01  0.10295224867E+04  0.77370284623E+02 0.  0.
         13    1    3    3    0    0  0.50446327480E+03  0.44019379785E+03 -0.24213860248E+03  0.71195848060E+03  0.00000000000E+00 0. -1.
        -13    1    3    3    0    0  0.31681466649E+03  0.31771710866E+03 -0.92986839475E+02  0.45821637504E+03  0.00000000000E+00 0.  1.
          2    1    6    6  502    0 -0.18823981661E+03 -0.28819379337E+03 -0.11522259720E+02  0.34441639561E+03  0.00000000000E+00 0. -1.
          3    1    5    5  503    0 -0.15481997816E+03  0.11032163159E+03  0.62592973024E+02  0.20014486830E+03  0.00000000000E+00 0. -1.
         -4    1    5    5    0  503 -0.19665726027E+03  0.44530960251E+02  0.63589708088E+02  0.21142548431E+03  0.00000000000E+00 0.  1.
         -1    1    6    6    0  502 -0.28156088625E+03 -0.62456970498E+03  0.25508929352E+01  0.68510609113E+03  0.00000000000E+00 0.  1.
<mgrwt>
<rscale>  0 0.26021592E+04</rscale>
<asrwt>0</asrwt>
<pdfrwt beam="1">  1        2 0.21762937E+00 0.26021592E+04</pdfrwt>
<pdfrwt beam="2">  1       -2 0.18410412E+00 0.26021592E+04</pdfrwt>
<totfact> 0.21335095E+00</totfact>
</mgrwt>
</event>
<event>
12    1  0.2433511E-007  0.1594388E+04  0.7818608E-02  0.8824003E-01
          1   -1    0    0  501    0  0.00000000000E+00  0.00000000000E+00  0.75951299115E+03  0.75951299115E+03  0.00000000000E+00 0. -1.
         -1   -1    0    0    0  501 -0.00000000000E+00 -0.00000000000E+00 -0.83674477375E+03  0.83674477375E+03  0.00000000000E+00 0.  1.
         23    2    1    2    0    0 -0.39243372402E+03 -0.26532423312E+03 -0.28293491149E+03  0.55860554675E+03  0.87102332312E+02 0.  0.
        254    2    1    2    0    0  0.39243372402E+03  0.26532423312E+03  0.20570312889E+03  0.10376522181E+04  0.90000398452E+03 0.  0.
        -24    2    4    4    0    0  0.83707287625E+02 -0.22445679155E+03 -0.20335273401E+03  0.32413113756E+03  0.79504079344E+02 0.  0.
         24    2    4    4    0    0  0.30872643639E+03  0.48978102467E+03  0.40905586291E+03  0.71352108058E+03  0.81167535394E+02 0.  0.
         13    1    3    3    0    0 -0.21374450381E+03 -0.92565422857E+02 -0.12930399100E+03  0.26641057131E+03  0.00000000000E+00 0. -1.
        -13    1    3    3    0    0 -0.17868922021E+03 -0.17275881027E+03 -0.15363092049E+03  0.29219497545E+03  0.00000000000E+00 0.  1.
          4    1    6    6  502    0  0.14738206806E+03  0.25399877273E+03  0.25504084964E+03  0.38895074948E+03  0.00000000000E+00 0. -1.
          3    1    5    5  503    0  0.35573746803E+02 -0.19218847191E+02 -0.21883038383E+02  0.45975242445E+02  0.00000000000E+00 0. -1.
         -4    1    5    5    0  503  0.48133540822E+02 -0.20523794436E+03 -0.18146969563E+03  0.27815589512E+03  0.00000000000E+00 0.  1.
         -3    1    6    6    0  502  0.16134436833E+03  0.23578225194E+03  0.15401501327E+03  0.32457033110E+03  0.00000000000E+00 0.  1.
<mgrwt>
<rscale>  0 0.15943883E+04</rscale>
<asrwt>0</asrwt>
<pdfrwt beam="1">  1        1 0.11684815E+00 0.15943883E+04</pdfrwt>
<pdfrwt beam="2">  1       -1 0.12872996E+00 0.15943883E+04</pdfrwt>
<totfact> 0.11986906E+01</totfact>
</mgrwt>
</event>
<event>
12    1  0.2433511E-007  0.3119686E+04  0.7818608E-02  0.8210356E-01
          2   -1    0    0  501    0  0.00000000000E+00  0.00000000000E+00  0.17253244405E+04  0.17253244405E+04  0.00000000000E+00 0. -1.
         -2   -1    0    0    0  501 -0.00000000000E+00 -0.00000000000E+00 -0.14102334060E+04  0.14102334060E+04  0.00000000000E+00 0.  1.
         23    2    1    2    0    0 -0.11879662382E+04 -0.79241906959E+03  0.18706352905E+03  0.14430944465E+04  0.91307462163E+02 0.  0.
        254    2    1    2    0    0  0.11879662382E+04  0.79241906959E+03  0.12802750552E+03  0.16924634000E+04  0.89936063580E+03 0.  0.
        -24    2    4    4    0    0  0.10411028101E+04  0.24161927096E+03 -0.92812683785E+02  0.10757254974E+04  0.79348713346E+02 0.  0.
         24    2    4    4    0    0  0.14686342814E+03  0.55079979863E+03  0.22084018931E+03  0.61673790258E+03  0.81522797879E+02 0.  0.
         13    1    3    3    0    0 -0.10612213935E+04 -0.68651115765E+03  0.14187572103E+03  0.12718557842E+04  0.00000000000E+00 0. -1.
        -13    1    3    3    0    0 -0.12674484474E+03 -0.10590791194E+03  0.45187808019E+02  0.17123866232E+03  0.00000000000E+00 0.  1.
          2    1    6    6  502    0 -0.38997881703E+01  0.10053360418E+03  0.29998998216E+02  0.10498644584E+03  0.00000000000E+00 0. -1.
          3    1    5    5  503    0  0.44729599664E+03  0.13728184008E+03 -0.62687992655E+02  0.47206969470E+03  0.00000000000E+00 0. -1.
         -4    1    5    5    0  503  0.59380681344E+03  0.10433743089E+03 -0.30124691130E+02  0.60365580274E+03  0.00000000000E+00 0.  1.
         -3    1    6    6    0  502  0.15076321632E+03  0.45026619445E+03  0.19084119109E+03  0.51175145674E+03  0.00000000000E+00 0.  1.
<mgrwt>
<rscale>  0 0.31196860E+04</rscale>
<asrwt>0</asrwt>
<pdfrwt beam="1">  1        2 0.26543453E+00 0.31196860E+04</pdfrwt>
<pdfrwt beam="2">  1       -2 0.21695899E+00 0.31196860E+04</pdfrwt>
<totfact> 0.83163284E-01</totfact>
</mgrwt>
</event>
<event>
12    1  0.2433511E-007  0.3011480E+04  0.7818608E-02  0.8240460E-01
          2   -1    0    0  501    0  0.00000000000E+00  0.00000000000E+00  0.31050480281E+04  0.31050480281E+04  0.00000000000E+00 0.  1.
         -2   -1    0    0    0  501 -0.00000000000E+00 -0.00000000000E+00 -0.73018270519E+03  0.73018270519E+03  0.00000000000E+00 0. -1.
         23    2    1    2    0    0  0.45895873609E+03  0.79843165569E+03  0.23740974516E+04  0.25481461086E+04  0.92594009681E+02 0.  0.
        254    2    1    2    0    0 -0.45895873609E+03 -0.79843165569E+03  0.76787133158E+00  0.12870846248E+04  0.89913848289E+03 0.  0.
        -24    2    4    4    0    0  0.11212360421E+03 -0.47555191548E+03 -0.28045863685E+03  0.56883986406E+03  0.78742726767E+02 0.  0.
         24    2    4    4    0    0 -0.57108234030E+03 -0.32287974021E+03  0.28122650818E+03  0.71824476070E+03  0.80005133122E+02 0.  0.
         13    1    3    3    0    0  0.45180694956E+03  0.74221391433E+03  0.22275593323E+04  0.23910314915E+04  0.00000000000E+00 0. -1.
        -13    1    3    3    0    0  0.71517865300E+01  0.56217741363E+02  0.14653811931E+03  0.15711461710E+03  0.00000000000E+00 0.  1.
          4    1    6    6  502    0 -0.55632635401E+03 -0.29872624789E+03  0.27733359221E+03  0.68967405687E+03  0.00000000000E+00 0. -1.
          1    1    5    5  503    0  0.79384686259E+02 -0.34712046824E+03 -0.24304747247E+03  0.43112251363E+03  0.00000000000E+00 0. -1.
         -2    1    5    5    0  503  0.32738917949E+02 -0.12843144723E+03 -0.37411164380E+02  0.13771735042E+03  0.00000000000E+00 0.  1.
         -3    1    6    6    0  502 -0.14755986287E+02 -0.24153492326E+02  0.38929159755E+01  0.28570703835E+02  0.00000000000E+00 0.  1.
<mgrwt>
<rscale>  0 0.30114796E+04</rscale>
<asrwt>0</asrwt>
<pdfrwt beam="1">  1        2 0.47769969E+00 0.30114796E+04</pdfrwt>
<pdfrwt beam="2">  1       -2 0.11233580E+00 0.30114796E+04</pdfrwt>
<totfact> 0.79699550E-01</totfact>
</mgrwt>
</event>
<event>
12    1  0.2433511E-007  0.1842370E+04  0.7818608E-02  0.8684087E-01
          2   -1    0    0  501    0  0.00000000000E+00  0.00000000000E+00  0.13097493501E+04  0.13097493501E+04  0.00000000000E+00 0.  1.
         -2   -1    0    0    0  501 -0.00000000000E+00 -0.00000000000E+00 -0.64789612079E+03  0.64789612079E+03  0.00000000000E+00 0. -1.
         23    2    1    2    0    0  0.37422162223E+03 -0.58321505575E+03  0.18032184250E+03  0.72191704804E+03  0.92014311803E+02 0.  0.
        254    2    1    2    0    0 -0.37422162223E+03  0.58321505575E+03  0.48153138681E+03  0.12357284228E+04  0.90275724021E+03 0.  0.
        -24    2    4    4    0    0  0.29606381300E+02  0.68352414449E+03  0.16930996465E+03  0.70926031534E+03  0.79388518500E+02 0.  0.
         24    2    4    4    0    0 -0.40382800353E+03 -0.10030908875E+03  0.31222142215E+03  0.52646810750E+03  0.80916512812E+02 0.  0.
         11    1    3    3    0    0  0.25888164874E+02 -0.65008190313E+02 -0.62170734812E+01  0.70248942277E+02  0.00000000000E+00 0. -1.
        -11    1    3    3    0    0  0.34833345735E+03 -0.51820686543E+03  0.18653891598E+03  0.65166810576E+03  0.00000000000E+00 0.  1.
          2    1    6    6  502    0 -0.20118056660E+03 -0.64963788590E+02  0.20505916113E+03  0.29452194107E+03  0.00000000000E+00 0. -1.
          3    1    5    5  503    0  0.38454127948E+00  0.28554334594E+03  0.32402876384E+02  0.28737622845E+03  0.00000000000E+00 0. -1.
         -4    1    5    5    0  503  0.29221840021E+02  0.39798079856E+03  0.13690708827E+03  0.42188408689E+03  0.00000000000E+00 0.  1.
         -1    1    6    6    0  502 -0.20264743693E+03 -0.35345300159E+02  0.10716226102E+03  0.23194616644E+03  0.00000000000E+00 0.  1.
<mgrwt>
<rscale>  0 0.18423697E+04</rscale>
<asrwt>0</asrwt>
<pdfrwt beam="1">  1        2 0.20149990E+00 0.18423697E+04</pdfrwt>
<pdfrwt beam="2">  1       -2 0.99676327E-01 0.18423697E+04</pdfrwt>
<totfact> 0.12780452E+01</totfact>
</mgrwt>
</event>
<event>
12    1  0.2433511E-007  0.1695365E+04  0.7818608E-02  0.8764012E-01
          1   -1    0    0  501    0  0.00000000000E+00  0.00000000000E+00  0.19801942190E+04  0.19801942190E+04  0.00000000000E+00 0. -1.
         -1   -1    0    0    0  501 -0.00000000000E+00 -0.00000000000E+00 -0.36287647829E+03  0.36287647829E+03  0.00000000000E+00 0.  1.
         23    2    1    2    0    0  0.57509428517E+03 -0.54479037212E+02  0.82484976509E+03  0.10110521090E+04  0.90265329668E+02 0.  0.
        254    2    1    2    0    0 -0.57509428517E+03  0.54479037212E+02  0.79246797557E+03  0.13320185883E+04  0.90142477496E+03 0.  0.
        -24    2    4    4    0    0 -0.22806704888E+03  0.46039740645E+03  0.48346904530E+03  0.70995404635E+03  0.79448596681E+02 0.  0.
         24    2    4    4    0    0 -0.34702723628E+03 -0.40591836924E+03  0.30899893027E+03  0.62206454193E+03  0.79286381026E+02 0.  0.
         11    1    3    3    0    0  0.14939839541E+03 -0.23030177940E+02  0.28726353789E+03  0.32460839461E+03  0.00000000000E+00 0. -1.
        -11    1    3    3    0    0  0.42569588975E+03 -0.31448859272E+02  0.53758622720E+03  0.68644371435E+03  0.00000000000E+00 0.  1.
          4    1    6    6  502    0 -0.25127660292E+03 -0.24863492689E+03  0.22975732400E+03  0.42160133536E+03  0.00000000000E+00 0. -1.
          1    1    5    5  503    0 -0.83616643996E+02  0.22710786965E+03  0.26779017370E+03  0.36094501623E+03  0.00000000000E+00 0. -1.
         -2    1    5    5    0  503 -0.14445040489E+03  0.23328953680E+03  0.21567887161E+03  0.34900903013E+03  0.00000000000E+00 0.  1.
         -3    1    6    6    0  502 -0.95750633366E+02 -0.15728344235E+03  0.79241606270E+02  0.20046320658E+03  0.00000000000E+00 0.  1.
<mgrwt>
<rscale>  0 0.16953653E+04</rscale>
<asrwt>0</asrwt>
<pdfrwt beam="1">  1        1 0.30464526E+00 0.16953653E+04</pdfrwt>
<pdfrwt beam="2">  1       -1 0.55827151E-01 0.16953653E+04</pdfrwt>
<totfact> 0.94986586E+00</totfact>
</mgrwt>
</event>
<event>
12    1  0.2433511E-007  0.3559783E+04  0.7818608E-02  0.8099766E-01
         -2   -1    0    0    0  501 -0.00000000000E+00  0.00000000000E+00  0.17240456333E+04  0.17240456333E+04  0.00000000000E+00 0.  1.
          2   -1    0    0  501    0  0.00000000000E+00 -0.00000000000E+00 -0.18375463985E+04  0.18375463985E+04  0.00000000000E+00 0. -1.
         23    2    1    2    0    0  0.16333951290E+04  0.26820339724E+03 -0.22364513342E+03  0.16727553312E+04  0.90446351326E+02 0.  0.
        254    2    1    2    0    0 -0.16333951290E+04 -0.26820339724E+03  0.11014436821E+03  0.18888367006E+04  0.90313874345E+03 0.  0.
        -24    2    4    4    0    0 -0.49956847029E+03  0.18801525966E+03  0.34649816805E+03  0.64143654413E+03  0.80383240214E+02 0.  0.
         24    2    4    4    0    0 -0.11338266587E+04 -0.45621865690E+03 -0.23635379985E+03  0.12474001565E+04  0.80284972040E+02 0.  0.
         13    1    3    3    0    0  0.94634125679E+03  0.14156571225E+03 -0.86296241238E+02  0.96075473792E+03  0.00000000000E+00 0. -1.
        -13    1    3    3    0    0  0.68705387221E+03  0.12663768499E+03 -0.13734889218E+03  0.71200059323E+03  0.00000000000E+00 0.  1.
          2    1    6    6  502    0 -0.47133203019E+02 -0.19385074123E+02 -0.26844724742E+02  0.57601728898E+02  0.00000000000E+00 0. -1.
          1    1    5    5  503    0 -0.99167241310E+02  0.72835594254E+02  0.84629302508E+02  0.14933614560E+03  0.00000000000E+00 0. -1.
         -2    1    5    5    0  503 -0.40040122898E+03  0.11517966541E+03  0.26186886554E+03  0.49210039853E+03  0.00000000000E+00 0.  1.
         -1    1    6    6    0  502 -0.10866934557E+04 -0.43683358278E+03 -0.20950907511E+03  0.11897984276E+04  0.00000000000E+00 0.  1.
<mgrwt>
<rscale>  0 0.35597831E+04</rscale>
<asrwt>0</asrwt>
<pdfrwt beam="1">  1        2 0.28269945E+00 0.35597831E+04</pdfrwt>
<pdfrwt beam="2">  1       -2 0.26523779E+00 0.35597831E+04</pdfrwt>
<totfact> 0.34856000E-01</totfact>
</mgrwt>
</event>
<event>
12    1  0.2433511E-007  0.1982417E+04  0.7818608E-02  0.8614886E-01
          1   -1    0    0  501    0  0.00000000000E+00  0.00000000000E+00  0.10112265865E+04  0.10112265865E+04  0.00000000000E+00 0. -1.
         -1   -1    0    0    0  501 -0.00000000000E+00 -0.00000000000E+00 -0.97158661256E+03  0.97158661256E+03  0.00000000000E+00 0.  1.
         23    2    1    2    0    0  0.18201603173E+03 -0.75967544103E+03 -0.31798504807E+02  0.78854600263E+03  0.10274746640E+03 0.  0.
        254    2    1    2    0    0 -0.18201603173E+03  0.75967544103E+03  0.71438478782E+02  0.11942671965E+04  0.90051877759E+03 0.  0.
        -24    2    4    4    0    0  0.44669100763E+02 -0.73722386930E+02 -0.24469371848E+03  0.27105860962E+03  0.78533019082E+02 0.  0.
         24    2    4    4    0    0 -0.22668513250E+03  0.83339782796E+03  0.31613219726E+03  0.92320858685E+03  0.80227425141E+02 0.  0.
         11    1    3    3    0    0  0.17944099387E+03 -0.66671066532E+03 -0.55102691886E+00  0.69043644541E+03  0.00000000000E+00 0. -1.
        -11    1    3    3    0    0  0.25750378677E+01 -0.92964775715E+02 -0.31247477889E+02  0.98109557221E+02  0.00000000000E+00 0.  1.
          4    1    6    6  502    0 -0.28817973992E+02  0.46042184104E+02  0.81985823558E+01  0.54932459391E+02  0.00000000000E+00 0. -1.
          3    1    5    5  503    0  0.58608255001E+02 -0.58740558343E+02 -0.12771826107E+03  0.15230671344E+03  0.00000000000E+00 0. -1.
         -4    1    5    5    0  503 -0.13939154239E+02 -0.14981828587E+02 -0.11697545741E+03  0.11875189618E+03  0.00000000000E+00 0.  1.
         -3    1    6    6    0  502 -0.19786715850E+03  0.78735564386E+03  0.30793361491E+03  0.86827612746E+03  0.00000000000E+00 0.  1.
<mgrwt>
<rscale>  0 0.19824169E+04</rscale>
<asrwt>0</asrwt>
<pdfrwt beam="1">  1        1 0.15557332E+00 0.19824169E+04</pdfrwt>
<pdfrwt beam="2">  1       -1 0.14947486E+00 0.19824169E+04</pdfrwt>
<totfact> 0.48527238E+00</totfact>
</mgrwt>
</event>
<event>
12    1  0.2433511E-007  0.2584258E+04  0.7818608E-02  0.8373568E-01
         -1   -1    0    0    0  501 -0.00000000000E+00  0.00000000000E+00  0.11629866383E+04  0.11629866383E+04  0.00000000000E+00 0.  1.
          1   -1    0    0  501    0  0.00000000000E+00 -0.00000000000E+00 -0.14356123158E+04  0.14356123158E+04  0.00000000000E+00 0. -1.
         23    2    1    2    0    0 -0.10536873789E+03 -0.11275112306E+04 -0.68872814720E+02  0.11380828971E+04  0.90028162193E+02 0.  0.
        254    2    1    2    0    0  0.10536873789E+03  0.11275112306E+04 -0.20375286277E+03  0.14605160569E+04  0.89955976863E+03 0.  0.
        -24    2    4    4    0    0  0.18100630809E+03  0.82638633939E+03  0.26706468180E+03  0.89077781479E+03  0.80522702085E+02 0.  0.
         24    2    4    4    0    0 -0.75637570203E+02  0.30112489122E+03 -0.47081754457E+03  0.56973824213E+03  0.80840968152E+02 0.  0.
         11    1    3    3    0    0 -0.58258946660E+02 -0.81997394245E+03 -0.14024075428E+02  0.82216059615E+03  0.00000000000E+00 0. -1.
        -11    1    3    3    0    0 -0.47109791228E+02 -0.30753728817E+03 -0.54848739292E+02  0.31592230096E+03  0.00000000000E+00 0.  1.
          2    1    6    6  502    0 -0.12926013337E+02  0.38110478017E+02 -0.22260089918E+02  0.45989150445E+02  0.00000000000E+00 0. -1.
          3    1    5    5  503    0 -0.43598033642E+01  0.18916678012E+02  0.15830306466E+02  0.25048896087E+02  0.00000000000E+00 0. -1.
         -4    1    5    5    0  503  0.18536611146E+03  0.80746966138E+03  0.25123437533E+03  0.86572891870E+03  0.00000000000E+00 0.  1.
         -1    1    6    6    0  502 -0.62711556865E+02  0.26301441321E+03 -0.44855745465E+03  0.52374909168E+03  0.00000000000E+00 0.  1.
<mgrwt>
<rscale>  0 0.25842585E+04</rscale>
<asrwt>0</asrwt>
<pdfrwt beam="1">  1        1 0.22086343E+00 0.25842585E+04</pdfrwt>
<pdfrwt beam="2">  1       -1 0.17892102E+00 0.25842585E+04</pdfrwt>
<totfact> 0.13554216E+00</totfact>
</mgrwt>
</event>
<event>
12    1  0.2433511E-007  0.2698689E+04  0.7818608E-02  0.8335431E-01
          2   -1    0    0  501    0  0.00000000000E+00  0.00000000000E+00  0.23040976260E+04  0.23040976260E+04  0.00000000000E+00 0. -1.
         -2   -1    0    0    0  501 -0.00000000000E+00 -0.00000000000E+00 -0.79021405201E+03  0.79021405201E+03  0.00000000000E+00 0.  1.
         23    2    1    2    0    0  0.10692505552E+04  0.62303337622E+02  0.57579731643E+02  0.10764974010E+04  0.91393507476E+02 0.  0.
        254    2    1    2    0    0 -0.10692505552E+04 -0.62303337622E+02  0.14563038423E+04  0.20178142769E+04  0.89642351557E+03 0.  0.
        -24    2    4    4    0    0 -0.20762960858E+03  0.35539296378E+03  0.30493893097E+03  0.51818982223E+03  0.78222293337E+02 0.  0.
         24    2    4    4    0    0 -0.86162094666E+03 -0.41769630140E+03  0.11513649114E+04  0.14996244547E+04  0.79821614405E+02 0.  0.
         11    1    3    3    0    0  0.66015692639E+03 -0.17023069248E+01  0.54640740726E+02  0.66241654256E+03  0.00000000000E+00 0. -1.
        -11    1    3    3    0    0  0.40909362885E+03  0.64005644546E+02  0.29389909164E+01  0.41408085849E+03  0.00000000000E+00 0.  1.
          2    1    6    6  502    0 -0.22953314662E+03 -0.75257178728E+02  0.30874206442E+03  0.39200863598E+03  0.00000000000E+00 0. -1.
          1    1    5    5  503    0 -0.62804509173E+02  0.98827260886E+02  0.13246225283E+03  0.17679785714E+03  0.00000000000E+00 0. -1.
         -2    1    5    5    0  503 -0.14482509941E+03  0.25656570290E+03  0.17247667814E+03  0.34139196508E+03  0.00000000000E+00 0.  1.
         -3    1    6    6    0  502 -0.63208780004E+03 -0.34243912268E+03  0.84262284694E+03  0.11076158187E+04  0.00000000000E+00 0.  1.
<mgrwt>
<rscale>  0 0.26986888E+04</rscale>
<asrwt>0</asrwt>
<pdfrwt beam="1">  1        2 0.35447655E+00 0.26986888E+04</pdfrwt>
<pdfrwt beam="2">  1       -2 0.12157139E+00 0.26986888E+04</pdfrwt>
<totfact> 0.20336074E+00</totfact>
</mgrwt>
</event>
<event>
12    1  0.2433511E-007  0.1479982E+04  0.7818608E-02  0.8897875E-01
          1   -1    0    0  501    0  0.00000000000E+00  0.00000000000E+00  0.15948607275E+04  0.15948607275E+04  0.00000000000E+00 0. -1.
         -1   -1    0    0    0  501 -0.00000000000E+00 -0.00000000000E+00 -0.34334469542E+03  0.34334469542E+03  0.00000000000E+00 0.  1.
         23    2    1    2    0    0  0.28508377172E+02 -0.34334620792E+03  0.79715669824E+03  0.87325872228E+03  0.91774988007E+02 0.  0.
        254    2    1    2    0    0 -0.28508377172E+02  0.34334620792E+03  0.45435933381E+03  0.10649467006E+04  0.89942744281E+03 0.  0.
        -24    2    4    4    0    0 -0.20080941848E+03  0.86185922234E+02 -0.21911646963E+03  0.31957942631E+03  0.79790643029E+02 0.  0.
         24    2    4    4    0    0  0.17230104131E+03  0.25716028569E+03  0.67347580344E+03  0.74536727432E+03  0.78636215796E+02 0.  0.
         11    1    3    3    0    0 -0.39955813909E+01 -0.26509421319E+03  0.52387734406E+03  0.58714425668E+03  0.00000000000E+00 0.  1.
        -11    1    3    3    0    0  0.32503958563E+02 -0.78251994735E+02  0.27327935418E+03  0.28611446560E+03  0.00000000000E+00 0. -1.
          4    1    6    6  502    0  0.13149598449E+03  0.24198140459E+03  0.59431736442E+03  0.65502620081E+03  0.00000000000E+00 0. -1.
          1    1    5    5  503    0 -0.11706866690E+03  0.20445515042E+02 -0.15494664749E+03  0.19527302789E+03  0.00000000000E+00 0. -1.
         -2    1    5    5    0  503 -0.83740751579E+02  0.65740407192E+02 -0.64169822139E+02  0.12430639841E+03  0.00000000000E+00 0.  1.
         -3    1    6    6    0  502  0.40805056820E+02  0.15178881095E+02  0.79158439020E+02  0.90341073502E+02  0.00000000000E+00 0.  1.
<mgrwt>
<rscale>  0 0.14799824E+04</rscale>
<asrwt>0</asrwt>
<pdfrwt beam="1">  1        1 0.24536319E+00 0.14799824E+04</pdfrwt>
<pdfrwt beam="2">  1       -1 0.52822261E-01 0.14799824E+04</pdfrwt>
<totfact> 0.19692436E+01</totfact>
</mgrwt>
</event>
<event>
12    1  0.2433511E-007  0.2824267E+04  0.7818608E-02  0.8295774E-01
          1   -1    0    0  501    0  0.00000000000E+00  0.00000000000E+00  0.32077587580E+04  0.32077587580E+04  0.00000000000E+00 0. -1.
         -1   -1    0    0    0  501 -0.00000000000E+00 -0.00000000000E+00 -0.62165542431E+03  0.62165542431E+03  0.00000000000E+00 0.  1.
         23    2    1    2    0    0  0.37112177972E+03  0.11361663053E+04  0.59269178988E+03  0.13371835579E+04  0.90393921533E+02 0.  0.
        254    2    1    2    0    0 -0.37112177972E+03 -0.11361663053E+04  0.19934115438E+04  0.24922306243E+04  0.89939905121E+03 0.  0.
        -24    2    4    4    0    0 -0.16364768712E+03 -0.51544917786E+03  0.20129431426E+03  0.58267652205E+03  0.80771950179E+02 0.  0.
         24    2    4    4    0    0 -0.20747409260E+03 -0.62071712747E+03  0.17921172295E+04  0.19095541023E+04  0.79858962250E+02 0.  0.
         13    1    3    3    0    0  0.16525915682E+03  0.59509865642E+03  0.34571907257E+03  0.70779564630E+03  0.00000000000E+00 0.  1.
        -13    1    3    3    0    0  0.20586262290E+03  0.54106764892E+03  0.24697271731E+03  0.62938791163E+03  0.00000000000E+00 0. -1.
          4    1    6    6  502    0 -0.14898572142E+03 -0.37349233686E+03  0.10052296779E+04  0.10826726081E+04  0.00000000000E+00 0. -1.
          3    1    5    5  503    0 -0.61382443062E+02 -0.29180691082E+03  0.81468511099E+02  0.30912165214E+03  0.00000000000E+00 0. -1.
         -4    1    5    5    0  503 -0.10226524406E+03 -0.22364226704E+03  0.11982580316E+03  0.27355486991E+03  0.00000000000E+00 0.  1.
         -3    1    6    6    0  502 -0.58488371174E+02 -0.24722479061E+03  0.78688755158E+03  0.82688149422E+03  0.00000000000E+00 0.  1.
<mgrwt>
<rscale>  0 0.28242667E+04</rscale>
<asrwt>0</asrwt>
<pdfrwt beam="1">  1        1 0.49350134E+00 0.28242667E+04</pdfrwt>
<pdfrwt beam="2">  1       -1 0.95639298E-01 0.28242667E+04</pdfrwt>
<totfact> 0.38194573E-01</totfact>
</mgrwt>
</event>
<event>
12    1  0.2433511E-007  0.1492280E+04  0.7818608E-02  0.8889603E-01
          3   -1    0    0  501    0  0.00000000000E+00  0.00000000000E+00  0.52628512283E+03  0.52628512283E+03  0.00000000000E+00 0. -1.
         -3   -1    0    0    0  501 -0.00000000000E+00 -0.00000000000E+00 -0.10578386183E+04  0.10578386183E+04  0.00000000000E+00 0.  1.
         23    2    1    2    0    0  0.37417731164E+03 -0.15551698528E+03 -0.42297441438E+03  0.59279251404E+03  0.91112108012E+02 0.  0.
        254    2    1    2    0    0 -0.37417731164E+03  0.15551698528E+03 -0.10857908111E+03  0.99133122711E+03  0.89819485176E+03 0.  0.
        -24    2    4    4    0    0 -0.35600925806E+03 -0.18913951332E+02  0.34263645879E+03  0.50073983673E+03  0.78995644268E+02 0.  0.
         24    2    4    4    0    0 -0.18168053581E+02  0.17443093662E+03 -0.45121553990E+03  0.49059139038E+03  0.79550104021E+02 0.  0.
         13    1    3    3    0    0  0.12046124144E+03 -0.48099859915E+02 -0.78217846546E+02  0.15146794622E+03  0.00000000000E+00 0. -1.
        -13    1    3    3    0    0  0.25371607020E+03 -0.10741712537E+03 -0.34475656784E+03  0.44132456782E+03  0.00000000000E+00 0.  1.
          2    1    6    6  502    0 -0.49656247703E+02  0.11301206075E+03 -0.28126933782E+03  0.30716430328E+03  0.00000000000E+00 0. -1.
          1    1    5    5  503    0 -0.17202691769E+03 -0.39509199401E+02  0.20198683358E+03  0.26824041117E+03  0.00000000000E+00 0. -1.
         -2    1    5    5    0  503 -0.18398234037E+03  0.20595248068E+02  0.14064962522E+03  0.23249942556E+03  0.00000000000E+00 0.  1.
         -1    1    6    6    0  502  0.31488194122E+02  0.61418875863E+02 -0.16994620208E+03  0.18342708710E+03  0.00000000000E+00 0.  1.
<mgrwt>
<rscale>  0 0.14922798E+04</rscale>
<asrwt>0</asrwt>
<pdfrwt beam="1">  1        3 0.80966943E-01 0.14922798E+04</pdfrwt>
<pdfrwt beam="2">  1       -3 0.16274440E+00 0.14922798E+04</pdfrwt>
<totfact> 0.93307060E-01</totfact>
</mgrwt>
</event>
<event>
12    1  0.2433511E-007  0.1758459E+04  0.7818608E-02  0.8728708E-01
         -1   -1    0    0    0  501 -0.00000000000E+00  0.00000000000E+00  0.11231286398E+04  0.11231286398E+04  0.00000000000E+00 0.  1.
          1   -1    0    0  501    0  0.00000000000E+00 -0.00000000000E+00 -0.68829540737E+03  0.68829540737E+03  0.00000000000E+00 0. -1.
         23    2    1    2    0    0  0.35087312971E+03 -0.46913120107E+03 -0.11799628365E+03  0.60455556483E+03  0.91478254460E+02 0.  0.
        254    2    1    2    0    0 -0.35087312971E+03  0.46913120107E+03  0.55282951605E+03  0.12068684823E+04  0.89872967170E+03 0.  0.
        -24    2    4    4    0    0 -0.99202607749E+02  0.32687572522E+03 -0.19511654773E+03  0.40118405472E+03  0.78671986388E+02 0.  0.
         24    2    4    4    0    0 -0.25167052196E+03  0.14225547585E+03  0.74794606378E+03  0.80568442759E+03  0.78290551812E+02 0.  0.
         13    1    3    3    0    0  0.34264001968E+03 -0.41766345944E+03 -0.11510562204E+03  0.55235337662E+03  0.00000000000E+00 0. -1.
        -13    1    3    3    0    0  0.82331100315E+01 -0.51467741632E+02 -0.28906616136E+01  0.52202188211E+02  0.00000000000E+00 0.  1.
          2    1    6    6  502    0 -0.22488087454E+03  0.12941508395E+03  0.71826005455E+03  0.76368657030E+03  0.00000000000E+00 0. -1.
          3    1    5    5  503    0 -0.11283319008E+03  0.29272300453E+03 -0.17252584933E+03  0.35802689124E+03  0.00000000000E+00 0. -1.
         -4    1    5    5    0  503  0.13630582336E+02  0.34152720689E+02 -0.22590698398E+02  0.43157163477E+02  0.00000000000E+00 0.  1.
         -1    1    6    6    0  502 -0.26789647421E+02  0.12840391909E+02  0.29686009224E+02  0.41997857290E+02  0.00000000000E+00 0.  1.
<mgrwt>
<rscale>  0 0.17584587E+04</rscale>
<asrwt>0</asrwt>
<pdfrwt beam="1">  1        1 0.10589160E+00 0.17584587E+04</pdfrwt>
<pdfrwt beam="2">  1       -1 0.17278902E+00 0.17584587E+04</pdfrwt>
<totfact> 0.62128271E+00</totfact>
</mgrwt>
</event>
<event>
12    1  0.2433511E-007  0.1792649E+04  0.7818608E-02  0.8710219E-01
         -2   -1    0    0    0  501 -0.00000000000E+00  0.00000000000E+00  0.23974099761E+03  0.23974099761E+03  0.00000000000E+00 0. -1.
          2   -1    0    0  501    0  0.00000000000E+00 -0.00000000000E+00 -0.33511052572E+04  0.33511052572E+04  0.00000000000E+00 0.  1.
         23    2    1    2    0    0 -0.12143982894E+03  0.64690765837E+03 -0.95307021896E+03  0.11616626785E+04  0.88770410628E+02 0.  0.
        254    2    1    2    0    0  0.12143982894E+03 -0.64690765837E+03 -0.21582940406E+04  0.24291835763E+04  0.89970135663E+03 0.  0.
        -24    2    4    4    0    0 -0.66619456382E+02 -0.51990806724E+03 -0.42711206242E+03  0.68116474755E+03  0.82572084203E+02 0.  0.
         24    2    4    4    0    0  0.18805928532E+03 -0.12699959113E+03 -0.17311819782E+04  0.17480188288E+04  0.84164084403E+02 0.  0.
         13    1    3    3    0    0  0.11762592458E+01  0.16331303800E+03 -0.27486845847E+03  0.31972676057E+03  0.00000000000E+00 0. -1.
        -13    1    3    3    0    0 -0.12261608818E+03  0.48359462037E+03 -0.67820176049E+03  0.84193591791E+03  0.00000000000E+00 0.  1.
          4    1    6    6  502    0  0.11948523602E+02 -0.21698290341E+02 -0.43418937406E+03  0.43489538463E+03  0.00000000000E+00 0. -1.
          3    1    5    5  503    0 -0.15134804665E+01 -0.20533567224E+02 -0.43408261955E+02  0.48043680251E+02  0.00000000000E+00 0. -1.
         -4    1    5    5    0  503 -0.65105975916E+02 -0.49937450002E+03 -0.38370380047E+03  0.63312106730E+03  0.00000000000E+00 0.  1.
         -3    1    6    6    0  502  0.17611076172E+03 -0.10530130079E+03 -0.12969926041E+04  0.13131234441E+04  0.00000000000E+00 0.  1.
<mgrwt>
<rscale>  0 0.17926487E+04</rscale>
<asrwt>0</asrwt>
<pdfrwt beam="1">  1        2 0.51555462E+00 0.17926487E+04</pdfrwt>
<pdfrwt beam="2">  1       -2 0.36883233E-01 0.17926487E+04</pdfrwt>
<totfact> 0.67797702E+00</totfact>
</mgrwt>
</event>
<event>
12    1  0.2433511E-007  0.1493613E+04  0.7818608E-02  0.8888712E-01
          1   -1    0    0  501    0  0.00000000000E+00  0.00000000000E+00  0.49720482907E+03  0.49720482907E+03  0.00000000000E+00 0. -1.
         -1   -1    0    0    0  501 -0.00000000000E+00 -0.00000000000E+00 -0.11217100167E+04  0.11217100167E+04  0.00000000000E+00 0.  1.
         23    2    1    2    0    0  0.94921801997E+02 -0.43671871047E+03 -0.44529398851E+02  0.46026342270E+03  0.10062887430E+03 0.  0.
        254    2    1    2    0    0 -0.94921801997E+02  0.43671871047E+03 -0.57997578879E+03  0.11586514231E+04  0.89797985726E+03 0.  0.
        -24    2    4    4    0    0 -0.26155033438E+03  0.58604001948E+03 -0.64435233858E+03  0.91278332113E+03  0.78306917014E+02 0.  0.
         24    2    4    4    0    0  0.16662853238E+03 -0.14932130901E+03  0.64376549784E+02  0.24586810195E+03  0.79024440963E+02 0.  0.
         11    1    3    3    0    0  0.11385903327E+02 -0.14263700549E+03  0.28603733351E+02  0.14592164915E+03  0.00000000000E+00 0. -1.
        -11    1    3    3    0    0  0.83535898670E+02 -0.29408170499E+03 -0.73133132202E+02  0.31434177355E+03  0.00000000000E+00 0.  1.
          2    1    6    6  502    0  0.15400784382E+03 -0.96955578048E+02  0.60843286510E+02  0.19188722100E+03  0.00000000000E+00 0. -1.
          3    1    5    5  503    0 -0.22122755081E+03  0.42284585286E+03 -0.50027503506E+03  0.69138654544E+03  0.00000000000E+00 0. -1.
         -4    1    5    5    0  503 -0.40322783569E+02  0.16319416662E+03 -0.14407730352E+03  0.22139677569E+03  0.00000000000E+00 0.  1.
         -1    1    6    6    0  502  0.12620688565E+02 -0.52365730960E+02  0.35332632743E+01  0.53980880950E+02  0.00000000000E+00 0.  1.
<mgrwt>
<rscale>  0 0.14936126E+04</rscale>
<asrwt>0</asrwt>
<pdfrwt beam="1">  1        1 0.76493052E-01 0.14936126E+04</pdfrwt>
<pdfrwt beam="2">  1       -1 0.17257077E+00 0.14936126E+04</pdfrwt>
<totfact> 0.10184608E+01</totfact>
</mgrwt>
</event>
<event>
12    1  0.2433511E-007  0.2497726E+04  0.7818608E-02  0.8403796E-01
          2   -1    0    0  501    0  0.00000000000E+00  0.00000000000E+00  0.29788798225E+04  0.29788798225E+04  0.00000000000E+00 0.  1.
         -2   -1    0    0    0  501 -0.00000000000E+00 -0.00000000000E+00 -0.52357235946E+03  0.52357235946E+03  0.00000000000E+00 0. -1.
         23    2    1    2    0    0  0.10364086720E+04 -0.30282912566E+03  0.92183703015E+03  0.14229267306E+04  0.95333916683E+02 0.  0.
        254    2    1    2    0    0 -0.10364086720E+04  0.30282912566E+03  0.15334704329E+04  0.20795254514E+04  0.89835745647E+03 0.  0.
        -24    2    4    4    0    0 -0.29004536954E+03 -0.23697589282E+03  0.14115734807E+03  0.40817880411E+03  0.80004056403E+02 0.  0.
         24    2    4    4    0    0 -0.74636330247E+03  0.53980501848E+03  0.13923130848E+04  0.16713466473E+04  0.80101509976E+02 0.  0.
         13    1    3    3    0    0  0.43512266514E+03 -0.13027963164E+03  0.32667893486E+03  0.55948515853E+03  0.00000000000E+00 0.  1.
        -13    1    3    3    0    0  0.60128600688E+03 -0.17254949402E+03  0.59515809529E+03  0.86344157205E+03  0.00000000000E+00 0. -1.
          2    1    6    6  502    0 -0.51832156917E+03  0.33755132981E+03  0.97264038149E+03  0.11526610347E+04  0.00000000000E+00 0. -1.
          3    1    5    5  503    0 -0.25685593299E+03 -0.17693287103E+03  0.97173368543E+02  0.32668467169E+03  0.00000000000E+00 0. -1.
         -4    1    5    5    0  503 -0.33189436555E+02 -0.60043021792E+02  0.43983979524E+02  0.81494132423E+02  0.00000000000E+00 0.  1.
         -1    1    6    6    0  502 -0.22804173330E+03  0.20225368867E+03  0.41967270332E+03  0.51868561251E+03  0.00000000000E+00 0.  1.
<mgrwt>
<rscale>  0 0.24977263E+04</rscale>
<asrwt>0</asrwt>
<pdfrwt beam="1">  1        2 0.45828920E+00 0.24977263E+04</pdfrwt>
<pdfrwt beam="2">  1       -2 0.80549595E-01 0.24977263E+04</pdfrwt>
<totfact> 0.21797831E+00</totfact>
</mgrwt>
</event>
<event>
12    1  0.2433511E-007  0.1295477E+04  0.7818608E-02  0.9033160E-01
         -1   -1    0    0    0  501 -0.00000000000E+00  0.00000000000E+00  0.98237289901E+03  0.98237289901E+03  0.00000000000E+00 0.  1.
          1   -1    0    0  501    0  0.00000000000E+00 -0.00000000000E+00 -0.42709359416E+03  0.42709359416E+03  0.00000000000E+00 0. -1.
         23    2    1    2    0    0 -0.99521150879E+02 -0.22621007533E+03 -0.89756446909E+02  0.27787751214E+03  0.89912370306E+02 0.  0.
        254    2    1    2    0    0  0.99521150879E+02  0.22621007533E+03  0.64503575176E+03  0.11315889810E+04  0.89629629213E+03 0.  0.
        -24    2    4    4    0    0 -0.21473687647E+03  0.40442612037E+02  0.71419857572E+03  0.75149324280E+03  0.83156222968E+02 0.  0.
         24    2    4    4    0    0  0.31425802735E+03  0.18576746330E+03 -0.69162823968E+02  0.38009573823E+03  0.80134985064E+02 0.  0.
         13    1    3    3    0    0 -0.73568361195E+02 -0.61442319846E+02 -0.26066836119E+02  0.99332484023E+02  0.00000000000E+00 0. -1.
        -13    1    3    3    0    0 -0.25952789684E+02 -0.16476775549E+03 -0.63689610789E+02  0.17854502811E+03  0.00000000000E+00 0.  1.
          2    1    6    6  502    0  0.28567816160E+03  0.19223572033E+03 -0.61211003689E+02  0.34973328575E+03  0.00000000000E+00 0. -1.
          3    1    5    5  503    0 -0.18570475454E+03  0.47711964356E+01  0.60843866323E+03  0.63616556578E+03  0.00000000000E+00 0. -1.
         -4    1    5    5    0  503 -0.29032121930E+02  0.35671415601E+02  0.10575991249E+03  0.11532767701E+03  0.00000000000E+00 0.  1.
         -1    1    6    6    0  502  0.28579865743E+02 -0.64682570353E+01 -0.79518202798E+01  0.30362452482E+02  0.00000000000E+00 0.  1.
<mgrwt>
<rscale>  0 0.12954770E+04</rscale>
<asrwt>0</asrwt>
<pdfrwt beam="1">  1        1 0.65706707E-01 0.12954770E+04</pdfrwt>
<pdfrwt beam="2">  1       -1 0.15113429E+00 0.12954770E+04</pdfrwt>
<totfact> 0.18464660E+01</totfact>
</mgrwt>
</event>
<event>
12    1  0.2433511E-007  0.3060180E+04  0.7818608E-02  0.8226752E-01
         -1   -1    0    0    0  501 -0.00000000000E+00  0.00000000000E+00  0.11618002540E+04  0.11618002540E+04  0.00000000000E+00 0.  1.
          1   -1    0    0  501    0  0.00000000000E+00 -0.00000000000E+00 -0.20151279123E+04  0.20151279123E+04  0.00000000000E+00 0. -1.
         23    2    1    2    0    0 -0.47482186395E+03  0.12823676460E+04 -0.67935986053E+03  0.15295596792E+04  0.90002278654E+02 0.  0.
        254    2    1    2    0    0  0.47482186395E+03 -0.12823676460E+04 -0.17396779778E+03  0.16473684871E+04  0.90201749192E+03 0.  0.
        -24    2    4    4    0    0 -0.18975100028E+03 -0.65590838974E+03  0.91221772739E+02  0.69302221513E+03  0.75743785229E+02 0.  0.
         24    2    4    4    0    0  0.66457286423E+03 -0.62645925628E+03 -0.26518957051E+03  0.95434627202E+03  0.79642996902E+02 0.  0.
         11    1    3    3    0    0 -0.45203203378E+03  0.11587834747E+04 -0.63278200027E+03  0.13955375884E+04  0.00000000000E+00 0. -1.
        -11    1    3    3    0    0 -0.22789830169E+02  0.12358417130E+03 -0.46577860268E+02  0.13402209080E+03  0.00000000000E+00 0.  1.
          2    1    6    6  502    0  0.39593212210E+03 -0.42559211114E+03 -0.16363534003E+03  0.60387698655E+03  0.00000000000E+00 0. -1.
          1    1    5    5  503    0 -0.12403749823E+03 -0.30310753151E+03  0.58217767031E+02  0.33263912131E+03  0.00000000000E+00 0. -1.
         -2    1    5    5    0  503 -0.65713502048E+02 -0.35280085823E+03  0.33004005708E+02  0.36038309382E+03  0.00000000000E+00 0.  1.
         -1    1    6    6    0  502  0.26864074213E+03 -0.20086714514E+03 -0.10155423048E+03  0.35046928547E+03  0.00000000000E+00 0.  1.
<mgrwt>
<rscale>  0 0.30601805E+04</rscale>
<asrwt>0</asrwt>
<pdfrwt beam="1">  1        1 0.31001968E+00 0.30601805E+04</pdfrwt>
<pdfrwt beam="2">  1       -1 0.17873850E+00 0.30601805E+04</pdfrwt>
<totfact> 0.52365752E-01</totfact>
</mgrwt>
</event>
<event>
12    1  0.2433511E-007  0.3007698E+04  0.7818608E-02  0.8241536E-01
          2   -1    0    0  501    0  0.00000000000E+00  0.00000000000E+00  0.21842087286E+04  0.21842087286E+04  0.00000000000E+00 0. -1.
         -2   -1    0    0    0  501 -0.00000000000E+00 -0.00000000000E+00 -0.10354145522E+04  0.10354145522E+04  0.00000000000E+00 0.  1.
         23    2    1    2    0    0  0.91943751227E+03  0.40182324265E+03  0.15183943897E+04  0.18223377835E+04  0.92553860392E+02 0.  0.
        254    2    1    2    0    0 -0.91943751227E+03 -0.40182324265E+03 -0.36960021329E+03  0.13972854973E+04  0.89943047869E+03 0.  0.
        -24    2    4    4    0    0 -0.62725126905E+03 -0.35919747277E+03  0.19685653316E+03  0.75334862578E+03  0.79464950419E+02 0.  0.
         24    2    4    4    0    0 -0.29218624322E+03 -0.42625769873E+02 -0.56645674645E+03  0.64393687151E+03  0.81189235204E+02 0.  0.
         13    1    3    3    0    0  0.48405955674E+03  0.18399528994E+03  0.71240919331E+03  0.88073536315E+03  0.00000000000E+00 0.  1.
        -13    1    3    3    0    0  0.43537795553E+03  0.21782795271E+03  0.80598519643E+03  0.94160242035E+03  0.00000000000E+00 0. -1.
          4    1    6    6  502    0  0.15602964571E+00 -0.74748942587E+01 -0.27590640225E+01  0.79693678363E+01  0.00000000000E+00 0. -1.
          1    1    5    5  503    0 -0.12040532510E+03 -0.68501875593E+02  0.70971292436E+02  0.15564984299E+03  0.00000000000E+00 0. -1.
         -2    1    5    5    0  503 -0.50684594396E+03 -0.29069559718E+03  0.12588524073E+03  0.59769878280E+03  0.00000000000E+00 0.  1.
         -3    1    6    6    0  502 -0.29234227286E+03 -0.35150875615E+02 -0.56369768243E+03  0.63596750368E+03  0.00000000000E+00 0.  1.
<mgrwt>
<rscale>  0 0.30076978E+04</rscale>
<asrwt>0</asrwt>
<pdfrwt beam="1">  1        2 0.33603211E+00 0.30076978E+04</pdfrwt>
<pdfrwt beam="2">  1       -2 0.15929455E+00 0.30076978E+04</pdfrwt>
<totfact> 0.11494803E+00</totfact>
</mgrwt>
</event>
<event>
12    1  0.2433511E-007  0.1822520E+04  0.7818608E-02  0.8694415E-01
         -2   -1    0    0    0  501 -0.00000000000E+00  0.00000000000E+00  0.25994226882E+03  0.25994226882E+03  0.00000000000E+00 0.  1.
          2   -1    0    0  501    0  0.00000000000E+00 -0.00000000000E+00 -0.31945338168E+04  0.31945338168E+04  0.00000000000E+00 0. -1.
         23    2    1    2    0    0 -0.44072187154E+03 -0.20859154368E+02 -0.21087384322E+04  0.21563794912E+04  0.92324766179E+02 0.  0.
        254    2    1    2    0    0  0.44072187154E+03  0.20859154368E+02 -0.82585311584E+03  0.12980965944E+04  0.89908315920E+03 0.  0.
        -24    2    4    4    0    0 -0.23316589651E+03 -0.69046729777E+02 -0.45019161003E+02  0.25983811803E+03  0.79720364623E+02 0.  0.
         24    2    4    4    0    0  0.67388776805E+03  0.89905884145E+02 -0.78083395484E+03  0.10382584764E+04  0.77917949497E+02 0.  0.
         13    1    3    3    0    0 -0.25623442186E+03 -0.44946155678E+02 -0.10748378014E+04  0.11058718439E+04  0.00000000000E+00 0.  1.
        -13    1    3    3    0    0 -0.18448744968E+03  0.24087001310E+02 -0.10339006307E+04  0.10505076473E+04  0.00000000000E+00 0. -1.
          4    1    6    6  502    0  0.66539389989E+03  0.91591060877E+02 -0.75263711271E+03  0.10087619084E+04  0.00000000000E+00 0. -1.
          3    1    5    5  503    0 -0.22018343555E+03 -0.72879534474E+02 -0.21790113241E+02  0.23295274386E+03  0.00000000000E+00 0. -1.
         -4    1    5    5    0  503 -0.12982460960E+02  0.38328046968E+01 -0.23229047762E+02  0.26885374172E+02  0.00000000000E+00 0.  1.
         -3    1    6    6    0  502  0.84938681664E+01 -0.16851767316E+01 -0.28196842122E+02  0.29496567982E+02  0.00000000000E+00 0.  1.
<mgrwt>
<rscale>  0 0.18225195E+04</rscale>
<asrwt>0</asrwt>
<pdfrwt beam="1">  1        2 0.49146674E+00 0.18225195E+04</pdfrwt>
<pdfrwt beam="2">  1       -2 0.39991118E-01 0.18225195E+04</pdfrwt>
<totfact> 0.73274670E+00</totfact>
</mgrwt>
</event>
<event>
12    1  0.2433511E-007  0.1727308E+04  0.7818608E-02  0.8745941E-01
          2   -1    0    0  501    0  0.00000000000E+00  0.00000000000E+00  0.14620784759E+04  0.14620784759E+04  0.00000000000E+00 0.  1.
         -2   -1    0    0    0  501 -0.00000000000E+00 -0.00000000000E+00 -0.51016275348E+03  0.51016275348E+03  0.00000000000E+00 0. -1.
         23    2    1    2    0    0  0.17191331000E+03 -0.52985343834E+03  0.24614571375E+02  0.56498923806E+03  0.91148832835E+02 0.  0.
        254    2    1    2    0    0 -0.17191331000E+03  0.52985343834E+03  0.92730115108E+03  0.14072519914E+04  0.90009548943E+03 0.  0.
        -24    2    4    4    0    0 -0.35092349559E+03  0.51735066486E+03  0.10131712468E+04  0.11932361273E+04  0.80606885616E+02 0.  0.
         24    2    4    4    0    0  0.17901018558E+03  0.12502773474E+02 -0.85870095670E+02  0.21401586407E+03  0.78918634403E+02 0.  0.
         11    1    3    3    0    0  0.14311211249E+03 -0.32052934758E+03  0.39093983807E+02  0.35319750703E+03  0.00000000000E+00 0. -1.
        -11    1    3    3    0    0  0.28801197516E+02 -0.20932409076E+03 -0.14479412431E+02  0.21179173104E+03  0.00000000000E+00 0.  1.
          2    1    6    6  502    0  0.87747936198E+02 -0.30336550041E+02 -0.57795044979E+02  0.10936303671E+03  0.00000000000E+00 0. -1.
          1    1    5    5  503    0 -0.35389859280E+03  0.51469108862E+03  0.10116937852E+04  0.11889808433E+04  0.00000000000E+00 0. -1.
         -2    1    5    5    0  503  0.29750972145E+01  0.26595762398E+01  0.14774615550E+01  0.42552839926E+01  0.00000000000E+00 0.  1.
         -1    1    6    6    0  502  0.91262249387E+02  0.42839323515E+02 -0.28075050691E+02  0.10465282736E+03  0.00000000000E+00 0.  1.
<mgrwt>
<rscale>  0 0.17273077E+04</rscale>
<asrwt>0</asrwt>
<pdfrwt beam="1">  1        2 0.22493515E+00 0.17273077E+04</pdfrwt>
<pdfrwt beam="2">  1       -2 0.78486578E-01 0.17273077E+04</pdfrwt>
<totfact> 0.18273101E+01</totfact>
</mgrwt>
</event>
<event>
12    1  0.2433511E-007  0.1689135E+04  0.7818608E-02  0.8767585E-01
         -1   -1    0    0    0  501 -0.00000000000E+00  0.00000000000E+00  0.84386876713E+03  0.84386876713E+03  0.00000000000E+00 0.  1.
          1   -1    0    0  501    0  0.00000000000E+00 -0.00000000000E+00 -0.84526675481E+03  0.84526675481E+03  0.00000000000E+00 0. -1.
         23    2    1    2    0    0 -0.42994485559E+03 -0.27275011221E+03 -0.31737011427E+03  0.60711407795E+03  0.92835939468E+02 0.  0.
        254    2    1    2    0    0  0.42994485559E+03  0.27275011221E+03  0.31597212659E+03  0.10820214440E+04  0.90093663367E+03 0.  0.
        -24    2    4    4    0    0  0.18387736040E+03  0.56296380460E+03  0.34816528689E+03  0.69170000470E+03  0.80564884074E+02 0.  0.
         24    2    4    4    0    0  0.24606749519E+03 -0.29021369239E+03 -0.32193160307E+02  0.39032143928E+03  0.80877852041E+02 0.  0.
         13    1    3    3    0    0 -0.13660678909E+03 -0.12706422794E+03 -0.82007572851E+02  0.20379395195E+03  0.00000000000E+00 0. -1.
        -13    1    3    3    0    0 -0.29333806651E+03 -0.14568588427E+03 -0.23536254142E+03  0.40332012600E+03  0.00000000000E+00 0.  1.
          4    1    6    6  502    0  0.16664114082E+03 -0.23294693426E+03 -0.50143498992E+02  0.29077124081E+03  0.00000000000E+00 0. -1.
          3    1    5    5  503    0  0.16336335556E+03  0.39537542558E+03  0.26785898287E+03  0.50473532450E+03  0.00000000000E+00 0. -1.
         -4    1    5    5    0  503  0.20514004844E+02  0.16758837902E+03  0.80306304025E+02  0.18696468020E+03  0.00000000000E+00 0.  1.
         -3    1    6    6    0  502  0.79426354369E+02 -0.57266758134E+02  0.17950338685E+02  0.99550198465E+02  0.00000000000E+00 0.  1.
<mgrwt>
<rscale>  0 0.16891349E+04</rscale>
<asrwt>0</asrwt>
<pdfrwt beam="1">  1        1 0.13004104E+00 0.16891349E+04</pdfrwt>
<pdfrwt beam="2">  1       -1 0.12982596E+00 0.16891349E+04</pdfrwt>
<totfact> 0.97989726E+00</totfact>
</mgrwt>
</event>
<event>
12    1  0.2433511E-007  0.1404890E+04  0.7818608E-02  0.8950286E-01
         -1   -1    0    0    0  501 -0.00000000000E+00  0.00000000000E+00  0.12008179991E+04  0.12008179991E+04  0.00000000000E+00 0.  1.
          1   -1    0    0  501    0  0.00000000000E+00 -0.00000000000E+00 -0.41091093050E+03  0.41091093050E+03  0.00000000000E+00 0. -1.
         23    2    1    2    0    0 -0.22545046532E+03 -0.33616325832E+03  0.27297045513E+03  0.49632320998E+03  0.89387979241E+02 0.  0.
        254    2    1    2    0    0  0.22545046532E+03  0.33616325832E+03  0.51693661346E+03  0.11154057196E+04  0.90170549982E+03 0.  0.
        -24    2    4    4    0    0 -0.11503176943E+03  0.14551680125E+03  0.66198681757E+03  0.69119207874E+03  0.71501717836E+02 0.  0.
         24    2    4    4    0    0  0.34048223475E+03  0.19064645708E+03 -0.14505020412E+03  0.42421364085E+03  0.81507224167E+02 0.  0.
         13    1    3    3    0    0 -0.40007347620E+02 -0.12903885062E+03  0.10877097324E+03  0.17344375876E+03  0.00000000000E+00 0.  1.
        -13    1    3    3    0    0 -0.18544311770E+03 -0.20712440771E+03  0.16419948188E+03  0.32287945122E+03  0.00000000000E+00 0. -1.
          4    1    6    6  502    0  0.30406077287E+03  0.19426821515E+03 -0.14098092025E+03  0.38738703242E+03  0.00000000000E+00 0. -1.
          3    1    5    5  503    0 -0.10580678417E+03  0.13357107421E+03  0.64986491099E+03  0.67183384105E+03  0.00000000000E+00 0. -1.
         -4    1    5    5    0  503 -0.92249852647E+01  0.11945727031E+02  0.12121906584E+02  0.19358237696E+02  0.00000000000E+00 0.  1.
         -3    1    6    6    0  502  0.36421461883E+02 -0.36217580706E+01 -0.40692838719E+01  0.36826608430E+02  0.00000000000E+00 0.  1.
<mgrwt>
<rscale>  0 0.14048904E+04</rscale>
<asrwt>0</asrwt>
<pdfrwt beam="1">  1        1 0.63217067E-01 0.14048904E+04</pdfrwt>
<pdfrwt beam="2">  1       -1 0.18474123E+00 0.14048904E+04</pdfrwt>
<totfact> 0.10856889E+01</totfact>
</mgrwt>
</event>
<event>
12    1  0.2433511E-007  0.2140350E+04  0.7818608E-02  0.8543674E-01
          1   -1    0    0  501    0  0.00000000000E+00  0.00000000000E+00  0.11592500044E+04  0.11592500044E+04  0.00000000000E+00 0. -1.
         -1   -1    0    0    0  501 -0.00000000000E+00 -0.00000000000E+00 -0.98794397622E+03  0.98794397622E+03  0.00000000000E+00 0.  1.
         23    2    1    2    0    0  0.10715430762E+03  0.61594356691E+03 -0.54710388944E+03  0.83698153130E+03  0.10171968654E+03 0.  0.
        254    2    1    2    0    0 -0.10715430762E+03 -0.61594356691E+03  0.71840991763E+03  0.13102124493E+04  0.89981960936E+03 0.  0.
        -24    2    4    4    0    0 -0.14644983530E+03  0.20282146263E+03  0.25716731063E+03  0.36603768531E+03  0.72556608575E+02 0.  0.
         24    2    4    4    0    0  0.39295527686E+02 -0.81876502954E+03  0.46124260700E+03  0.94417476403E+03  0.82467753750E+02 0.  0.
         11    1    3    3    0    0  0.90560194815E+02  0.23402245357E+03 -0.22714905250E+03  0.33847355836E+03  0.00000000000E+00 0.  1.
        -11    1    3    3    0    0  0.16594112801E+02  0.38192111334E+03 -0.31995483694E+03  0.49850797294E+03  0.00000000000E+00 0. -1.
          2    1    6    6  502    0  0.49969141780E+00 -0.47264449448E+03  0.30451712871E+03  0.56224883240E+03  0.00000000000E+00 0. -1.
          3    1    5    5  503    0 -0.11054962157E+03  0.18050339864E+03  0.17914821969E+03  0.27730268727E+03  0.00000000000E+00 0. -1.
         -2    1    5    5    0  503 -0.35900213731E+02  0.22318063993E+02  0.78019090938E+02  0.88734998040E+02  0.00000000000E+00 0.  1.
         -1    1    6    6    0  502  0.38795836268E+02 -0.34612053507E+03  0.15672547829E+03  0.38192593163E+03  0.00000000000E+00 0.  1.
<mgrwt>
<rscale>  0 0.21403496E+04</rscale>
<asrwt>0</asrwt>
<pdfrwt beam="1">  1        1 0.17834615E+00 0.21403496E+04</pdfrwt>
<pdfrwt beam="2">  1       -1 0.15199138E+00 0.21403496E+04</pdfrwt>
<totfact> 0.35330531E+00</totfact>
</mgrwt>
</event>
<event>
12    1  0.2433511E-007  0.4264889E+04  0.7818608E-02  0.7953143E-01
         -1   -1    0    0    0  501 -0.00000000000E+00  0.00000000000E+00  0.13688881537E+04  0.13688881537E+04  0.00000000000E+00 0.  1.
          1   -1    0    0  501    0  0.00000000000E+00 -0.00000000000E+00 -0.33219074884E+04  0.33219074884E+04  0.00000000000E+00 0. -1.
         23    2    1    2    0    0  0.48328791034E+03  0.17524009131E+04 -0.19436489873E+04  0.26628119003E+04  0.91212201322E+02 0.  0.
        254    2    1    2    0    0 -0.48328791034E+03 -0.17524009131E+04 -0.93703473158E+01  0.20279837418E+04  0.89897390904E+03 0.  0.
        -24    2    4    4    0    0  0.23159201491E+03 -0.37518679927E+03  0.13479172589E+03  0.46756532622E+03  0.77772290701E+02 0.  0.
         24    2    4    4    0    0 -0.71487992525E+03 -0.13772141139E+04 -0.14416207321E+03  0.15604184156E+04  0.79692568615E+02 0.  0.
         13    1    3    3    0    0  0.10002715573E+03  0.42051102421E+03 -0.51533811768E+03  0.67261306031E+03  0.00000000000E+00 0. -1.
        -13    1    3    3    0    0  0.38326075461E+03  0.13318898889E+04 -0.14283108697E+04  0.19901988400E+04  0.00000000000E+00 0.  1.
          4    1    6    6  502    0 -0.24470637984E+03 -0.53987618439E+03 -0.32485039825E+02  0.59363522859E+03  0.00000000000E+00 0. -1.
          3    1    5    5  503    0  0.11323723712E+03 -0.14571298173E+03  0.22142546512E+02  0.18586349098E+03  0.00000000000E+00 0. -1.
         -4    1    5    5    0  503  0.11835477780E+03 -0.22947381754E+03  0.11264917938E+03  0.28170183524E+03  0.00000000000E+00 0.  1.
         -3    1    6    6    0  502 -0.47017354541E+03 -0.83733792946E+03 -0.11167703338E+03  0.96678318702E+03  0.00000000000E+00 0.  1.
<mgrwt>
<rscale>  0 0.42648891E+04</rscale>
<asrwt>0</asrwt>
<pdfrwt beam="1">  1        1 0.51106269E+00 0.42648891E+04</pdfrwt>
<pdfrwt beam="2">  1       -1 0.21059818E+00 0.42648891E+04</pdfrwt>
<totfact> 0.33487987E-02</totfact>
</mgrwt>
</event>
<event>
12    1  0.2433511E-007  0.2121445E+04  0.7818608E-02  0.8551855E-01
         -1   -1    0    0    0  501 -0.00000000000E+00  0.00000000000E+00  0.17386216198E+04  0.17386216198E+04  0.00000000000E+00 0.  1.
          1   -1    0    0  501    0  0.00000000000E+00 -0.00000000000E+00 -0.64714045302E+03  0.64714045302E+03  0.00000000000E+00 0. -1.
         23    2    1    2    0    0 -0.41327899855E+03 -0.55041726534E+03  0.10425274504E+04  0.12525160258E+04  0.90411357540E+02 0.  0.
        254    2    1    2    0    0  0.41327899855E+03  0.55041726534E+03  0.48953716381E+02  0.11332460470E+04  0.89893906354E+03 0.  0.
        -24    2    4    4    0    0  0.65355795291E+03  0.23838834889E+03 -0.92672232153E+02  0.70721357029E+03  0.87154395714E+02 0.  0.
         24    2    4    4    0    0 -0.24027895435E+03  0.31202891646E+03  0.14162594853E+03  0.42603247666E+03  0.79685263792E+02 0.  0.
         11    1    3    3    0    0 -0.17011346185E+03 -0.15936742912E+03  0.32560625493E+03  0.40044475351E+03  0.00000000000E+00 0.  1.
        -11    1    3    3    0    0 -0.24316553671E+03 -0.39104983622E+03  0.71692119545E+03  0.85207127233E+03  0.00000000000E+00 0. -1.
          2    1    6    6  502    0 -0.22572947195E+03  0.31182735793E+03  0.12690335507E+03  0.40533265004E+03  0.00000000000E+00 0. -1.
          3    1    5    5  503    0  0.43240091922E+03  0.12834399738E+03 -0.28257815997E+02  0.45193057074E+03  0.00000000000E+00 0. -1.
         -4    1    5    5    0  503  0.22115703368E+03  0.11004435151E+03 -0.64414416156E+02  0.25528299954E+03  0.00000000000E+00 0.  1.
         -1    1    6    6    0  502 -0.14549482404E+02  0.20155852869E+00  0.14722593467E+02  0.20699826629E+02  0.00000000000E+00 0.  1.
<mgrwt>
<rscale>  0 0.21214452E+04</rscale>
<asrwt>0</asrwt>
<pdfrwt beam="1">  1        1 0.99560070E-01 0.21214452E+04</pdfrwt>
<pdfrwt beam="2">  1       -1 0.26748025E+00 0.21214452E+04</pdfrwt>
<totfact> 0.15099870E+00</totfact>
</mgrwt>
</event>
<event>
12    1  0.2433511E-007  0.1963246E+04  0.7818608E-02  0.8624000E-01
          1   -1    0    0  501    0  0.00000000000E+00  0.00000000000E+00  0.10214932911E+04  0.10214932911E+04  0.00000000000E+00 0. -1.
         -1   -1    0    0    0  501 -0.00000000000E+00 -0.00000000000E+00 -0.94330918015E+03  0.94330918015E+03  0.00000000000E+00 0.  1.
         23    2    1    2    0    0 -0.13196725045E+02  0.76339907290E+03  0.14855582088E+03  0.78307080050E+03  0.90436434191E+02 0.  0.
        254    2    1    2    0    0  0.13196725045E+02 -0.76339907290E+03 -0.70371709880E+02  0.11817316708E+04  0.89921369326E+03 0.  0.
        -24    2    4    4    0    0 -0.25066731580E+03 -0.84896156054E+03 -0.83634916695E+02  0.89274912051E+03  0.80226918103E+02 0.  0.
         24    2    4    4    0    0  0.26386404084E+03  0.85562487645E+02  0.13263206815E+02  0.28898255029E+03  0.79936414575E+02 0.  0.
         11    1    3    3    0    0  0.84512078031E+01  0.24721149906E+03  0.89567837008E+02  0.26307289030E+03  0.00000000000E+00 0. -1.
        -11    1    3    3    0    0 -0.21647932848E+02  0.51618757383E+03  0.58987983873E+02  0.51999791020E+03  0.00000000000E+00 0.  1.
          2    1    6    6  502    0  0.52929967342E+02  0.45065038136E+02 -0.18313000811E+02  0.71887447470E+02  0.00000000000E+00 0. -1.
          1    1    5    5  503    0 -0.42319322246E+02 -0.21303428157E+03  0.78380222485E+01  0.21733836466E+03  0.00000000000E+00 0. -1.
         -2    1    5    5    0  503 -0.20834799355E+03 -0.63592727897E+03 -0.91472938944E+02  0.67541075585E+03  0.00000000000E+00 0.  1.
         -1    1    6    6    0  502  0.21093407350E+03  0.40497449508E+02  0.31576207626E+02  0.21709510282E+03  0.00000000000E+00 0.  1.
<mgrwt>
<rscale>  0 0.19632463E+04</rscale>
<asrwt>0</asrwt>
<pdfrwt beam="1">  1        1 0.15715281E+00 0.19632463E+04</pdfrwt>
<pdfrwt beam="2">  1       -1 0.14512449E+00 0.19632463E+04</pdfrwt>
<totfact> 0.51650192E+00</totfact>
</mgrwt>
</event>
<event>
12    1  0.2433511E-007  0.4796422E+04  0.7818608E-02  0.7860702E-01
          2   -1    0    0  501    0  0.00000000000E+00  0.00000000000E+00  0.41707376320E+04  0.41707376320E+04  0.00000000000E+00 0.  1.
         -2   -1    0    0    0  501 -0.00000000000E+00 -0.00000000000E+00 -0.13789924506E+04  0.13789924506E+04  0.00000000000E+00 0. -1.
         23    2    1    2    0    0 -0.18699069515E+04 -0.74354709266E+03  0.27910148947E+02  0.20144708394E+04  0.88879132515E+02 0.  0.
        254    2    1    2    0    0  0.18699069515E+04  0.74354709266E+03  0.27638350325E+04  0.35352592432E+04  0.89992196525E+03 0.  0.
        -24    2    4    4    0    0  0.26168759261E+03  0.81108375430E+02  0.20437089846E+02  0.28602504171E+03  0.79584452980E+02 0.  0.
         24    2    4    4    0    0  0.16082193589E+04  0.66243871723E+03  0.27433979427E+04  0.32492342015E+04  0.78077294921E+02 0.  0.
         13    1    3    3    0    0 -0.13667110233E+04 -0.50154719431E+03  0.28264437097E+02  0.14561069630E+04  0.00000000000E+00 0. -1.
        -13    1    3    3    0    0 -0.50319592818E+03 -0.24199989835E+03 -0.35428815001E+00  0.55836387639E+03  0.00000000000E+00 0.  1.
          4    1    6    6  502    0  0.20177902603E+03  0.11165354197E+03  0.36634503606E+03  0.43288563642E+03  0.00000000000E+00 0. -1.
          1    1    5    5  503    0  0.91691433670E+02  0.32025211577E+02  0.45616204645E+02  0.10730224281E+03  0.00000000000E+00 0. -1.
         -2    1    5    5    0  503  0.16999615894E+03  0.49083163853E+02 -0.25179114798E+02  0.17872279891E+03  0.00000000000E+00 0.  1.
         -3    1    6    6    0  502  0.14064403328E+04  0.55078517526E+03  0.23770529066E+04  0.28163485651E+04  0.00000000000E+00 0.  1.
<mgrwt>
<rscale>  0 0.47964219E+04</rscale>
<asrwt>0</asrwt>
<pdfrwt beam="1">  1        2 0.64165194E+00 0.47964219E+04</pdfrwt>
<pdfrwt beam="2">  1       -2 0.21215269E+00 0.47964219E+04</pdfrwt>
<totfact> 0.20108081E-02</totfact>
</mgrwt>
</event>
<event>
12    1  0.2433511E-007  0.2576019E+04  0.7818608E-02  0.8376393E-01
          2   -1    0    0  501    0  0.00000000000E+00  0.00000000000E+00  0.10029597592E+04  0.10029597592E+04  0.00000000000E+00 0. -1.
         -2   -1    0    0    0  501 -0.00000000000E+00 -0.00000000000E+00 -0.16540729001E+04  0.16540729001E+04  0.00000000000E+00 0.  1.
         23    2    1    2    0    0 -0.19246058743E+03  0.39223579316E+03 -0.13600305859E+04  0.14318460353E+04  0.98029990558E+02 0.  0.
        254    2    1    2    0    0  0.19246058743E+03 -0.39223579316E+03  0.70891744491E+03  0.12251866241E+04  0.89868143683E+03 0.  0.
        -24    2    4    4    0    0 -0.28212249981E+03 -0.92117969067E+02  0.56021969476E+03  0.63875279729E+03  0.77975666252E+02 0.  0.
         24    2    4    4    0    0  0.47458308724E+03 -0.30011782409E+03  0.14869775015E+03  0.58643382676E+03  0.80584100400E+02 0.  0.
         11    1    3    3    0    0 -0.41996663839E+02  0.12367498069E+03 -0.54993412400E+03  0.56523159976E+03  0.00000000000E+00 0.  1.
        -11    1    3    3    0    0 -0.15046392359E+03  0.26856081247E+03 -0.81009646187E+03  0.86661443551E+03  0.00000000000E+00 0. -1.
          4    1    6    6  502    0  0.20101580173E+02  0.18479225794E+01  0.13490546117E+02  0.24279274657E+02  0.00000000000E+00 0. -1.
          3    1    5    5  503    0 -0.13534908915E+03 -0.82677660289E+02  0.31847720275E+03  0.35578462603E+03  0.00000000000E+00 0. -1.
         -4    1    5    5    0  503 -0.14677341066E+03 -0.94403087778E+01  0.24174249201E+03  0.28296817127E+03  0.00000000000E+00 0.  1.
         -3    1    6    6    0  502  0.45448150706E+03 -0.30196574667E+03  0.13520720403E+03  0.56215455210E+03  0.00000000000E+00 0.  1.
<mgrwt>
<rscale>  0 0.25760191E+04</rscale>
<asrwt>0</asrwt>
<pdfrwt beam="1">  1        2 0.15430150E+00 0.25760191E+04</pdfrwt>
<pdfrwt beam="2">  1       -2 0.25447275E+00 0.25760191E+04</pdfrwt>
<totfact> 0.13406162E+00</totfact>
</mgrwt>
</event>
<event>
12    1  0.2433511E-007  0.2783493E+04  0.7818608E-02  0.8308412E-01
         -1   -1    0    0    0  501 -0.00000000000E+00  0.00000000000E+00  0.25854709518E+04  0.25854709518E+04  0.00000000000E+00 0.  1.
          1   -1    0    0  501    0  0.00000000000E+00 -0.00000000000E+00 -0.74917029104E+03  0.74917029104E+03  0.00000000000E+00 0. -1.
         23    2    1    2    0    0 -0.78117906364E+03 -0.36278670422E+03  0.18986537645E+04  0.20870268671E+04  0.94552125344E+02 0.  0.
        254    2    1    2    0    0  0.78117906364E+03  0.36278670422E+03 -0.62353103766E+02  0.12476143757E+04  0.90044366767E+03 0.  0.
        -24    2    4    4    0    0  0.21030839969E+03 -0.71358351115E+01 -0.41914293851E+03  0.47551045864E+03  0.78414604776E+02 0.  0.
         24    2    4    4    0    0  0.57087066395E+03  0.36992253933E+03  0.35678983475E+03  0.77210391705E+03  0.78163114606E+02 0.  0.
         13    1    3    3    0    0 -0.28954430891E+03 -0.85383599482E+02  0.64537952768E+03  0.71248929861E+03  0.00000000000E+00 0.  1.
        -13    1    3    3    0    0 -0.49163475473E+03 -0.27740310473E+03  0.12532742368E+04  0.13745375685E+04  0.00000000000E+00 0. -1.
          2    1    6    6  502    0  0.55766336364E+03  0.35965422066E+03  0.36018774633E+03  0.75503297821E+03  0.00000000000E+00 0. -1.
          1    1    5    5  503    0  0.21698923075E+03 -0.40810066480E+01 -0.40859799799E+03  0.46265895090E+03  0.00000000000E+00 0. -1.
         -2    1    5    5    0  503 -0.66808310630E+01 -0.30548284635E+01 -0.10544940519E+02  0.12851507740E+02  0.00000000000E+00 0.  1.
         -1    1    6    6    0  502  0.13207300308E+02  0.10268318670E+02 -0.33979115779E+01  0.17070938839E+02  0.00000000000E+00 0.  1.
<mgrwt>
<rscale>  0 0.27834928E+04</rscale>
<asrwt>0</asrwt>
<pdfrwt beam="1">  1        1 0.11525697E+00 0.27834928E+04</pdfrwt>
<pdfrwt beam="2">  1       -1 0.39776476E+00 0.27834928E+04</pdfrwt>
<totfact> 0.15754169E-01</totfact>
</mgrwt>
</event>
<event>
12    1  0.2433511E-007  0.2141560E+04  0.7818608E-02  0.8543154E-01
         -3   -1    0    0    0  501 -0.00000000000E+00  0.00000000000E+00  0.54940460627E+03  0.54940460627E+03  0.00000000000E+00 0.  1.
          3   -1    0    0  501    0  0.00000000000E+00 -0.00000000000E+00 -0.20869317276E+04  0.20869317276E+04  0.00000000000E+00 0. -1.
         23    2    1    2    0    0 -0.15140849714E+03 -0.73095250837E+03 -0.64028927346E+02  0.75505754456E+03  0.93787470195E+02 0.  0.
        254    2    1    2    0    0  0.15140849714E+03  0.73095250837E+03 -0.14734981939E+04  0.18812787893E+04  0.90044258724E+03 0.  0.
        -24    2    4    4    0    0  0.29960891606E+02  0.73744313526E+03 -0.15480258986E+04  0.17168714334E+04  0.80890686576E+02 0.  0.
         24    2    4    4    0    0  0.12144760554E+03 -0.64906268976E+01  0.74527704697E+02  0.16440735588E+03  0.81754209496E+02 0.  0.
         11    1    3    3    0    0  0.71474142801E+01 -0.20489492191E+02  0.89379886800E+01  0.23468968081E+02  0.00000000000E+00 0.  1.
        -11    1    3    3    0    0 -0.15855591142E+03 -0.71046301618E+03 -0.72966916026E+02  0.73158857648E+03  0.00000000000E+00 0. -1.
          4    1    6    6  502    0  0.76600298410E+02  0.11248178831E+02  0.21726921552E+01  0.77452229373E+02  0.00000000000E+00 0. -1.
          1    1    5    5  503    0 -0.23425762106E+02  0.14460505950E+03 -0.27606559091E+03  0.31252455911E+03  0.00000000000E+00 0. -1.
         -2    1    5    5    0  503  0.53386653712E+02  0.59283807576E+03 -0.12719603077E+04  0.14043468743E+04  0.00000000000E+00 0.  1.
         -3    1    6    6    0  502  0.44847307129E+02 -0.17738805729E+02  0.72355012542E+02  0.86955126504E+02  0.00000000000E+00 0.  1.
<mgrwt>
<rscale>  0 0.21415601E+04</rscale>
<asrwt>0</asrwt>
<pdfrwt beam="1">  1        3 0.32106642E+00 0.21415601E+04</pdfrwt>
<pdfrwt beam="2">  1       -3 0.84523785E-01 0.21415601E+04</pdfrwt>
<totfact> 0.91449582E-02</totfact>
</mgrwt>
</event>
<event>
12    1  0.2433511E-007  0.2796954E+04  0.7818608E-02  0.8304215E-01
          2   -1    0    0  501    0  0.00000000000E+00  0.00000000000E+00  0.21798082094E+04  0.21798082094E+04  0.00000000000E+00 0. -1.
         -2   -1    0    0    0  501 -0.00000000000E+00 -0.00000000000E+00 -0.89720614559E+03  0.89720614559E+03  0.00000000000E+00 0.  1.
         23    2    1    2    0    0  0.44579386014E+03 -0.66389562667E+02 -0.70629500310E+03  0.84735176171E+03  0.12654104827E+03 0.  0.
        254    2    1    2    0    0 -0.44579386014E+03  0.66389562667E+02  0.19888970669E+04  0.22296625933E+04  0.90141222388E+03 0.  0.
        -24    2    4    4    0    0 -0.41156911834E+03 -0.11201869258E+03  0.19834028582E+04  0.20301806607E+04  0.76218704176E+02 0.  0.
         24    2    4    4    0    0 -0.34224741800E+02  0.17840825524E+03  0.54942087787E+01  0.19948193256E+03  0.82231481795E+02 0.  0.
         13    1    3    3    0    0  0.15544518469E+03  0.29143434556E+02 -0.18838652258E+03  0.24597159818E+03  0.00000000000E+00 0. -1.
        -13    1    3    3    0    0  0.29034867545E+03 -0.95532997223E+02 -0.51790848051E+03  0.60138016353E+03  0.00000000000E+00 0.  1.
          4    1    6    6  502    0 -0.19833113689E+02  0.13059866445E+03  0.40889437279E+02  0.13827982368E+03  0.00000000000E+00 0. -1.
          1    1    5    5  503    0 -0.12756128440E+03 -0.59918361968E+02  0.53317866315E+03  0.55149032468E+03  0.00000000000E+00 0. -1.
         -2    1    5    5    0  503 -0.28400783394E+03 -0.52100330608E+02  0.14502241950E+04  0.14786903361E+04  0.00000000000E+00 0.  1.
         -3    1    6    6    0  502 -0.14391628111E+02  0.47809590792E+02 -0.35395228500E+02  0.61202108885E+02  0.00000000000E+00 0.  1.
<mgrwt>
<rscale>  0 0.27969536E+04</rscale>
<asrwt>0</asrwt>
<pdfrwt beam="1">  1        2 0.33535511E+00 0.27969536E+04</pdfrwt>
<pdfrwt beam="2">  1       -2 0.13803171E+00 0.27969536E+04</pdfrwt>
<totfact> 0.17189788E+00</totfact>
</mgrwt>
</event>
<event>
12    1  0.2948654E-007  0.2189795E+04  0.7818608E-02  0.8522688E-01
         -1   -1    0    0    0  501 -0.00000000000E+00  0.00000000000E+00  0.83651221526E+03  0.83651221526E+03  0.00000000000E+00 0.  1.
          1   -1    0    0  501    0  0.00000000000E+00 -0.00000000000E+00 -0.14330933817E+04  0.14330933817E+04  0.00000000000E+00 0. -1.
         23    2    1    2    0    0  0.70189577685E+03 -0.16127733464E+03 -0.81478238384E+03  0.10921146689E+04  0.10087644305E+03 0.  0.
        254    2    1    2    0    0 -0.70189577685E+03  0.16127733464E+03  0.21820121742E+03  0.11774909280E+04  0.90565172894E+03 0.  0.
        -24    2    4    4    0    0 -0.57813733240E+03  0.50227561668E+02  0.54636612648E+03  0.80111959807E+03  0.80691283163E+02 0.  0.
         24    2    4    4    0    0 -0.12375844444E+03  0.11104977297E+03 -0.32816490906E+03  0.37637132998E+03  0.79466759355E+02 0.  0.
         11    1    3    3    0    0  0.27669076936E+03 -0.51270036825E+02 -0.39150440911E+03  0.48214323689E+03  0.00000000000E+00 0. -1.
        -11    1    3    3    0    0  0.42520500749E+03 -0.11000729781E+03 -0.42327797473E+03  0.60997143200E+03  0.00000000000E+00 0.  1.
          2    1    6    6  502    0  0.11634423341E+02  0.94918074755E+01 -0.28537243261E+02  0.32246371402E+02  0.00000000000E+00 0. -1.
          3    1    5    5  503    0 -0.24402518948E+03  0.20748730033E+02  0.17688579318E+03  0.30210492668E+03  0.00000000000E+00 0. -1.
         -4    1    5    5    0  503 -0.33411214293E+03  0.29478831634E+02  0.36948033329E+03  0.49901467138E+03  0.00000000000E+00 0.  1.
         -1    1    6    6    0  502 -0.13539286778E+03  0.10155796550E+03 -0.29962766580E+03  0.34412495858E+03  0.00000000000E+00 0.  1.
<mgrwt>
<rscale>  0 0.21897946E+04</rscale>
<asrwt>0</asrwt>
<pdfrwt beam="1">  1        1 0.22047590E+00 0.21897946E+04</pdfrwt>
<pdfrwt beam="2">  1       -1 0.12869419E+00 0.21897946E+04</pdfrwt>
<totfact> 0.34575668E+00</totfact>
</mgrwt>
</event>
<event>
12    1  0.2433511E-007  0.1111700E+04  0.7818608E-02  0.9193863E-01
          1   -1    0    0  501    0  0.00000000000E+00  0.00000000000E+00  0.13780906489E+04  0.13780906489E+04  0.00000000000E+00 0. -1.
         -1   -1    0    0    0  501 -0.00000000000E+00 -0.00000000000E+00 -0.22420095683E+03  0.22420095683E+03  0.00000000000E+00 0.  1.
         23    2    1    2    0    0 -0.31116462938E+02  0.16966503003E+03  0.18935834075E+03  0.27178573777E+03  0.90865006237E+02 0.  0.
        254    2    1    2    0    0  0.31116462938E+02 -0.16966503003E+03  0.96453135127E+03  0.13305058679E+04  0.90009481739E+03 0.  0.
        -24    2    4    4    0    0 -0.39171476667E+03 -0.16303448482E+02  0.69115264941E+03  0.79814318549E+03  0.75061966983E+02 0.  0.
         24    2    4    4    0    0  0.42283122961E+03 -0.15336158155E+03  0.27337870186E+03  0.53236268243E+03  0.79800298131E+02 0.  0.
         11    1    3    3    0    0 -0.28044032999E+02  0.15262247431E+03  0.19869593610E+03  0.25211140885E+03  0.00000000000E+00 0. -1.
        -11    1    3    3    0    0 -0.30724299392E+01  0.17042555724E+02 -0.93375953467E+01  0.19674328914E+02  0.00000000000E+00 0.  1.
          2    1    6    6  502    0  0.19910606638E+03 -0.11386437982E+03  0.12838487278E+03  0.26285166581E+03  0.00000000000E+00 0. -1.
          3    1    5    5  503    0 -0.31283095286E+03  0.17415029279E+02  0.54872195575E+03  0.63187203850E+03  0.00000000000E+00 0. -1.
         -4    1    5    5    0  503 -0.78883813814E+02 -0.33718477761E+02  0.14243069366E+03  0.16627114699E+03  0.00000000000E+00 0.  1.
         -1    1    6    6    0  502  0.22372516323E+03 -0.39497201734E+02  0.14499382908E+03  0.26951101662E+03  0.00000000000E+00 0.  1.
<mgrwt>
<rscale>  0 0.11117000E+04</rscale>
<asrwt>0</asrwt>
<pdfrwt beam="1">  1        1 0.21201394E+00 0.11117000E+04</pdfrwt>
<pdfrwt beam="2">  1       -1 0.34492456E-01 0.11117000E+04</pdfrwt>
<totfact> 0.63107849E+01</totfact>
</mgrwt>
</event>
<event>
12    1  0.2433511E-007  0.1910201E+04  0.7818608E-02  0.8649795E-01
          1   -1    0    0  501    0  0.00000000000E+00  0.00000000000E+00  0.74683578578E+03  0.74683578578E+03  0.00000000000E+00 0.  1.
         -1   -1    0    0    0  501 -0.00000000000E+00 -0.00000000000E+00 -0.12214427981E+04  0.12214427981E+04  0.00000000000E+00 0. -1.
         23    2    1    2    0    0 -0.47836644042E+03 -0.53506383805E+03  0.16175457117E+02  0.72373258744E+03  0.91648516582E+02 0.  0.
        254    2    1    2    0    0  0.47836644042E+03  0.53506383805E+03 -0.49078246946E+03  0.12445459965E+04  0.89044906809E+03 0.  0.
        -24    2    4    4    0    0  0.70748687837E+03  0.25085141210E+03 -0.42129271326E+03  0.86463207934E+03  0.81467590842E+02 0.  0.
         24    2    4    4    0    0 -0.22912043795E+03  0.28421242596E+03 -0.69489756201E+02  0.37991391712E+03  0.78948591191E+02 0.  0.
         13    1    3    3    0    0 -0.32287164295E+03 -0.29502189866E+03  0.17412655242E+01  0.43736375080E+03  0.00000000000E+00 0. -1.
        -13    1    3    3    0    0 -0.15549479747E+03 -0.24004193939E+03  0.14434191592E+02  0.28636883663E+03  0.00000000000E+00 0.  1.
          2    1    6    6  502    0 -0.22942618502E+03  0.25320281118E+03 -0.56643851079E+02  0.34634746112E+03  0.00000000000E+00 0. -1.
          3    1    5    5  503    0  0.61684803186E+03  0.23745289101E+03 -0.34609664173E+03  0.74610204080E+03  0.00000000000E+00 0. -1.
         -4    1    5    5    0  503  0.90638846507E+02  0.13398521085E+02 -0.75196071526E+02  0.11853003854E+03  0.00000000000E+00 0.  1.
         -1    1    6    6    0  502  0.30574706687E+00  0.31009614781E+02 -0.12845905123E+02  0.33566456002E+02  0.00000000000E+00 0.  1.
<mgrwt>
<rscale>  0 0.19102012E+04</rscale>
<asrwt>0</asrwt>
<pdfrwt beam="1">  1        1 0.11489781E+00 0.19102012E+04</pdfrwt>
<pdfrwt beam="2">  1       -1 0.18791427E+00 0.19102012E+04</pdfrwt>
<totfact> 0.42121125E+00</totfact>
</mgrwt>
</event>
<event>
12    1  0.2433511E-007  0.2677965E+04  0.7818608E-02  0.8342190E-01
          2   -1    0    0  501    0  0.00000000000E+00  0.00000000000E+00  0.20063354338E+04  0.20063354338E+04  0.00000000000E+00 0. -1.
         -2   -1    0    0    0  501 -0.00000000000E+00 -0.00000000000E+00 -0.89360621440E+03  0.89360621440E+03  0.00000000000E+00 0.  1.
         23    2    1    2    0    0  0.11111263719E+04 -0.13106172168E+03  0.91788868310E+03  0.14499214430E+04  0.89294832512E+02 0.  0.
        254    2    1    2    0    0 -0.11111263719E+04  0.13106172168E+03  0.19484053634E+03  0.14500202052E+04  0.90156351498E+03 0.  0.
        -24    2    4    4    0    0 -0.20547373780E+03 -0.34537053574E+03  0.34405884845E+02  0.41110437685E+03  0.79515909527E+02 0.  0.
         24    2    4    4    0    0 -0.90565263414E+03  0.47643225742E+03  0.16043465149E+03  0.10389158283E+04  0.80077658217E+02 0.  0.
         11    1    3    3    0    0  0.70529357237E+03 -0.80057531813E+02  0.63697343869E+03  0.95372081513E+03  0.00000000000E+00 0.  1.
        -11    1    3    3    0    0  0.40583279958E+03 -0.51004189862E+02  0.28091524442E+03  0.49620062791E+03  0.00000000000E+00 0. -1.
          2    1    6    6  502    0 -0.63348480964E+03  0.37088504884E+03  0.12888846622E+03  0.74529924207E+03  0.00000000000E+00 0. -1.
          3    1    5    5  503    0 -0.20322626280E+03 -0.33561035713E+03  0.19097015285E+02  0.39281028716E+03  0.00000000000E+00 0. -1.
         -2    1    5    5    0  503 -0.22474750014E+01 -0.97601786124E+01  0.15308869560E+02  0.18294089691E+02  0.00000000000E+00 0.  1.
         -1    1    6    6    0  502 -0.27216782450E+03  0.10554720858E+03  0.31546185275E+02  0.29361658628E+03  0.00000000000E+00 0.  1.
<mgrwt>
<rscale>  0 0.26779648E+04</rscale>
<asrwt>0</asrwt>
<pdfrwt beam="1">  1        2 0.30866699E+00 0.26779648E+04</pdfrwt>
<pdfrwt beam="2">  1       -2 0.13747788E+00 0.26779648E+04</pdfrwt>
<totfact> 0.21930609E+00</totfact>
</mgrwt>
</event>
<event>
12    1  0.2433511E-007  0.2334990E+04  0.7818608E-02  0.8464252E-01
         -2   -1    0    0    0  501 -0.00000000000E+00  0.00000000000E+00  0.36251789361E+03  0.36251789361E+03  0.00000000000E+00 0.  1.
          2   -1    0    0  501    0  0.00000000000E+00 -0.00000000000E+00 -0.37599360829E+04  0.37599360829E+04  0.00000000000E+00 0. -1.
         23    2    1    2    0    0  0.51215616076E+03 -0.84141346795E+03 -0.16467762122E+04  0.19212075165E+04  0.94264899338E+02 0.  0.
        254    2    1    2    0    0 -0.51215616076E+03  0.84141346795E+03 -0.17506419771E+04  0.22012464600E+04  0.90025445782E+03 0.  0.
        -24    2    4    4    0    0  0.23943523441E+03  0.22914100718E+03 -0.64171546747E+03  0.72613325115E+03  0.75072795258E+02 0.  0.
         24    2    4    4    0    0 -0.75159139516E+03  0.61227246078E+03 -0.11089265096E+04  0.14751132089E+04  0.80459827173E+02 0.  0.
         13    1    3    3    0    0  0.18821956357E+03 -0.25812333962E+03 -0.60324308808E+03  0.68261005405E+03  0.00000000000E+00 0.  1.
        -13    1    3    3    0    0  0.32393659719E+03 -0.58329012833E+03 -0.10435331241E+04  0.12385974624E+04  0.00000000000E+00 0. -1.
          2    1    6    6  502    0 -0.67308908085E+03  0.52414518558E+03 -0.94480494376E+03  0.12729624771E+04  0.00000000000E+00 0. -1.
          1    1    5    5  503    0  0.18459203983E+03  0.13681283918E+03 -0.47777452859E+03  0.53015136924E+03  0.00000000000E+00 0. -1.
         -2    1    5    5    0  503  0.54843194574E+02  0.92328167998E+02 -0.16394093888E+03  0.19598188191E+03  0.00000000000E+00 0.  1.
         -3    1    6    6    0  502 -0.78502314313E+02  0.88127275200E+02 -0.16412156586E+03  0.20215073180E+03  0.00000000000E+00 0.  1.
<mgrwt>
<rscale>  0 0.23349896E+04</rscale>
<asrwt>0</asrwt>
<pdfrwt beam="1">  1        2 0.57845172E+00 0.23349896E+04</pdfrwt>
<pdfrwt beam="2">  1       -2 0.55771982E-01 0.23349896E+04</pdfrwt>
<totfact> 0.14432234E+00</totfact>
</mgrwt>
</event>
<event>
12    1  0.2433511E-007  0.1125284E+04  0.7818608E-02  0.9180893E-01
         -1   -1    0    0    0  501 -0.00000000000E+00  0.00000000000E+00  0.32522426345E+03  0.32522426345E+03  0.00000000000E+00 0.  1.
          1   -1    0    0  501    0  0.00000000000E+00 -0.00000000000E+00 -0.97337817234E+03  0.97337817234E+03  0.00000000000E+00 0. -1.
         23    2    1    2    0    0 -0.11655762304E+03 -0.84488404973E+02 -0.21726479706E+03  0.27639581172E+03  0.92014578384E+02 0.  0.
        254    2    1    2    0    0  0.11655762304E+03  0.84488404973E+02 -0.43088911183E+03  0.10222066241E+04  0.91570573086E+03 0.  0.
        -24    2    4    4    0    0 -0.24213048762E+03  0.17955951105E+03  0.13753596797E+03  0.33869507433E+03  0.70209827273E+02 0.  0.
         24    2    4    4    0    0  0.35868811066E+03 -0.95071106075E+02 -0.56842507980E+03  0.68351154974E+03  0.79908017993E+02 0.  0.
         11    1    3    3    0    0 -0.39554377488E+01 -0.22940470980E+02 -0.99623383335E+02  0.10230703399E+03  0.00000000000E+00 0. -1.
        -11    1    3    3    0    0 -0.11260218529E+03 -0.61547933993E+02 -0.11764141372E+03  0.17408877773E+03  0.00000000000E+00 0.  1.
          4    1    6    6  502    0  0.25724904964E+02 -0.22372842765E+02 -0.25870780474E+02  0.42797337664E+02  0.00000000000E+00 0. -1.
          1    1    5    5  503    0 -0.11488678960E+03  0.12850664102E+03  0.74072655915E+02  0.18761580308E+03  0.00000000000E+00 0. -1.
         -2    1    5    5    0  503 -0.12724369802E+03  0.51052870028E+02  0.63463312053E+02  0.15107927125E+03  0.00000000000E+00 0.  1.
         -3    1    6    6    0  502  0.33296320570E+03 -0.72698263310E+02 -0.54255429933E+03  0.64071421207E+03  0.00000000000E+00 0.  1.
<mgrwt>
<rscale>  0 0.11252843E+04</rscale>
<asrwt>0</asrwt>
<pdfrwt beam="1">  1        1 0.14975049E+00 0.11252843E+04</pdfrwt>
<pdfrwt beam="2">  1       -1 0.50034502E-01 0.11252843E+04</pdfrwt>
<totfact> 0.63303150E+01</totfact>
</mgrwt>
</event>
<event>
12    1  0.2433511E-007  0.2181282E+04  0.7818608E-02  0.8526259E-01
          2   -1    0    0  501    0  0.00000000000E+00  0.00000000000E+00  0.87822617247E+03  0.87822617247E+03  0.00000000000E+00 0.  1.
         -2   -1    0    0    0  501 -0.00000000000E+00 -0.00000000000E+00 -0.13544325372E+04  0.13544325372E+04  0.00000000000E+00 0. -1.
         23    2    1    2    0    0  0.38365634663E+03 -0.45130913469E+03 -0.89219248447E+03  0.10748743700E+04  0.92061688545E+02 0.  0.
        254    2    1    2    0    0 -0.38365634663E+03  0.45130913469E+03  0.41598611979E+03  0.11577843397E+04  0.90363045431E+03 0.  0.
        -24    2    4    4    0    0  0.24235911554E+03 -0.59384279374E+02  0.49073288927E+02  0.26688677357E+03  0.80968689618E+02 0.  0.
         24    2    4    4    0    0 -0.62601546217E+03  0.51069341406E+03  0.36691283086E+03  0.89089756609E+03  0.79814320626E+02 0.  0.
         13    1    3    3    0    0  0.18510874044E+03 -0.28124572902E+03 -0.53755431184E+03  0.63429413056E+03  0.00000000000E+00 0. -1.
        -13    1    3    3    0    0  0.19854760618E+03 -0.17006340566E+03 -0.35463817263E+03  0.44058023941E+03  0.00000000000E+00 0.  1.
          4    1    6    6  502    0 -0.78247048684E+02  0.91113843326E+02  0.75671340221E+02  0.14195240331E+03  0.00000000000E+00 0. -1.
          1    1    5    5  503    0  0.40257333885E+02 -0.38612799609E+02 -0.67554078071E+01  0.56189293996E+02  0.00000000000E+00 0. -1.
         -2    1    5    5    0  503  0.20210178166E+03 -0.20771479766E+02  0.55828696734E+02  0.21069747957E+03  0.00000000000E+00 0.  1.
         -3    1    6    6    0  502 -0.54776841348E+03  0.41957957073E+03  0.29124149064E+03  0.74894516278E+03  0.00000000000E+00 0.  1.
<mgrwt>
<rscale>  0 0.21812823E+04</rscale>
<asrwt>0</asrwt>
<pdfrwt beam="1">  1        2 0.13511172E+00 0.21812823E+04</pdfrwt>
<pdfrwt beam="2">  1       -2 0.20837424E+00 0.21812823E+04</pdfrwt>
<totfact> 0.32570995E+00</totfact>
</mgrwt>
</event>
<event>
12    1  0.2433511E-007  0.1978850E+04  0.7818608E-02  0.8616573E-01
          2   -1    0    0  501    0  0.00000000000E+00  0.00000000000E+00  0.24643593836E+04  0.24643593836E+04  0.00000000000E+00 0. -1.
         -2   -1    0    0    0  501 -0.00000000000E+00 -0.00000000000E+00 -0.39724789095E+03  0.39724789095E+03  0.00000000000E+00 0.  1.
         23    2    1    2    0    0  0.65931740770E+03 -0.41469323030E+03  0.71333866054E+03  0.10599143431E+04  0.88861975866E+02 0.  0.
        254    2    1    2    0    0 -0.65931740770E+03  0.41469323030E+03  0.13537728321E+04  0.18016929315E+04  0.89817961395E+03 0.  0.
        -24    2    4    4    0    0 -0.25317416595E+03 -0.24030404975E+03  0.70817190109E+03  0.79349379758E+03  0.79257622261E+02 0.  0.
         24    2    4    4    0    0 -0.40614324176E+03  0.65499728005E+03  0.64560093105E+03  0.10081991339E+04  0.75439788544E+02 0.  0.
         13    1    3    3    0    0  0.14205152002E+03 -0.51807682108E+02  0.11843760736E+03  0.19206805331E+03  0.00000000000E+00 0. -1.
        -13    1    3    3    0    0  0.51726588769E+03 -0.36288554819E+03  0.59490105318E+03  0.86784628980E+03  0.00000000000E+00 0.  1.
          2    1    6    6  502    0 -0.25807930576E+03  0.38760056589E+03  0.34538005589E+03  0.57976418460E+03  0.00000000000E+00 0. -1.
          1    1    5    5  503    0 -0.17546293111E+03 -0.16402749747E+03  0.56238019620E+03  0.61152575187E+03  0.00000000000E+00 0. -1.
         -2    1    5    5    0  503 -0.77711234840E+02 -0.76276552281E+02  0.14579170489E+03  0.18196804572E+03  0.00000000000E+00 0.  1.
         -3    1    6    6    0  502 -0.14806393600E+03  0.26739671415E+03  0.30022087515E+03  0.42843494928E+03  0.00000000000E+00 0.  1.
<mgrwt>
<rscale>  0 0.19788497E+04</rscale>
<asrwt>0</asrwt>
<pdfrwt beam="1">  1        2 0.37913220E+00 0.19788497E+04</pdfrwt>
<pdfrwt beam="2">  1       -2 0.61115062E-01 0.19788497E+04</pdfrwt>
<totfact> 0.84661972E+00</totfact>
</mgrwt>
</event>
<event>
12    1  0.2433511E-007  0.1148647E+04  0.7818608E-02  0.9159032E-01
         -2   -1    0    0    0  501 -0.00000000000E+00  0.00000000000E+00  0.34077931833E+03  0.34077931833E+03  0.00000000000E+00 0.  1.
          2   -1    0    0  501    0  0.00000000000E+00 -0.00000000000E+00 -0.96792167304E+03  0.96792167304E+03  0.00000000000E+00 0. -1.
         23    2    1    2    0    0  0.54878752562E+02 -0.50209127704E+02  0.82940881217E+02  0.15995048131E+03  0.11477078333E+03 0.  0.
        254    2    1    2    0    0 -0.54878752562E+02  0.50209127704E+02 -0.71008323593E+03  0.11487505101E+04  0.89993160765E+03 0.  0.
        -24    2    4    4    0    0 -0.41652155684E+03  0.23882908044E+03 -0.37026663518E+03  0.61152468336E+03  0.79595981414E+02 0.  0.
         24    2    4    4    0    0  0.36164280427E+03 -0.18861995273E+03 -0.33981660075E+03  0.53722582671E+03  0.82299831637E+02 0.  0.
         11    1    3    3    0    0  0.68336306718E+01 -0.75010698309E+02  0.21972812772E+02  0.78460868400E+02  0.00000000000E+00 0. -1.
        -11    1    3    3    0    0  0.48045121890E+02  0.24801570605E+02  0.60968068444E+02  0.81489612907E+02  0.00000000000E+00 0.  1.
          4    1    6    6  502    0  0.11673571366E+02  0.41248498651E+01 -0.27321628326E+02  0.29995966883E+02  0.00000000000E+00 0. -1.
          3    1    5    5  503    0 -0.15974999671E+03  0.49159398087E+02 -0.11682875213E+03  0.20392563643E+03  0.00000000000E+00 0. -1.
         -4    1    5    5    0  503 -0.25677156013E+03  0.18966968235E+03 -0.25343788304E+03  0.40759904693E+03  0.00000000000E+00 0.  1.
         -3    1    6    6    0  502  0.34996923291E+03 -0.19274480260E+03 -0.31249497242E+03  0.50722985983E+03  0.00000000000E+00 0.  1.
<mgrwt>
<rscale>  0 0.11486474E+04</rscale>
<asrwt>0</asrwt>
<pdfrwt beam="1">  1        2 0.14891102E+00 0.11486474E+04</pdfrwt>
<pdfrwt beam="2">  1       -2 0.52427588E-01 0.11486474E+04</pdfrwt>
<totfact> 0.89806104E+01</totfact>
</mgrwt>
</event>
<event>
12    1  0.2433511E-007  0.1360459E+04  0.7818608E-02  0.8982949E-01
         -2   -1    0    0    0  501 -0.00000000000E+00  0.00000000000E+00  0.13956790797E+03  0.13956790797E+03  0.00000000000E+00 0.  1.
          2   -1    0    0  501    0  0.00000000000E+00 -0.00000000000E+00 -0.33153174604E+04  0.33153174604E+04  0.00000000000E+00 0. -1.
         23    2    1    2    0    0 -0.35044028887E+03 -0.12992445903E+03 -0.92706821211E+03  0.10037508979E+04  0.91496633910E+02 0.  0.
        254    2    1    2    0    0  0.35044028887E+03  0.12992445903E+03 -0.22486813403E+04  0.24511344704E+04  0.90100147661E+03 0.  0.
        -24    2    4    4    0    0  0.51671078026E+03  0.23836142053E+03 -0.78986634689E+03  0.97675067732E+03  0.79667072603E+02 0.  0.
         24    2    4    4    0    0 -0.16627049139E+03 -0.10843696150E+03 -0.14588149934E+04  0.14743837931E+04  0.79132379613E+02 0.  0.
         11    1    3    3    0    0 -0.28708716940E+03 -0.13864532864E+03 -0.80744518728E+03  0.86810673332E+03  0.00000000000E+00 0. -1.
        -11    1    3    3    0    0 -0.63353119473E+02  0.87208696121E+01 -0.11962302483E+03  0.13564416458E+03  0.00000000000E+00 0.  1.
          4    1    6    6  502    0 -0.60305934833E+02 -0.57189275596E+02 -0.36970557252E+03  0.37893222266E+03  0.00000000000E+00 0. -1.
          1    1    5    5  503    0  0.15317902768E+03  0.10079368018E+03 -0.29721027303E+03  0.34922360585E+03  0.00000000000E+00 0. -1.
         -2    1    5    5    0  503  0.36353175258E+03  0.13756774035E+03 -0.49265607386E+03  0.62752707147E+03  0.00000000000E+00 0.  1.
         -3    1    6    6    0  502 -0.10596455656E+03 -0.51247685909E+02 -0.10891094209E+04  0.10954515705E+04  0.00000000000E+00 0.  1.
<mgrwt>
<rscale>  0 0.13604586E+04</rscale>
<asrwt>0</asrwt>
<pdfrwt beam="1">  1        2 0.51004879E+00 0.13604586E+04</pdfrwt>
<pdfrwt beam="2">  1       -2 0.21471988E-01 0.13604586E+04</pdfrwt>
<totfact> 0.20323259E+01</totfact>
</mgrwt>
</event>
<event>
12    1  0.2433511E-007  0.1560937E+04  0.7818608E-02  0.8844912E-01
          1   -1    0    0  501    0  0.00000000000E+00  0.00000000000E+00  0.44077010655E+03  0.44077010655E+03  0.00000000000E+00 0. -1.
         -1   -1    0    0    0  501 -0.00000000000E+00 -0.00000000000E+00 -0.13819691656E+04  0.13819691656E+04  0.00000000000E+00 0.  1.
         23    2    1    2    0    0  0.49577662642E+01  0.12597624154E+03 -0.89962698045E+03  0.91282385081E+03  0.89577261485E+02 0.  0.
        254    2    1    2    0    0 -0.49577662642E+01 -0.12597624154E+03 -0.41572078553E+02  0.90991542128E+03  0.90017956170E+03 0.  0.
        -24    2    4    4    0    0  0.27728606364E+03  0.64580880642E+02  0.29986428836E+03  0.42093406039E+03  0.78794927075E+02 0.  0.
         24    2    4    4    0    0 -0.28224382991E+03 -0.19055712218E+03 -0.34143636691E+03  0.48898136089E+03  0.80934432215E+02 0.  0.
         11    1    3    3    0    0  0.30768893234E+02  0.24029790277E+02 -0.12138532056E+03  0.12750902580E+03  0.00000000000E+00 0. -1.
        -11    1    3    3    0    0 -0.25811126970E+02  0.10194645126E+03 -0.77824165989E+03  0.78531482502E+03  0.00000000000E+00 0.  1.
          4    1    6    6  502    0 -0.24172378599E+02 -0.39019404718E+02 -0.76873881613E+02  0.89534415204E+02  0.00000000000E+00 0. -1.
          3    1    5    5  503    0  0.71105329526E+02  0.28888594754E+02  0.13193380058E+03  0.15263370050E+03  0.00000000000E+00 0. -1.
         -4    1    5    5    0  503  0.20618073412E+03  0.35692285888E+02  0.16793048778E+03  0.26830035989E+03  0.00000000000E+00 0.  1.
         -3    1    6    6    0  502 -0.25807145131E+03 -0.15153771746E+03 -0.26456248530E+03  0.39944694569E+03  0.00000000000E+00 0.  1.
<mgrwt>
<rscale>  0 0.15609365E+04</rscale>
<asrwt>0</asrwt>
<pdfrwt beam="1">  1        1 0.67810786E-01 0.15609365E+04</pdfrwt>
<pdfrwt beam="2">  1       -1 0.21261064E+00 0.15609365E+04</pdfrwt>
<totfact> 0.62557232E+00</totfact>
</mgrwt>
</event>
<event>
12    1  0.2433511E-007  0.1972536E+04  0.7818608E-02  0.8619570E-01
         -2   -1    0    0    0  501 -0.00000000000E+00  0.00000000000E+00  0.74218520522E+03  0.74218520522E+03  0.00000000000E+00 0.  1.
          2   -1    0    0  501    0  0.00000000000E+00 -0.00000000000E+00 -0.13106221505E+04  0.13106221505E+04  0.00000000000E+00 0. -1.
         23    2    1    2    0    0  0.35067042466E+03  0.64091493892E+03  0.50725234708E+02  0.73802930170E+03  0.91501339218E+02 0.  0.
        254    2    1    2    0    0 -0.35067042466E+03 -0.64091493892E+03 -0.61916218003E+03  0.13147780541E+04  0.90085393967E+03 0.  0.
        -24    2    4    4    0    0 -0.59929012301E+03 -0.50150763519E+03 -0.64990768989E+03  0.10194732557E+04  0.79291576077E+02 0.  0.
         24    2    4    4    0    0  0.24861969835E+03 -0.13940730372E+03  0.30745509866E+02  0.29530479835E+03  0.70805980067E+02 0.  0.
         11    1    3    3    0    0  0.11821035620E+03  0.24300139693E+03  0.61196375236E+02  0.27707104425E+03  0.00000000000E+00 0.  1.
        -11    1    3    3    0    0  0.23246006847E+03  0.39791354199E+03 -0.10471140529E+02  0.46095825745E+03  0.00000000000E+00 0. -1.
          4    1    6    6  502    0  0.17267310483E+02  0.58413802538E+01 -0.70287781516E+01  0.19536771916E+02  0.00000000000E+00 0. -1.
          1    1    5    5  503    0 -0.22448497062E+03 -0.22767678798E+03 -0.23390004730E+03  0.39615584553E+03  0.00000000000E+00 0. -1.
         -2    1    5    5    0  503 -0.37480515240E+03 -0.27383084721E+03 -0.41600764259E+03  0.62331741018E+03  0.00000000000E+00 0.  1.
         -3    1    6    6    0  502  0.23135238787E+03 -0.14524868398E+03  0.37774288017E+02  0.27576802644E+03  0.00000000000E+00 0.  1.
<mgrwt>
<rscale>  0 0.19725358E+04</rscale>
<asrwt>0</asrwt>
<pdfrwt beam="1">  1        2 0.20163418E+00 0.19725358E+04</pdfrwt>
<pdfrwt beam="2">  1       -2 0.11418234E+00 0.19725358E+04</pdfrwt>
<totfact> 0.91066956E+00</totfact>
</mgrwt>
</event>
<event>
12    1  0.2433511E-007  0.3095130E+04  0.7818608E-02  0.8217076E-01
         -1   -1    0    0    0  501 -0.00000000000E+00  0.00000000000E+00  0.22410035952E+04  0.22410035952E+04  0.00000000000E+00 0.  1.
          1   -1    0    0  501    0  0.00000000000E+00 -0.00000000000E+00 -0.10686982851E+04  0.10686982851E+04  0.00000000000E+00 0. -1.
         23    2    1    2    0    0 -0.11636698936E+04  0.59582201875E+03 -0.41528848348E+02  0.13112391056E+04  0.92151220986E+02 0.  0.
        254    2    1    2    0    0  0.11636698936E+04 -0.59582201875E+03  0.12138341584E+04  0.19984627748E+04  0.90073780805E+03 0.  0.
        -24    2    4    4    0    0 -0.57275305748E+02 -0.30385728335E+03  0.34440860478E+03  0.46968875694E+03  0.79878232644E+02 0.  0.
         24    2    4    4    0    0  0.12209451993E+04 -0.29196473540E+03  0.86942555363E+03  0.15287740178E+04  0.72791605931E+02 0.  0.
         13    1    3    3    0    0 -0.58701328224E+03  0.33139960599E+03 -0.58392129223E+02  0.67662392297E+03  0.00000000000E+00 0. -1.
        -13    1    3    3    0    0 -0.57665661133E+03  0.26442241275E+03  0.16863280875E+02  0.63461518261E+03  0.00000000000E+00 0.  1.
          2    1    6    6  502    0  0.23728378816E+03 -0.86691141393E+02  0.17373636040E+03  0.30659953203E+03  0.00000000000E+00 0. -1.
          3    1    5    5  503    0 -0.18040007079E+02 -0.45426791537E+02  0.10239960485E+03  0.11346679831E+03  0.00000000000E+00 0. -1.
         -4    1    5    5    0  503 -0.39235298669E+02 -0.25843049181E+03  0.24200899993E+03  0.35622195863E+03  0.00000000000E+00 0.  1.
         -3    1    6    6    0  502  0.98366141116E+03 -0.20527359400E+03  0.69568919323E+03  0.12221744858E+04  0.00000000000E+00 0.  1.
<mgrwt>
<rscale>  0 0.30951295E+04</rscale>
<asrwt>0</asrwt>
<pdfrwt beam="1">  1        1 0.16441512E+00 0.30951295E+04</pdfrwt>
<pdfrwt beam="2">  1       -1 0.34476978E+00 0.30951295E+04</pdfrwt>
<totfact> 0.19016389E-01</totfact>
</mgrwt>
</event>
<event>
12    1  0.2433511E-007  0.2028105E+04  0.7818608E-02  0.8593592E-01
         -1   -1    0    0    0  501 -0.00000000000E+00  0.00000000000E+00  0.81692025822E+03  0.81692025822E+03  0.00000000000E+00 0.  1.
          1   -1    0    0  501    0  0.00000000000E+00 -0.00000000000E+00 -0.12587547952E+04  0.12587547952E+04  0.00000000000E+00 0. -1.
         23    2    1    2    0    0  0.19847783395E+03 -0.63105592575E+03  0.30096170444E+03  0.73311523352E+03  0.96202734257E+02 0.  0.
        254    2    1    2    0    0 -0.19847783395E+03  0.63105592575E+03 -0.74279624139E+03  0.13425598199E+04  0.90171812764E+03 0.  0.
        -24    2    4    4    0    0 -0.19954904994E+03  0.76459106471E+03 -0.26030706342E+03  0.83572521534E+03  0.79104669422E+02 0.  0.
         24    2    4    4    0    0  0.10712159838E+01 -0.13353513896E+03 -0.48248917797E+03  0.50683460453E+03  0.79074197178E+02 0.  0.
         11    1    3    3    0    0  0.11142572478E+03 -0.37407915990E+03  0.12549606641E+03  0.41000021061E+03  0.00000000000E+00 0. -1.
        -11    1    3    3    0    0  0.87052109167E+02 -0.25697676585E+03  0.17546563804E+03  0.32311502291E+03  0.00000000000E+00 0.  1.
          4    1    6    6  502    0 -0.36643541600E+02 -0.62712984417E+02 -0.18597076971E+03  0.19965168354E+03  0.00000000000E+00 0. -1.
          1    1    5    5  503    0  0.42662733447E+01  0.73282154126E+02 -0.25675106667E+02  0.77766871507E+02  0.00000000000E+00 0. -1.
         -2    1    5    5    0  503 -0.20381532328E+03  0.69130891058E+03 -0.23463195675E+03  0.75795834383E+03  0.00000000000E+00 0.  1.
         -3    1    6    6    0  502  0.37714757584E+02 -0.70822154539E+02 -0.29651840826E+03  0.30718292099E+03  0.00000000000E+00 0.  1.
<mgrwt>
<rscale>  0 0.20281048E+04</rscale>
<asrwt>0</asrwt>
<pdfrwt beam="1">  1        1 0.19365458E+00 0.20281048E+04</pdfrwt>
<pdfrwt beam="2">  1       -1 0.12568004E+00 0.20281048E+04</pdfrwt>
<totfact> 0.49485084E+00</totfact>
</mgrwt>
</event>
<event>
12    1  0.2433511E-007  0.1886571E+04  0.7818608E-02  0.8661570E-01
         -1   -1    0    0    0  501 -0.00000000000E+00  0.00000000000E+00  0.54407810740E+03  0.54407810740E+03  0.00000000000E+00 0.  1.
          1   -1    0    0  501    0  0.00000000000E+00 -0.00000000000E+00 -0.16354043639E+04  0.16354043639E+04  0.00000000000E+00 0. -1.
         23    2    1    2    0    0 -0.16264106433E+03  0.61275793664E+03 -0.83107297096E+03  0.10495614288E+04  0.94723307786E+02 0.  0.
        254    2    1    2    0    0  0.16264106433E+03 -0.61275793664E+03 -0.26025328552E+03  0.11299210425E+04  0.89836817891E+03 0.  0.
        -24    2    4    4    0    0  0.28656790842E+03  0.73132883558E+02 -0.29785819619E+03  0.42735982785E+03  0.80295284001E+02 0.  0.
         24    2    4    4    0    0 -0.12392684409E+03 -0.68589082020E+03  0.37604910667E+02  0.70256121463E+03  0.79837654451E+02 0.  0.
         11    1    3    3    0    0 -0.16907918611E+02  0.17822391252E+03 -0.28597324118E+03  0.33738751515E+03  0.00000000000E+00 0.  1.
        -11    1    3    3    0    0 -0.14573314572E+03  0.43453402412E+03 -0.54509972978E+03  0.71217391365E+03  0.00000000000E+00 0. -1.
          2    1    6    6  502    0 -0.57539550629E+02 -0.46435566477E+03 -0.20852720395E+01  0.46791167078E+03  0.00000000000E+00 0. -1.
          3    1    5    5  503    0  0.90012881777E+02  0.62185119702E+02 -0.11375386436E+03  0.15782664431E+03  0.00000000000E+00 0. -1.
         -4    1    5    5    0  503  0.19655502664E+03  0.10947763856E+02 -0.18410433183E+03  0.26953318354E+03  0.00000000000E+00 0.  1.
         -1    1    6    6    0  502 -0.66387293459E+02 -0.22153515543E+03  0.39690182707E+02  0.23464954385E+03  0.00000000000E+00 0.  1.
<mgrwt>
<rscale>  0 0.18865712E+04</rscale>
<asrwt>0</asrwt>
<pdfrwt beam="1">  1        1 0.25160067E+00 0.18865712E+04</pdfrwt>
<pdfrwt beam="2">  1       -1 0.83704326E-01 0.18865712E+04</pdfrwt>
<totfact> 0.69949924E+00</totfact>
</mgrwt>
</event>
<event>
12    1  0.2433511E-007  0.2682364E+04  0.7818608E-02  0.8340750E-01
         -1   -1    0    0    0  501 -0.00000000000E+00  0.00000000000E+00  0.85653969541E+03  0.85653969541E+03  0.00000000000E+00 0.  1.
          1   -1    0    0  501    0  0.00000000000E+00 -0.00000000000E+00 -0.21000411617E+04  0.21000411617E+04  0.00000000000E+00 0. -1.
         23    2    1    2    0    0 -0.18132057499E+03 -0.52164026100E+03  0.60725512217E+03  0.82593699572E+03  0.91801005904E+02 0.  0.
        254    2    1    2    0    0  0.18132057499E+03  0.52164026100E+03 -0.18507565885E+04  0.21306438614E+04  0.89964304116E+03 0.  0.
        -24    2    4    4    0    0  0.50062133875E+03  0.17068213507E+03 -0.12576205356E+04  0.13665320938E+04  0.77758831284E+02 0.  0.
         24    2    4    4    0    0 -0.31930076376E+03  0.35095812593E+03 -0.59313605290E+03  0.76411176759E+03  0.83257625718E+02 0.  0.
         11    1    3    3    0    0 -0.61941740281E+02 -0.30629534265E+03  0.36538464084E+03  0.48079054887E+03  0.00000000000E+00 0.  1.
        -11    1    3    3    0    0 -0.11937883471E+03 -0.21534491835E+03  0.24187048133E+03  0.34514644685E+03  0.00000000000E+00 0. -1.
          2    1    6    6  502    0 -0.33302948069E+02  0.55410002054E+02 -0.44683199615E+02  0.78587168199E+02  0.00000000000E+00 0. -1.
          3    1    5    5  503    0  0.41079115640E+03  0.16497321315E+03 -0.99875331268E+03  0.10924622258E+04  0.00000000000E+00 0. -1.
         -4    1    5    5    0  503  0.89830182343E+02  0.57089219244E+01 -0.25886722291E+03  0.27406986801E+03  0.00000000000E+00 0.  1.
         -1    1    6    6    0  502 -0.28599781569E+03  0.29554812387E+03 -0.54845285328E+03  0.68552459939E+03  0.00000000000E+00 0.  1.
<mgrwt>
<rscale>  0 0.26823636E+04</rscale>
<asrwt>0</asrwt>
<pdfrwt beam="1">  1        1 0.32308325E+00 0.26823636E+04</pdfrwt>
<pdfrwt beam="2">  1       -1 0.13177534E+00 0.26823636E+04</pdfrwt>
<totfact> 0.10916845E+00</totfact>
</mgrwt>
</event>
<event>
12    1  0.2433511E-007  0.1141101E+04  0.7818608E-02  0.9166032E-01
          2   -1    0    0  501    0  0.00000000000E+00  0.00000000000E+00  0.12218661488E+04  0.12218661488E+04  0.00000000000E+00 0. -1.
         -2   -1    0    0    0  501 -0.00000000000E+00 -0.00000000000E+00 -0.26641875455E+03  0.26641875455E+03  0.00000000000E+00 0.  1.
         23    2    1    2    0    0 -0.19853276463E+03  0.14719188282E+02  0.16759205821E+03  0.27599095692E+03  0.91934744208E+02 0.  0.
        254    2    1    2    0    0  0.19853276463E+03 -0.14719188282E+02  0.78785533608E+03  0.12122939465E+04  0.89961584520E+03 0.  0.
        -24    2    4    4    0    0  0.40916154948E+03  0.31239587084E+03  0.50059924642E+03  0.72210626161E+03  0.76377312400E+02 0.  0.
         24    2    4    4    0    0 -0.21062878485E+03 -0.32711505912E+03  0.28725608966E+03  0.49018768486E+03  0.79994740038E+02 0.  0.
         13    1    3    3    0    0 -0.12247344493E+03  0.16610259106E+02  0.15600531206E+03  0.19903090918E+03  0.00000000000E+00 0. -1.
        -13    1    3    3    0    0 -0.76059319697E+02 -0.18910708246E+01  0.11586746159E+02  0.76960047740E+02  0.00000000000E+00 0.  1.
          4    1    6    6  502    0 -0.28493173986E+02 -0.98949486182E+02  0.98767560779E+02  0.14268108789E+03  0.00000000000E+00 0. -1.
          1    1    5    5  503    0  0.11454203662E+03  0.11393117893E+03  0.19733776098E+03  0.25503408320E+03  0.00000000000E+00 0. -1.
         -2    1    5    5    0  503  0.29461951286E+03  0.19846469191E+03  0.30326148544E+03  0.46707217841E+03  0.00000000000E+00 0.  1.
         -3    1    6    6    0  502 -0.18213561087E+03 -0.22816557294E+03  0.18848852888E+03  0.34750659697E+03  0.00000000000E+00 0.  1.
<mgrwt>
<rscale>  0 0.11411013E+04</rscale>
<asrwt>0</asrwt>
<pdfrwt beam="1">  1        2 0.18797940E+00 0.11411013E+04</pdfrwt>
<pdfrwt beam="2">  1       -2 0.40987501E-01 0.11411013E+04</pdfrwt>
<totfact> 0.10255499E+02</totfact>
</mgrwt>
</event>
<event>
12    1  0.2433511E-007  0.1359308E+04  0.7818608E-02  0.8983812E-01
          1   -1    0    0  501    0  0.00000000000E+00  0.00000000000E+00  0.17090117455E+04  0.17090117455E+04  0.00000000000E+00 0. -1.
         -1   -1    0    0    0  501 -0.00000000000E+00 -0.00000000000E+00 -0.27029061902E+03  0.27029061902E+03  0.00000000000E+00 0.  1.
         23    2    1    2    0    0  0.31221588085E+03  0.10934000585E+03  0.15244457290E+03  0.37520920870E+03  0.90047817055E+02 0.  0.
        254    2    1    2    0    0 -0.31221588085E+03 -0.10934000585E+03  0.12862765536E+04  0.16040931558E+04  0.89954070897E+03 0.  0.
        -24    2    4    4    0    0  0.11620091128E+03 -0.33764295119E+03  0.21266898275E+03  0.42314031761E+03  0.79462053179E+02 0.  0.
         24    2    4    4    0    0 -0.42841679213E+03  0.22830294534E+03  0.10736075708E+04  0.11809528382E+04  0.79707008969E+02 0.  0.
         11    1    3    3    0    0  0.78860581634E+02  0.65286032344E+02  0.23727715092E+02  0.10509168292E+03  0.00000000000E+00 0. -1.
        -11    1    3    3    0    0  0.23335529921E+03  0.44053973501E+02  0.12871685781E+03  0.27011752578E+03  0.00000000000E+00 0.  1.
          2    1    6    6  502    0 -0.28133515048E+02  0.49142383300E+01  0.11335342693E+03  0.11689586735E+03  0.00000000000E+00 0. -1.
          1    1    5    5  503    0  0.82295802630E+02 -0.12197625475E+03  0.94819016897E+02  0.17504699888E+03  0.00000000000E+00 0. -1.
         -2    1    5    5    0  503  0.33905108651E+02 -0.21566669644E+03  0.11784996585E+03  0.24809331873E+03  0.00000000000E+00 0.  1.
         -1    1    6    6    0  502 -0.40028327708E+03  0.22338870701E+03  0.96025414388E+03  0.10640569708E+04  0.00000000000E+00 0.  1.
<mgrwt>
<rscale>  0 0.13593084E+04</rscale>
<asrwt>0</asrwt>
<pdfrwt beam="1">  1        1 0.26292488E+00 0.13593084E+04</pdfrwt>
<pdfrwt beam="2">  1       -1 0.41583173E-01 0.13593084E+04</pdfrwt>
<totfact> 0.26070669E+01</totfact>
</mgrwt>
</event>
<event>
12    1  0.2433511E-007  0.3400327E+04  0.7818608E-02  0.8137826E-01
         -2   -1    0    0    0  501 -0.00000000000E+00  0.00000000000E+00  0.14355814376E+04  0.14355814376E+04  0.00000000000E+00 0.  1.
          2   -1    0    0  501    0  0.00000000000E+00 -0.00000000000E+00 -0.20135089083E+04  0.20135089083E+04  0.00000000000E+00 0. -1.
         23    2    1    2    0    0 -0.94207524192E+03  0.22086032644E+03  0.99752760709E+03  0.13926780666E+04  0.90586009183E+02 0.  0.
        254    2    1    2    0    0  0.94207524192E+03 -0.22086032644E+03 -0.15754550778E+04  0.20564122793E+04  0.90027091189E+03 0.  0.
        -24    2    4    4    0    0  0.20032884632E+03  0.15846405732E+03 -0.10125827527E+04  0.10473923991E+04  0.80402130104E+02 0.  0.
         24    2    4    4    0    0  0.74174639560E+03 -0.37932438376E+03 -0.56287232517E+03  0.10090198802E+04  0.84977412631E+02 0.  0.
         11    1    3    3    0    0 -0.42477163446E+03  0.96316514120E+02  0.51386175234E+03  0.67361837330E+03  0.00000000000E+00 0.  1.
        -11    1    3    3    0    0 -0.51730360746E+03  0.12454381232E+03  0.48366585475E+03  0.71905969330E+03  0.00000000000E+00 0. -1.
          2    1    6    6  502    0  0.51227556941E+03 -0.29904102801E+03 -0.37487159328E+03  0.70169830191E+03  0.00000000000E+00 0. -1.
          1    1    5    5  503    0  0.12294160795E+03  0.10261051280E+03 -0.47135051723E+03  0.49781007061E+03  0.00000000000E+00 0. -1.
         -2    1    5    5    0  503  0.77387238372E+02  0.55853544515E+02 -0.54123223544E+03  0.54958232848E+03  0.00000000000E+00 0.  1.
         -1    1    6    6    0  502  0.22947082619E+03 -0.80283355747E+02 -0.18800073189E+03  0.30732157827E+03  0.00000000000E+00 0.  1.
<mgrwt>
<rscale>  0 0.34003271E+04</rscale>
<asrwt>0</asrwt>
<pdfrwt beam="1">  1        2 0.30977060E+00 0.34003271E+04</pdfrwt>
<pdfrwt beam="2">  1       -2 0.22085868E+00 0.34003271E+04</pdfrwt>
<totfact> 0.53098594E-01</totfact>
</mgrwt>
</event>
<event>
12    1  0.2433511E-007  0.1685804E+04  0.7818608E-02  0.8769502E-01
          1   -1    0    0  501    0  0.00000000000E+00  0.00000000000E+00  0.21766749542E+04  0.21766749542E+04  0.00000000000E+00 0. -1.
         -1   -1    0    0    0  501 -0.00000000000E+00 -0.00000000000E+00 -0.32640798864E+03  0.32640798864E+03  0.00000000000E+00 0.  1.
         23    2    1    2    0    0  0.13200565404E+03 -0.52042506595E+03  0.10643894748E+04  0.11956569855E+04  0.91667502122E+02 0.  0.
        254    2    1    2    0    0 -0.13200565404E+03  0.52042506595E+03  0.78587749082E+03  0.13074259574E+04  0.89637685240E+03 0.  0.
        -24    2    4    4    0    0  0.15919424958E+03  0.36946671269E+03  0.86790700019E+03  0.95993372961E+03  0.79760537804E+02 0.  0.
         24    2    4    4    0    0 -0.29119990362E+03  0.15095835326E+03 -0.82029509363E+02  0.34749222778E+03  0.80225928953E+02 0.  0.
         11    1    3    3    0    0  0.29686550464E+02 -0.26028659794E+03  0.45083004734E+03  0.52141934748E+03  0.00000000000E+00 0.  1.
        -11    1    3    3    0    0  0.10231910358E+03 -0.26013846801E+03  0.61355942743E+03  0.67423763799E+03  0.00000000000E+00 0. -1.
          4    1    6    6  502    0 -0.18727689539E+03  0.77631739495E+02 -0.13898239300E+02  0.20320552054E+03  0.00000000000E+00 0. -1.
          1    1    5    5  503    0  0.10253172318E+03  0.14217784534E+03  0.34604785799E+03  0.38791289484E+03  0.00000000000E+00 0. -1.
         -2    1    5    5    0  503  0.56662526393E+02  0.22728886735E+03  0.52185914220E+03  0.57202083477E+03  0.00000000000E+00 0.  1.
         -3    1    6    6    0  502 -0.10392300823E+03  0.73326613763E+02 -0.68131270063E+02  0.14428670724E+03  0.00000000000E+00 0.  1.
<mgrwt>
<rscale>  0 0.16858044E+04</rscale>
<asrwt>0</asrwt>
<pdfrwt beam="1">  1        1 0.33487306E+00 0.16858044E+04</pdfrwt>
<pdfrwt beam="2">  1       -1 0.50216615E-01 0.16858044E+04</pdfrwt>
<totfact> 0.85763990E+00</totfact>
</mgrwt>
</event>
<event>
12    1  0.2433511E-007  0.1160639E+04  0.7818608E-02  0.9148024E-01
          2   -1    0    0  501    0  0.00000000000E+00  0.00000000000E+00  0.78638595903E+03  0.78638595903E+03  0.00000000000E+00 0. -1.
         -2   -1    0    0    0  501 -0.00000000000E+00 -0.00000000000E+00 -0.42825135046E+03  0.42825135046E+03  0.00000000000E+00 0.  1.
         23    2    1    2    0    0  0.61312176936E+02  0.18790079817E+03  0.16341948096E+03  0.27339430019E+03  0.94723933748E+02 0.  0.
        254    2    1    2    0    0 -0.61312176936E+02 -0.18790079817E+03  0.19471512761E+03  0.94124300930E+03  0.89942121870E+03 0.  0.
        -24    2    4    4    0    0  0.20559500988E+02 -0.95287558941E+01  0.53440440008E+03  0.54111837144E+03  0.81899565396E+02 0.  0.
         24    2    4    4    0    0 -0.81871677924E+02 -0.17837204228E+03 -0.33968927247E+03  0.40012463786E+03  0.78685239246E+02 0.  0.
         11    1    3    3    0    0  0.62759772704E+02  0.47358811112E+02  0.59418207681E+02  0.98550339745E+02  0.00000000000E+00 0.  1.
        -11    1    3    3    0    0 -0.14475957682E+01  0.14054198706E+03  0.10400127328E+03  0.17484396044E+03  0.00000000000E+00 0. -1.
          2    1    6    6  502    0 -0.75529610323E+02 -0.17054864426E+03 -0.34221028123E+03  0.38974278527E+03  0.00000000000E+00 0. -1.
          3    1    5    5  503    0  0.18201915499E+02 -0.27158060347E+02  0.50931940698E+03  0.51036764033E+03  0.00000000000E+00 0. -1.
         -4    1    5    5    0  503  0.23575854895E+01  0.17629304453E+02  0.25084993106E+02  0.30750731113E+02  0.00000000000E+00 0.  1.
         -1    1    6    6    0  502 -0.63420676009E+01 -0.78233980220E+01  0.25210087515E+01  0.10381852589E+02  0.00000000000E+00 0.  1.
<mgrwt>
<rscale>  0 0.11606392E+04</rscale>
<asrwt>0</asrwt>
<pdfrwt beam="1">  1        2 0.12098246E+00 0.11606392E+04</pdfrwt>
<pdfrwt beam="2">  1       -2 0.65884823E-01 0.11606392E+04</pdfrwt>
<totfact> 0.73952017E+01</totfact>
</mgrwt>
</event>
<event>
12    1  0.2433511E-007  0.1365852E+04  0.7818608E-02  0.8978914E-01
          1   -1    0    0  501    0  0.00000000000E+00  0.00000000000E+00  0.10481819705E+04  0.10481819705E+04  0.00000000000E+00 0. -1.
         -1   -1    0    0    0  501 -0.00000000000E+00 -0.00000000000E+00 -0.44494950505E+03  0.44494950505E+03  0.00000000000E+00 0.  1.
         23    2    1    2    0    0  0.31064218860E+03 -0.11958160388E+03 -0.25542873476E+02  0.34618885182E+03  0.91629435285E+02 0.  0.
        254    2    1    2    0    0 -0.31064218860E+03  0.11958160388E+03  0.62877533896E+03  0.11469426238E+04  0.89962249082E+03 0.  0.
        -24    2    4    4    0    0 -0.20192694627E+03  0.44056800401E+03  0.80590593177E+02  0.49769085880E+03  0.79540489289E+02 0.  0.
         24    2    4    4    0    0 -0.10871524233E+03 -0.32098640013E+03  0.54818474578E+03  0.64925176496E+03  0.78549766478E+02 0.  0.
         13    1    3    3    0    0  0.14884625922E+03 -0.10611338216E+03 -0.95535466239E+01  0.18304788720E+03  0.00000000000E+00 0. -1.
        -13    1    3    3    0    0  0.16179592939E+03 -0.13468221722E+02 -0.15989326852E+02  0.16314096462E+03  0.00000000000E+00 0.  1.
          2    1    6    6  502    0 -0.50105290029E+02 -0.24770460638E+03  0.37363790235E+03  0.45108025249E+03  0.00000000000E+00 0. -1.
          1    1    5    5  503    0 -0.11503485408E+03  0.30123245685E+03  0.84848455307E+02  0.33342656025E+03  0.00000000000E+00 0. -1.
         -2    1    5    5    0  503 -0.86892092188E+02  0.13933554716E+03 -0.42578621303E+01  0.16426429855E+03  0.00000000000E+00 0.  1.
         -1    1    6    6    0  502 -0.58609952304E+02 -0.73281793745E+02  0.17454684343E+03  0.19817151247E+03  0.00000000000E+00 0.  1.
<mgrwt>
<rscale>  0 0.13658522E+04</rscale>
<asrwt>0</asrwt>
<pdfrwt beam="1">  1        1 0.16125876E+00 0.13658522E+04</pdfrwt>
<pdfrwt beam="2">  1       -1 0.68453770E-01 0.13658522E+04</pdfrwt>
<totfact> 0.29321733E+01</totfact>
</mgrwt>
</event>
<event>
12    1  0.2433511E-007  0.1710091E+04  0.7818608E-02  0.8755630E-01
         -1   -1    0    0    0  501 -0.00000000000E+00  0.00000000000E+00  0.64509051295E+03  0.64509051295E+03  0.00000000000E+00 0.  1.
          1   -1    0    0  501    0  0.00000000000E+00 -0.00000000000E+00 -0.11333341084E+04  0.11333341084E+04  0.00000000000E+00 0. -1.
         23    2    1    2    0    0 -0.48895670086E+03 -0.11784065485E+03 -0.55716952286E+03  0.75653053788E+03  0.94527785765E+02 0.  0.
        254    2    1    2    0    0  0.48895670086E+03  0.11784065485E+03  0.68925927386E+02  0.10218940835E+04  0.88687747699E+03 0.  0.
        -24    2    4    4    0    0  0.64895651051E+03 -0.12936741861E+03  0.19076999349E+03  0.69329217779E+03  0.79877229765E+02 0.  0.
         24    2    4    4    0    0 -0.15999980966E+03  0.24720807346E+03 -0.12184406610E+03  0.32860190572E+03  0.80134045958E+02 0.  0.
         11    1    3    3    0    0 -0.16757873389E+03 -0.86122708971E+02 -0.22000239962E+03  0.28965636346E+03  0.00000000000E+00 0. -1.
        -11    1    3    3    0    0 -0.32137796697E+03 -0.31717945881E+02 -0.33716712325E+03  0.46687417442E+03  0.00000000000E+00 0.  1.
          4    1    6    6  502    0 -0.75954999349E+02  0.18270455912E+03 -0.94012689748E+02  0.21906278480E+03  0.00000000000E+00 0. -1.
          3    1    5    5  503    0  0.36669601294E+03 -0.11277033233E+03  0.10288907253E+03  0.39720180639E+03  0.00000000000E+00 0. -1.
         -4    1    5    5    0  503  0.28226049758E+03 -0.16597086285E+02  0.87880920956E+02  0.29609037140E+03  0.00000000000E+00 0.  1.
         -3    1    6    6    0  502 -0.84044810307E+02  0.64503514343E+02 -0.27831376352E+02  0.10953912092E+03  0.00000000000E+00 0.  1.
<mgrwt>
<rscale>  0 0.17100913E+04</rscale>
<asrwt>0</asrwt>
<pdfrwt beam="1">  1        1 0.17435909E+00 0.17100913E+04</pdfrwt>
<pdfrwt beam="2">  1       -1 0.99244695E-01 0.17100913E+04</pdfrwt>
<totfact> 0.11038413E+01</totfact>
</mgrwt>
</event>
<event>
12    1  0.2433511E-007  0.3317640E+04  0.7818608E-02  0.8158421E-01
         -2   -1    0    0    0  501 -0.00000000000E+00  0.00000000000E+00  0.11781710688E+04  0.11781710688E+04  0.00000000000E+00 0.  1.
          2   -1    0    0  501    0  0.00000000000E+00 -0.00000000000E+00 -0.23355560526E+04  0.23355560526E+04  0.00000000000E+00 0. -1.
         23    2    1    2    0    0 -0.13358228138E+04  0.60023484543E+02  0.26292455638E+03  0.13655924958E+04  0.87682002966E+02 0.  0.
        254    2    1    2    0    0  0.13358228138E+04 -0.60023484543E+02 -0.14203095402E+04  0.21481346256E+04  0.89954309033E+03 0.  0.
        -24    2    4    4    0    0  0.74155365656E+03 -0.42425743909E+03 -0.10460317709E+04  0.13530560191E+04  0.81743041791E+02 0.  0.
         24    2    4    4    0    0  0.59426915721E+03  0.36423395455E+03 -0.37427776928E+03  0.79507860652E+03  0.79018587205E+02 0.  0.
         13    1    3    3    0    0 -0.36536365583E+03  0.55577757113E+02  0.70625533584E+02  0.37625450706E+03  0.00000000000E+00 0. -1.
        -13    1    3    3    0    0 -0.97045915794E+03  0.44457274306E+01  0.19229902280E+03  0.98933798870E+03  0.00000000000E+00 0.  1.
          2    1    6    6  502    0  0.44914045646E+02  0.50749152179E+02 -0.22957556579E+02  0.71552759187E+02  0.00000000000E+00 0. -1.
          1    1    5    5  503    0  0.10238057905E+03 -0.44151503676E+02 -0.10036094671E+03  0.15001152579E+03  0.00000000000E+00 0. -1.
         -2    1    5    5    0  503  0.63917307751E+03 -0.38010593542E+03 -0.94567082416E+03  0.12030444933E+04  0.00000000000E+00 0.  1.
         -1    1    6    6    0  502  0.54935511156E+03  0.31348480237E+03 -0.35132021270E+03  0.72352584734E+03  0.00000000000E+00 0.  1.
<mgrwt>
<rscale>  0 0.33176405E+04</rscale>
<asrwt>0</asrwt>
<pdfrwt beam="1">  1        2 0.35931631E+00 0.33176405E+04</pdfrwt>
<pdfrwt beam="2">  1       -2 0.18125709E+00 0.33176405E+04</pdfrwt>
<totfact> 0.64144493E-01</totfact>
</mgrwt>
</event>
<event>
12    1  0.2433511E-007  0.1947978E+04  0.7818608E-02  0.8631336E-01
         -2   -1    0    0    0  501 -0.00000000000E+00  0.00000000000E+00  0.20830612543E+03  0.20830612543E+03  0.00000000000E+00 0. -1.
          2   -1    0    0  501    0  0.00000000000E+00 -0.00000000000E+00 -0.45541372694E+04  0.45541372694E+04  0.00000000000E+00 0.  1.
         23    2    1    2    0    0 -0.71643089275E+02 -0.74506515526E+03 -0.13749549427E+04  0.15680541313E+04  0.89654035854E+02 0.  0.
        254    2    1    2    0    0  0.71643089275E+02  0.74506515526E+03 -0.29708762012E+04  0.31943892636E+04  0.90430224288E+03 0.  0.
        -24    2    4    4    0    0 -0.40620294610E+03  0.39890630783E+03 -0.15920661387E+04  0.16925478232E+04  0.76918581160E+02 0.  0.
         24    2    4    4    0    0  0.47784603537E+03  0.34615884743E+03 -0.13788100626E+04  0.15018414404E+04  0.79042660837E+02 0.  0.
         13    1    3    3    0    0 -0.51828170376E+01 -0.38737865312E+03 -0.64352605832E+03  0.75114237679E+03  0.00000000000E+00 0. -1.
        -13    1    3    3    0    0 -0.66460272238E+02 -0.35768650214E+03 -0.73142888443E+03  0.81691175446E+03  0.00000000000E+00 0.  1.
          4    1    6    6  502    0  0.74166120597E+02  0.32507663218E+02 -0.14059297526E+03  0.16224594387E+03  0.00000000000E+00 0. -1.
          1    1    5    5  503    0 -0.35752130880E+03  0.38103313299E+03 -0.14584875314E+04  0.15492558258E+04  0.00000000000E+00 0. -1.
         -2    1    5    5    0  503 -0.48681637299E+02  0.17873174844E+02 -0.13357860727E+03  0.14329199737E+03  0.00000000000E+00 0.  1.
         -3    1    6    6    0  502  0.40367991477E+03  0.31365118421E+03 -0.12382170873E+04  0.13395954965E+04  0.00000000000E+00 0.  1.
<mgrwt>
<rscale>  0 0.19479781E+04</rscale>
<asrwt>0</asrwt>
<pdfrwt beam="1">  1        2 0.70063652E+00 0.19479781E+04</pdfrwt>
<pdfrwt beam="2">  1       -2 0.32047095E-01 0.19479781E+04</pdfrwt>
<totfact> 0.93682881E-01</totfact>
</mgrwt>
</event>
<event>
12    1  0.2433511E-007  0.1689714E+04  0.7818608E-02  0.8767253E-01
          2   -1    0    0  501    0  0.00000000000E+00  0.00000000000E+00  0.19012954862E+04  0.19012954862E+04  0.00000000000E+00 0. -1.
         -2   -1    0    0    0  501 -0.00000000000E+00 -0.00000000000E+00 -0.37541935871E+03  0.37541935871E+03  0.00000000000E+00 0.  1.
         23    2    1    2    0    0 -0.25430438378E+03  0.32820441795E+03  0.11349551662E+04  0.12118195382E+04  0.89411991273E+02 0.  0.
        254    2    1    2    0    0  0.25430438378E+03 -0.32820441795E+03  0.39092096130E+03  0.10648953068E+04  0.89932972643E+03 0.  0.
        -24    2    4    4    0    0  0.17681102620E+03  0.28605992759E+03  0.38337388669E+02  0.34793649521E+03  0.80607866671E+02 0.  0.
         24    2    4    4    0    0  0.77493357582E+02 -0.61426434554E+03  0.35258357263E+03  0.71695881157E+03  0.79930314205E+02 0.  0.
         13    1    3    3    0    0 -0.71904702125E+02  0.14356697145E+03  0.35009821841E+03  0.38516298370E+03  0.00000000000E+00 0.  1.
        -13    1    3    3    0    0 -0.18239968165E+03  0.18463744650E+03  0.78485694781E+03  0.82665655447E+03  0.00000000000E+00 0. -1.
          4    1    6    6  502    0  0.34326973672E+02 -0.11015090184E+03  0.93608316791E+02  0.14857348105E+03  0.00000000000E+00 0. -1.
          1    1    5    5  503    0  0.15216242751E+03  0.21393922182E+03 -0.19641133282E+00  0.26253272854E+03  0.00000000000E+00 0. -1.
         -2    1    5    5    0  503  0.24648598689E+02  0.72120705766E+02  0.38533800002E+02  0.85403766662E+02  0.00000000000E+00 0.  1.
         -3    1    6    6    0  502  0.43166383910E+02 -0.50411344370E+03  0.25897525584E+03  0.56838533052E+03  0.00000000000E+00 0.  1.
<mgrwt>
<rscale>  0 0.16897137E+04</rscale>
<asrwt>0</asrwt>
<pdfrwt beam="1">  1        2 0.29250699E+00 0.16897137E+04</pdfrwt>
<pdfrwt beam="2">  1       -2 0.57756825E-01 0.16897137E+04</pdfrwt>
<totfact> 0.20262197E+01</totfact>
</mgrwt>
</event>
<event>
12    1  0.2433511E-007  0.2631163E+04  0.7818608E-02  0.8357692E-01
          2   -1    0    0  501    0  0.00000000000E+00  0.00000000000E+00  0.10511282674E+04  0.10511282674E+04  0.00000000000E+00 0. -1.
         -2   -1    0    0    0  501 -0.00000000000E+00 -0.00000000000E+00 -0.16465680310E+04  0.16465680310E+04  0.00000000000E+00 0.  1.
         23    2    1    2    0    0  0.84879249980E+03  0.73950143452E+03  0.20077392969E+02  0.11296040812E+04  0.91056022355E+02 0.  0.
        254    2    1    2    0    0 -0.84879249980E+03 -0.73950143452E+03 -0.61551715655E+03  0.15680922171E+04  0.90152135420E+03 0.  0.
        -24    2    4    4    0    0 -0.96232169309E+03 -0.73549004532E+03 -0.34149357253E+03  0.12609723238E+04  0.80154186409E+02 0.  0.
         24    2    4    4    0    0  0.11352919330E+03 -0.40113892010E+01 -0.27402358402E+03  0.30711989332E+03  0.79553348763E+02 0.  0.
         13    1    3    3    0    0  0.40659288548E+03  0.41433360429E+03  0.60523559015E+01  0.58054004269E+03  0.00000000000E+00 0.  1.
        -13    1    3    3    0    0  0.44219961432E+03  0.32516783024E+03  0.14025037067E+02  0.54906403852E+03  0.00000000000E+00 0. -1.
          4    1    6    6  502    0  0.10658379364E+03 -0.83379020784E+01 -0.27812631125E+03  0.29796622407E+03  0.00000000000E+00 0. -1.
          3    1    5    5  503    0 -0.31105179980E+03 -0.22326240369E+03 -0.71341788655E+02  0.38947268693E+03  0.00000000000E+00 0. -1.
         -4    1    5    5    0  503 -0.65126989330E+03 -0.51222764163E+03 -0.27015178387E+03  0.87149963689E+03  0.00000000000E+00 0.  1.
         -3    1    6    6    0  502  0.69453996530E+01  0.43265128774E+01  0.41027272275E+01  0.91536692491E+01  0.00000000000E+00 0.  1.
<mgrwt>
<rscale>  0 0.26311626E+04</rscale>
<asrwt>0</asrwt>
<pdfrwt beam="1">  1        2 0.16171204E+00 0.26311626E+04</pdfrwt>
<pdfrwt beam="2">  1       -2 0.25331816E+00 0.26311626E+04</pdfrwt>
<totfact> 0.12641191E+00</totfact>
</mgrwt>
</event>
<event>
12    1  0.2433511E-007  0.1498880E+04  0.7818608E-02  0.8885198E-01
         -2   -1    0    0    0  501 -0.00000000000E+00  0.00000000000E+00  0.24099275459E+03  0.24099275459E+03  0.00000000000E+00 0.  1.
          2   -1    0    0  501    0  0.00000000000E+00 -0.00000000000E+00 -0.23306109881E+04  0.23306109881E+04  0.00000000000E+00 0. -1.
         23    2    1    2    0    0 -0.33792961093E+03 -0.24551579948E+03 -0.10485326526E+04  0.11323616238E+04  0.91365713550E+02 0.  0.
        254    2    1    2    0    0  0.33792961093E+03  0.24551579948E+03 -0.10410855809E+04  0.14392421190E+04  0.90171185002E+03 0.  0.
        -24    2    4    4    0    0 -0.43235565980E+02  0.31410269552E+03 -0.98764839425E+03  0.10403721204E+04  0.79968623834E+02 0.  0.
         24    2    4    4    0    0  0.38116517691E+03 -0.68586896041E+02 -0.53437186669E+02  0.39886999854E+03  0.79061295342E+02 0.  0.
         13    1    3    3    0    0 -0.24424600402E+03 -0.12735985720E+03 -0.71934093381E+03  0.77027788671E+03  0.00000000000E+00 0. -1.
        -13    1    3    3    0    0 -0.93683606906E+02 -0.11815594227E+03 -0.32919171884E+03  0.36208373707E+03  0.00000000000E+00 0.  1.
          2    1    6    6  502    0  0.27724193610E+03 -0.71970663915E+02 -0.11228745670E+02  0.28665127302E+03  0.00000000000E+00 0. -1.
          1    1    5    5  503    0  0.20002962664E+02  0.95477023924E+02 -0.24777978166E+03  0.26629081999E+03  0.00000000000E+00 0. -1.
         -2    1    5    5    0  503 -0.63238528644E+02  0.21862567159E+03 -0.73986861259E+03  0.77408130043E+03  0.00000000000E+00 0.  1.
         -1    1    6    6    0  502  0.10392324081E+03  0.33837678743E+01 -0.42208441000E+02  0.11221872552E+03  0.00000000000E+00 0.  1.
<mgrwt>
<rscale>  0 0.14988801E+04</rscale>
<asrwt>0</asrwt>
<pdfrwt beam="1">  1        2 0.35855554E+00 0.14988801E+04</pdfrwt>
<pdfrwt beam="2">  1       -2 0.37075808E-01 0.14988801E+04</pdfrwt>
<totfact> 0.28906851E+01</totfact>
</mgrwt>
</event>
<event>
12    1  0.2433511E-007  0.1505879E+04  0.7818608E-02  0.8880553E-01
          2   -1    0    0  501    0  0.00000000000E+00  0.00000000000E+00  0.32233820699E+04  0.32233820699E+04  0.00000000000E+00 0. -1.
         -2   -1    0    0    0  501 -0.00000000000E+00 -0.00000000000E+00 -0.17587663228E+03  0.17587663228E+03  0.00000000000E+00 0.  1.
         23    2    1    2    0    0 -0.45352607498E+03  0.11552691369E+03  0.88172390055E+03  0.10026067723E+04  0.93546430652E+02 0.  0.
        254    2    1    2    0    0  0.45352607498E+03 -0.11552691369E+03  0.21657815371E+04  0.23966519299E+04  0.91339938583E+03 0.  0.
        -24    2    4    4    0    0 -0.14918426048E+03  0.25259949615E+03  0.82395072825E+03  0.87820920536E+03  0.79335721918E+02 0.  0.
         24    2    4    4    0    0  0.60271033546E+03 -0.36812640984E+03  0.13418308088E+04  0.15184427245E+04  0.79884829231E+02 0.  0.
         13    1    3    3    0    0 -0.21140799488E+03  0.82060919863E+02  0.34512464983E+03  0.41296290244E+03  0.00000000000E+00 0.  1.
        -13    1    3    3    0    0 -0.24211808009E+03  0.33465993828E+02  0.53659925071E+03  0.58964386990E+03  0.00000000000E+00 0. -1.
          2    1    6    6  502    0  0.11397899843E+03 -0.54569625328E+02  0.18475106534E+03  0.22383478782E+03  0.00000000000E+00 0. -1.
          3    1    5    5  503    0 -0.56084122947E+02  0.45124409798E+02  0.26919447397E+03  0.27865266197E+03  0.00000000000E+00 0. -1.
         -4    1    5    5    0  503 -0.93100137533E+02  0.20747508635E+03  0.55475625428E+03  0.59955654339E+03  0.00000000000E+00 0.  1.
         -1    1    6    6    0  502  0.48873133702E+03 -0.31355678451E+03  0.11570797435E+04  0.12946079367E+04  0.00000000000E+00 0.  1.
<mgrwt>
<rscale>  0 0.15058786E+04</rscale>
<asrwt>0</asrwt>
<pdfrwt beam="1">  1        2 0.49590489E+00 0.15058786E+04</pdfrwt>
<pdfrwt beam="2">  1       -2 0.27057946E-01 0.15058786E+04</pdfrwt>
<totfact> 0.15161589E+01</totfact>
</mgrwt>
</event>
<event>
12    1  0.2433511E-007  0.1619028E+04  0.7818608E-02  0.8808943E-01
          1   -1    0    0  501    0  0.00000000000E+00  0.00000000000E+00  0.18214934776E+04  0.18214934776E+04  0.00000000000E+00 0. -1.
         -1   -1    0    0    0  501 -0.00000000000E+00 -0.00000000000E+00 -0.35976683541E+03  0.35976683541E+03  0.00000000000E+00 0.  1.
         23    2    1    2    0    0  0.10838233627E+03 -0.42960666472E+03  0.95520311164E+03  0.10568192583E+04  0.90251553769E+02 0.  0.
        254    2    1    2    0    0 -0.10838233627E+03  0.42960666472E+03  0.50652353054E+03  0.11244410547E+04  0.90082905226E+03 0.  0.
        -24    2    4    4    0    0  0.10456095497E+02 -0.25295346186E+03  0.29209215132E+03  0.39515056855E+03  0.82044885007E+02 0.  0.
         24    2    4    4    0    0 -0.11883843177E+03  0.68256012658E+03  0.21443137921E+03  0.72929048619E+03  0.76634832734E+02 0.  0.
         11    1    3    3    0    0 -0.90547795039E+01 -0.11072805865E+03  0.20278860809E+03  0.23122696983E+03  0.00000000000E+00 0.  1.
        -11    1    3    3    0    0  0.11743711578E+03 -0.31887860607E+03  0.75241450355E+03  0.82559228843E+03  0.00000000000E+00 0. -1.
          4    1    6    6  502    0 -0.10343627055E+03  0.44209412938E+03  0.16657482433E+03  0.48362532336E+03  0.00000000000E+00 0. -1.
          1    1    5    5  503    0  0.43316231541E+02 -0.13411084956E+03  0.13215426114E+03  0.19320135771E+03  0.00000000000E+00 0. -1.
         -2    1    5    5    0  503 -0.32860136045E+02 -0.11884261231E+03  0.15993789018E+03  0.20194921083E+03  0.00000000000E+00 0.  1.
         -1    1    6    6    0  502 -0.15402161222E+02  0.24046599720E+03  0.47856554882E+02  0.24566516282E+03  0.00000000000E+00 0.  1.
<mgrwt>
<rscale>  0 0.16190280E+04</rscale>
<asrwt>0</asrwt>
<pdfrwt beam="1">  1        1 0.28022976E+00 0.16190280E+04</pdfrwt>
<pdfrwt beam="2">  1       -1 0.55348745E-01 0.16190280E+04</pdfrwt>
<totfact> 0.12456408E+01</totfact>
</mgrwt>
</event>
<event>
12    1  0.2433511E-007  0.1463117E+04  0.7818608E-02  0.8909357E-01
         -1   -1    0    0    0  501 -0.00000000000E+00  0.00000000000E+00  0.20615479727E+03  0.20615479727E+03  0.00000000000E+00 0.  1.
          1   -1    0    0  501    0  0.00000000000E+00 -0.00000000000E+00 -0.25960016735E+04  0.25960016735E+04  0.00000000000E+00 0. -1.
         23    2    1    2    0    0  0.30609969789E+02  0.22352387624E+03 -0.14975977982E+04  0.15176407268E+04  0.97643825931E+02 0.  0.
        254    2    1    2    0    0 -0.30609969789E+02 -0.22352387624E+03 -0.89224907793E+03  0.12845157439E+04  0.89608726465E+03 0.  0.
        -24    2    4    4    0    0 -0.16406415147E+02 -0.20848273135E+03  0.12978751743E+03  0.25856502482E+03  0.79226590556E+02 0.  0.
         24    2    4    4    0    0 -0.14203554642E+02 -0.15041144888E+02 -0.10220365954E+04  0.10259507191E+04  0.87109694106E+02 0.  0.
         13    1    3    3    0    0  0.63279992781E+02  0.10272400456E+03 -0.72087589365E+03  0.73090261503E+03  0.00000000000E+00 0.  1.
        -13    1    3    3    0    0 -0.32670022991E+02  0.12079987168E+03 -0.77672190459E+03  0.78673811175E+03  0.00000000000E+00 0. -1.
          4    1    6    6  502    0  0.28690972132E+01 -0.31036118783E+02 -0.94323208735E+03  0.94374691681E+03  0.00000000000E+00 0. -1.
          3    1    5    5  503    0 -0.57438038727E+01 -0.21006036050E+03  0.11294423786E+03  0.23856811858E+03  0.00000000000E+00 0. -1.
         -4    1    5    5    0  503 -0.10662611274E+02  0.15776291433E+01  0.16843279565E+02  0.19996906246E+02  0.00000000000E+00 0.  1.
         -3    1    6    6    0  502 -0.17072651856E+02  0.15994973894E+02 -0.78804508009E+02  0.82203802308E+02  0.00000000000E+00 0.  1.
<mgrwt>
<rscale>  0 0.14631175E+04</rscale>
<asrwt>0</asrwt>
<pdfrwt beam="1">  1        1 0.39938490E+00 0.14631175E+04</pdfrwt>
<pdfrwt beam="2">  1       -1 0.31716121E-01 0.14631175E+04</pdfrwt>
<totfact> 0.10459161E+01</totfact>
</mgrwt>
</event>
<event>
12    1  0.2433511E-007  0.1832689E+04  0.7818608E-02  0.8689107E-01
          1   -1    0    0  501    0  0.00000000000E+00  0.00000000000E+00  0.12857869496E+04  0.12857869496E+04  0.00000000000E+00 0. -1.
         -1   -1    0    0    0  501 -0.00000000000E+00 -0.00000000000E+00 -0.65305291898E+03  0.65305291898E+03  0.00000000000E+00 0.  1.
         23    2    1    2    0    0  0.46499448538E+03  0.45090771794E+03 -0.14077743389E+02  0.65488704179E+03  0.95609691540E+02 0.  0.
        254    2    1    2    0    0 -0.46499448538E+03 -0.45090771794E+03  0.64681177405E+03  0.12839528268E+04  0.90035090323E+03 0.  0.
        -24    2    4    4    0    0  0.84367512042E+01 -0.60015461275E+03  0.37336888595E+03  0.71126107746E+03  0.78938313438E+02 0.  0.
         24    2    4    4    0    0 -0.47343123658E+03  0.14924689481E+03  0.27344288809E+03  0.57269174937E+03  0.82419993730E+02 0.  0.
         11    1    3    3    0    0  0.87775694843E+02  0.13946865805E+03  0.10267465857E+02  0.16511056913E+03  0.00000000000E+00 0. -1.
        -11    1    3    3    0    0  0.37721879054E+03  0.31143905989E+03 -0.24345209247E+02  0.48977647266E+03  0.00000000000E+00 0.  1.
          2    1    6    6  502    0 -0.24573219680E+03  0.35048011786E+02  0.12603882537E+03  0.27838545431E+03  0.00000000000E+00 0. -1.
          3    1    5    5  503    0 -0.37731379786E+01 -0.11220980533E+03  0.35948753859E+02  0.11788803962E+03  0.00000000000E+00 0. -1.
         -4    1    5    5    0  503  0.12209889183E+02 -0.48794480742E+03  0.33742013209E+03  0.59337303783E+03  0.00000000000E+00 0.  1.
         -3    1    6    6    0  502 -0.22769903979E+03  0.11419888302E+03  0.14740406273E+03  0.29430629506E+03  0.00000000000E+00 0.  1.
<mgrwt>
<rscale>  0 0.18326886E+04</rscale>
<asrwt>0</asrwt>
<pdfrwt beam="1">  1        1 0.19781338E+00 0.18326886E+04</pdfrwt>
<pdfrwt beam="2">  1       -1 0.10046968E+00 0.18326886E+04</pdfrwt>
<totfact> 0.82169325E+00</totfact>
</mgrwt>
</event>
<event>
12    1  0.2433511E-007  0.2107663E+04  0.7818608E-02  0.8557875E-01
          2   -1    0    0  501    0  0.00000000000E+00  0.00000000000E+00  0.18703319541E+04  0.18703319541E+04  0.00000000000E+00 0. -1.
         -2   -1    0    0    0  501 -0.00000000000E+00 -0.00000000000E+00 -0.59377711340E+03  0.59377711340E+03  0.00000000000E+00 0.  1.
         23    2    1    2    0    0  0.49679142704E+03  0.86916470625E+02  0.13358108872E+04  0.14309957343E+04  0.94878186477E+02 0.  0.
        254    2    1    2    0    0 -0.49679142704E+03 -0.86916470625E+02 -0.59256046512E+02  0.10331133332E+04  0.89969755217E+03 0.  0.
        -24    2    4    4    0    0  0.16790599025E+03  0.40431741621E+02  0.22490957601E+03  0.29466525308E+03  0.80100853322E+02 0.  0.
         24    2    4    4    0    0 -0.66469741729E+03 -0.12734821225E+03 -0.28416562252E+03  0.73844808013E+03  0.80717050957E+02 0.  0.
         13    1    3    3    0    0  0.20709726734E+03  0.93158848867E+01  0.44175502005E+03  0.48797905855E+03  0.00000000000E+00 0. -1.
        -13    1    3    3    0    0  0.28969415969E+03  0.77600585739E+02  0.89405586717E+03  0.94301667572E+03  0.00000000000E+00 0.  1.
          4    1    6    6  502    0 -0.22003170043E+03 -0.74296172802E+02 -0.12067713434E+03  0.26171901199E+03  0.00000000000E+00 0. -1.
          3    1    5    5  503    0  0.14555862806E+03  0.61739345395E+02  0.17385137746E+03  0.23499651576E+03  0.00000000000E+00 0. -1.
         -2    1    5    5    0  503  0.22347362190E+02 -0.21307603775E+02  0.51058198545E+02  0.59668737326E+02  0.00000000000E+00 0.  1.
         -3    1    6    6    0  502 -0.44466571686E+03 -0.53052039444E+02 -0.16348848818E+03  0.47672906814E+03  0.00000000000E+00 0.  1.
<mgrwt>
<rscale>  0 0.21076625E+04</rscale>
<asrwt>0</asrwt>
<pdfrwt beam="1">  1        2 0.28774337E+00 0.21076625E+04</pdfrwt>
<pdfrwt beam="2">  1       -2 0.91350326E-01 0.21076625E+04</pdfrwt>
<totfact> 0.74159742E+00</totfact>
</mgrwt>
</event>
<event>
12    1  0.2433511E-007  0.1601857E+04  0.7818608E-02  0.8819408E-01
          2   -1    0    0  501    0  0.00000000000E+00  0.00000000000E+00  0.17459960682E+04  0.17459960682E+04  0.00000000000E+00 0. -1.
         -2   -1    0    0    0  501 -0.00000000000E+00 -0.00000000000E+00 -0.36740441247E+03  0.36740441247E+03  0.00000000000E+00 0.  1.
         23    2    1    2    0    0  0.31840274957E+03  0.41547055625E+03  0.69541546744E+03  0.87528483281E+03  0.92329692675E+02 0.  0.
        254    2    1    2    0    0 -0.31840274957E+03 -0.41547055625E+03  0.68317618835E+03  0.12381156479E+04  0.89005873920E+03 0.  0.
        -24    2    4    4    0    0  0.25926826308E+03 -0.12596584062E+03  0.46235572810E+03  0.55085351535E+03  0.81113197576E+02 0.  0.
         24    2    4    4    0    0 -0.57767101266E+03 -0.28950471563E+03  0.22082046024E+03  0.68726213255E+03  0.77786785140E+02 0.  0.
         11    1    3    3    0    0  0.12582191904E+03  0.15805992908E+03  0.19692346302E+03  0.28212221958E+03  0.00000000000E+00 0. -1.
        -11    1    3    3    0    0  0.19258083054E+03  0.25741062717E+03  0.49849200441E+03  0.59316261323E+03  0.00000000000E+00 0.  1.
          2    1    6    6  502    0 -0.40677173037E+03 -0.16727704319E+03  0.16610900609E+03  0.47014577708E+03  0.00000000000E+00 0. -1.
          3    1    5    5  503    0  0.23336056861E+03 -0.13635275255E+03  0.43230122858E+03  0.50983681737E+03  0.00000000000E+00 0. -1.
         -4    1    5    5    0  503  0.25907694471E+02  0.10386911926E+02  0.30054499523E+02  0.41016697987E+02  0.00000000000E+00 0.  1.
         -1    1    6    6    0  502 -0.17089928229E+03 -0.12222767244E+03  0.54711454150E+02  0.21711635547E+03  0.00000000000E+00 0.  1.
<mgrwt>
<rscale>  0 0.16018572E+04</rscale>
<asrwt>0</asrwt>
<pdfrwt beam="1">  1        2 0.26861477E+00 0.16018572E+04</pdfrwt>
<pdfrwt beam="2">  1       -2 0.56523757E-01 0.16018572E+04</pdfrwt>
<totfact> 0.26030107E+01</totfact>
</mgrwt>
</event>
<event>
12    1  0.2433511E-007  0.1291730E+04  0.7818608E-02  0.9036149E-01
         -1   -1    0    0    0  501 -0.00000000000E+00  0.00000000000E+00  0.22911767390E+03  0.22911767390E+03  0.00000000000E+00 0.  1.
          1   -1    0    0  501    0  0.00000000000E+00 -0.00000000000E+00 -0.18206434987E+04  0.18206434987E+04  0.00000000000E+00 0. -1.
         23    2    1    2    0    0 -0.10848431002E+03 -0.30261109639E+03 -0.39844466299E+03  0.52008260224E+03  0.91572061861E+02 0.  0.
        254    2    1    2    0    0  0.10848431002E+03  0.30261109639E+03 -0.11930811619E+04  0.15296785704E+04  0.90173807107E+03 0.  0.
        -24    2    4    4    0    0  0.31549200380E+03  0.74778504093E+02 -0.43391222137E+02  0.33677372019E+03  0.80041934732E+02 0.  0.
         24    2    4    4    0    0 -0.20700769378E+03  0.22783259229E+03 -0.11496899397E+04  0.11929048502E+04  0.80468309248E+02 0.  0.
         13    1    3    3    0    0 -0.92634537056E+01 -0.37939006446E+02 -0.11156203184E+02  0.40615768541E+02  0.00000000000E+00 0.  1.
        -13    1    3    3    0    0 -0.99220856311E+02 -0.26467208994E+03 -0.38728845980E+03  0.47946683370E+03  0.00000000000E+00 0. -1.
          4    1    6    6  502    0 -0.90878878423E+02  0.14783032612E+03 -0.72222917994E+03  0.74278379373E+03  0.00000000000E+00 0. -1.
          1    1    5    5  503    0  0.12954560947E+03  0.14500474625E+02  0.18671921681E+02  0.13168511441E+03  0.00000000000E+00 0. -1.
         -2    1    5    5    0  503  0.18594639433E+03  0.60278029468E+02 -0.62063143819E+02  0.20508860578E+03  0.00000000000E+00 0.  1.
         -3    1    6    6    0  502 -0.11612881536E+03  0.80002266174E+02 -0.42746075977E+03  0.45012105649E+03  0.00000000000E+00 0.  1.
<mgrwt>
<rscale>  0 0.12917300E+04</rscale>
<asrwt>0</asrwt>
<pdfrwt beam="1">  1        1 0.28009898E+00 0.12917300E+04</pdfrwt>
<pdfrwt beam="2">  1       -1 0.35248875E-01 0.12917300E+04</pdfrwt>
<totfact> 0.29728328E+01</totfact>
</mgrwt>
</event>
<event>
12    1  0.2433511E-007  0.2274777E+04  0.7818608E-02  0.8487933E-01
          1   -1    0    0  501    0  0.00000000000E+00  0.00000000000E+00  0.40752931489E+03  0.40752931489E+03  0.00000000000E+00 0. -1.
         -1   -1    0    0    0  501 -0.00000000000E+00 -0.00000000000E+00 -0.31743791161E+04  0.31743791161E+04  0.00000000000E+00 0.  1.
         23    2    1    2    0    0  0.89826561414E+03  0.27458041828E+03 -0.14510842869E+04  0.17309944285E+04  0.91763740756E+02 0.  0.
        254    2    1    2    0    0 -0.89826561414E+03 -0.27458041828E+03 -0.13157655143E+04  0.18509140025E+04  0.90131472660E+03 0.  0.
        -24    2    4    4    0    0  0.51604941899E+02 -0.30685883367E+03 -0.51268840474E+03  0.60413020574E+03  0.72790736320E+02 0.  0.
         24    2    4    4    0    0 -0.94987055604E+03  0.32278415393E+02 -0.80307710956E+03  0.12467837968E+04  0.79000143404E+02 0.  0.
         11    1    3    3    0    0  0.11910998750E+03  0.43091854899E+02 -0.14387785166E+03  0.19168967963E+03  0.00000000000E+00 0. -1.
        -11    1    3    3    0    0  0.77915562664E+03  0.23148856338E+03 -0.13072064353E+04  0.15393047489E+04  0.00000000000E+00 0.  1.
          2    1    6    6  502    0 -0.24536935035E+03 -0.25326712871E+02 -0.19747923973E+03  0.31598356065E+03  0.00000000000E+00 0. -1.
          1    1    5    5  503    0  0.68705304206E+00 -0.16473913555E+02 -0.53179748428E+01  0.17324627735E+02  0.00000000000E+00 0. -1.
         -2    1    5    5    0  503  0.50917888857E+02 -0.29038492012E+03 -0.50737042990E+03  0.58680557800E+03  0.00000000000E+00 0.  1.
         -1    1    6    6    0  502 -0.70450120568E+03  0.57605128264E+02 -0.60559786983E+03  0.93080023612E+03  0.00000000000E+00 0.  1.
<mgrwt>
<rscale>  0 0.22747770E+04</rscale>
<asrwt>0</asrwt>
<pdfrwt beam="1">  1        1 0.62696816E-01 0.22747770E+04</pdfrwt>
<pdfrwt beam="2">  1       -1 0.48836603E+00 0.22747770E+04</pdfrwt>
<totfact> 0.93855801E-02</totfact>
</mgrwt>
</event>
<event>
12    1  0.2433511E-007  0.1286823E+04  0.7818608E-02  0.9040080E-01
          2   -1    0    0  501    0  0.00000000000E+00  0.00000000000E+00  0.68430431027E+03  0.68430431027E+03  0.00000000000E+00 0. -1.
         -2   -1    0    0    0  501 -0.00000000000E+00 -0.00000000000E+00 -0.60496278971E+03  0.60496278971E+03  0.00000000000E+00 0.  1.
         23    2    1    2    0    0  0.29804978214E+03  0.10365846944E+03 -0.26832238006E+02  0.32967067409E+03  0.91564367726E+02 0.  0.
        254    2    1    2    0    0 -0.29804978214E+03 -0.10365846944E+03  0.10617375856E+03  0.95959642589E+03  0.89998537914E+03 0.  0.
        -24    2    4    4    0    0 -0.14624660699E+03 -0.33327298238E+03  0.40132650068E+03  0.54776293445E+03  0.80760890129E+02 0.  0.
         24    2    4    4    0    0 -0.15180317515E+03  0.22961451294E+03 -0.29515274212E+03  0.41183349144E+03  0.82003993517E+02 0.  0.
         11    1    3    3    0    0  0.12616908181E+03  0.17997895856E+02  0.26894968893E+02  0.13025321805E+03  0.00000000000E+00 0.  1.
        -11    1    3    3    0    0  0.17188070033E+03  0.85660573583E+02 -0.53727206899E+02  0.19941745604E+03  0.00000000000E+00 0. -1.
          4    1    6    6  502    0 -0.46787692511E+02  0.13988156312E+03 -0.13078216907E+03  0.19712918510E+03  0.00000000000E+00 0. -1.
          1    1    5    5  503    0 -0.12834906935E+03 -0.24180836303E+03  0.25407425538E+03  0.37349497357E+03  0.00000000000E+00 0. -1.
         -2    1    5    5    0  503 -0.17897537644E+02 -0.91464619354E+02  0.14725224529E+03  0.17426796089E+03  0.00000000000E+00 0.  1.
         -3    1    6    6    0  502 -0.10501548264E+03  0.89732949825E+02 -0.16437057304E+03  0.21470430634E+03  0.00000000000E+00 0.  1.
<mgrwt>
<rscale>  0 0.12868234E+04</rscale>
<asrwt>0</asrwt>
<pdfrwt beam="1">  1        2 0.10527759E+00 0.12868234E+04</pdfrwt>
<pdfrwt beam="2">  1       -2 0.93071198E-01 0.12868234E+04</pdfrwt>
<totfact> 0.40457866E+01</totfact>
</mgrwt>
</event>
<event>
12    1  0.2433511E-007  0.1115825E+04  0.7818608E-02  0.9189903E-01
         -2   -1    0    0    0  501 -0.00000000000E+00  0.00000000000E+00  0.38918473477E+03  0.38918473477E+03  0.00000000000E+00 0.  1.
          2   -1    0    0  501    0  0.00000000000E+00 -0.00000000000E+00 -0.79979124908E+03  0.79979124908E+03  0.00000000000E+00 0. -1.
         23    2    1    2    0    0 -0.14572632576E+03  0.11651837198E+02  0.33423275483E+02  0.17438125472E+03  0.88993142023E+02 0.  0.
        254    2    1    2    0    0  0.14572632576E+03 -0.11651837198E+02 -0.44402978979E+03  0.10145947291E+04  0.90048213909E+03 0.  0.
        -24    2    4    4    0    0 -0.15501058610E+03 -0.31827168806E+03 -0.44894329756E+03  0.57712218961E+03  0.78706976138E+02 0.  0.
         24    2    4    4    0    0  0.30073691186E+03  0.30661985086E+03  0.49135077680E+01  0.43747253952E+03  0.83064175038E+02 0.  0.
         13    1    3    3    0    0 -0.10263665967E+03  0.18418161021E+02  0.62862074857E+02  0.12175858499E+03  0.00000000000E+00 0.  1.
        -13    1    3    3    0    0 -0.43089666089E+02 -0.67663238228E+01 -0.29438799373E+02  0.52622669737E+02  0.00000000000E+00 0. -1.
          4    1    6    6  502    0  0.15591689081E+03  0.15887550585E+03  0.44051257879E+02  0.22691852397E+03  0.00000000000E+00 0. -1.
          1    1    5    5  503    0 -0.23279863111E+02 -0.12558818171E+03 -0.18457761071E+03  0.22446210768E+03  0.00000000000E+00 0. -1.
         -2    1    5    5    0  503 -0.13173072299E+03 -0.19268350635E+03 -0.26436568686E+03  0.35266008193E+03  0.00000000000E+00 0.  1.
         -3    1    6    6    0  502  0.14482002105E+03  0.14774434501E+03 -0.39137750111E+02  0.21055401555E+03  0.00000000000E+00 0.  1.
<mgrwt>
<rscale>  0 0.11158253E+04</rscale>
<asrwt>0</asrwt>
<pdfrwt beam="1">  1        2 0.12304481E+00 0.11158253E+04</pdfrwt>
<pdfrwt beam="2">  1       -2 0.59874575E-01 0.11158253E+04</pdfrwt>
<totfact> 0.88947496E+01</totfact>
</mgrwt>
</event>
<event>
12    1  0.2433511E-007  0.1353159E+04  0.7818608E-02  0.8988440E-01
         -1   -1    0    0    0  501 -0.00000000000E+00  0.00000000000E+00  0.36190518646E+03  0.36190518646E+03  0.00000000000E+00 0.  1.
          1   -1    0    0  501    0  0.00000000000E+00 -0.00000000000E+00 -0.12648614335E+04  0.12648614335E+04  0.00000000000E+00 0. -1.
         23    2    1    2    0    0 -0.26411058537E+03  0.10202952173E+03 -0.53958853905E+03  0.61733887276E+03  0.98929610022E+02 0.  0.
        254    2    1    2    0    0  0.26411058537E+03 -0.10202952173E+03 -0.36336770798E+03  0.10094277472E+04  0.89818921225E+03 0.  0.
        -24    2    4    4    0    0 -0.13647234286E+03  0.63874111260E+02 -0.51535569926E+03  0.54298069746E+03  0.80820409531E+02 0.  0.
         24    2    4    4    0    0  0.40058292823E+03 -0.16590363299E+03  0.15198799128E+03  0.46644704974E+03  0.80509644698E+02 0.  0.
         11    1    3    3    0    0 -0.10110806838E+03  0.63649984157E+01 -0.11931518269E+03  0.15652305746E+03  0.00000000000E+00 0.  1.
        -11    1    3    3    0    0 -0.16300251699E+03  0.95664523310E+02 -0.42027335635E+03  0.46081581529E+03  0.00000000000E+00 0. -1.
          4    1    6    6  502    0  0.30815894979E+03 -0.11901365016E+03  0.78913992385E+02  0.33963746179E+03  0.00000000000E+00 0. -1.
          3    1    5    5  503    0 -0.40974769452E+02  0.54013454174E+02 -0.14014702434E+03  0.15568421049E+03  0.00000000000E+00 0. -1.
         -4    1    5    5    0  503 -0.95497573412E+02  0.98606570864E+01 -0.37520867492E+03  0.38729648697E+03  0.00000000000E+00 0.  1.
         -3    1    6    6    0  502  0.92423978442E+02 -0.46889982823E+02  0.73073998897E+02  0.12680958795E+03  0.00000000000E+00 0.  1.
<mgrwt>
<rscale>  0 0.13531591E+04</rscale>
<asrwt>0</asrwt>
<pdfrwt beam="1">  1        1 0.19459406E+00 0.13531591E+04</pdfrwt>
<pdfrwt beam="2">  1       -1 0.55677721E-01 0.13531591E+04</pdfrwt>
<totfact> 0.30603430E+01</totfact>
</mgrwt>
</event>
<event>
12    1  0.2433511E-007  0.1661762E+04  0.7818608E-02  0.8783479E-01
          1   -1    0    0  501    0  0.00000000000E+00  0.00000000000E+00  0.12543521299E+04  0.12543521299E+04  0.00000000000E+00 0. -1.
         -1   -1    0    0    0  501 -0.00000000000E+00 -0.00000000000E+00 -0.55037414220E+03  0.55037414220E+03  0.00000000000E+00 0.  1.
         23    2    1    2    0    0  0.19939615460E+03 -0.41968293261E+03  0.63062911792E+03  0.78881314113E+03  0.92954272971E+02 0.  0.
        254    2    1    2    0    0 -0.19939615460E+03  0.41968293261E+03  0.73348869826E+02  0.10159131310E+04  0.90044813436E+03 0.  0.
        -24    2    4    4    0    0  0.30280679966E+03  0.10228161979E+03 -0.16907211768E+03  0.36936136600E+03  0.75425128778E+02 0.  0.
         24    2    4    4    0    0 -0.50220295426E+03  0.31740131282E+03  0.24242098751E+03  0.64655176501E+03  0.79434558071E+02 0.  0.
         13    1    3    3    0    0  0.13486649019E+03 -0.17762081597E+03  0.28272129582E+03  0.36009645313E+03  0.00000000000E+00 0.  1.
        -13    1    3    3    0    0  0.64529664411E+02 -0.24206211663E+03  0.34790782209E+03  0.42871668800E+03  0.00000000000E+00 0. -1.
          2    1    6    6  502    0 -0.30891478197E+02  0.57472078260E+01  0.28365935157E+02  0.42331313472E+02  0.00000000000E+00 0. -1.
          1    1    5    5  503    0  0.61969237669E+02  0.51683141478E+02 -0.57922866662E+02  0.99329713644E+02  0.00000000000E+00 0. -1.
         -2    1    5    5    0  503  0.24083756199E+03  0.50598478309E+02 -0.11114925102E+03  0.27003165236E+03  0.00000000000E+00 0.  1.
         -3    1    6    6    0  502 -0.47131147606E+03  0.31165410499E+03  0.21405505235E+03  0.60422045154E+03  0.00000000000E+00 0.  1.
<mgrwt>
<rscale>  0 0.16617617E+04</rscale>
<asrwt>0</asrwt>
<pdfrwt beam="1">  1        1 0.19297725E+00 0.16617617E+04</pdfrwt>
<pdfrwt beam="2">  1       -1 0.84672946E-01 0.16617617E+04</pdfrwt>
<totfact> 0.12859021E+01</totfact>
</mgrwt>
</event>
<event>
12    1  0.2433511E-007  0.2401901E+04  0.7818608E-02  0.8438792E-01
          2   -1    0    0  501    0  0.00000000000E+00  0.00000000000E+00  0.85385522165E+03  0.85385522165E+03  0.00000000000E+00 0. -1.
         -2   -1    0    0    0  501 -0.00000000000E+00 -0.00000000000E+00 -0.16891417289E+04  0.16891417289E+04  0.00000000000E+00 0.  1.
         23    2    1    2    0    0  0.92673901727E+03  0.32698781469E+03 -0.36520544945E+02  0.98928207407E+03  0.10760592360E+03 0.  0.
        254    2    1    2    0    0 -0.92673901727E+03 -0.32698781469E+03 -0.79876596229E+03  0.15537148765E+04  0.90013144471E+03 0.  0.
        -24    2    4    4    0    0 -0.65571636778E+03 -0.54841927340E+03 -0.82885686436E+03  0.11933961370E+04  0.80392684577E+02 0.  0.
         24    2    4    4    0    0 -0.27102264949E+03  0.22143145871E+03  0.30090902069E+02  0.36031873949E+03  0.80243156724E+02 0.  0.
         13    1    3    3    0    0  0.56691395670E+03  0.14705212990E+03 -0.43606718199E+01  0.58569170957E+03  0.00000000000E+00 0. -1.
        -13    1    3    3    0    0  0.35982506057E+03  0.17993568479E+03 -0.32159873125E+02  0.40359036450E+03  0.00000000000E+00 0.  1.
          4    1    6    6  502    0 -0.21272329433E+03  0.15025871650E+03  0.52380699887E+02  0.26565507628E+03  0.00000000000E+00 0. -1.
          3    1    5    5  503    0 -0.53507393199E+03 -0.41759053024E+03 -0.68780892074E+03  0.96631623969E+03  0.00000000000E+00 0. -1.
         -4    1    5    5    0  503 -0.12064243578E+03 -0.13082874316E+03 -0.14104794362E+03  0.22707989728E+03  0.00000000000E+00 0.  1.
         -3    1    6    6    0  502 -0.58299355159E+02  0.71172742209E+02 -0.22289797818E+02  0.94663663210E+02  0.00000000000E+00 0.  1.
<mgrwt>
<rscale>  0 0.24019013E+04</rscale>
<asrwt>0</asrwt>
<pdfrwt beam="1">  1        2 0.13136234E+00 0.24019013E+04</pdfrwt>
<pdfrwt beam="2">  1       -2 0.25986796E+00 0.24019013E+04</pdfrwt>
<totfact> 0.15850635E+00</totfact>
</mgrwt>
</event>
<event>
12    1  0.2433511E-007  0.1449885E+04  0.7818608E-02  0.8918480E-01
         -1   -1    0    0    0  501 -0.00000000000E+00  0.00000000000E+00  0.61388868973E+03  0.61388868973E+03  0.00000000000E+00 0.  1.
          1   -1    0    0  501    0  0.00000000000E+00 -0.00000000000E+00 -0.85608660656E+03  0.85608660656E+03  0.00000000000E+00 0. -1.
         23    2    1    2    0    0  0.23399715065E+03 -0.33725862812E+03  0.82861708165E+02  0.42809489040E+03  0.88888265550E+02 0.  0.
        254    2    1    2    0    0 -0.23399715065E+03  0.33725862812E+03 -0.32505962500E+03  0.10418804059E+04  0.90075133729E+03 0.  0.
        -24    2    4    4    0    0 -0.47073364460E+03  0.26392078429E+03 -0.49050460512E+03  0.73270097766E+03  0.70792728984E+02 0.  0.
         24    2    4    4    0    0  0.23673649395E+03  0.73337843827E+02  0.16544498012E+03  0.30917942824E+03  0.82445560770E+02 0.  0.
         13    1    3    3    0    0  0.15319406247E+03 -0.25507961999E+03  0.23546538281E+02  0.29847692168E+03  0.00000000000E+00 0. -1.
        -13    1    3    3    0    0  0.80803088176E+02 -0.82179008126E+02  0.59315169884E+02  0.12961796871E+03  0.00000000000E+00 0.  1.
          4    1    6    6  502    0  0.23563205628E+03  0.76342105744E+02  0.14198101194E+03  0.28549814501E+03  0.00000000000E+00 0. -1.
          1    1    5    5  503    0 -0.29916563643E+03  0.19938092832E+03 -0.29897202593E+03  0.46758646782E+03  0.00000000000E+00 0. -1.
         -2    1    5    5    0  503 -0.17156800817E+03  0.64539855972E+02 -0.19153257919E+03  0.26511450984E+03  0.00000000000E+00 0.  1.
         -3    1    6    6    0  502  0.11044376777E+01 -0.30042619162E+01  0.23463968185E+02  0.23681283226E+02  0.00000000000E+00 0.  1.
<mgrwt>
<rscale>  0 0.14498854E+04</rscale>
<asrwt>0</asrwt>
<pdfrwt beam="1">  1        1 0.13170563E+00 0.14498854E+04</pdfrwt>
<pdfrwt beam="2">  1       -1 0.94444414E-01 0.14498854E+04</pdfrwt>
<totfact> 0.20864087E+01</totfact>
</mgrwt>
</event>
<event>
12    1  0.2433511E-007  0.4499028E+04  0.7818608E-02  0.7910807E-01
          2   -1    0    0  501    0  0.00000000000E+00  0.00000000000E+00  0.20110984960E+04  0.20110984960E+04  0.00000000000E+00 0. -1.
         -2   -1    0    0    0  501 -0.00000000000E+00 -0.00000000000E+00 -0.25161935124E+04  0.25161935124E+04  0.00000000000E+00 0.  1.
         23    2    1    2    0    0 -0.13391829637E+04  0.16911202858E+04 -0.15450534535E+03  0.21645891118E+04  0.90968618532E+02 0.  0.
        254    2    1    2    0    0  0.13391829637E+04 -0.16911202858E+04 -0.35058967099E+03  0.23627028966E+04  0.89786025003E+03 0.  0.
        -24    2    4    4    0    0  0.87432302792E+03 -0.14819167701E+04 -0.55237428409E+03  0.18088861248E+04  0.80209676531E+02 0.  0.
         24    2    4    4    0    0  0.46485993581E+03 -0.20920351575E+03  0.20178461311E+03  0.55381677177E+03  0.78326979230E+02 0.  0.
         11    1    3    3    0    0 -0.93476019979E+03  0.12450006366E+04 -0.11891257228E+03  0.15613914999E+04  0.00000000000E+00 0. -1.
        -11    1    3    3    0    0 -0.40442276394E+03  0.44611964927E+03 -0.35592773073E+02  0.60319761186E+03  0.00000000000E+00 0.  1.
          2    1    6    6  502    0  0.29496320848E+02 -0.17937022136E+02  0.36863726648E+02  0.50504495335E+02  0.00000000000E+00 0. -1.
          1    1    5    5  503    0  0.21198570801E+03 -0.29589876578E+03 -0.11069087497E+03  0.38045563445E+03  0.00000000000E+00 0. -1.
         -2    1    5    5    0  503  0.66233731991E+03 -0.11860180043E+04 -0.44168340912E+03  0.14284304904E+04  0.00000000000E+00 0.  1.
         -1    1    6    6    0  502  0.43536361497E+03 -0.19126649362E+03  0.16492088646E+03  0.50331227643E+03  0.00000000000E+00 0.  1.
<mgrwt>
<rscale>  0 0.44990279E+04</rscale>
<asrwt>0</asrwt>
<pdfrwt beam="1">  1        2 0.30939977E+00 0.44990279E+04</pdfrwt>
<pdfrwt beam="2">  1       -2 0.38710669E+00 0.44990279E+04</pdfrwt>
<totfact> 0.44954016E-02</totfact>
</mgrwt>
</event>
<event>
12    1  0.2433511E-007  0.2475834E+04  0.7818608E-02  0.8411646E-01
          2   -1    0    0  501    0  0.00000000000E+00  0.00000000000E+00  0.27692391839E+04  0.27692391839E+04  0.00000000000E+00 0. -1.
         -2   -1    0    0    0  501 -0.00000000000E+00 -0.00000000000E+00 -0.55337878958E+03  0.55337878958E+03  0.00000000000E+00 0.  1.
         23    2    1    2    0    0  0.64990202462E+03 -0.83446941562E+03  0.12028238803E+04  0.16043246572E+04  0.91435612788E+02 0.  0.
        254    2    1    2    0    0 -0.64990202462E+03  0.83446941562E+03  0.10130365140E+04  0.17182933163E+04  0.89865293358E+03 0.  0.
        -24    2    4    4    0    0 -0.52989199456E+03  0.54000003708E+03  0.12415077566E+03  0.77070935446E+03  0.78701512138E+02 0.  0.
         24    2    4    4    0    0 -0.12001003006E+03  0.29446937854E+03  0.88888573836E+03  0.94758396188E+03  0.81748925009E+02 0.  0.
         11    1    3    3    0    0  0.54617216569E+03 -0.65256872652E+03  0.99565317858E+03  0.13097615162E+04  0.00000000000E+00 0. -1.
        -11    1    3    3    0    0  0.10372985893E+03 -0.18190068910E+03  0.20717070176E+03  0.29456314093E+03  0.00000000000E+00 0.  1.
          4    1    6    6  502    0 -0.11244458138E+03  0.18098815803E+03  0.53491703199E+03  0.57579226144E+03  0.00000000000E+00 0. -1.
          3    1    5    5  503    0 -0.14943058742E+03  0.19763052176E+03  0.21558683712E+02  0.24870082515E+03  0.00000000000E+00 0. -1.
         -4    1    5    5    0  503 -0.38046140713E+03  0.34236951533E+03  0.10259209194E+03  0.52200852931E+03  0.00000000000E+00 0.  1.
         -3    1    6    6    0  502 -0.75654486829E+01  0.11348122051E+03  0.35396870637E+03  0.37179170044E+03  0.00000000000E+00 0.  1.
<mgrwt>
<rscale>  0 0.24758338E+04</rscale>
<asrwt>0</asrwt>
<pdfrwt beam="1">  1        2 0.42603679E+00 0.24758338E+04</pdfrwt>
<pdfrwt beam="2">  1       -2 0.85135200E-01 0.24758338E+04</pdfrwt>
<totfact> 0.25893075E+00</totfact>
</mgrwt>
</event>
<event>
12    1  0.2433511E-007  0.2198458E+04  0.7818608E-02  0.8519070E-01
          2   -1    0    0  501    0  0.00000000000E+00  0.00000000000E+00  0.39579811736E+04  0.39579811736E+04  0.00000000000E+00 0. -1.
         -2   -1    0    0    0  501 -0.00000000000E+00 -0.00000000000E+00 -0.30528300840E+03  0.30528300840E+03  0.00000000000E+00 0.  1.
         23    2    1    2    0    0  0.72235403096E+03 -0.45993591880E+03  0.21344058108E+04  0.23013698086E+04  0.85313744072E+02 0.  0.
        254    2    1    2    0    0 -0.72235403096E+03  0.45993591880E+03  0.15182923544E+04  0.19618943735E+04  0.90026744017E+03 0.  0.
        -24    2    4    4    0    0 -0.68221545230E+03 -0.16057600034E+02  0.11989167556E+04  0.13819012719E+04  0.81080012804E+02 0.  0.
         24    2    4    4    0    0 -0.40138578656E+02  0.47599351884E+03  0.31937559879E+03  0.57999310160E+03  0.78805388980E+02 0.  0.
         13    1    3    3    0    0  0.32067139501E+03 -0.15902133058E+03  0.84119567688E+03  0.91418165261E+03  0.00000000000E+00 0.  1.
        -13    1    3    3    0    0  0.40168263594E+03 -0.30091458822E+03  0.12932101340E+04  0.13871881560E+04  0.00000000000E+00 0. -1.
          2    1    6    6  502    0 -0.18399024599E+00  0.17745036076E+03  0.77251067616E+02  0.19353653876E+03  0.00000000000E+00 0. -1.
          1    1    5    5  503    0 -0.60144528062E+03  0.91844438509E+01  0.10242972297E+04  0.11878575649E+04  0.00000000000E+00 0. -1.
         -2    1    5    5    0  503 -0.80770171679E+02 -0.25242043885E+02  0.17461952587E+03  0.19404370701E+03  0.00000000000E+00 0.  1.
         -1    1    6    6    0  502 -0.39954588410E+02  0.29854315808E+03  0.24212453118E+03  0.38645656285E+03  0.00000000000E+00 0.  1.
<mgrwt>
<rscale>  0 0.21984580E+04</rscale>
<asrwt>0</asrwt>
<pdfrwt beam="1">  1        2 0.60892014E+00 0.21984580E+04</pdfrwt>
<pdfrwt beam="2">  1       -2 0.46966620E-01 0.21984580E+04</pdfrwt>
<totfact> 0.14627632E+00</totfact>
</mgrwt>
</event>
<event>
12    1  0.2433511E-007  0.2133028E+04  0.7818608E-02  0.8546832E-01
         -2   -1    0    0    0  501 -0.00000000000E+00  0.00000000000E+00  0.51951574066E+03  0.51951574066E+03  0.00000000000E+00 0. -1.
          2   -1    0    0  501    0  0.00000000000E+00 -0.00000000000E+00 -0.21894465245E+04  0.21894465245E+04  0.00000000000E+00 0.  1.
         23    2    1    2    0    0  0.80565440876E+03 -0.33006860881E+03 -0.77642215518E+03  0.11699099122E+04  0.88507212667E+02 0.  0.
        254    2    1    2    0    0 -0.80565440876E+03  0.33006860881E+03 -0.89350862869E+03  0.15390523530E+04  0.90127696236E+03 0.  0.
        -24    2    4    4    0    0 -0.49538444183E+03  0.12780463274E+03  0.52861692458E+02  0.51939349747E+03  0.72356598360E+02 0.  0.
         24    2    4    4    0    0 -0.31026996693E+03  0.20226397607E+03 -0.94637032115E+03  0.10196588555E+04  0.83121769286E+02 0.  0.
         13    1    3    3    0    0  0.31166126322E+03 -0.17344762124E+03 -0.30334981379E+03  0.46822850173E+03  0.00000000000E+00 0. -1.
        -13    1    3    3    0    0  0.49399314554E+03 -0.15662098757E+03 -0.47307234138E+03  0.70168141045E+03  0.00000000000E+00 0.  1.
          2    1    6    6  502    0 -0.31043564860E+03  0.19994421798E+03 -0.94761838602E+03  0.10170194628E+04  0.00000000000E+00 0. -1.
          3    1    5    5  503    0 -0.34356079702E+03  0.56413590633E+02  0.48872710050E+02  0.35157510754E+03  0.00000000000E+00 0. -1.
         -4    1    5    5    0  503 -0.15182364481E+03  0.71391042103E+02  0.39889824080E+01  0.16781838993E+03  0.00000000000E+00 0.  1.
         -1    1    6    6    0  502  0.16568167372E+00  0.23197580974E+01  0.12480648661E+01  0.26393927251E+01  0.00000000000E+00 0.  1.
<mgrwt>
<rscale>  0 0.21330278E+04</rscale>
<asrwt>0</asrwt>
<pdfrwt beam="1">  1        2 0.33683793E+00 0.21330278E+04</pdfrwt>
<pdfrwt beam="2">  1       -2 0.79925499E-01 0.21330278E+04</pdfrwt>
<totfact> 0.66639859E+00</totfact>
</mgrwt>
</event>
<event>
12    1  0.2529760E-007  0.2658606E+04  0.7818608E-02  0.8348562E-01
          1   -1    0    0  501    0  0.00000000000E+00  0.00000000000E+00  0.10596424243E+04  0.10596424243E+04  0.00000000000E+00 0. -1.
         -1   -1    0    0    0  501 -0.00000000000E+00 -0.00000000000E+00 -0.16675874218E+04  0.16675874218E+04  0.00000000000E+00 0.  1.
         23    2    1    2    0    0 -0.95603329825E+03  0.63430565654E+03 -0.13522818290E+02  0.11509212830E+04  0.89964436329E+02 0.  0.
        254    2    1    2    0    0  0.95603329825E+03 -0.63430565654E+03 -0.59442217922E+03  0.15763085631E+04  0.90281095793E+03 0.  0.
        -24    2    4    4    0    0  0.68878908853E+03 -0.74152732485E+03 -0.12899410405E+03  0.10234182546E+04  0.80325979397E+02 0.  0.
         24    2    4    4    0    0  0.26724420972E+03  0.10722166830E+03 -0.46542807518E+03  0.55289030854E+03  0.78412029290E+02 0.  0.
         11    1    3    3    0    0 -0.29249534227E+03  0.17286451909E+03  0.33077082311E+02  0.34136455672E+03  0.00000000000E+00 0. -1.
        -11    1    3    3    0    0 -0.66353795598E+03  0.46144113745E+03 -0.46599900601E+02  0.80955672630E+03  0.00000000000E+00 0.  1.
          4    1    6    6  502    0  0.19645335416E+03  0.39989929226E+02 -0.32494119041E+03  0.38181133040E+03  0.00000000000E+00 0. -1.
          3    1    5    5  503    0  0.45099174159E+03 -0.47931661864E+03 -0.45368462019E+02  0.65969407246E+03  0.00000000000E+00 0. -1.
         -4    1    5    5    0  503  0.23779734694E+03 -0.26221070620E+03 -0.83625642027E+02  0.36372418213E+03  0.00000000000E+00 0.  1.
         -3    1    6    6    0  502  0.70790855565E+02  0.67231739077E+02 -0.14048688477E+03  0.17107897815E+03  0.00000000000E+00 0.  1.
<mgrwt>
<rscale>  0 0.26586059E+04</rscale>
<asrwt>0</asrwt>
<pdfrwt beam="1">  1        1 0.16302191E+00 0.26586059E+04</pdfrwt>
<pdfrwt beam="2">  1       -1 0.25655191E+00 0.26586059E+04</pdfrwt>
<totfact> 0.75325674E-01</totfact>
</mgrwt>
</event>
<event>
12    1  0.2433511E-007  0.1448590E+04  0.7818608E-02  0.8919379E-01
          1   -1    0    0  501    0  0.00000000000E+00  0.00000000000E+00  0.87086093079E+03  0.87086093079E+03  0.00000000000E+00 0. -1.
         -1   -1    0    0    0  501 -0.00000000000E+00 -0.00000000000E+00 -0.60239609914E+03  0.60239609914E+03  0.00000000000E+00 0.  1.
         23    2    1    2    0    0 -0.39159149929E+03 -0.18900664388E+03  0.50532404671E+02  0.44727377152E+03  0.91830762938E+02 0.  0.
        254    2    1    2    0    0  0.39159149929E+03  0.18900664388E+03  0.21793242698E+03  0.10259832584E+04  0.90337129136E+03 0.  0.
        -24    2    4    4    0    0  0.63962226264E+03 -0.53005987265E+02  0.15254616680E+03  0.66451007483E+03  0.79856327241E+02 0.  0.
         24    2    4    4    0    0 -0.24803076334E+03  0.24201263114E+03  0.65386260176E+02  0.36147318358E+03  0.79360734801E+02 0.  0.
         11    1    3    3    0    0 -0.21520210202E+03 -0.74792281977E+02  0.64170702036E+02  0.23669328076E+03  0.00000000000E+00 0. -1.
        -11    1    3    3    0    0 -0.17638939727E+03 -0.11421436190E+03 -0.13638297365E+02  0.21058049076E+03  0.00000000000E+00 0.  1.
          2    1    6    6  502    0 -0.99861523702E+02  0.73493381223E+02  0.58183430109E+02  0.13696317950E+03  0.00000000000E+00 0. -1.
          1    1    5    5  503    0  0.46370700475E+03 -0.14055707202E+02  0.82505409614E+02  0.47119941826E+03  0.00000000000E+00 0. -1.
         -2    1    5    5    0  503  0.17591525789E+03 -0.38950280062E+02  0.70040757188E+02  0.19331065657E+03  0.00000000000E+00 0.  1.
         -1    1    6    6    0  502 -0.14816923964E+03  0.16851924992E+03  0.72028300671E+01  0.22451000408E+03  0.00000000000E+00 0.  1.
<mgrwt>
<rscale>  0 0.14485900E+04</rscale>
<asrwt>0</asrwt>
<pdfrwt beam="1">  1        1 0.13397860E+00 0.14485900E+04</pdfrwt>
<pdfrwt beam="2">  1       -1 0.92676324E-01 0.14485900E+04</pdfrwt>
<totfact> 0.21155531E+01</totfact>
</mgrwt>
</event>
<event>
12    1  0.2433511E-007  0.1806126E+04  0.7818608E-02  0.8703048E-01
          1   -1    0    0  501    0  0.00000000000E+00  0.00000000000E+00  0.11416588716E+04  0.11416588716E+04  0.00000000000E+00 0. -1.
         -1   -1    0    0    0  501 -0.00000000000E+00 -0.00000000000E+00 -0.71433153061E+03  0.71433153061E+03  0.00000000000E+00 0.  1.
         23    2    1    2    0    0  0.65374102093E+03  0.72913958077E+02  0.11615221339E+02  0.66652078861E+03  0.10687039139E+03 0.  0.
        254    2    1    2    0    0 -0.65374102093E+03 -0.72913958077E+02  0.41571211962E+03  0.11894696136E+04  0.89962638217E+03 0.  0.
        -24    2    4    4    0    0 -0.78068764652E+03 -0.54766077145E+02  0.44127307356E+02  0.78810955556E+03  0.81834758344E+02 0.  0.
         24    2    4    4    0    0  0.12694662559E+03 -0.18147880932E+02  0.37158481226E+03  0.40136005802E+03  0.81054501016E+02 0.  0.
         13    1    3    3    0    0  0.33690265363E+03  0.90609199552E+02 -0.23322558952E+01  0.34888230750E+03  0.00000000000E+00 0. -1.
        -13    1    3    3    0    0  0.31683836729E+03 -0.17695241475E+02  0.13947477234E+02  0.31763848111E+03  0.00000000000E+00 0.  1.
          4    1    6    6  502    0  0.50404339150E+02  0.22829422682E+02  0.81101796273E+02  0.98179841638E+02  0.00000000000E+00 0. -1.
          1    1    5    5  503    0 -0.65007340816E+03 -0.75973988641E+02  0.40044576426E+02  0.65572177869E+03  0.00000000000E+00 0. -1.
         -2    1    5    5    0  503 -0.13061423836E+03  0.21207911496E+02  0.40827309297E+01  0.13238777687E+03  0.00000000000E+00 0.  1.
         -3    1    6    6    0  502  0.76542286444E+02 -0.40977303615E+02  0.29048301599E+03  0.30318021638E+03  0.00000000000E+00 0.  1.
<mgrwt>
<rscale>  0 0.18061262E+04</rscale>
<asrwt>0</asrwt>
<pdfrwt beam="1">  1        1 0.17563983E+00 0.18061262E+04</pdfrwt>
<pdfrwt beam="2">  1       -1 0.10989716E+00 0.18061262E+04</pdfrwt>
<totfact> 0.85129501E+00</totfact>
</mgrwt>
</event>
<event>
12    1  0.2433511E-007  0.2585575E+04  0.7818608E-02  0.8373117E-01
          2   -1    0    0  501    0  0.00000000000E+00  0.00000000000E+00  0.26685225579E+04  0.26685225579E+04  0.00000000000E+00 0. -1.
         -2   -1    0    0    0  501 -0.00000000000E+00 -0.00000000000E+00 -0.62630162118E+03  0.62630162118E+03  0.00000000000E+00 0.  1.
         23    2    1    2    0    0  0.47596378152E+03 -0.97173449248E+03  0.13249620113E+04  0.17130880785E+04  0.91307108315E+02 0.  0.
        254    2    1    2    0    0 -0.47596378152E+03  0.97173449248E+03  0.71725892539E+03  0.15817361006E+04  0.90366989583E+03 0.  0.
        -24    2    4    4    0    0 -0.60787122189E+03  0.97415013687E+03  0.80438166805E+03  0.14042359336E+04  0.79829680226E+02 0.  0.
         24    2    4    4    0    0  0.13190744037E+03 -0.24156443899E+01 -0.87122742651E+02  0.17750016695E+03  0.80687848009E+02 0.  0.
         11    1    3    3    0    0  0.16379616361E+03 -0.24814886790E+03  0.34004066104E+03  0.45170199802E+03  0.00000000000E+00 0. -1.
        -11    1    3    3    0    0  0.31216761791E+03 -0.72358562458E+03  0.98492135027E+03  0.12613860805E+04  0.00000000000E+00 0.  1.
          4    1    6    6  502    0  0.93595237744E+01  0.18227928377E+02  0.69482351354E+01  0.21636451412E+02  0.00000000000E+00 0. -1.
          3    1    5    5  503    0 -0.32445589280E+02  0.86306940030E+02  0.79273178484E+02  0.12159704350E+03  0.00000000000E+00 0. -1.
         -4    1    5    5    0  503 -0.57542563261E+03  0.88784319684E+03  0.72510848956E+03  0.12826388901E+04  0.00000000000E+00 0.  1.
         -3    1    6    6    0  502  0.12254791660E+03 -0.20643572767E+02 -0.94070977786E+02  0.15586371554E+03  0.00000000000E+00 0.  1.
<mgrwt>
<rscale>  0 0.25855754E+04</rscale>
<asrwt>0</asrwt>
<pdfrwt beam="1">  1        2 0.41054193E+00 0.25855754E+04</pdfrwt>
<pdfrwt beam="2">  1       -2 0.96354097E-01 0.25855754E+04</pdfrwt>
<totfact> 0.22132985E+00</totfact>
</mgrwt>
</event>
<event>
12    1  0.2433511E-007  0.1740533E+04  0.7818608E-02  0.8738578E-01
         -2   -1    0    0    0  501 -0.00000000000E+00  0.00000000000E+00  0.87193972079E+03  0.87193972079E+03  0.00000000000E+00 0. -1.
          2   -1    0    0  501    0  0.00000000000E+00 -0.00000000000E+00 -0.86859680719E+03  0.86859680719E+03  0.00000000000E+00 0.  1.
         23    2    1    2    0    0 -0.51876855188E+03  0.11202685233E+02 -0.36116079710E+03  0.63847245349E+03  0.89239239834E+02 0.  0.
        254    2    1    2    0    0  0.51876855188E+03 -0.11202685233E+02  0.36450371070E+03  0.11020640745E+04  0.90135229439E+03 0.  0.
        -24    2    4    4    0    0 -0.28087033779E+02  0.25152047518E+03  0.41063386408E+03  0.48893613201E+03  0.79918333038E+02 0.  0.
         24    2    4    4    0    0  0.54685558566E+03 -0.26272316041E+03 -0.46130153378E+02  0.61312794248E+03  0.75653104530E+02 0.  0.
         11    1    3    3    0    0 -0.33733089068E+03  0.41509344580E+02 -0.26451665110E+03  0.43067878309E+03  0.00000000000E+00 0.  1.
        -11    1    3    3    0    0 -0.18143766120E+03 -0.30306659347E+02 -0.96644146009E+02  0.20779367040E+03  0.00000000000E+00 0. -1.
          4    1    6    6  502    0  0.43863663662E+03 -0.22841691781E+03 -0.12421096890E+02  0.49470260862E+03  0.00000000000E+00 0. -1.
          1    1    5    5  503    0 -0.43559884749E+02  0.24397183372E+03  0.38974917345E+03  0.46187026037E+03  0.00000000000E+00 0. -1.
         -2    1    5    5    0  503  0.15472850971E+02  0.75486414596E+01  0.20884690631E+02  0.27065871643E+02  0.00000000000E+00 0.  1.
         -3    1    6    6    0  502  0.10821894904E+03 -0.34306242605E+02 -0.33709056488E+02  0.11842533387E+03  0.00000000000E+00 0.  1.
<mgrwt>
<rscale>  0 0.17405333E+04</rscale>
<asrwt>0</asrwt>
<pdfrwt beam="1">  1        2 0.13363028E+00 0.17405333E+04</pdfrwt>
<pdfrwt beam="2">  1       -2 0.13414457E+00 0.17405333E+04</pdfrwt>
<totfact> 0.11715701E+01</totfact>
</mgrwt>
</event>
<event>
12    1  0.2433511E-007  0.1639483E+04  0.7818608E-02  0.8796653E-01
         -1   -1    0    0    0  501 -0.00000000000E+00  0.00000000000E+00  0.37414313294E+03  0.37414313294E+03  0.00000000000E+00 0.  1.
          1   -1    0    0  501    0  0.00000000000E+00 -0.00000000000E+00 -0.17960397206E+04  0.17960397206E+04  0.00000000000E+00 0. -1.
         23    2    1    2    0    0 -0.72281150290E+02 -0.46213546846E+03 -0.92362300346E+03  0.10396390414E+04  0.94742429899E+02 0.  0.
        254    2    1    2    0    0  0.72281150290E+02  0.46213546846E+03 -0.49827358420E+03  0.11305438121E+04  0.90058813591E+03 0.  0.
        -24    2    4    4    0    0 -0.32116300626E+03 -0.77942760785E+02 -0.13768169560E+03  0.36719224902E+03  0.81566830801E+02 0.  0.
         24    2    4    4    0    0  0.39344415655E+03  0.54007822924E+03 -0.36059188860E+03  0.76335156311E+03  0.78716584939E+02 0.  0.
         11    1    3    3    0    0  0.29956937743E+01 -0.77523121928E+02 -0.92341956866E+02  0.12060615910E+03  0.00000000000E+00 0.  1.
        -11    1    3    3    0    0 -0.75276844064E+02 -0.38461234653E+03 -0.83128104659E+03  0.91903288232E+03  0.00000000000E+00 0. -1.
          4    1    6    6  502    0  0.29004543639E+03  0.33921332280E+03 -0.25439026922E+03  0.51371825216E+03  0.00000000000E+00 0. -1.
          3    1    5    5  503    0 -0.28224658074E+02 -0.20250578673E+02 -0.40169258414E+02  0.53106370442E+02  0.00000000000E+00 0. -1.
         -4    1    5    5    0  503 -0.29293834819E+03 -0.57692182112E+02 -0.97512437185E+02  0.31408587858E+03  0.00000000000E+00 0.  1.
         -3    1    6    6    0  502  0.10339872017E+03  0.20086490645E+03 -0.10620161938E+03  0.24963331095E+03  0.00000000000E+00 0.  1.
<mgrwt>
<rscale>  0 0.16394828E+04</rscale>
<asrwt>0</asrwt>
<pdfrwt beam="1">  1        1 0.27631380E+00 0.16394828E+04</pdfrwt>
<pdfrwt beam="2">  1       -1 0.57560483E-01 0.16394828E+04</pdfrwt>
<totfact> 0.11986362E+01</totfact>
</mgrwt>
</event>
<event>
12    1  0.2433511E-007  0.3626159E+04  0.7818608E-02  0.8084526E-01
         -2   -1    0    0    0  501 -0.00000000000E+00  0.00000000000E+00  0.20335825378E+04  0.20335825378E+04  0.00000000000E+00 0. -1.
          2   -1    0    0  501    0  0.00000000000E+00 -0.00000000000E+00 -0.16164857915E+04  0.16164857915E+04  0.00000000000E+00 0.  1.
         23    2    1    2    0    0 -0.10888281358E+04 -0.13051701873E+04  0.20344323527E+03  0.17145368825E+04  0.96081447110E+02 0.  0.
        254    2    1    2    0    0  0.10888281358E+04  0.13051701873E+04  0.21365351108E+03  0.19355314468E+04  0.90089856902E+03 0.  0.
        -24    2    4    4    0    0  0.31769443307E+03  0.69723651883E+02  0.33264743555E+03  0.47217875208E+03  0.80667943431E+02 0.  0.
         24    2    4    4    0    0  0.77113370273E+03  0.12354465354E+04 -0.11899392447E+03  0.14633526947E+04  0.79159495770E+02 0.  0.
         13    1    3    3    0    0 -0.54358866955E+03 -0.63022336192E+03  0.53244572863E+02  0.83396949111E+03  0.00000000000E+00 0.  1.
        -13    1    3    3    0    0 -0.54523946626E+03 -0.67494682535E+03  0.15019866241E+03  0.88056739140E+03  0.00000000000E+00 0. -1.
          2    1    6    6  502    0  0.62976683836E+02  0.84116499987E+02  0.98648846286E+01  0.10554129157E+03  0.00000000000E+00 0. -1.
          1    1    5    5  503    0  0.52948330236E+02  0.22724959563E+02  0.22895638046E+02  0.62001287918E+02  0.00000000000E+00 0. -1.
         -2    1    5    5    0  503  0.26474610284E+03  0.46998692320E+02  0.30975179751E+03  0.41017746416E+03  0.00000000000E+00 0.  1.
         -1    1    6    6    0  502  0.70815701890E+03  0.11513300354E+04 -0.12885880910E+03  0.13578114031E+04  0.00000000000E+00 0.  1.
<mgrwt>
<rscale>  0 0.36261590E+04</rscale>
<asrwt>0</asrwt>
<pdfrwt beam="1">  1        2 0.24869012E+00 0.36261590E+04</pdfrwt>
<pdfrwt beam="2">  1       -2 0.31285885E+00 0.36261590E+04</pdfrwt>
<totfact> 0.23526213E-01</totfact>
</mgrwt>
</event>
<event>
12    1  0.2433511E-007  0.1856052E+04  0.7818608E-02  0.8677047E-01
          2   -1    0    0  501    0  0.00000000000E+00  0.00000000000E+00  0.14319640760E+04  0.14319640760E+04  0.00000000000E+00 0. -1.
         -2   -1    0    0    0  501 -0.00000000000E+00 -0.00000000000E+00 -0.60143445247E+03  0.60143445247E+03  0.00000000000E+00 0.  1.
         23    2    1    2    0    0 -0.15472605761E+03  0.66488174806E+03  0.51778267652E+03  0.86155213778E+03  0.90362017520E+02 0.  0.
        254    2    1    2    0    0  0.15472605761E+03 -0.66488174806E+03  0.31274694698E+03  0.11718463907E+04  0.89966961640E+03 0.  0.
        -24    2    4    4    0    0  0.41899688006E+03 -0.45576644691E+03 -0.10079170382E+03  0.63228392990E+03  0.79640196068E+02 0.  0.
         24    2    4    4    0    0 -0.26427082245E+03 -0.20911530115E+03  0.41353865080E+03  0.53956246076E+03  0.80902142041E+02 0.  0.
         13    1    3    3    0    0 -0.30889651658E+02  0.29313189699E+03  0.18990604054E+03  0.35063482977E+03  0.00000000000E+00 0.  1.
        -13    1    3    3    0    0 -0.12383640595E+03  0.37174985106E+03  0.32787663598E+03  0.51091730801E+03  0.00000000000E+00 0. -1.
          2    1    6    6  502    0 -0.16516476583E+03 -0.15114910858E+03  0.32463808719E+03  0.39435433376E+03  0.00000000000E+00 0. -1.
          3    1    5    5  503    0  0.38413015038E+03 -0.37894867575E+03 -0.81041588706E+02  0.54564256651E+03  0.00000000000E+00 0. -1.
         -4    1    5    5    0  503  0.34866729674E+02 -0.76817771157E+02 -0.19750115116E+02  0.86641363394E+02  0.00000000000E+00 0.  1.
         -1    1    6    6    0  502 -0.99106056616E+02 -0.57966192567E+02  0.88900563609E+02  0.14520812701E+03  0.00000000000E+00 0.  1.
<mgrwt>
<rscale>  0 0.18560523E+04</rscale>
<asrwt>0</asrwt>
<pdfrwt beam="1">  1        2 0.22030216E+00 0.18560523E+04</pdfrwt>
<pdfrwt beam="2">  1       -2 0.92528378E-01 0.18560523E+04</pdfrwt>
<totfact> 0.12924999E+01</totfact>
</mgrwt>
</event>
<event>
12    1  0.2433511E-007  0.1630778E+04  0.7818608E-02  0.8801860E-01
         -1   -1    0    0    0  501 -0.00000000000E+00  0.00000000000E+00  0.12536210311E+04  0.12536210311E+04  0.00000000000E+00 0.  1.
          1   -1    0    0  501    0  0.00000000000E+00 -0.00000000000E+00 -0.53035076244E+03  0.53035076244E+03  0.00000000000E+00 0. -1.
         23    2    1    2    0    0  0.49148921712E+03  0.12439937350E+03 -0.14176055501E+02  0.51528537872E+03  0.91001133512E+02 0.  0.
        254    2    1    2    0    0 -0.49148921712E+03 -0.12439937350E+03  0.73744632421E+03  0.12686864149E+04  0.89927820138E+03 0.  0.
        -24    2    4    4    0    0 -0.28446883924E+03  0.92181415404E+02  0.87627849806E+03  0.92921579865E+03  0.78473310493E+02 0.  0.
         24    2    4    4    0    0 -0.20702037788E+03 -0.21658078890E+03 -0.13883217385E+03  0.33947061620E+03  0.78748027181E+02 0.  0.
         11    1    3    3    0    0  0.37856864533E+03  0.59291165883E+02 -0.28016434954E+02  0.38420643176E+03  0.00000000000E+00 0.  1.
        -11    1    3    3    0    0  0.11292057179E+03  0.65108207618E+02  0.13840379453E+02  0.13107894696E+03  0.00000000000E+00 0. -1.
          2    1    6    6  502    0 -0.19380879497E+02 -0.97175321786E+00  0.42009380630E+01  0.19854739359E+02  0.00000000000E+00 0. -1.
          3    1    5    5  503    0 -0.23034001092E+03  0.40130905407E+02  0.64677282209E+03  0.68773693633E+03  0.00000000000E+00 0. -1.
         -4    1    5    5    0  503 -0.54128828325E+02  0.52050509997E+02  0.22950567597E+03  0.24147886233E+03  0.00000000000E+00 0.  1.
         -1    1    6    6    0  502 -0.18763949838E+03 -0.21560903569E+03 -0.14303311192E+03  0.31961587684E+03  0.00000000000E+00 0.  1.
<mgrwt>
<rscale>  0 0.16307776E+04</rscale>
<asrwt>0</asrwt>
<pdfrwt beam="1">  1        1 0.81592426E-01 0.16307776E+04</pdfrwt>
<pdfrwt beam="2">  1       -1 0.19286477E+00 0.16307776E+04</pdfrwt>
<totfact> 0.65919496E+00</totfact>
</mgrwt>
</event>
<event>
12    1  0.2433511E-007  0.2744216E+04  0.7818608E-02  0.8320799E-01
         -1   -1    0    0    0  501 -0.00000000000E+00  0.00000000000E+00  0.15039944832E+04  0.15039944832E+04  0.00000000000E+00 0.  1.
          1   -1    0    0  501    0  0.00000000000E+00 -0.00000000000E+00 -0.12517865089E+04  0.12517865089E+04  0.00000000000E+00 0. -1.
         23    2    1    2    0    0  0.39087086859E+03  0.81722229223E+03  0.93766573831E+03  0.13070260858E+04  0.92020874498E+02 0.  0.
        254    2    1    2    0    0 -0.39087086859E+03 -0.81722229223E+03 -0.68545776401E+03  0.14487549063E+04  0.89911407583E+03 0.  0.
        -24    2    4    4    0    0  0.22064072432E+03 -0.13081918278E+03  0.44172612745E+02  0.27238347974E+03  0.80284198347E+02 0.  0.
         24    2    4    4    0    0 -0.61151159291E+03 -0.68640310945E+03 -0.72963037675E+03  0.11763714265E+04  0.79959924508E+02 0.  0.
         11    1    3    3    0    0  0.28661473941E+03  0.49782542261E+03  0.58091938623E+03  0.81697337383E+03  0.00000000000E+00 0.  1.
        -11    1    3    3    0    0  0.10425612918E+03  0.31939686962E+03  0.35674635208E+03  0.49005271198E+03  0.00000000000E+00 0. -1.
          2    1    6    6  502    0 -0.54803432327E+03 -0.57358347495E+03 -0.62661734438E+03  0.10109346757E+04  0.00000000000E+00 0. -1.
          1    1    5    5  503    0  0.20278442539E+03 -0.86191008749E+02  0.41694627757E+02  0.22425176734E+03  0.00000000000E+00 0. -1.
         -2    1    5    5    0  503  0.17856298931E+02 -0.44628174031E+02  0.24779849878E+01  0.48131712399E+02  0.00000000000E+00 0.  1.
         -1    1    6    6    0  502 -0.63477269641E+02 -0.11281963449E+03 -0.10301303237E+03  0.16543675084E+03  0.00000000000E+00 0.  1.
<mgrwt>
<rscale>  0 0.27442157E+04</rscale>
<asrwt>0</asrwt>
<pdfrwt beam="1">  1        1 0.19258254E+00 0.27442157E+04</pdfrwt>
<pdfrwt beam="2">  1       -1 0.23138377E+00 0.27442157E+04</pdfrwt>
<totfact> 0.78763890E-01</totfact>
</mgrwt>
</event>
<event>
12    1  0.2433511E-007  0.1275261E+04  0.7818608E-02  0.9049417E-01
          1   -1    0    0  501    0  0.00000000000E+00  0.00000000000E+00  0.24816088427E+04  0.24816088427E+04  0.00000000000E+00 0. -1.
         -1   -1    0    0    0  501 -0.00000000000E+00 -0.00000000000E+00 -0.16383437640E+03  0.16383437640E+03  0.00000000000E+00 0.  1.
         23    2    1    2    0    0 -0.61522244467E+02  0.13194305949E+03  0.10771850033E+02  0.16608149509E+03  0.79202731934E+02 0.  0.
        254    2    1    2    0    0  0.61522244467E+02 -0.13194305949E+03  0.23070026162E+04  0.24793617240E+04  0.89653752263E+03 0.  0.
        -24    2    4    4    0    0  0.38772579304E+03 -0.25472467000E+03  0.78039792814E+03  0.91141544751E+03  0.80257358693E+02 0.  0.
         24    2    4    4    0    0 -0.32620354857E+03  0.12278161050E+03  0.15266046881E+04  0.15679462765E+04  0.80309234785E+02 0.  0.
         13    1    3    3    0    0 -0.74615835918E+02  0.10041860431E+03  0.27461889534E+02  0.12808424742E+03  0.00000000000E+00 0. -1.
        -13    1    3    3    0    0  0.13093591452E+02  0.31524455188E+02 -0.16690039501E+02  0.37997247670E+02  0.00000000000E+00 0.  1.
          4    1    6    6  502    0 -0.19644232245E+02 -0.63160799534E+00  0.19333741984E+03  0.19433386916E+03  0.00000000000E+00 0. -1.
          1    1    5    5  503    0  0.91781212796E+02 -0.83052010500E+02  0.15305781637E+03  0.19684542825E+03  0.00000000000E+00 0. -1.
         -2    1    5    5    0  503  0.29594458024E+03 -0.17167265950E+03  0.62734011177E+03  0.71457001926E+03  0.00000000000E+00 0.  1.
         -3    1    6    6    0  502 -0.30655931633E+03  0.12341321850E+03  0.13332672682E+04  0.13736124073E+04  0.00000000000E+00 0.  1.
<mgrwt>
<rscale>  0 0.12752613E+04</rscale>
<asrwt>0</asrwt>
<pdfrwt beam="1">  1        1 0.38178595E+00 0.12752613E+04</pdfrwt>
<pdfrwt beam="2">  1       -1 0.25205290E-01 0.12752613E+04</pdfrwt>
<totfact> 0.19058923E+01</totfact>
</mgrwt>
</event>
<event>
12    1  0.2433511E-007  0.1841379E+04  0.7818608E-02  0.8684599E-01
          2   -1    0    0  501    0  0.00000000000E+00  0.00000000000E+00  0.12549825074E+04  0.12549825074E+04  0.00000000000E+00 0. -1.
         -2   -1    0    0    0  501 -0.00000000000E+00 -0.00000000000E+00 -0.67544269121E+03  0.67544269121E+03  0.00000000000E+00 0.  1.
         23    2    1    2    0    0  0.48758309029E+03  0.44793995596E+03  0.44799509123E+03  0.80459246724E+03  0.91005288213E+02 0.  0.
        254    2    1    2    0    0 -0.48758309029E+03 -0.44793995596E+03  0.13154472495E+03  0.11258327314E+04  0.90100380148E+03 0.  0.
        -24    2    4    4    0    0 -0.37592520510E+03 -0.49995689078E+03 -0.27771156925E+03  0.68922860728E+03  0.81459836275E+02 0.  0.
         24    2    4    4    0    0 -0.11165788518E+03  0.52016934821E+02  0.40925629420E+03  0.43660412409E+03  0.89214359792E+02 0.  0.
         11    1    3    3    0    0  0.28228376976E+03  0.31284300317E+03  0.25951231249E+03  0.49487524856E+03  0.00000000000E+00 0. -1.
        -11    1    3    3    0    0  0.20529932053E+03  0.13509695280E+03  0.18848277874E+03  0.30971721868E+03  0.00000000000E+00 0.  1.
          2    1    6    6  502    0 -0.45536743237E+02  0.66676353356E+02  0.17452231528E+03  0.19229500673E+03  0.00000000000E+00 0. -1.
          1    1    5    5  503    0 -0.12873484146E+03 -0.13690049126E+03 -0.49845545048E+02  0.19441960362E+03  0.00000000000E+00 0. -1.
         -2    1    5    5    0  503 -0.24719036364E+03 -0.36305639953E+03 -0.22786602420E+03  0.49480900366E+03  0.00000000000E+00 0.  1.
         -1    1    6    6    0  502 -0.66121141947E+02 -0.14659418535E+02  0.23473397892E+03  0.24430911736E+03  0.00000000000E+00 0.  1.
<mgrwt>
<rscale>  0 0.18413786E+04</rscale>
<asrwt>0</asrwt>
<pdfrwt beam="1">  1        2 0.19307423E+00 0.18413786E+04</pdfrwt>
<pdfrwt beam="2">  1       -2 0.10391426E+00 0.18413786E+04</pdfrwt>
<totfact> 0.12460747E+01</totfact>
</mgrwt>
</event>
<event>
12    1  0.2433511E-007  0.1108701E+04  0.7818608E-02  0.9196753E-01
          1   -1    0    0  501    0  0.00000000000E+00  0.00000000000E+00  0.10710818473E+04  0.10710818473E+04  0.00000000000E+00 0. -1.
         -1   -1    0    0    0  501 -0.00000000000E+00 -0.00000000000E+00 -0.28691028640E+03  0.28691028640E+03  0.00000000000E+00 0.  1.
         23    2    1    2    0    0 -0.15812837353E+03 -0.41163929750E+01  0.21379243201E+03  0.28015227169E+03  0.88071358216E+02 0.  0.
        254    2    1    2    0    0  0.15812837353E+03  0.41163929750E+01  0.57037912888E+03  0.10778398620E+04  0.90076905489E+03 0.  0.
        -24    2    4    4    0    0  0.27051847399E+03 -0.45586924554E+02  0.77438449173E+03  0.82592752420E+03  0.85008951004E+02 0.  0.
         24    2    4    4    0    0 -0.11239010045E+03  0.49703317529E+02 -0.20400536285E+03  0.25191233780E+03  0.82095574856E+02 0.  0.
         13    1    3    3    0    0 -0.14361571279E+03  0.10287247748E+02  0.21599547388E+03  0.25958687401E+03  0.00000000000E+00 0. -1.
        -13    1    3    3    0    0 -0.14512660746E+02 -0.14403640723E+02 -0.22030418630E+01  0.20565397673E+02  0.00000000000E+00 0.  1.
          2    1    6    6  502    0 -0.79028934155E+02  0.64156462665E+02 -0.10409901901E+03  0.14559611909E+03  0.00000000000E+00 0. -1.
          3    1    5    5  503    0  0.17087267880E+03 -0.66313945207E+02  0.54444516262E+03  0.57446979624E+03  0.00000000000E+00 0. -1.
         -4    1    5    5    0  503  0.99645795182E+02  0.20727020653E+02  0.22993932911E+03  0.25145772796E+03  0.00000000000E+00 0.  1.
         -1    1    6    6    0  502 -0.33361166297E+02 -0.14453145136E+02 -0.99906343840E+02  0.10631621871E+03  0.00000000000E+00 0.  1.
<mgrwt>
<rscale>  0 0.11087009E+04</rscale>
<asrwt>0</asrwt>
<pdfrwt beam="1">  1        1 0.16478182E+00 0.11087009E+04</pdfrwt>
<pdfrwt beam="2">  1       -1 0.44140045E-01 0.11087009E+04</pdfrwt>
<totfact> 0.67387057E+01</totfact>
</mgrwt>
</event>
<event>
12    1  0.2433511E-007  0.1186661E+04  0.7818608E-02  0.9124613E-01
         -2   -1    0    0    0  501 -0.00000000000E+00  0.00000000000E+00  0.22106135274E+03  0.22106135274E+03  0.00000000000E+00 0.  1.
          2   -1    0    0  501    0  0.00000000000E+00 -0.00000000000E+00 -0.15925032935E+04  0.15925032935E+04  0.00000000000E+00 0. -1.
         23    2    1    2    0    0  0.75898513368E+01 -0.23297821989E+03 -0.21076766483E+03  0.32694316408E+03  0.90179638565E+02 0.  0.
        254    2    1    2    0    0 -0.75898513368E+01  0.23297821989E+03 -0.11606742759E+04  0.14866214821E+04  0.89918974617E+03 0.  0.
        -24    2    4    4    0    0 -0.78612362088E+02  0.56073657416E+03 -0.60476971119E+03  0.83215204328E+03  0.78263723977E+02 0.  0.
         24    2    4    4    0    0  0.71022510751E+02 -0.32775835426E+03 -0.55590456468E+03  0.65446943884E+03  0.82647598360E+02 0.  0.
         11    1    3    3    0    0 -0.21608573713E+02 -0.15491211478E+02 -0.43668123046E+02  0.51125463923E+02  0.00000000000E+00 0. -1.
        -11    1    3    3    0    0  0.29198425049E+02 -0.21748700842E+03 -0.16709954179E+03  0.27581770016E+03  0.00000000000E+00 0.  1.
          4    1    6    6  502    0  0.24447044373E+02 -0.13945754889E+02 -0.44471313559E+02  0.52629267406E+02  0.00000000000E+00 0. -1.
          3    1    5    5  503    0 -0.60176806008E+02  0.23155132052E+03 -0.21517047738E+03  0.32176947703E+03  0.00000000000E+00 0. -1.
         -4    1    5    5    0  503 -0.18435556079E+02  0.32918525364E+03 -0.38959923381E+03  0.51038256625E+03  0.00000000000E+00 0.  1.
         -3    1    6    6    0  502  0.46575466378E+02 -0.31381259937E+03 -0.51143325112E+03  0.60184017143E+03  0.00000000000E+00 0.  1.
<mgrwt>
<rscale>  0 0.11866607E+04</rscale>
<asrwt>0</asrwt>
<pdfrwt beam="1">  1        2 0.24500050E+00 0.11866607E+04</pdfrwt>
<pdfrwt beam="2">  1       -2 0.34009440E-01 0.11866607E+04</pdfrwt>
<totfact> 0.89957054E+01</totfact>
</mgrwt>
</event>
<event>
12    1  0.2433511E-007  0.1998841E+04  0.7818608E-02  0.8607163E-01
          2   -1    0    0  501    0  0.00000000000E+00  0.00000000000E+00  0.10101919545E+04  0.10101919545E+04  0.00000000000E+00 0. -1.
         -2   -1    0    0    0  501 -0.00000000000E+00 -0.00000000000E+00 -0.98876385314E+03  0.98876385314E+03  0.00000000000E+00 0.  1.
         23    2    1    2    0    0  0.49029801826E+03  0.61235284389E+03  0.12873204884E+03  0.80026453806E+03  0.92104496900E+02 0.  0.
        254    2    1    2    0    0 -0.49029801826E+03 -0.61235284389E+03 -0.10730394744E+03  0.11986912696E+04  0.89998803915E+03 0.  0.
        -24    2    4    4    0    0 -0.38897507729E+03 -0.19467320175E+03 -0.45925569967E+03  0.63744209693E+03  0.78850256923E+02 0.  0.
         24    2    4    4    0    0 -0.10132294097E+03 -0.41767964214E+03  0.35195175223E+03  0.56124917270E+03  0.80049835288E+02 0.  0.
         11    1    3    3    0    0  0.17643709378E+03  0.28286020688E+03  0.30837356460E+02  0.33479977189E+03  0.00000000000E+00 0.  1.
        -11    1    3    3    0    0  0.31386092447E+03  0.32949263701E+03  0.97894692383E+02  0.46546476617E+03  0.00000000000E+00 0. -1.
          2    1    6    6  502    0 -0.13689102187E+02 -0.86770748776E+01  0.29198179822E+01  0.16468408671E+02  0.00000000000E+00 0. -1.
          3    1    5    5  503    0 -0.10763996536E+03 -0.89170178732E+02 -0.17338187965E+03  0.22270823763E+03  0.00000000000E+00 0. -1.
         -4    1    5    5    0  503 -0.28133511193E+03 -0.10550302302E+03 -0.28587382003E+03  0.41473385930E+03  0.00000000000E+00 0.  1.
         -1    1    6    6    0  502 -0.87633838781E+02 -0.40900256726E+03  0.34903193425E+03  0.54478076403E+03  0.00000000000E+00 0.  1.
<mgrwt>
<rscale>  0 0.19988410E+04</rscale>
<asrwt>0</asrwt>
<pdfrwt beam="1">  1        2 0.15541415E+00 0.19988410E+04</pdfrwt>
<pdfrwt beam="2">  1       -2 0.15211752E+00 0.19988410E+04</pdfrwt>
<totfact> 0.66538389E+00</totfact>
</mgrwt>
</event>
<event>
12    1  0.2433511E-007  0.2263670E+04  0.7818608E-02  0.8492385E-01
         -2   -1    0    0    0  501 -0.00000000000E+00  0.00000000000E+00  0.26009185599E+04  0.26009185599E+04  0.00000000000E+00 0.  1.
          2   -1    0    0  501    0  0.00000000000E+00 -0.00000000000E+00 -0.49253763626E+03  0.49253763626E+03  0.00000000000E+00 0. -1.
         23    2    1    2    0    0  0.75349173402E+03 -0.52222357254E+03  0.55146844913E+03  0.10744786904E+04  0.99597956016E+02 0.  0.
        254    2    1    2    0    0 -0.75349173402E+03  0.52222357254E+03  0.15569124745E+04  0.20189775057E+04  0.90101412995E+03 0.  0.
        -24    2    4    4    0    0 -0.28079665848E+03  0.56929126216E+03  0.37182373138E+03  0.73965894157E+03  0.76832011850E+02 0.  0.
         24    2    4    4    0    0 -0.47269507554E+03 -0.47067689621E+02  0.11850887431E+04  0.12793185641E+04  0.81022574842E+02 0.  0.
         11    1    3    3    0    0  0.58935908109E+03 -0.45455741206E+03  0.43360765132E+03  0.86138386483E+03  0.00000000000E+00 0. -1.
        -11    1    3    3    0    0  0.16413265294E+03 -0.67666160485E+02  0.11786079781E+03  0.21309482560E+03  0.00000000000E+00 0.  1.
          4    1    6    6  502    0 -0.72168732453E+02 -0.37024199529E+02  0.21080524415E+03  0.22587157469E+03  0.00000000000E+00 0. -1.
          3    1    5    5  503    0 -0.21215224056E+03  0.39857741917E+03  0.30020702822E+03  0.54221471027E+03  0.00000000000E+00 0. -1.
         -4    1    5    5    0  503 -0.68644417920E+02  0.17071384300E+03  0.71616703155E+02  0.19744423130E+03  0.00000000000E+00 0.  1.
         -3    1    6    6    0  502 -0.40052634309E+03 -0.10043490091E+02  0.97428349897E+03  0.10534469894E+04  0.00000000000E+00 0.  1.
<mgrwt>
<rscale>  0 0.22636698E+04</rscale>
<asrwt>0</asrwt>
<pdfrwt beam="1">  1        2 0.75775023E-01 0.22636698E+04</pdfrwt>
<pdfrwt beam="2">  1       -2 0.40014131E+00 0.22636698E+04</pdfrwt>
<totfact> 0.42258156E-01</totfact>
</mgrwt>
</event>
<event>
12    1  0.2433511E-007  0.3020034E+04  0.7818608E-02  0.8238033E-01
          1   -1    0    0  501    0  0.00000000000E+00  0.00000000000E+00  0.11223568424E+04  0.11223568424E+04  0.00000000000E+00 0. -1.
         -1   -1    0    0    0  501 -0.00000000000E+00 -0.00000000000E+00 -0.20315741439E+04  0.20315741439E+04  0.00000000000E+00 0.  1.
         23    2    1    2    0    0  0.99668196346E+03  0.34001017606E+03  0.50694900801E+03  0.11721476762E+04  0.89168503441E+02 0.  0.
        254    2    1    2    0    0 -0.99668196346E+03 -0.34001017606E+03 -0.14161663096E+04  0.19817833101E+04  0.90164084625E+03 0.  0.
        -24    2    4    4    0    0  0.64074594230E+02 -0.16615654595E+03 -0.59590946601E+03  0.62728184077E+03  0.81614120625E+02 0.  0.
         24    2    4    4    0    0 -0.10607565577E+04 -0.17385363011E+03 -0.82025684358E+03  0.13545014693E+04  0.80146001628E+02 0.  0.
         11    1    3    3    0    0  0.43748505261E+03  0.18989404851E+03  0.25353988238E+03  0.54012534923E+03  0.00000000000E+00 0. -1.
        -11    1    3    3    0    0  0.55919691085E+03  0.15011612756E+03  0.25340912563E+03  0.63202232699E+03  0.00000000000E+00 0.  1.
          2    1    6    6  502    0 -0.57494830697E+03 -0.78073135908E+02 -0.48844623729E+03  0.75844623867E+03  0.00000000000E+00 0. -1.
          1    1    5    5  503    0  0.68003552649E+01  0.71962244519E+01 -0.12342635637E+02  0.15823120191E+02  0.00000000000E+00 0. -1.
         -2    1    5    5    0  503  0.57274238965E+02 -0.17335277040E+03 -0.58356683037E+03  0.61145872058E+03  0.00000000000E+00 0.  1.
         -1    1    6    6    0  502 -0.48580825072E+03 -0.95780494201E+02 -0.33181060629E+03  0.59605523065E+03  0.00000000000E+00 0.  1.
<mgrwt>
<rscale>  0 0.30200339E+04</rscale>
<asrwt>0</asrwt>
<pdfrwt beam="1">  1        1 0.17267028E+00 0.30200339E+04</pdfrwt>
<pdfrwt beam="2">  1       -1 0.31254987E+00 0.30200339E+04</pdfrwt>
<totfact> 0.28360279E-01</totfact>
</mgrwt>
</event>
<event>
12    1  0.2433511E-007  0.4501516E+04  0.7818608E-02  0.7910371E-01
         -2   -1    0    0    0  501 -0.00000000000E+00  0.00000000000E+00  0.17917763270E+04  0.17917763270E+04  0.00000000000E+00 0.  1.
          2   -1    0    0  501    0  0.00000000000E+00 -0.00000000000E+00 -0.28273124026E+04  0.28273124026E+04  0.00000000000E+00 0. -1.
         23    2    1    2    0    0  0.73946628726E+03  0.16113017736E+04  0.76389228566E+03  0.19325612641E+04  0.90320649391E+02 0.  0.
        254    2    1    2    0    0 -0.73946628726E+03 -0.16113017736E+04 -0.17994283612E+04  0.26865274656E+04  0.91454010321E+03 0.  0.
        -24    2    4    4    0    0 -0.69871262574E+03 -0.17170585438E+04 -0.16559701786E+04  0.24870727104E+04  0.82486716547E+02 0.  0.
         24    2    4    4    0    0 -0.40753661513E+02  0.10575677016E+03 -0.14345818263E+03  0.19945475514E+03  0.79728249825E+02 0.  0.
         11    1    3    3    0    0  0.59545120180E+03  0.13757801855E+04  0.64334738670E+03  0.16313274082E+04  0.00000000000E+00 0.  1.
        -11    1    3    3    0    0  0.14401508546E+03  0.23552158808E+03  0.12054489896E+03  0.30123385593E+03  0.00000000000E+00 0. -1.
          4    1    6    6  502    0  0.12076545793E+02  0.36401531477E+02 -0.93131951446E+01  0.39467075594E+02  0.00000000000E+00 0. -1.
          1    1    5    5  503    0 -0.12029955152E+03 -0.22161669147E+03 -0.23091429210E+03  0.34191716881E+03  0.00000000000E+00 0. -1.
         -2    1    5    5    0  503 -0.57841307423E+03 -0.14954418523E+04 -0.14250558865E+04  0.21451555416E+04  0.00000000000E+00 0.  1.
         -3    1    6    6    0  502 -0.52830207306E+02  0.69355238688E+02 -0.13414498749E+03  0.15998767954E+03  0.00000000000E+00 0.  1.
<mgrwt>
<rscale>  0 0.45015159E+04</rscale>
<asrwt>0</asrwt>
<pdfrwt beam="1">  1        2 0.43497114E+00 0.45015159E+04</pdfrwt>
<pdfrwt beam="2">  1       -2 0.27565790E+00 0.45015159E+04</pdfrwt>
<totfact> 0.75461945E-02</totfact>
</mgrwt>
</event>
<event>
12    1  0.2433511E-007  0.2763856E+04  0.7818608E-02  0.8314578E-01
         -1   -1    0    0    0  501 -0.00000000000E+00  0.00000000000E+00  0.12657790730E+04  0.12657790730E+04  0.00000000000E+00 0.  1.
          1   -1    0    0  501    0  0.00000000000E+00 -0.00000000000E+00 -0.15087353689E+04  0.15087353689E+04  0.00000000000E+00 0. -1.
         23    2    1    2    0    0 -0.89949521545E+03  0.82523081724E+03  0.91385984912E+02  0.12275871191E+04  0.92310305297E+02 0.  0.
        254    2    1    2    0    0  0.89949521545E+03 -0.82523081724E+03 -0.33434228079E+03  0.15469273228E+04  0.88943905744E+03 0.  0.
        -24    2    4    4    0    0  0.34632017401E+03 -0.81181578645E+03  0.18549491102E+02  0.88695931793E+03  0.85849950340E+02 0.  0.
         24    2    4    4    0    0  0.55317504144E+03 -0.13415030790E+02 -0.35289177190E+03  0.65996800486E+03  0.69588614263E+02 0.  0.
         11    1    3    3    0    0 -0.29966812100E+03  0.29449910650E+03  0.73057861612E+02  0.42646003050E+03  0.00000000000E+00 0.  1.
        -11    1    3    3    0    0 -0.59982709446E+03  0.53073171075E+03  0.18328123300E+02  0.80112708863E+03  0.00000000000E+00 0. -1.
          4    1    6    6  502    0  0.31677527493E+02  0.80048900391E+01 -0.58698612176E+01  0.33196374551E+02  0.00000000000E+00 0. -1.
          1    1    5    5  503    0  0.14830762145E+03 -0.26949956284E+03  0.33498859859E+02  0.30943066843E+03  0.00000000000E+00 0. -1.
         -2    1    5    5    0  503  0.19801255256E+03 -0.54231622361E+03 -0.14949368757E+02  0.57752864950E+03  0.00000000000E+00 0.  1.
         -3    1    6    6    0  502  0.52149751395E+03 -0.21419920829E+02 -0.34702191068E+03  0.62677163031E+03  0.00000000000E+00 0.  1.
<mgrwt>
<rscale>  0 0.27638565E+04</rscale>
<asrwt>0</asrwt>
<pdfrwt beam="1">  1        1 0.23211313E+00 0.27638565E+04</pdfrwt>
<pdfrwt beam="2">  1       -1 0.19473524E+00 0.27638565E+04</pdfrwt>
<totfact> 0.91718106E-01</totfact>
</mgrwt>
</event>
<event>
12    1  0.2433511E-007  0.1141872E+04  0.7818608E-02  0.9165315E-01
         -2   -1    0    0    0  501 -0.00000000000E+00  0.00000000000E+00  0.30505423681E+03  0.30505423681E+03  0.00000000000E+00 0.  1.
          2   -1    0    0  501    0  0.00000000000E+00 -0.00000000000E+00 -0.10685575656E+04  0.10685575656E+04  0.00000000000E+00 0. -1.
         23    2    1    2    0    0 -0.10624441501E+03 -0.16486329643E+03 -0.19901768095E+03  0.29364212431E+03  0.90276672586E+02 0.  0.
        254    2    1    2    0    0  0.10624441501E+03  0.16486329643E+03 -0.56448564783E+03  0.10799696781E+04  0.89956805010E+03 0.  0.
        -24    2    4    4    0    0  0.17290773792E+03 -0.34538451375E+03 -0.30195817193E+03  0.49689451903E+03  0.80857141165E+02 0.  0.
         24    2    4    4    0    0 -0.66663322918E+02  0.51024781017E+03 -0.26252747590E+03  0.58307515906E+03  0.79114721137E+02 0.  0.
         11    1    3    3    0    0 -0.24161657785E+02 -0.10020717024E+03 -0.13930284282E+03  0.17329323326E+03  0.00000000000E+00 0.  1.
        -11    1    3    3    0    0 -0.82082757220E+02 -0.64656126186E+02 -0.59714838128E+02  0.12034889106E+03  0.00000000000E+00 0. -1.
          4    1    6    6  502    0 -0.12883685016E+02  0.81613626125E+01 -0.11874702897E+02  0.19328883780E+02  0.00000000000E+00 0. -1.
          3    1    5    5  503    0  0.68582549251E+01 -0.69409458173E+02 -0.32430057352E+02  0.76918249879E+02  0.00000000000E+00 0. -1.
         -4    1    5    5    0  503  0.16604948300E+03 -0.27597505557E+03 -0.26952811458E+03  0.41997626915E+03  0.00000000000E+00 0.  1.
         -3    1    6    6    0  502 -0.53779637902E+02  0.50208644756E+03 -0.25065277301E+03  0.56374627528E+03  0.00000000000E+00 0.  1.
<mgrwt>
<rscale>  0 0.11418722E+04</rscale>
<asrwt>0</asrwt>
<pdfrwt beam="1">  1        2 0.16439347E+00 0.11418722E+04</pdfrwt>
<pdfrwt beam="2">  1       -2 0.46931421E-01 0.11418722E+04</pdfrwt>
<totfact> 0.97095830E+01</totfact>
</mgrwt>
</event>
<event>
12    1  0.2433511E-007  0.2322666E+04  0.7818608E-02  0.8469037E-01
          2   -1    0    0  501    0  0.00000000000E+00  0.00000000000E+00  0.85761088531E+03  0.85761088531E+03  0.00000000000E+00 0.  1.
         -2   -1    0    0    0  501 -0.00000000000E+00 -0.00000000000E+00 -0.15726181127E+04  0.15726181127E+04  0.00000000000E+00 0. -1.
         23    2    1    2    0    0 -0.83635611160E+03  0.45326525792E+03 -0.56767842328E+03  0.11117041474E+04  0.93200749463E+02 0.  0.
        254    2    1    2    0    0  0.83635611160E+03 -0.45326525792E+03 -0.14732880408E+03  0.13185248506E+04  0.90103333212E+03 0.  0.
        -24    2    4    4    0    0  0.62357304898E+03 -0.64074260761E+03  0.13784431815E+03  0.90837914900E+03  0.82202102624E+02 0.  0.
         24    2    4    4    0    0  0.21278306262E+03  0.18747734969E+03 -0.28517312223E+03  0.41014570156E+03  0.80445002861E+02 0.  0.
         13    1    3    3    0    0 -0.33101428581E+03  0.23073558292E+03 -0.22922727697E+03  0.46406304652E+03  0.00000000000E+00 0. -1.
        -13    1    3    3    0    0 -0.50534182579E+03  0.22252967499E+03 -0.33845114631E+03  0.64764110090E+03  0.00000000000E+00 0.  1.
          4    1    6    6  502    0  0.20158163054E+03  0.16733839009E+03 -0.28497256125E+03  0.38710031160E+03  0.00000000000E+00 0. -1.
          1    1    5    5  503    0  0.27713065888E+03 -0.29340878446E+03  0.10320765868E+03  0.41658365031E+03  0.00000000000E+00 0. -1.
         -2    1    5    5    0  503  0.34644239010E+03 -0.34733382315E+03  0.34636659469E+02  0.49179549870E+03  0.00000000000E+00 0.  1.
         -3    1    6    6    0  502  0.11201432075E+02  0.20138959594E+02 -0.20056097919E+00  0.23045389967E+02  0.00000000000E+00 0.  1.
<mgrwt>
<rscale>  0 0.23226661E+04</rscale>
<asrwt>0</asrwt>
<pdfrwt beam="1">  1        2 0.13194014E+00 0.23226661E+04</pdfrwt>
<pdfrwt beam="2">  1       -2 0.24194125E+00 0.23226661E+04</pdfrwt>
<totfact> 0.20439231E+00</totfact>
</mgrwt>
</event>
<event>
12    1  0.2433511E-007  0.2008747E+04  0.7818608E-02  0.8602542E-01
         -2   -1    0    0    0  501 -0.00000000000E+00  0.00000000000E+00  0.42078172929E+03  0.42078172929E+03  0.00000000000E+00 0.  1.
          2   -1    0    0  501    0  0.00000000000E+00 -0.00000000000E+00 -0.23973619133E+04  0.23973619133E+04  0.00000000000E+00 0. -1.
         23    2    1    2    0    0 -0.10642029372E+03  0.77995851299E+03 -0.57309498027E+03  0.97521057825E+03  0.54196444648E+02 0.  0.
        254    2    1    2    0    0  0.10642029372E+03 -0.77995851299E+03 -0.14034852038E+04  0.18429330644E+04  0.89831564699E+03 0.  0.
        -24    2    4    4    0    0 -0.12802195545E+03 -0.41805665645E+02  0.73429618170E+02  0.17323751476E+03  0.80510824983E+02 0.  0.
         24    2    4    4    0    0  0.23444224917E+03 -0.73815284735E+03 -0.14769148219E+04  0.16696955496E+04  0.82298498479E+02 0.  0.
         13    1    3    3    0    0 -0.70740152366E+02  0.45109782257E+03 -0.36323260180E+03  0.58346494127E+03  0.00000000000E+00 0.  1.
        -13    1    3    3    0    0 -0.35680141354E+02  0.32886069043E+03 -0.20986237847E+03  0.39174563698E+03  0.00000000000E+00 0. -1.
          4    1    6    6  502    0  0.17520834587E+03 -0.48844212146E+03 -0.10582915435E+04  0.11786664759E+04  0.00000000000E+00 0. -1.
          1    1    5    5  503    0 -0.10042699078E+03 -0.89166853009E+01  0.16861030655E+02  0.10222221925E+03  0.00000000000E+00 0. -1.
         -2    1    5    5    0  503 -0.27594964669E+02 -0.32888980344E+02  0.56568587516E+02  0.71015295512E+02  0.00000000000E+00 0.  1.
         -3    1    6    6    0  502  0.59233903293E+02 -0.24971072589E+03 -0.41862327848E+03  0.49102907369E+03  0.00000000000E+00 0.  1.
<mgrwt>
<rscale>  0 0.20087470E+04</rscale>
<asrwt>0</asrwt>
<pdfrwt beam="1">  1        2 0.36882491E+00 0.20087470E+04</pdfrwt>
<pdfrwt beam="2">  1       -2 0.64735650E-01 0.20087470E+04</pdfrwt>
<totfact> 0.81595253E+00</totfact>
</mgrwt>
</event>
<event>
12    1  0.2433511E-007  0.1248826E+04  0.7818608E-02  0.9071161E-01
         -2   -1    0    0    0  501 -0.00000000000E+00  0.00000000000E+00  0.34092591276E+03  0.34092591276E+03  0.00000000000E+00 0.  1.
          2   -1    0    0  501    0  0.00000000000E+00 -0.00000000000E+00 -0.11436257588E+04  0.11436257588E+04  0.00000000000E+00 0. -1.
         23    2    1    2    0    0  0.60727598218E+02  0.49194165318E+02  0.13709105876E+03  0.18225247029E+03  0.91181672762E+02 0.  0.
        254    2    1    2    0    0 -0.60727598218E+02 -0.49194165318E+02 -0.93979090485E+03  0.13022992013E+04  0.89814718049E+03 0.  0.
        -24    2    4    4    0    0 -0.22554587910E+03 -0.12621597509E+03  0.66734496330E+02  0.27629653715E+03  0.71308256819E+02 0.  0.
         24    2    4    4    0    0  0.16481828088E+03  0.77021809775E+02 -0.10065254012E+04  0.10260026642E+04  0.80564624835E+02 0.  0.
         11    1    3    3    0    0  0.50431700464E+02  0.31500168148E+02  0.14768243370E+03  0.15920338636E+03  0.00000000000E+00 0.  1.
        -11    1    3    3    0    0  0.10295897754E+02  0.17693997170E+02 -0.10591374947E+02  0.23049083923E+02  0.00000000000E+00 0. -1.
          4    1    6    6  502    0  0.16879424713E+03  0.85753122670E+02 -0.96248186838E+03  0.98092631878E+03  0.00000000000E+00 0. -1.
          1    1    5    5  503    0 -0.94561727140E+02 -0.93388305238E+02  0.28074141573E+02  0.13583612634E+03  0.00000000000E+00 0. -1.
         -2    1    5    5    0  503 -0.13098415196E+03 -0.32827669855E+02  0.38660354757E+02  0.14046041080E+03  0.00000000000E+00 0.  1.
         -1    1    6    6    0  502 -0.39759662531E+01 -0.87313128950E+01 -0.44043532798E+02  0.45076345392E+02  0.00000000000E+00 0.  1.
<mgrwt>
<rscale>  0 0.12488261E+04</rscale>
<asrwt>0</asrwt>
<pdfrwt beam="1">  1        2 0.17594242E+00 0.12488261E+04</pdfrwt>
<pdfrwt beam="2">  1       -2 0.52450141E-01 0.12488261E+04</pdfrwt>
<totfact> 0.69102493E+01</totfact>
</mgrwt>
</event>
<event>
12    1  0.2433511E-007  0.3349108E+04  0.7818608E-02  0.8150511E-01
          2   -1    0    0  501    0  0.00000000000E+00  0.00000000000E+00  0.43024368002E+04  0.43024368002E+04  0.00000000000E+00 0. -1.
         -2   -1    0    0    0  501 -0.00000000000E+00 -0.00000000000E+00 -0.65175399550E+03  0.65175399550E+03  0.00000000000E+00 0.  1.
         23    2    1    2    0    0  0.30066147711E+03 -0.98729354188E+03  0.33987882930E+04  0.35532022083E+04  0.91313802469E+02 0.  0.
        254    2    1    2    0    0 -0.30066147711E+03  0.98729354188E+03  0.25189451174E+03  0.14009885875E+04  0.91333034305E+03 0.  0.
        -24    2    4    4    0    0 -0.45657873355E+03  0.12916476757E+03 -0.24418453384E+02  0.48254101433E+03  0.84272727100E+02 0.  0.
         24    2    4    4    0    0  0.15591725644E+03  0.85812877431E+03  0.27631296512E+03  0.91844757315E+03  0.80634395751E+02 0.  0.
         13    1    3    3    0    0  0.17532957263E+03 -0.42562383418E+03  0.14690916618E+04  0.15395214900E+04  0.00000000000E+00 0.  1.
        -13    1    3    3    0    0  0.12533190448E+03 -0.56166970770E+03  0.19296966312E+04  0.20136807183E+04  0.00000000000E+00 0. -1.
          2    1    6    6  502    0  0.91740204136E+02  0.29214495594E+03  0.90823928803E+02  0.31939619030E+03  0.00000000000E+00 0. -1.
          3    1    5    5  503    0 -0.23918409297E+03  0.56291135451E+02  0.28097470360E+02  0.24732001557E+03  0.00000000000E+00 0. -1.
         -4    1    5    5    0  503 -0.21739464057E+03  0.72873632123E+02 -0.52515923744E+02  0.23522099876E+03  0.00000000000E+00 0.  1.
         -1    1    6    6    0  502  0.64177052301E+02  0.56598381837E+03  0.18548903632E+03  0.59905138284E+03  0.00000000000E+00 0.  1.
<mgrwt>
<rscale>  0 0.33491076E+04</rscale>
<asrwt>0</asrwt>
<pdfrwt beam="1">  1        2 0.66191333E+00 0.33491076E+04</pdfrwt>
<pdfrwt beam="2">  1       -2 0.10026985E+00 0.33491076E+04</pdfrwt>
<totfact> 0.12845239E-01</totfact>
</mgrwt>
</event>
<event>
12    1  0.2433511E-007  0.2065587E+04  0.7818608E-02  0.8576556E-01
          3   -1    0    0  501    0  0.00000000000E+00  0.00000000000E+00  0.10648004544E+04  0.10648004544E+04  0.00000000000E+00 0. -1.
         -3   -1    0    0    0  501 -0.00000000000E+00 -0.00000000000E+00 -0.10017484096E+04  0.10017484096E+04  0.00000000000E+00 0.  1.
         23    2    1    2    0    0 -0.61351376669E+03  0.34789138886E+03  0.46969972108E+03  0.85213203944E+03  0.89908977829E+02 0.  0.
        254    2    1    2    0    0  0.61351376669E+03 -0.34789138886E+03 -0.40664767629E+03  0.12144168245E+04  0.90112059720E+03 0.  0.
        -24    2    4    4    0    0  0.17389768872E+03 -0.58557102223E+03 -0.10451815498E+03  0.62490216095E+03  0.80279747220E+02 0.  0.
         24    2    4    4    0    0  0.43961607797E+03  0.23767963337E+03 -0.30212952131E+03  0.58951466358E+03  0.80569143012E+02 0.  0.
         13    1    3    3    0    0 -0.29892732330E+03  0.17755097921E+03  0.28476807451E+03  0.44941601117E+03  0.00000000000E+00 0.  1.
        -13    1    3    3    0    0 -0.31458644339E+03  0.17034040965E+03  0.18493164658E+03  0.40271602827E+03  0.00000000000E+00 0. -1.
          4    1    6    6  502    0  0.43097816030E+03  0.22418301393E+03 -0.30446256513E+03  0.57332159558E+03  0.00000000000E+00 0. -1.
          1    1    5    5  503    0  0.61009430932E+02 -0.31127557388E+03 -0.27132462408E+02  0.31835641045E+03  0.00000000000E+00 0. -1.
         -2    1    5    5    0  503  0.11288825779E+03 -0.27429544835E+03 -0.77385692570E+02  0.30654575050E+03  0.00000000000E+00 0.  1.
         -3    1    6    6    0  502  0.86379176665E+01  0.13496619439E+02  0.23330438210E+01  0.16193068003E+02  0.00000000000E+00 0.  1.
<mgrwt>
<rscale>  0 0.20655868E+04</rscale>
<asrwt>0</asrwt>
<pdfrwt beam="1">  1        3 0.16381546E+00 0.20655868E+04</pdfrwt>
<pdfrwt beam="2">  1       -3 0.15411514E+00 0.20655868E+04</pdfrwt>
<totfact> 0.18614697E-01</totfact>
</mgrwt>
</event>
<event>
12    1  0.2540754E-007  0.1824059E+04  0.7818608E-02  0.8693609E-01
         -1   -1    0    0    0  501 -0.00000000000E+00  0.00000000000E+00  0.55435382024E+03  0.55435382024E+03  0.00000000000E+00 0.  1.
          1   -1    0    0  501    0  0.00000000000E+00 -0.00000000000E+00 -0.15004814417E+04  0.15004814417E+04  0.00000000000E+00 0. -1.
         23    2    1    2    0    0 -0.65275424016E+03 -0.80155151394E+02 -0.13663051328E+03  0.67779567047E+03  0.90698001124E+02 0.  0.
        254    2    1    2    0    0  0.65275424016E+03  0.80155151394E+02 -0.80949710816E+03  0.13770395914E+04  0.89913264980E+03 0.  0.
        -24    2    4    4    0    0  0.31502186854E+03  0.36737705893E+03 -0.48775153412E+02  0.49285043304E+03  0.79484921043E+02 0.  0.
         24    2    4    4    0    0  0.33773237162E+03 -0.28722190754E+03 -0.76072195474E+03  0.88418915839E+03  0.80826953292E+02 0.  0.
         13    1    3    3    0    0 -0.41064411114E+03 -0.92381133446E+02 -0.73310202985E+02  0.42724377782E+03  0.00000000000E+00 0. -1.
        -13    1    3    3    0    0 -0.24211012902E+03  0.12225982053E+02 -0.63320310290E+02  0.25055189264E+03  0.00000000000E+00 0.  1.
          4    1    6    6  502    0  0.17497564822E+03 -0.17731219656E+03 -0.35812700999E+03  0.43624654475E+03  0.00000000000E+00 0. -1.
          1    1    5    5  503    0  0.21232921969E+03  0.24693426559E+03 -0.70138863500E+02  0.33313614218E+03  0.00000000000E+00 0. -1.
         -2    1    5    5    0  503  0.10269264885E+03  0.12044279335E+03  0.21363710089E+02  0.15971429086E+03  0.00000000000E+00 0.  1.
         -3    1    6    6    0  502  0.16275672340E+03 -0.10990971099E+03 -0.40259494475E+03  0.44794261365E+03  0.00000000000E+00 0.  1.
<mgrwt>
<rscale>  0 0.18240588E+04</rscale>
<asrwt>0</asrwt>
<pdfrwt beam="1">  1        1 0.23084329E+00 0.18240588E+04</pdfrwt>
<pdfrwt beam="2">  1       -1 0.85285205E-01 0.18240588E+04</pdfrwt>
<totfact> 0.83657718E+00</totfact>
</mgrwt>
</event>
<event>
12    1  0.2433511E-007  0.2517751E+04  0.7818608E-02  0.8396689E-01
          2   -1    0    0  501    0  0.00000000000E+00  0.00000000000E+00  0.38365992876E+04  0.38365992876E+04  0.00000000000E+00 0. -1.
         -2   -1    0    0    0  501 -0.00000000000E+00 -0.00000000000E+00 -0.41306574454E+03  0.41306574454E+03  0.00000000000E+00 0.  1.
         23    2    1    2    0    0  0.73123905230E+02  0.50176232960E+03 -0.14491820652E+03  0.53536101617E+03  0.92182374310E+02 0.  0.
        254    2    1    2    0    0 -0.73123905230E+02 -0.50176232960E+03  0.35684517496E+04  0.37143040160E+04  0.89727024533E+03 0.  0.
        -24    2    4    4    0    0 -0.39424185833E+02 -0.25755200924E+03  0.20543654854E+03  0.34133649714E+03  0.80119441508E+02 0.  0.
         24    2    4    4    0    0 -0.33699719397E+02 -0.24421032036E+03  0.33630152011E+04  0.33729675189E+04  0.79147262281E+02 0.  0.
         11    1    3    3    0    0  0.29659709891E+02  0.10527478659E+03  0.44086769698E+01  0.10946193637E+03  0.00000000000E+00 0. -1.
        -11    1    3    3    0    0  0.43464195338E+02  0.39648754301E+03 -0.14932688349E+03  0.42589907979E+03  0.00000000000E+00 0.  1.
          4    1    6    6  502    0  0.45183454904E+00 -0.67523940395E+01  0.16087175171E+02  0.17452684169E+02  0.00000000000E+00 0. -1.
          3    1    5    5  503    0 -0.78019208630E+01  0.24939510577E+01 -0.37059572317E+00  0.81992135123E+01  0.00000000000E+00 0. -1.
         -4    1    5    5    0  503 -0.31622264970E+02 -0.26004596030E+03  0.20580714427E+03  0.33313728363E+03  0.00000000000E+00 0.  1.
         -3    1    6    6    0  502 -0.34151553946E+02 -0.23745792632E+03  0.33469280259E+04  0.33555148347E+04  0.00000000000E+00 0.  1.
<mgrwt>
<rscale>  0 0.25177512E+04</rscale>
<asrwt>0</asrwt>
<pdfrwt beam="1">  1        2 0.59024602E+00 0.25177512E+04</pdfrwt>
<pdfrwt beam="2">  1       -2 0.63548579E-01 0.25177512E+04</pdfrwt>
<totfact> 0.94205127E-01</totfact>
</mgrwt>
</event>
<event>
12    1  0.2839958E-007  0.2604612E+04  0.7818608E-02  0.8366636E-01
          1   -1    0    0  501    0  0.00000000000E+00  0.00000000000E+00  0.28055332464E+04  0.28055332464E+04  0.00000000000E+00 0. -1.
         -1   -1    0    0    0  501 -0.00000000000E+00 -0.00000000000E+00 -0.60451990296E+03  0.60451990296E+03  0.00000000000E+00 0.  1.
         23    2    1    2    0    0  0.12735800617E+03  0.10944118928E+04  0.56218155908E+03  0.12402935502E+04  0.91227914191E+02 0.  0.
        254    2    1    2    0    0 -0.12735800617E+03 -0.10944118928E+04  0.16388317844E+04  0.21697595992E+04  0.89896031498E+03 0.  0.
        -24    2    4    4    0    0 -0.25768666297E+03 -0.50836795020E+03  0.14089725460E+04  0.15220622460E+04  0.81421472751E+02 0.  0.
         24    2    4    4    0    0  0.13032865681E+03 -0.58604394263E+03  0.22985923839E+03  0.64769735322E+03  0.79016013649E+02 0.  0.
         13    1    3    3    0    0  0.43359789006E+02  0.39197901816E+03  0.25077760670E+03  0.46735107789E+03  0.00000000000E+00 0. -1.
        -13    1    3    3    0    0  0.83998217161E+02  0.70243287467E+03  0.31140395238E+03  0.77294247229E+03  0.00000000000E+00 0.  1.
          2    1    6    6  502    0  0.18065589874E+01 -0.16462505974E+03  0.71984411207E+02  0.17968424919E+03  0.00000000000E+00 0. -1.
          3    1    5    5  503    0 -0.48206794165E+02 -0.50108984187E+02  0.22010279715E+03  0.23082470971E+03  0.00000000000E+00 0. -1.
         -4    1    5    5    0  503 -0.20947986881E+03 -0.45825896601E+03  0.11888697488E+04  0.12912375362E+04  0.00000000000E+00 0.  1.
         -1    1    6    6    0  502  0.12852209782E+03 -0.42141888289E+03  0.15787482718E+03  0.46801310402E+03  0.00000000000E+00 0.  1.
<mgrwt>
<rscale>  0 0.26046118E+04</rscale>
<asrwt>0</asrwt>
<pdfrwt beam="1">  1        1 0.43162049E+00 0.26046118E+04</pdfrwt>
<pdfrwt beam="2">  1       -1 0.93003063E-01 0.26046118E+04</pdfrwt>
<totfact> 0.81617889E-01</totfact>
</mgrwt>
</event>
<event>
12    1  0.2433511E-007  0.1377731E+04  0.7818608E-02  0.8970098E-01
          1   -1    0    0  501    0  0.00000000000E+00  0.00000000000E+00  0.74477026227E+03  0.74477026227E+03  0.00000000000E+00 0. -1.
         -1   -1    0    0    0  501 -0.00000000000E+00 -0.00000000000E+00 -0.63715721128E+03  0.63715721128E+03  0.00000000000E+00 0.  1.
         23    2    1    2    0    0  0.36289579943E+03  0.82960394341E+02 -0.57455818473E+02  0.38780939346E+03  0.92299329933E+02 0.  0.
        254    2    1    2    0    0 -0.36289579943E+03 -0.82960394341E+02  0.16506886947E+03  0.99411808009E+03  0.90688876783E+03 0.  0.
        -24    2    4    4    0    0 -0.51588005174E+01 -0.64288319001E+02  0.49190851973E+03  0.50273355660E+03  0.81286136376E+02 0.  0.
         24    2    4    4    0    0 -0.35773699891E+03 -0.18672075341E+02 -0.32683965025E+03  0.49138452349E+03  0.79436680204E+02 0.  0.
         13    1    3    3    0    0  0.23963576533E+03  0.73576673432E+02 -0.77925310714E+02  0.26250939211E+03  0.00000000000E+00 0.  1.
        -13    1    3    3    0    0  0.12326003410E+03  0.93837209089E+01  0.20469492240E+02  0.12530000135E+03  0.00000000000E+00 0. -1.
          2    1    6    6  502    0 -0.33972667130E+03 -0.36142600932E+02 -0.30833324880E+03  0.46020635710E+03  0.00000000000E+00 0. -1.
          1    1    5    5  503    0  0.53023709569E+01 -0.67418943755E+02  0.48525896584E+03  0.48994866368E+03  0.00000000000E+00 0. -1.
         -4    1    5    5    0  503 -0.10461171474E+02  0.31306247547E+01  0.66495538847E+01  0.12784892915E+02  0.00000000000E+00 0.  1.
         -1    1    6    6    0  502 -0.18010327611E+02  0.17470525592E+02 -0.18506401450E+02  0.31178166395E+02  0.00000000000E+00 0.  1.
<mgrwt>
<rscale>  0 0.13777311E+04</rscale>
<asrwt>0</asrwt>
<pdfrwt beam="1">  1        1 0.11458004E+00 0.13777311E+04</pdfrwt>
<pdfrwt beam="2">  1       -1 0.98024187E-01 0.13777311E+04</pdfrwt>
<totfact> 0.24136502E+01</totfact>
</mgrwt>
</event>
<event>
12    1  0.2433511E-007  0.3363405E+04  0.7818608E-02  0.8146947E-01
          1   -1    0    0  501    0  0.00000000000E+00  0.00000000000E+00  0.10715400480E+04  0.10715400480E+04  0.00000000000E+00 0. -1.
         -1   -1    0    0    0  501 -0.00000000000E+00 -0.00000000000E+00 -0.26393070217E+04  0.26393070217E+04  0.00000000000E+00 0.  1.
         23    2    1    2    0    0  0.25011713467E+03 -0.15391721337E+04 -0.69289577285E+03  0.17087700213E+04  0.90448856604E+02 0.  0.
        254    2    1    2    0    0 -0.25011713467E+03  0.15391721337E+04 -0.87487120087E+03  0.20020770483E+04  0.90072384846E+03 0.  0.
        -24    2    4    4    0    0 -0.21966441112E+03  0.17737780457E+03  0.11595585795E+03  0.31581855446E+03  0.81118797329E+02 0.  0.
         24    2    4    4    0    0 -0.30452723547E+02  0.13617943291E+04 -0.99082705882E+03  0.16862584939E+04  0.79487637428E+02 0.  0.
         13    1    3    3    0    0  0.19828800217E+03 -0.13696277981E+04 -0.63115612885E+03  0.15210379667E+04  0.00000000000E+00 0.  1.
        -13    1    3    3    0    0  0.51829132502E+02 -0.16954433552E+03 -0.61739644000E+02  0.18773205460E+03  0.00000000000E+00 0. -1.
          4    1    6    6  502    0 -0.39776931884E+02  0.98155175892E+03 -0.67553802850E+03  0.11922154536E+04  0.00000000000E+00 0. -1.
          1    1    5    5  503    0 -0.12591453157E+03  0.12290017247E+03  0.10940539849E+03  0.20719185040E+03  0.00000000000E+00 0. -1.
         -2    1    5    5    0  503 -0.93749879553E+02  0.54477632097E+02  0.65504594585E+01  0.10862670406E+03  0.00000000000E+00 0.  1.
         -3    1    6    6    0  502  0.93242083374E+01  0.38024257017E+03 -0.31528903031E+03  0.49404304030E+03  0.00000000000E+00 0.  1.
<mgrwt>
<rscale>  0 0.33634049E+04</rscale>
<asrwt>0</asrwt>
<pdfrwt beam="1">  1        1 0.16485232E+00 0.33634049E+04</pdfrwt>
<pdfrwt beam="2">  1       -1 0.40604723E+00 0.33634049E+04</pdfrwt>
<totfact> 0.71439531E-02</totfact>
</mgrwt>
</event>
<event>
12    1  0.2433511E-007  0.3020773E+04  0.7818608E-02  0.8237824E-01
          1   -1    0    0  501    0  0.00000000000E+00  0.00000000000E+00  0.26548943914E+04  0.26548943914E+04  0.00000000000E+00 0. -1.
         -1   -1    0    0    0  501 -0.00000000000E+00 -0.00000000000E+00 -0.85926871495E+03  0.85926871495E+03  0.00000000000E+00 0.  1.
         23    2    1    2    0    0 -0.50920583096E+03  0.12577365302E+04  0.56665324317E+03  0.14732721234E+04  0.90791485728E+02 0.  0.
        254    2    1    2    0    0  0.50920583096E+03 -0.12577365302E+04  0.12289724332E+04  0.20408909829E+04  0.90203714152E+03 0.  0.
        -24    2    4    4    0    0  0.23529017453E+03 -0.43733660165E+02 -0.47006752493E+02  0.25665179643E+03  0.79915020935E+02 0.  0.
         24    2    4    4    0    0  0.27391565644E+03 -0.12140028701E+04  0.12759791857E+04  0.17842391865E+04  0.80955770353E+02 0.  0.
         11    1    3    3    0    0 -0.26289536239E+03  0.57209377191E+03  0.22506865352E+03  0.66862631883E+03  0.00000000000E+00 0. -1.
        -11    1    3    3    0    0 -0.24631046857E+03  0.68564275830E+03  0.34158458965E+03  0.80464580458E+03  0.00000000000E+00 0.  1.
          4    1    6    6  502    0  0.62121987747E+02 -0.38032281725E+03  0.35330461050E+03  0.52280850652E+03  0.00000000000E+00 0. -1.
          3    1    5    5  503    0  0.14008720200E+03  0.14249072716E+02 -0.28206104451E+02  0.14360725805E+03  0.00000000000E+00 0. -1.
         -4    1    5    5    0  503  0.95202972533E+02 -0.57982732881E+02 -0.18800648043E+02  0.11304453838E+03  0.00000000000E+00 0.  1.
         -1    1    6    6    0  502  0.21179366869E+03 -0.83368005280E+03  0.92267457524E+03  0.12614306800E+04  0.00000000000E+00 0.  1.
<mgrwt>
<rscale>  0 0.30207732E+04</rscale>
<asrwt>0</asrwt>
<pdfrwt beam="1">  1        1 0.40844529E+00 0.30207732E+04</pdfrwt>
<pdfrwt beam="2">  1       -1 0.13219519E+00 0.30207732E+04</pdfrwt>
<totfact> 0.43578259E-01</totfact>
</mgrwt>
</event>
<event>
12    1  0.2433511E-007  0.2902762E+04  0.7818608E-02  0.8272056E-01
          1   -1    0    0  501    0  0.00000000000E+00  0.00000000000E+00  0.72288289588E+03  0.72288289588E+03  0.00000000000E+00 0. -1.
         -1   -1    0    0    0  501 -0.00000000000E+00 -0.00000000000E+00 -0.29140366529E+04  0.29140366529E+04  0.00000000000E+00 0.  1.
         23    2    1    2    0    0 -0.84360047631E+03 -0.45603014946E+02 -0.22451840395E+04  0.24001887950E+04  0.79457419329E+02 0.  0.
        254    2    1    2    0    0  0.84360047631E+03  0.45603014946E+02  0.54030282542E+02  0.12367307538E+04  0.90157766571E+03 0.  0.
        -24    2    4    4    0    0  0.32443450553E+03 -0.31674168382E+03 -0.25723479028E+03  0.52676290540E+03  0.75672838751E+02 0.  0.
         24    2    4    4    0    0  0.51916597078E+03  0.36234469877E+03  0.31126507283E+03  0.70996784838E+03  0.79632997132E+02 0.  0.
         13    1    3    3    0    0 -0.44650901633E+03 -0.55675565101E+02 -0.12604084287E+04  0.13383196470E+04  0.00000000000E+00 0.  1.
        -13    1    3    3    0    0 -0.39709145998E+03  0.10072550155E+02 -0.98477561079E+03  0.10618691480E+04  0.00000000000E+00 0. -1.
          4    1    6    6  502    0  0.43434086837E+03  0.27792880098E+03  0.22586363811E+03  0.56294830257E+03  0.00000000000E+00 0. -1.
          3    1    5    5  503    0  0.32006218113E+03 -0.31421296021E+03 -0.23977637803E+03  0.50858853272E+03  0.00000000000E+00 0. -1.
         -4    1    5    5    0  503  0.43723243948E+01 -0.25287236113E+01 -0.17458412256E+02  0.18174372677E+02  0.00000000000E+00 0.  1.
         -3    1    6    6    0  502  0.84825102415E+02  0.84415897782E+02  0.85401434715E+02  0.14701954581E+03  0.00000000000E+00 0.  1.
<mgrwt>
<rscale>  0 0.29027623E+04</rscale>
<asrwt>0</asrwt>
<pdfrwt beam="1">  1        1 0.11121275E+00 0.29027623E+04</pdfrwt>
<pdfrwt beam="2">  1       -1 0.44831333E+00 0.29027623E+04</pdfrwt>
<totfact> 0.73885709E-02</totfact>
</mgrwt>
</event>
<event>
12    1  0.2433511E-007  0.1932447E+04  0.7818608E-02  0.8638872E-01
         -2   -1    0    0    0  501 -0.00000000000E+00  0.00000000000E+00  0.80274690009E+03  0.80274690009E+03  0.00000000000E+00 0.  1.
          2   -1    0    0  501    0  0.00000000000E+00 -0.00000000000E+00 -0.11629911480E+04  0.11629911480E+04  0.00000000000E+00 0. -1.
         23    2    1    2    0    0  0.11026116081E+03  0.73626835972E+03 -0.26035457845E+03  0.79357120755E+03  0.87875672592E+02 0.  0.
        254    2    1    2    0    0 -0.11026116081E+03 -0.73626835972E+03 -0.99889669418E+02  0.11721668405E+04  0.89986028625E+03 0.  0.
        -24    2    4    4    0    0  0.35180881520E+03 -0.17723515439E+03 -0.17565412423E+03  0.43883695797E+03  0.80881159234E+02 0.  0.
         24    2    4    4    0    0 -0.46206997600E+03 -0.55903320532E+03  0.75764454809E+02  0.73332988252E+03  0.77496300568E+02 0.  0.
         13    1    3    3    0    0  0.74832738470E+02  0.29046339833E+03 -0.13636324084E+03  0.32949030027E+03  0.00000000000E+00 0. -1.
        -13    1    3    3    0    0  0.35428422339E+02  0.44580496138E+03 -0.12399133761E+03  0.46408090728E+03  0.00000000000E+00 0.  1.
          2    1    6    6  502    0 -0.38559220595E+02 -0.87369823830E+02  0.10963244876E+02  0.96127479667E+02  0.00000000000E+00 0. -1.
          1    1    5    5  503    0  0.19447460637E+02 -0.29155800277E+02 -0.57922582901E+00  0.35051389667E+02  0.00000000000E+00 0. -1.
         -2    1    5    5    0  503  0.33236135456E+03 -0.14807935411E+03 -0.17507489840E+03  0.40378556830E+03  0.00000000000E+00 0.  1.
         -1    1    6    6    0  502 -0.42351075541E+03 -0.47166338149E+03  0.64801209933E+02  0.63720240285E+03  0.00000000000E+00 0.  1.
<mgrwt>
<rscale>  0 0.19324467E+04</rscale>
<asrwt>0</asrwt>
<pdfrwt beam="1">  1        2 0.17892171E+00 0.19324467E+04</pdfrwt>
<pdfrwt beam="2">  1       -2 0.12349952E+00 0.19324467E+04</pdfrwt>
<totfact> 0.92059237E+00</totfact>
</mgrwt>
</event>
<event>
12    1  0.2433511E-007  0.2056999E+04  0.7818608E-02  0.8580426E-01
         -2   -1    0    0    0  501 -0.00000000000E+00  0.00000000000E+00  0.63391678695E+03  0.63391678695E+03  0.00000000000E+00 0.  1.
          2   -1    0    0  501    0  0.00000000000E+00 -0.00000000000E+00 -0.16686915341E+04  0.16686915341E+04  0.00000000000E+00 0. -1.
         23    2    1    2    0    0  0.72986717762E+03  0.30245209535E+03 -0.69836526004E+03  0.10585918872E+04  0.93377621697E+02 0.  0.
        254    2    1    2    0    0 -0.72986717762E+03 -0.30245209535E+03 -0.33640948711E+03  0.12440164339E+04  0.90012342362E+03 0.  0.
        -24    2    4    4    0    0 -0.41382027828E+03 -0.79238493985E+02  0.27900548223E+03  0.51272408509E+03  0.86694675042E+02 0.  0.
         24    2    4    4    0    0 -0.31604689934E+03 -0.22321360136E+03 -0.61541496934E+03  0.73129234877E+03  0.79642705043E+02 0.  0.
         11    1    3    3    0    0  0.81835845903E+02  0.43268551231E+01 -0.63569927431E+02  0.10371578001E+03  0.00000000000E+00 0.  1.
        -11    1    3    3    0    0  0.64803133172E+03  0.29812524023E+03 -0.63479533261E+03  0.95487610717E+03  0.00000000000E+00 0. -1.
          4    1    6    6  502    0 -0.35106636161E+02  0.15723924537E+01 -0.50351404327E+02  0.61402054023E+02  0.00000000000E+00 0. -1.
          1    1    5    5  503    0 -0.37811959922E+02 -0.33319736126E+02  0.22153666760E+02  0.55052103317E+02  0.00000000000E+00 0. -1.
         -2    1    5    5    0  503 -0.37600831835E+03 -0.45918757859E+02  0.25685181547E+03  0.45767198178E+03  0.00000000000E+00 0.  1.
         -1    1    6    6    0  502 -0.28094026318E+03 -0.22478599382E+03 -0.56506356501E+03  0.66989029475E+03  0.00000000000E+00 0.  1.
<mgrwt>
<rscale>  0 0.20569993E+04</rscale>
<asrwt>0</asrwt>
<pdfrwt beam="1">  1        2 0.25672178E+00 0.20569993E+04</pdfrwt>
<pdfrwt beam="2">  1       -2 0.97525659E-01 0.20569993E+04</pdfrwt>
<totfact> 0.82739214E+00</totfact>
</mgrwt>
</event>
<event>
12    1  0.2433511E-007  0.2273727E+04  0.7818608E-02  0.8488353E-01
         -2   -1    0    0    0  501 -0.00000000000E+00  0.00000000000E+00  0.82874620465E+03  0.82874620465E+03  0.00000000000E+00 0.  1.
          2   -1    0    0  501    0  0.00000000000E+00 -0.00000000000E+00 -0.15595352933E+04  0.15595352933E+04  0.00000000000E+00 0. -1.
         23    2    1    2    0    0  0.91777655745E+03  0.23339005578E+03 -0.43743972114E+03  0.10472510223E+04  0.92717131490E+02 0.  0.
        254    2    1    2    0    0 -0.91777655745E+03 -0.23339005578E+03 -0.29334936752E+03  0.13410304757E+04  0.90306376173E+03 0.  0.
        -24    2    4    4    0    0  0.14014779329E+03  0.10570435984E+03 -0.30828813464E+02  0.19660132413E+03  0.82987042697E+02 0.  0.
         24    2    4    4    0    0 -0.10579243507E+04 -0.33909441562E+03 -0.26252055406E+03  0.11444291516E+04  0.81314740600E+02 0.  0.
         11    1    3    3    0    0  0.42102163573E+03  0.14017519978E+03 -0.16790131820E+03  0.47444615821E+03  0.00000000000E+00 0.  1.
        -11    1    3    3    0    0  0.49675492173E+03  0.93214855999E+02 -0.26953840294E+03  0.57280486407E+03  0.00000000000E+00 0. -1.
          4    1    6    6  502    0 -0.54258715457E+03 -0.15899750400E+03 -0.94421124251E+02  0.57323326428E+03  0.00000000000E+00 0. -1.
          1    1    5    5  503    0  0.65968653137E+02  0.32201451617E+02 -0.52114216618E+02  0.90026042103E+02  0.00000000000E+00 0. -1.
         -2    1    5    5    0  503  0.74179140153E+02  0.73502908223E+02  0.21285403154E+02  0.10657528202E+03  0.00000000000E+00 0.  1.
         -3    1    6    6    0  502 -0.51533719618E+03 -0.18009691162E+03 -0.16809942981E+03  0.57119588728E+03  0.00000000000E+00 0.  1.
<mgrwt>
<rscale>  0 0.22737273E+04</rscale>
<asrwt>0</asrwt>
<pdfrwt beam="1">  1        2 0.23992850E+00 0.22737273E+04</pdfrwt>
<pdfrwt beam="2">  1       -2 0.12749942E+00 0.22737273E+04</pdfrwt>
<totfact> 0.48707150E+00</totfact>
</mgrwt>
</event>
<event>
12    1  0.2951485E-007  0.2372662E+04  0.7818608E-02  0.8449810E-01
          1   -1    0    0  501    0  0.00000000000E+00  0.00000000000E+00  0.22417086013E+04  0.22417086013E+04  0.00000000000E+00 0. -1.
         -1   -1    0    0    0  501 -0.00000000000E+00 -0.00000000000E+00 -0.62781654280E+03  0.62781654280E+03  0.00000000000E+00 0.  1.
         23    2    1    2    0    0  0.34418956910E+03 -0.92627828711E+03  0.96633705332E+03  0.13851073008E+04  0.90868088282E+02 0.  0.
        254    2    1    2    0    0 -0.34418956910E+03  0.92627828711E+03  0.64755500520E+03  0.14844178433E+04  0.89872739143E+03 0.  0.
        -24    2    4    4    0    0 -0.21889281105E+03  0.34726565457E+03  0.76817213661E+03  0.87454145379E+03  0.78910236163E+02 0.  0.
         24    2    4    4    0    0 -0.12529675805E+03  0.57901263254E+03 -0.12061713141E+03  0.60987638951E+03  0.80285813659E+02 0.  0.
         13    1    3    3    0    0  0.80523650334E+02 -0.17397324993E+03  0.23511475330E+03  0.30336396815E+03  0.00000000000E+00 0. -1.
        -13    1    3    3    0    0  0.26366591877E+03 -0.75230503718E+03  0.73122230002E+03  0.10817433327E+04  0.00000000000E+00 0.  1.
          4    1    6    6  502    0 -0.12582159548E+03  0.55433747671E+03 -0.13060969500E+03  0.58324952156E+03  0.00000000000E+00 0. -1.
          3    1    5    5  503    0 -0.20901163768E+03  0.29498707235E+03  0.70207545801E+03  0.78969182994E+03  0.00000000000E+00 0. -1.
         -4    1    5    5    0  503 -0.98811733732E+01  0.52278582220E+02  0.66096678596E+02  0.84849623850E+02  0.00000000000E+00 0.  1.
         -3    1    6    6    0  502  0.52483742895E+00  0.24675155830E+02  0.99925635941E+01  0.26626867948E+02  0.00000000000E+00 0.  1.
<mgrwt>
<rscale>  0 0.23726624E+04</rscale>
<asrwt>0</asrwt>
<pdfrwt beam="1">  1        1 0.34487824E+00 0.23726624E+04</pdfrwt>
<pdfrwt beam="2">  1       -1 0.96587161E-01 0.23726624E+04</pdfrwt>
<totfact> 0.18898685E+00</totfact>
</mgrwt>
</event>
<event>
12    1  0.2433511E-007  0.1881236E+04  0.7818608E-02  0.8664253E-01
         -3   -1    0    0    0  501 -0.00000000000E+00  0.00000000000E+00  0.10287114129E+04  0.10287114129E+04  0.00000000000E+00 0.  1.
          3   -1    0    0  501    0  0.00000000000E+00 -0.00000000000E+00 -0.86006879631E+03  0.86006879631E+03  0.00000000000E+00 0. -1.
         23    2    1    2    0    0  0.31211256823E+03 -0.59023723853E+03 -0.20756416531E+03  0.70530838270E+03  0.92643288940E+02 0.  0.
        254    2    1    2    0    0 -0.31211256823E+03  0.59023723853E+03  0.37620678190E+03  0.11834718265E+04  0.90182025282E+03 0.  0.
        -24    2    4    4    0    0 -0.30881514719E+03  0.81951993456E+03  0.30316420368E+03  0.93029989860E+03  0.81053369199E+02 0.  0.
         24    2    4    4    0    0 -0.32974210330E+01 -0.22928269603E+03  0.73042578221E+02  0.25317192791E+03  0.78609027243E+02 0.  0.
         13    1    3    3    0    0  0.14851239856E+03 -0.35023377693E+03 -0.15155616222E+03  0.40949835327E+03  0.00000000000E+00 0. -1.
        -13    1    3    3    0    0  0.16360016966E+03 -0.24000346160E+03 -0.56008003092E+02  0.29581002942E+03  0.00000000000E+00 0.  1.
          2    1    6    6  502    0  0.37391642356E+02 -0.10645154248E+03  0.29112874446E+02  0.11652306756E+03  0.00000000000E+00 0. -1.
          3    1    5    5  503    0 -0.28451048611E+03  0.68370615855E+03  0.23912424066E+03  0.77819067741E+03  0.00000000000E+00 0. -1.
         -4    1    5    5    0  503 -0.24304661084E+02  0.13581377602E+03  0.64039963022E+02  0.15210922119E+03  0.00000000000E+00 0.  1.
         -1    1    6    6    0  502 -0.40689063389E+02 -0.12283115355E+03  0.43929703775E+02  0.13664886035E+03  0.00000000000E+00 0.  1.
<mgrwt>
<rscale>  0 0.18812364E+04</rscale>
<asrwt>0</asrwt>
<pdfrwt beam="1">  1        3 0.13231828E+00 0.18812364E+04</pdfrwt>
<pdfrwt beam="2">  1       -3 0.15826329E+00 0.18812364E+04</pdfrwt>
<totfact> 0.30590654E-01</totfact>
</mgrwt>
</event>
<event>
12    1  0.2433511E-007  0.1756076E+04  0.7818608E-02  0.8730013E-01
          2   -1    0    0  501    0  0.00000000000E+00  0.00000000000E+00  0.19560392165E+04  0.19560392165E+04  0.00000000000E+00 0. -1.
         -2   -1    0    0    0  501 -0.00000000000E+00 -0.00000000000E+00 -0.39413851315E+03  0.39413851315E+03  0.00000000000E+00 0.  1.
         23    2    1    2    0    0  0.66347839517E+02 -0.89436811041E+02 -0.26988511089E+03  0.30575345719E+03  0.90808724952E+02 0.  0.
        254    2    1    2    0    0 -0.66347839517E+02  0.89436811041E+02  0.18317858142E+04  0.20444242724E+04  0.90101629150E+03 0.  0.
        -24    2    4    4    0    0  0.17803108810E+03 -0.30959452509E+03  0.43195060399E+03  0.56614026136E+03  0.79935179705E+02 0.  0.
         24    2    4    4    0    0 -0.24437892762E+03  0.39903133613E+03  0.13998352102E+04  0.14782840111E+04  0.82691801965E+02 0.  0.
         11    1    3    3    0    0  0.56242003008E+02 -0.85232741583E+02 -0.12938653594E+03  0.16482918074E+03  0.00000000000E+00 0. -1.
        -11    1    3    3    0    0  0.10105836510E+02 -0.42040694587E+01 -0.14049857495E+03  0.14092427645E+03  0.00000000000E+00 0.  1.
          4    1    6    6  502    0 -0.58251831912E+02  0.54617236016E+02  0.31524505106E+03  0.32520110794E+03  0.00000000000E+00 0. -1.
          3    1    5    5  503    0  0.13295958453E+03 -0.15838105216E+03  0.22036048670E+03  0.30219456133E+03  0.00000000000E+00 0. -1.
         -4    1    5    5    0  503  0.45071503571E+02 -0.15121347293E+03  0.21159011729E+03  0.26394570003E+03  0.00000000000E+00 0.  1.
         -3    1    6    6    0  502 -0.18612709570E+03  0.34441410011E+03  0.10845901592E+04  0.11530829031E+04  0.00000000000E+00 0.  1.
<mgrwt>
<rscale>  0 0.17560756E+04</rscale>
<asrwt>0</asrwt>
<pdfrwt beam="1">  1        2 0.30092911E+00 0.17560756E+04</pdfrwt>
<pdfrwt beam="2">  1       -2 0.60636695E-01 0.17560756E+04</pdfrwt>
<totfact> 0.16958844E+01</totfact>
</mgrwt>
</event>
<event>
12    1  0.2433511E-007  0.1516956E+04  0.7818608E-02  0.8873255E-01
          2   -1    0    0  501    0  0.00000000000E+00  0.00000000000E+00  0.64127067816E+03  0.64127067816E+03  0.00000000000E+00 0. -1.
         -2   -1    0    0    0  501 -0.00000000000E+00 -0.00000000000E+00 -0.89710719455E+03  0.89710719455E+03  0.00000000000E+00 0.  1.
         23    2    1    2    0    0  0.42165819172E+03  0.23930971081E+03 -0.64857395563E+02  0.49726470463E+03  0.89447953453E+02 0.  0.
        254    2    1    2    0    0 -0.42165819172E+03 -0.23930971081E+03 -0.19097912083E+03  0.10411131681E+04  0.90132060656E+03 0.  0.
        -24    2    4    4    0    0 -0.54253360607E+03 -0.19558989736E+03 -0.45365364961E+03  0.73798871529E+03  0.78915070947E+02 0.  0.
         24    2    4    4    0    0  0.12087541434E+03 -0.43719813449E+02  0.26267452878E+03  0.30312445279E+03  0.79776173933E+02 0.  0.
         13    1    3    3    0    0  0.23247915925E+03  0.12378980011E+03  0.92462121179E+01  0.26354499907E+03  0.00000000000E+00 0. -1.
        -13    1    3    3    0    0  0.18917903248E+03  0.11551991070E+03 -0.74103607681E+02  0.23371970556E+03  0.00000000000E+00 0.  1.
          4    1    6    6  502    0 -0.11178320321E+02 -0.28145516032E+01  0.10751690372E+02  0.15763102226E+02  0.00000000000E+00 0. -1.
          3    1    5    5  503    0 -0.21718448597E+02  0.10781603933E+00 -0.28415300017E+01  0.21903810776E+02  0.00000000000E+00 0. -1.
         -4    1    5    5    0  503 -0.52081515747E+03 -0.19569771340E+03 -0.45081211961E+03  0.71608490451E+03  0.00000000000E+00 0.  1.
         -3    1    6    6    0  502  0.13205373467E+03 -0.40905261846E+02  0.25192283841E+03  0.28736135056E+03  0.00000000000E+00 0.  1.
<mgrwt>
<rscale>  0 0.15169556E+04</rscale>
<asrwt>0</asrwt>
<pdfrwt beam="1">  1        2 0.98657027E-01 0.15169556E+04</pdfrwt>
<pdfrwt beam="2">  1       -2 0.13801649E+00 0.15169556E+04</pdfrwt>
<totfact> 0.16435536E+01</totfact>
</mgrwt>
</event>
<event>
12    1  0.2433511E-007  0.1668691E+04  0.7818608E-02  0.8779425E-01
         -1   -1    0    0    0  501 -0.00000000000E+00  0.00000000000E+00  0.67890553361E+03  0.67890553361E+03  0.00000000000E+00 0.  1.
          1   -1    0    0  501    0  0.00000000000E+00 -0.00000000000E+00 -0.10253744998E+04  0.10253744998E+04  0.00000000000E+00 0. -1.
         23    2    1    2    0    0  0.22397742264E+03 -0.54110991144E+03 -0.16547388866E+03  0.61568343658E+03  0.93373787271E+02 0.  0.
        254    2    1    2    0    0 -0.22397742264E+03  0.54110991144E+03 -0.18099507752E+03  0.10885965968E+04  0.89962075922E+03 0.  0.
        -24    2    4    4    0    0 -0.20785693110E+03  0.77823915690E+03 -0.64912259084E+02  0.81205877972E+03  0.79782023089E+02 0.  0.
         24    2    4    4    0    0 -0.16120491540E+02 -0.23712924546E+03 -0.11608281844E+03  0.27653781710E+03  0.80670900863E+02 0.  0.
         13    1    3    3    0    0  0.61498352398E+02 -0.64025282326E+02 -0.31341879366E+02  0.94146680913E+02  0.00000000000E+00 0. -1.
        -13    1    3    3    0    0  0.16247907024E+03 -0.47708462911E+03 -0.13413200929E+03  0.52153675567E+03  0.00000000000E+00 0.  1.
          2    1    6    6  502    0  0.11782727745E+02 -0.96412003318E+02 -0.90462977251E+01  0.97549692770E+02  0.00000000000E+00 0. -1.
          1    1    5    5  503    0 -0.14854856240E+03  0.41884390855E+03 -0.53602932628E+02  0.44762726627E+03  0.00000000000E+00 0. -1.
         -2    1    5    5    0  503 -0.59308368698E+02  0.35939524835E+03 -0.11309326455E+02  0.36443151345E+03  0.00000000000E+00 0.  1.
         -1    1    6    6    0  502 -0.27903219285E+02 -0.14071724215E+03 -0.10703652071E+03  0.17898812433E+03  0.00000000000E+00 0.  1.
<mgrwt>
<rscale>  0 0.16686910E+04</rscale>
<asrwt>0</asrwt>
<pdfrwt beam="1">  1        1 0.15774992E+00 0.16686910E+04</pdfrwt>
<pdfrwt beam="2">  1       -1 0.10444701E+00 0.16686910E+04</pdfrwt>
<totfact> 0.11891814E+01</totfact>
</mgrwt>
</event>
<event>
12    1  0.2433511E-007  0.1084993E+04  0.7818608E-02  0.9219943E-01
         -2   -1    0    0    0  501 -0.00000000000E+00  0.00000000000E+00  0.78779489106E+03  0.78779489106E+03  0.00000000000E+00 0.  1.
          2   -1    0    0  501    0  0.00000000000E+00 -0.00000000000E+00 -0.37357768986E+03  0.37357768986E+03  0.00000000000E+00 0. -1.
         23    2    1    2    0    0 -0.61688958529E+02 -0.12546328182E+03  0.48706433108E+02  0.17479834221E+03  0.92927827494E+02 0.  0.
        254    2    1    2    0    0  0.61688958529E+02  0.12546328182E+03  0.36551076809E+03  0.98657423871E+03  0.90564012952E+03 0.  0.
        -24    2    4    4    0    0 -0.33301474122E+03 -0.76426851034E+02 -0.74242424696E+02  0.35814720127E+03  0.77573183018E+02 0.  0.
         24    2    4    4    0    0  0.39470369975E+03  0.20189013286E+03  0.43975319279E+03  0.62842703743E+03  0.70618938450E+02 0.  0.
         11    1    3    3    0    0  0.19290511549E+02 -0.16188868902E+01  0.10287957938E+02  0.21922287953E+02  0.00000000000E+00 0. -1.
        -11    1    3    3    0    0 -0.80979470078E+02 -0.12384439493E+03  0.38418475170E+02  0.15287605426E+03  0.00000000000E+00 0.  1.
          2    1    6    6  502    0  0.30780508908E+02 -0.24684803321E+01  0.22104484403E+02  0.37975536263E+02  0.00000000000E+00 0. -1.
          3    1    5    5  503    0 -0.13007109433E+03 -0.11874984608E+02 -0.62673675362E+02  0.14487061269E+03  0.00000000000E+00 0. -1.
         -4    1    5    5    0  503 -0.20294364690E+03 -0.64551866426E+02 -0.11568749335E+02  0.21327658858E+03  0.00000000000E+00 0.  1.
         -1    1    6    6    0  502  0.36392319084E+03  0.20435861319E+03  0.41764870839E+03  0.59045150117E+03  0.00000000000E+00 0.  1.
<mgrwt>
<rscale>  0 0.10849933E+04</rscale>
<asrwt>0</asrwt>
<pdfrwt beam="1">  1        2 0.57473491E-01 0.10849933E+04</pdfrwt>
<pdfrwt beam="2">  1       -2 0.12119921E+00 0.10849933E+04</pdfrwt>
<totfact> 0.44191380E+01</totfact>
</mgrwt>
</event>
<event>
12    1  0.2433511E-007  0.2553501E+04  0.7818608E-02  0.8384170E-01
         -1   -1    0    0    0  501 -0.00000000000E+00  0.00000000000E+00  0.12817492094E+04  0.12817492094E+04  0.00000000000E+00 0.  1.
          1   -1    0    0  501    0  0.00000000000E+00 -0.00000000000E+00 -0.12717710864E+04  0.12717710864E+04  0.00000000000E+00 0. -1.
         23    2    1    2    0    0  0.10223091360E+04 -0.41953230879E+03  0.11190769313E+03  0.11175531437E+04  0.12360570130E+03 0.  0.
        254    2    1    2    0    0 -0.10223091360E+04  0.41953230879E+03 -0.10192957018E+03  0.14359671521E+04  0.91131152577E+03 0.  0.
        -24    2    4    4    0    0 -0.83015937622E+03  0.13710761402E+03 -0.43634688565E+03  0.95109484730E+03  0.78865177278E+02 0.  0.
         24    2    4    4    0    0 -0.19214975981E+03  0.28242469477E+03  0.33441731546E+03  0.48487230484E+03  0.81123194654E+02 0.  0.
         11    1    3    3    0    0  0.41014121704E+03 -0.18394174650E+03  0.10490564021E+03  0.46157943777E+03  0.00000000000E+00 0.  1.
        -11    1    3    3    0    0  0.61216791899E+03 -0.23559056229E+03  0.70020529253E+01  0.65597370590E+03  0.00000000000E+00 0. -1.
          4    1    6    6  502    0 -0.11677102655E+03  0.10035430769E+03  0.14200687639E+03  0.20945742444E+03  0.00000000000E+00 0. -1.
          3    1    5    5  503    0 -0.22704861499E+03  0.25516666834E+02 -0.15639411224E+03  0.27687775678E+03  0.00000000000E+00 0. -1.
         -4    1    5    5    0  503 -0.60311076123E+03  0.11159094719E+03 -0.27995277341E+03  0.67421709052E+03  0.00000000000E+00 0.  1.
         -3    1    6    6    0  502 -0.75378733257E+02  0.18207038708E+03  0.19241043908E+03  0.27541488040E+03  0.00000000000E+00 0.  1.
<mgrwt>
<rscale>  0 0.25535008E+04</rscale>
<asrwt>0</asrwt>
<pdfrwt beam="1">  1        1 0.19565709E+00 0.25535008E+04</pdfrwt>
<pdfrwt beam="2">  1       -1 0.19719219E+00 0.25535008E+04</pdfrwt>
<totfact> 0.13191761E+00</totfact>
</mgrwt>
</event>
<event>
12    1  0.2433511E-007  0.2767673E+04  0.7818608E-02  0.8313375E-01
         -2   -1    0    0    0  501 -0.00000000000E+00  0.00000000000E+00  0.12187365032E+04  0.12187365032E+04  0.00000000000E+00 0.  1.
          2   -1    0    0  501    0  0.00000000000E+00 -0.00000000000E+00 -0.15713026079E+04  0.15713026079E+04  0.00000000000E+00 0. -1.
         23    2    1    2    0    0 -0.10483999532E+04  0.46125810127E+03 -0.62639467410E+03  0.13086116405E+04  0.90513204564E+02 0.  0.
        254    2    1    2    0    0  0.10483999532E+04 -0.46125810127E+03  0.27382856946E+03  0.14814274705E+04  0.89874566322E+03 0.  0.
        -24    2    4    4    0    0  0.91897646183E+03 -0.11021401581E+03  0.48128364357E+03  0.10462442377E+04  0.79549938010E+02 0.  0.
         24    2    4    4    0    0  0.12942349136E+03 -0.35104408546E+03 -0.20745507412E+03  0.43518323284E+03  0.79777492561E+02 0.  0.
         11    1    3    3    0    0 -0.56100959476E+03  0.28106537144E+03 -0.30568153069E+03  0.69797615048E+03  0.00000000000E+00 0. -1.
        -11    1    3    3    0    0 -0.48739035843E+03  0.18019272983E+03 -0.32071314340E+03  0.61063549007E+03  0.00000000000E+00 0.  1.
          4    1    6    6  502    0  0.13410417300E+03 -0.33820919352E+03 -0.18320423411E+03  0.40734896489E+03  0.00000000000E+00 0. -1.
          1    1    5    5  503    0  0.58524351981E+03 -0.39858653569E+02  0.33090481896E+03  0.67349587152E+03  0.00000000000E+00 0. -1.
         -2    1    5    5    0  503  0.33373294203E+03 -0.70355362245E+02  0.15037882461E+03  0.37274836617E+03  0.00000000000E+00 0.  1.
         -3    1    6    6    0  502 -0.46806816402E+01 -0.12834891935E+02 -0.24250840004E+02  0.27834267953E+02  0.00000000000E+00 0.  1.
<mgrwt>
<rscale>  0 0.27676733E+04</rscale>
<asrwt>0</asrwt>
<pdfrwt beam="1">  1        2 0.24173886E+00 0.27676733E+04</pdfrwt>
<pdfrwt beam="2">  1       -2 0.18749792E+00 0.27676733E+04</pdfrwt>
<totfact> 0.16271907E+00</totfact>
</mgrwt>
</event>
<event>
12    1  0.2433511E-007  0.1952164E+04  0.7818608E-02  0.8629318E-01
         -2   -1    0    0    0  501 -0.00000000000E+00  0.00000000000E+00  0.65008461710E+03  0.65008461710E+03  0.00000000000E+00 0.  1.
          2   -1    0    0  501    0  0.00000000000E+00 -0.00000000000E+00 -0.14655566407E+04  0.14655566407E+04  0.00000000000E+00 0. -1.
         23    2    1    2    0    0 -0.23444506348E+03 -0.57807876948E+03  0.15871936758E+03  0.65017178690E+03  0.91607659789E+02 0.  0.
        254    2    1    2    0    0  0.23444506348E+03  0.57807876948E+03 -0.97419139117E+03  0.14654694709E+04  0.89967346962E+03 0.  0.
        -24    2    4    4    0    0 -0.74527190612E+02 -0.21279929198E+03 -0.25965837321E+03  0.35306495126E+03  0.79965919131E+02 0.  0.
         24    2    4    4    0    0  0.30897225409E+03  0.79087806145E+03 -0.71453301797E+03  0.11124045196E+04  0.77035184397E+02 0.  0.
         11    1    3    3    0    0 -0.17501650829E+03 -0.31076051803E+03  0.89104695921E+02  0.36761736163E+03  0.00000000000E+00 0.  1.
        -11    1    3    3    0    0 -0.59428555184E+02 -0.26731825145E+03  0.69614671663E+02  0.28255442527E+03  0.00000000000E+00 0. -1.
          2    1    6    6  502    0  0.19876428208E+03  0.60070739098E+03 -0.52546695084E+03  0.82247925557E+03  0.00000000000E+00 0. -1.
          1    1    5    5  503    0 -0.24266237958E+02 -0.67677309596E+02 -0.14350587148E+03  0.16050857824E+03  0.00000000000E+00 0. -1.
         -2    1    5    5    0  503 -0.50260952655E+02 -0.14512198238E+03 -0.11615250172E+03  0.19255637302E+03  0.00000000000E+00 0.  1.
         -1    1    6    6    0  502  0.11020797201E+03  0.19017067047E+03 -0.18906606712E+03  0.28992526406E+03  0.00000000000E+00 0.  1.
<mgrwt>
<rscale>  0 0.19521638E+04</rscale>
<asrwt>0</asrwt>
<pdfrwt beam="1">  1        2 0.22547025E+00 0.19521638E+04</pdfrwt>
<pdfrwt beam="2">  1       -2 0.10001302E+00 0.19521638E+04</pdfrwt>
<totfact> 0.10226539E+01</totfact>
</mgrwt>
</event>
<event>
12    1  0.2433511E-007  0.1588663E+04  0.7818608E-02  0.8827543E-01
          2   -1    0    0  501    0  0.00000000000E+00  0.00000000000E+00  0.23785405501E+04  0.23785405501E+04  0.00000000000E+00 0. -1.
         -2   -1    0    0    0  501 -0.00000000000E+00 -0.00000000000E+00 -0.26527304280E+03  0.26527304280E+03  0.00000000000E+00 0.  1.
         23    2    1    2    0    0 -0.14810605662E+03 -0.42745475711E+03  0.24528054279E+03  0.52364942049E+03  0.96918509748E+02 0.  0.
        254    2    1    2    0    0  0.14810605662E+03  0.42745475711E+03  0.18679869646E+04  0.21201641724E+04  0.89502393542E+03 0.  0.
        -24    2    4    4    0    0  0.19621548791E+03  0.28624129732E+03  0.13806501996E+03  0.38207267831E+03  0.80516978294E+02 0.  0.
         24    2    4    4    0    0 -0.48109431287E+02  0.14121345979E+03  0.17299219446E+04  0.17380914941E+04  0.77950939370E+02 0.  0.
         13    1    3    3    0    0 -0.12443638699E+03 -0.36017147729E+03  0.24366511861E+03  0.45230586719E+03  0.00000000000E+00 0. -1.
        -13    1    3    3    0    0 -0.23669669630E+02 -0.67283279815E+02  0.16154241713E+01  0.71343553306E+02  0.00000000000E+00 0.  1.
          4    1    6    6  502    0 -0.48275414113E+02  0.90190602474E+02  0.14465487713E+04  0.14501614421E+04  0.00000000000E+00 0. -1.
          1    1    5    5  503    0  0.79015884054E+02  0.16921638705E+03  0.10114214583E+03  0.21238509656E+03  0.00000000000E+00 0. -1.
         -2    1    5    5    0  503  0.11719960385E+03  0.11702491027E+03  0.36922874124E+02  0.16968758175E+03  0.00000000000E+00 0.  1.
         -3    1    6    6    0  502  0.16598282596E+00  0.51022857316E+02  0.28337317325E+03  0.28793005199E+03  0.00000000000E+00 0.  1.
<mgrwt>
<rscale>  0 0.15886632E+04</rscale>
<asrwt>0</asrwt>
<pdfrwt beam="1">  1        2 0.36592930E+00 0.15886632E+04</pdfrwt>
<pdfrwt beam="2">  1       -2 0.40811239E-01 0.15886632E+04</pdfrwt>
<totfact> 0.22351082E+01</totfact>
</mgrwt>
</event>
<event>
12    1  0.2433511E-007  0.1276296E+04  0.7818608E-02  0.9048577E-01
          1   -1    0    0  501    0  0.00000000000E+00  0.00000000000E+00  0.76682094320E+03  0.76682094320E+03  0.00000000000E+00 0. -1.
         -1   -1    0    0    0  501 -0.00000000000E+00 -0.00000000000E+00 -0.53106628498E+03  0.53106628498E+03  0.00000000000E+00 0.  1.
         23    2    1    2    0    0 -0.62753674994E+02 -0.18725632363E+03  0.30316581161E+03  0.37401959941E+03  0.94753347962E+02 0.  0.
        254    2    1    2    0    0  0.62753674994E+02  0.18725632363E+03 -0.67411153386E+02  0.92386762877E+03  0.89999120963E+03 0.  0.
        -24    2    4    4    0    0  0.38824795838E+03 -0.97260438379E+02 -0.20996385625E+03  0.46001198322E+03  0.85616200063E+02 0.  0.
         24    2    4    4    0    0 -0.32549428339E+03  0.28451676201E+03  0.14255270286E+03  0.46385564554E+03  0.89131758791E+02 0.  0.
         11    1    3    3    0    0 -0.19663614067E+02 -0.16306153680E+03  0.19399406050E+03  0.25418382720E+03  0.00000000000E+00 0.  1.
        -11    1    3    3    0    0 -0.43090060927E+02 -0.24194786828E+02  0.10917175111E+03  0.11983577221E+03  0.00000000000E+00 0. -1.
          2    1    6    6  502    0 -0.20551762704E+03  0.18077544989E+03  0.44276523496E+02  0.27726822544E+03  0.00000000000E+00 0. -1.
          1    1    5    5  503    0  0.24835508202E+03 -0.22803313258E+02 -0.10951691050E+03  0.27238610748E+03  0.00000000000E+00 0. -1.
         -2    1    5    5    0  503  0.13989287636E+03 -0.74457125121E+02 -0.10044694575E+03  0.18762587574E+03  0.00000000000E+00 0.  1.
         -1    1    6    6    0  502 -0.11997665635E+03  0.10374131212E+03  0.98276179368E+02  0.18658742011E+03  0.00000000000E+00 0.  1.
<mgrwt>
<rscale>  0 0.12762958E+04</rscale>
<asrwt>0</asrwt>
<pdfrwt beam="1">  1        1 0.11797245E+00 0.12762958E+04</pdfrwt>
<pdfrwt beam="2">  1       -1 0.81702505E-01 0.12762958E+04</pdfrwt>
<totfact> 0.34732106E+01</totfact>
</mgrwt>
</event>
<event>
12    1  0.2433511E-007  0.1132209E+04  0.7818608E-02  0.9174355E-01
         -2   -1    0    0    0  501 -0.00000000000E+00  0.00000000000E+00  0.10569050453E+04  0.10569050453E+04  0.00000000000E+00 0.  1.
          2   -1    0    0  501    0  0.00000000000E+00 -0.00000000000E+00 -0.30321952250E+03  0.30321952250E+03  0.00000000000E+00 0. -1.
         23    2    1    2    0    0 -0.17614008465E+03 -0.59603537655E+02  0.99317814187E+02  0.23077614392E+03  0.93891902026E+02 0.  0.
        254    2    1    2    0    0  0.17614008465E+03  0.59603537655E+02  0.65436770865E+03  0.11293484239E+04  0.90147260266E+03 0.  0.
        -24    2    4    4    0    0  0.41067534806E+03  0.33812090730E+03  0.30452956784E+03  0.61814719065E+03  0.79923101601E+02 0.  0.
         24    2    4    4    0    0 -0.23453526340E+03 -0.27851736965E+03  0.34983814081E+03  0.51120123325E+03  0.79757514630E+02 0.  0.
         13    1    3    3    0    0 -0.13827300634E+03 -0.27650157741E+02  0.11148384246E+03  0.17975706561E+03  0.00000000000E+00 0.  1.
        -13    1    3    3    0    0 -0.37867078312E+02 -0.31953379914E+02 -0.12166028278E+02  0.51019078312E+02  0.00000000000E+00 0. -1.
          4    1    6    6  502    0 -0.16305419364E+03 -0.15968255075E+03  0.26005838396E+03  0.34599934992E+03  0.00000000000E+00 0. -1.
          3    1    5    5  503    0  0.23678272896E+03  0.14338566721E+03  0.15293433009E+03  0.31625056461E+03  0.00000000000E+00 0. -1.
         -4    1    5    5    0  503  0.17389261910E+03  0.19473524009E+03  0.15159523775E+03  0.30189662605E+03  0.00000000000E+00 0.  1.
         -3    1    6    6    0  502 -0.71481069764E+02 -0.11883481890E+03  0.89779756854E+02  0.16520188334E+03  0.00000000000E+00 0.  1.
<mgrwt>
<rscale>  0 0.11322089E+04</rscale>
<asrwt>0</asrwt>
<pdfrwt beam="1">  1        2 0.46649158E-01 0.11322089E+04</pdfrwt>
<pdfrwt beam="2">  1       -2 0.16260077E+00 0.11322089E+04</pdfrwt>
<totfact> 0.25882968E+01</totfact>
</mgrwt>
</event>
<event>
12    1  0.2433511E-007  0.2044077E+04  0.7818608E-02  0.8586286E-01
          1   -1    0    0  501    0  0.00000000000E+00  0.00000000000E+00  0.30130303830E+04  0.30130303830E+04  0.00000000000E+00 0. -1.
         -1   -1    0    0    0  501 -0.00000000000E+00 -0.00000000000E+00 -0.34668181539E+03  0.34668181539E+03  0.00000000000E+00 0.  1.
         23    2    1    2    0    0 -0.51781193195E+03  0.50036380717E+03  0.41134187357E+03  0.83447031457E+03  0.92980818191E+02 0.  0.
        254    2    1    2    0    0  0.51781193195E+03 -0.50036380717E+03  0.22550066940E+04  0.25252418838E+04  0.87937378015E+03 0.  0.
        -24    2    4    4    0    0  0.16540065842E+03  0.13771874293E+03  0.10370394407E+03  0.25245167742E+03  0.81569059421E+02 0.  0.
         24    2    4    4    0    0  0.35241127353E+03 -0.63808255010E+03  0.21513027499E+04  0.22727902064E+04  0.78286357811E+02 0.  0.
         11    1    3    3    0    0 -0.28421476049E+03  0.28821186051E+03  0.17891843673E+03  0.44255611353E+03  0.00000000000E+00 0.  1.
        -11    1    3    3    0    0 -0.23359717146E+03  0.21215194666E+03  0.23242343684E+03  0.39191420104E+03  0.00000000000E+00 0. -1.
          4    1    6    6  502    0  0.26631882927E+02 -0.45148839626E+02  0.10164743605E+03  0.11436728625E+03  0.00000000000E+00 0. -1.
          1    1    5    5  503    0 -0.76484572852E+01  0.14211293628E+01  0.10969742234E+02  0.13448187692E+02  0.00000000000E+00 0. -1.
         -4    1    5    5    0  503  0.17304911571E+03  0.13629761357E+03  0.92734201836E+02  0.23900348973E+03  0.00000000000E+00 0.  1.
         -1    1    6    6    0  502  0.32577939060E+03 -0.59293371048E+03  0.20496553139E+04  0.21584229201E+04  0.00000000000E+00 0.  1.
<mgrwt>
<rscale>  0 0.20440771E+04</rscale>
<asrwt>0</asrwt>
<pdfrwt beam="1">  1        1 0.46354312E+00 0.20440771E+04</pdfrwt>
<pdfrwt beam="2">  1       -1 0.53335666E-01 0.20440771E+04</pdfrwt>
<totfact> 0.19196015E+00</totfact>
</mgrwt>
</event>
<event>
12    1  0.2433511E-007  0.2861887E+04  0.7818608E-02  0.8284308E-01
          1   -1    0    0  501    0  0.00000000000E+00  0.00000000000E+00  0.18042308366E+04  0.18042308366E+04  0.00000000000E+00 0. -1.
         -1   -1    0    0    0  501 -0.00000000000E+00 -0.00000000000E+00 -0.11348879097E+04  0.11348879097E+04  0.00000000000E+00 0.  1.
         23    2    1    2    0    0  0.48959196402E+02 -0.10755598385E+04 -0.42432461798E+03  0.11608055513E+04  0.90510647787E+02 0.  0.
        254    2    1    2    0    0 -0.48959196402E+02  0.10755598385E+04  0.10936675450E+04  0.17783131951E+04  0.89836693606E+03 0.  0.
        -24    2    4    4    0    0  0.19886053846E+03 -0.31702628314E+01 -0.86584387190E+01  0.21418769042E+03  0.79030588025E+02 0.  0.
         24    2    4    4    0    0 -0.24781973486E+03  0.10787301013E+04  0.11023259837E+04  0.15641255046E+04  0.79326966113E+02 0.  0.
         11    1    3    3    0    0  0.20400173584E+02 -0.98456327269E+03 -0.37868668435E+03  0.10550756418E+04  0.00000000000E+00 0. -1.
        -11    1    3    3    0    0  0.28559022818E+02 -0.90996565784E+02 -0.45637933634E+02  0.10572990946E+03  0.00000000000E+00 0.  1.
          4    1    6    6  502    0 -0.18874921496E+01 -0.10668143998E+01  0.28770049607E+01  0.36024820780E+01  0.00000000000E+00 0. -1.
          1    1    5    5  503    0  0.17250767785E+02  0.18339775580E+02  0.15732454004E+02  0.29689164126E+02  0.00000000000E+00 0. -1.
         -4    1    5    5    0  503  0.18160977067E+03 -0.21510038411E+02 -0.24390892723E+02  0.18449852629E+03  0.00000000000E+00 0.  1.
         -3    1    6    6    0  502 -0.24593224271E+03  0.10797969157E+04  0.10994489787E+04  0.15605230226E+04  0.00000000000E+00 0.  1.
<mgrwt>
<rscale>  0 0.28618873E+04</rscale>
<asrwt>0</asrwt>
<pdfrwt beam="1">  1        1 0.27757398E+00 0.28618873E+04</pdfrwt>
<pdfrwt beam="2">  1       -1 0.17459814E+00 0.28618873E+04</pdfrwt>
<totfact> 0.79366337E-01</totfact>
</mgrwt>
</event>
<event>
12    1  0.2872762E-007  0.4084676E+04  0.7818608E-02  0.7987679E-01
          1   -1    0    0  501    0  0.00000000000E+00  0.00000000000E+00  0.23682750170E+04  0.23682750170E+04  0.00000000000E+00 0. -1.
         -1   -1    0    0    0  501 -0.00000000000E+00 -0.00000000000E+00 -0.17612589048E+04  0.17612589048E+04  0.00000000000E+00 0.  1.
         23    2    1    2    0    0  0.18856880126E+04 -0.26604106026E+03  0.67445208072E+03  0.20225756519E+04  0.96589501158E+02 0.  0.
        254    2    1    2    0    0 -0.18856880126E+04  0.26604106026E+03 -0.67435968485E+02  0.21069582700E+04  0.89895962933E+03 0.  0.
        -24    2    4    4    0    0 -0.14211577832E+04  0.14717173257E+03  0.34256829524E+03  0.14711063807E+04  0.73837543560E+02 0.  0.
         24    2    4    4    0    0 -0.46453022943E+03  0.11886932770E+03 -0.41000426373E+03  0.63585188935E+03  0.79283527874E+02 0.  0.
         13    1    3    3    0    0  0.12457441550E+04 -0.20438389097E+03  0.40871503396E+03  0.13269134311E+04  0.00000000000E+00 0. -1.
        -13    1    3    3    0    0  0.63994385754E+03 -0.61657169295E+02  0.26573704676E+03  0.69566222073E+03  0.00000000000E+00 0.  1.
          2    1    6    6  502    0 -0.27459954030E+03  0.54963537931E+02 -0.28555511775E+03  0.39995952709E+03  0.00000000000E+00 0. -1.
          3    1    5    5  503    0 -0.93078473529E+03  0.12511700791E+03  0.20404794872E+03  0.96106714359E+03  0.00000000000E+00 0. -1.
         -4    1    5    5    0  503 -0.49037304787E+03  0.22054724657E+02  0.13852034652E+03  0.51003923707E+03  0.00000000000E+00 0.  1.
         -1    1    6    6    0  502 -0.18993068913E+03  0.63905789767E+02 -0.12444914598E+03  0.23589236226E+03  0.00000000000E+00 0.  1.
<mgrwt>
<rscale>  0 0.40846765E+04</rscale>
<asrwt>0</asrwt>
<pdfrwt beam="1">  1        1 0.36435000E+00 0.40846765E+04</pdfrwt>
<pdfrwt beam="2">  1       -1 0.27096291E+00 0.40846765E+04</pdfrwt>
<totfact> 0.66140349E-02</totfact>
</mgrwt>
</event>
<event>
12    1  0.2433511E-007  0.2150004E+04  0.7818608E-02  0.8539531E-01
          2   -1    0    0  501    0  0.00000000000E+00  0.00000000000E+00  0.10131875128E+04  0.10131875128E+04  0.00000000000E+00 0.  1.
         -2   -1    0    0    0  501 -0.00000000000E+00 -0.00000000000E+00 -0.11405876833E+04  0.11405876833E+04  0.00000000000E+00 0. -1.
         23    2    1    2    0    0  0.79315945166E+03 -0.13521068035E+03 -0.41867405438E+03  0.91101673629E+03  0.85321076821E+02 0.  0.
        254    2    1    2    0    0 -0.79315945166E+03  0.13521068035E+03  0.29127388393E+03  0.12427584599E+04  0.90123485853E+03 0.  0.
        -24    2    4    4    0    0 -0.66929197375E+03  0.48239433876E+03  0.23160078771E+03  0.86084724006E+03  0.82237471060E+02 0.  0.
         24    2    4    4    0    0 -0.12386747791E+03 -0.34718365841E+03  0.59673096225E+02  0.38191121980E+03  0.80097794225E+02 0.  0.
         11    1    3    3    0    0  0.62847251576E+03 -0.14120652322E+03 -0.34098724727E+03  0.72882733762E+03  0.00000000000E+00 0. -1.
        -11    1    3    3    0    0  0.16468693590E+03  0.59958428654E+01 -0.77686807107E+02  0.18218939867E+03  0.00000000000E+00 0.  1.
          4    1    6    6  502    0 -0.11133556269E+03 -0.32172452508E+03  0.76482838512E+02  0.34892965214E+03  0.00000000000E+00 0. -1.
          1    1    5    5  503    0 -0.49035808223E+03  0.36327515544E+03  0.20735013336E+03  0.64452615553E+03  0.00000000000E+00 0. -1.
         -2    1    5    5    0  503 -0.17893389153E+03  0.11911918332E+03  0.24250654347E+02  0.21632108452E+03  0.00000000000E+00 0.  1.
         -3    1    6    6    0  502 -0.12531915216E+02 -0.25459133337E+02 -0.16809742287E+02  0.32981567656E+02  0.00000000000E+00 0.  1.
<mgrwt>
<rscale>  0 0.21500039E+04</rscale>
<asrwt>0</asrwt>
<pdfrwt beam="1">  1        2 0.15587500E+00 0.21500039E+04</pdfrwt>
<pdfrwt beam="2">  1       -2 0.17547503E+00 0.21500039E+04</pdfrwt>
<totfact> 0.44196270E+00</totfact>
</mgrwt>
</event>
<event>
12    1  0.2433511E-007  0.1663247E+04  0.7818608E-02  0.8782608E-01
         -1   -1    0    0    0  501 -0.00000000000E+00  0.00000000000E+00  0.26086865153E+03  0.26086865153E+03  0.00000000000E+00 0.  1.
          1   -1    0    0  501    0  0.00000000000E+00 -0.00000000000E+00 -0.26511321792E+04  0.26511321792E+04  0.00000000000E+00 0. -1.
         23    2    1    2    0    0 -0.10602846393E+03 -0.57199512234E+03 -0.76514282363E+03  0.96548841247E+03  0.91125621630E+02 0.  0.
        254    2    1    2    0    0  0.10602846393E+03  0.57199512234E+03 -0.16251207040E+04  0.19465124183E+04  0.89970708378E+03 0.  0.
        -24    2    4    4    0    0 -0.36332117332E+03  0.29416560214E+03 -0.47663997354E+03  0.67222271661E+03  0.78498661742E+02 0.  0.
         24    2    4    4    0    0  0.46934963725E+03  0.27782952020E+03 -0.11484807305E+04  0.12742897016E+04  0.85603335817E+02 0.  0.
         11    1    3    3    0    0 -0.66900446248E+00 -0.15067032694E+03 -0.24788252785E+03  0.29008230315E+03  0.00000000000E+00 0. -1.
        -11    1    3    3    0    0 -0.10535945947E+03 -0.42132479539E+03 -0.51726029578E+03  0.67540610932E+03  0.00000000000E+00 0.  1.
          4    1    6    6  502    0  0.30167245497E+03  0.19956557461E+03 -0.67244716248E+03  0.76355607193E+03  0.00000000000E+00 0. -1.
          1    1    5    5  503    0 -0.37567371847E+02  0.40076027242E+01 -0.37806170690E+02  0.53447870391E+02  0.00000000000E+00 0. -1.
         -4    1    5    5    0  503 -0.32575380148E+03  0.29015799941E+03 -0.43883380285E+03  0.61877484622E+03  0.00000000000E+00 0.  1.
         -3    1    6    6    0  502  0.16767718229E+03  0.78263945595E+02 -0.47603356803E+03  0.51073362972E+03  0.00000000000E+00 0.  1.
<mgrwt>
<rscale>  0 0.16632466E+04</rscale>
<asrwt>0</asrwt>
<pdfrwt beam="1">  1        1 0.40786647E+00 0.16632466E+04</pdfrwt>
<pdfrwt beam="2">  1       -1 0.40133641E-01 0.16632466E+04</pdfrwt>
<totfact> 0.61534795E+00</totfact>
</mgrwt>
</event>
<event>
12    1  0.3351534E-007  0.3888989E+04  0.7818608E-02  0.8027323E-01
         -2   -1    0    0    0  501 -0.00000000000E+00  0.00000000000E+00  0.18681416078E+04  0.18681416078E+04  0.00000000000E+00 0.  1.
          2   -1    0    0  501    0  0.00000000000E+00 -0.00000000000E+00 -0.20239678626E+04  0.20239678626E+04  0.00000000000E+00 0. -1.
         23    2    1    2    0    0 -0.16158910121E+04 -0.11679581285E+03 -0.94500532156E+03  0.18780608651E+04  0.96605021221E+02 0.  0.
        254    2    1    2    0    0  0.16158910121E+04  0.11679581285E+03  0.78917906675E+03  0.20140486053E+04  0.89935708157E+03 0.  0.
        -24    2    4    4    0    0  0.11736893332E+03  0.22193833919E+03 -0.82640336917E+02  0.27537277498E+03  0.77257019100E+02 0.  0.
         24    2    4    4    0    0  0.14985220788E+04 -0.10514252634E+03  0.87181940366E+03  0.17386758303E+04  0.79380091025E+02 0.  0.
         13    1    3    3    0    0 -0.44115290952E+03  0.11109377864E+02 -0.25392586562E+03  0.50913421913E+03  0.00000000000E+00 0.  1.
        -13    1    3    3    0    0 -0.11747381026E+04 -0.12790519071E+03 -0.69107945593E+03  0.13689266459E+04  0.00000000000E+00 0. -1.
          4    1    6    6  502    0  0.12762864581E+04 -0.11557886013E+03  0.73014483809E+03  0.14749159572E+04  0.00000000000E+00 0. -1.
          1    1    5    5  503    0  0.66061228289E+02  0.18952266214E+03 -0.51732946984E+02  0.20726606850E+03  0.00000000000E+00 0. -1.
         -2    1    5    5    0  503  0.51307705034E+02  0.32415677049E+02 -0.30907389933E+02  0.68106706475E+02  0.00000000000E+00 0.  1.
         -3    1    6    6    0  502  0.22223562069E+03  0.10436333791E+02  0.14167456557E+03  0.26375987317E+03  0.00000000000E+00 0.  1.
<mgrwt>
<rscale>  0 0.38889889E+04</rscale>
<asrwt>0</asrwt>
<pdfrwt beam="1">  1        2 0.31137967E+00 0.38889889E+04</pdfrwt>
<pdfrwt beam="2">  1       -2 0.28740640E+00 0.38889889E+04</pdfrwt>
<totfact> 0.19572362E-01</totfact>
</mgrwt>
</event>
<event>
12    1  0.2433511E-007  0.2501167E+04  0.7818608E-02  0.8402570E-01
         -1   -1    0    0    0  501 -0.00000000000E+00  0.00000000000E+00  0.88515540464E+03  0.88515540464E+03  0.00000000000E+00 0.  1.
          1   -1    0    0  501    0  0.00000000000E+00 -0.00000000000E+00 -0.17668751393E+04  0.17668751393E+04  0.00000000000E+00 0. -1.
         23    2    1    2    0    0  0.38437016503E+03 -0.47031242533E+03 -0.13381471163E+04  0.14723567998E+04  0.90899063818E+02 0.  0.
        254    2    1    2    0    0 -0.38437016503E+03  0.47031242533E+03  0.45642738169E+03  0.11796737441E+04  0.90242450467E+03 0.  0.
        -24    2    4    4    0    0  0.28000758273E+03  0.47642913506E+02  0.14867129513E+03  0.33045252756E+03  0.80135044649E+02 0.  0.
         24    2    4    4    0    0 -0.66437774776E+03  0.42266951183E+03  0.30775608657E+03  0.84922121656E+03  0.80097177825E+02 0.  0.
         13    1    3    3    0    0  0.26152190725E+03 -0.28789698953E+03 -0.94433785779E+03  0.10212993558E+04  0.00000000000E+00 0.  1.
        -13    1    3    3    0    0  0.12284825777E+03 -0.18241543581E+03 -0.39380925855E+03  0.45105744399E+03  0.00000000000E+00 0. -1.
          2    1    6    6  502    0 -0.40840322754E+03  0.30510904497E+03  0.20149015181E+03  0.54816330310E+03  0.00000000000E+00 0. -1.
          3    1    5    5  503    0  0.11384822558E+03 -0.39093939307E+01  0.95170737627E+02  0.14843911590E+03  0.00000000000E+00 0. -1.
         -4    1    5    5    0  503  0.16615935715E+03  0.51552307436E+02  0.53500557499E+02  0.18201341166E+03  0.00000000000E+00 0.  1.
         -1    1    6    6    0  502 -0.25597452022E+03  0.11756046685E+03  0.10626593476E+03  0.30105791346E+03  0.00000000000E+00 0.  1.
<mgrwt>
<rscale>  0 0.25011670E+04</rscale>
<asrwt>0</asrwt>
<pdfrwt beam="1">  1        1 0.27182694E+00 0.25011670E+04</pdfrwt>
<pdfrwt beam="2">  1       -1 0.13617775E+00 0.25011670E+04</pdfrwt>
<totfact> 0.17169828E+00</totfact>
</mgrwt>
</event>
<event>
12    1  0.2433511E-007  0.2373350E+04  0.7818608E-02  0.8449549E-01
          2   -1    0    0  501    0  0.00000000000E+00  0.00000000000E+00  0.18988832857E+04  0.18988832857E+04  0.00000000000E+00 0. -1.
         -2   -1    0    0    0  501 -0.00000000000E+00 -0.00000000000E+00 -0.74159266514E+03  0.74159266514E+03  0.00000000000E+00 0.  1.
         23    2    1    2    0    0 -0.87770141790E+03 -0.17202585539E+03  0.10262012663E+04  0.13649515249E+04  0.10025443949E+03 0.  0.
        254    2    1    2    0    0  0.87770141790E+03  0.17202585539E+03  0.13108935427E+03  0.12755244259E+04  0.89990303272E+03 0.  0.
        -24    2    4    4    0    0 -0.15815445548E+03  0.28577753236E+02  0.13874630728E+03  0.22658576766E+03  0.79126813109E+02 0.  0.
         24    2    4    4    0    0  0.10358558734E+04  0.14344810215E+03 -0.76569530145E+01  0.10489386582E+04  0.81479637720E+02 0.  0.
         13    1    3    3    0    0 -0.80461339445E+03 -0.16711778220E+03  0.97723692913E+03  0.12768410564E+04  0.00000000000E+00 0. -1.
        -13    1    3    3    0    0 -0.73088023455E+02 -0.49080731916E+01  0.48964337129E+02  0.88110468535E+02  0.00000000000E+00 0.  1.
          2    1    6    6  502    0  0.75187188347E+03  0.68421454679E+02 -0.14810765840E+02  0.75512395234E+03  0.00000000000E+00 0. -1.
          3    1    5    5  503    0 -0.14999091901E+03  0.33494337203E+02  0.14795746048E+03  0.21333203351E+03  0.00000000000E+00 0. -1.
         -4    1    5    5    0  503 -0.81635364646E+01 -0.49165839670E+01 -0.92111531982E+01  0.13253734144E+02  0.00000000000E+00 0.  1.
         -1    1    6    6    0  502  0.28398398990E+03  0.75026647473E+02  0.71538128259E+01  0.29381470588E+03  0.00000000000E+00 0.  1.
<mgrwt>
<rscale>  0 0.23733503E+04</rscale>
<asrwt>0</asrwt>
<pdfrwt beam="1">  1        2 0.29213589E+00 0.23733503E+04</pdfrwt>
<pdfrwt beam="2">  1       -2 0.11409118E+00 0.23733503E+04</pdfrwt>
<totfact> 0.41199857E+00</totfact>
</mgrwt>
</event>
<event>
12    1  0.2433511E-007  0.1748287E+04  0.7818608E-02  0.8734294E-01
         -1   -1    0    0    0  501 -0.00000000000E+00  0.00000000000E+00  0.15660088304E+04  0.15660088304E+04  0.00000000000E+00 0.  1.
          1   -1    0    0  501    0  0.00000000000E+00 -0.00000000000E+00 -0.48794551958E+03  0.48794551958E+03  0.00000000000E+00 0. -1.
         23    2    1    2    0    0 -0.61412068913E+03 -0.10150591704E+03  0.56371362374E+03  0.84472445416E+03  0.91316383242E+02 0.  0.
        254    2    1    2    0    0  0.61412068913E+03  0.10150591704E+03  0.51434968706E+03  0.12092298958E+04  0.90012980638E+03 0.  0.
        -24    2    4    4    0    0 -0.47856814891E+02  0.31676691863E+03  0.36605100203E+03  0.49301060837E+03  0.80215761612E+02 0.  0.
         24    2    4    4    0    0  0.66197750402E+03 -0.21526100159E+03  0.14829868503E+03  0.71621928744E+03  0.80162666355E+02 0.  0.
         11    1    3    3    0    0 -0.32621259166E+03 -0.38244070440E+02  0.35438931030E+03  0.48318634826E+03  0.00000000000E+00 0. -1.
        -11    1    3    3    0    0 -0.28790809747E+03 -0.63261846605E+02  0.20932431344E+03  0.36153810590E+03  0.00000000000E+00 0.  1.
          4    1    6    6  502    0  0.45961785796E+03 -0.17340175324E+03  0.74845598977E+02  0.49690905311E+03  0.00000000000E+00 0. -1.
          3    1    5    5  503    0 -0.40868846341E+02  0.30667336633E+03  0.36778908277E+03  0.48061172022E+03  0.00000000000E+00 0. -1.
         -4    1    5    5    0  503 -0.69879685502E+01  0.10093552306E+02 -0.17380807403E+01  0.12398888147E+02  0.00000000000E+00 0.  1.
         -3    1    6    6    0  502  0.20235964607E+03 -0.41859248350E+02  0.73453086055E+02  0.21931023432E+03  0.00000000000E+00 0.  1.
<mgrwt>
<rscale>  0 0.17482872E+04</rscale>
<asrwt>0</asrwt>
<pdfrwt beam="1">  1        1 0.75068542E-01 0.17482872E+04</pdfrwt>
<pdfrwt beam="2">  1       -1 0.24092443E+00 0.17482872E+04</pdfrwt>
<totfact> 0.34735413E+00</totfact>
</mgrwt>
</event>
<event>
12    1  0.2433511E-007  0.3078425E+04  0.7818608E-02  0.8221684E-01
          2   -1    0    0  501    0  0.00000000000E+00  0.00000000000E+00  0.16312848121E+04  0.16312848121E+04  0.00000000000E+00 0. -1.
         -2   -1    0    0    0  501 -0.00000000000E+00 -0.00000000000E+00 -0.14523370838E+04  0.14523370838E+04  0.00000000000E+00 0.  1.
         23    2    1    2    0    0 -0.12489206884E+03 -0.13891886816E+04  0.25313000810E+03  0.14217670457E+04  0.10910320542E+03 0.  0.
        254    2    1    2    0    0  0.12489206884E+03  0.13891886816E+04 -0.74182279807E+02  0.16618548501E+04  0.90045283630E+03 0.  0.
        -24    2    4    4    0    0  0.21264529544E+03  0.10029815132E+04 -0.43838389954E+03  0.11179645560E+04  0.80463455751E+02 0.  0.
         24    2    4    4    0    0 -0.87753226595E+02  0.38620716840E+03  0.36420161974E+03  0.54389029411E+03  0.79480982030E+02 0.  0.
         13    1    3    3    0    0  0.13113857264E+02 -0.37837836804E+03  0.80684169140E+02  0.38710734662E+03  0.00000000000E+00 0. -1.
        -13    1    3    3    0    0 -0.13800592610E+03 -0.10108103135E+04  0.17244583896E+03  0.10346596991E+04  0.00000000000E+00 0.  1.
          2    1    6    6  502    0 -0.69584700710E+02  0.13324959393E+03  0.13773054287E+03  0.20388032592E+03  0.00000000000E+00 0. -1.
          1    1    5    5  503    0  0.14643752973E+03  0.76302468871E+03 -0.29765860359E+03  0.83201638805E+03  0.00000000000E+00 0. -1.
         -2    1    5    5    0  503  0.66207765705E+02  0.23995682445E+03 -0.14072529595E+03  0.28594816796E+03  0.00000000000E+00 0.  1.
         -1    1    6    6    0  502 -0.18168525885E+02  0.25295757447E+03  0.22647107687E+03  0.34000996819E+03  0.00000000000E+00 0.  1.
<mgrwt>
<rscale>  0 0.30784252E+04</rscale>
<asrwt>0</asrwt>
<pdfrwt beam="1">  1        2 0.25096689E+00 0.30784252E+04</pdfrwt>
<pdfrwt beam="2">  1       -2 0.22343647E+00 0.30784252E+04</pdfrwt>
<totfact> 0.85655258E-01</totfact>
</mgrwt>
</event>
<event>
12    1  0.2433511E-007  0.1313320E+04  0.7818608E-02  0.9019069E-01
          2   -1    0    0  501    0  0.00000000000E+00  0.00000000000E+00  0.68225947663E+03  0.68225947663E+03  0.00000000000E+00 0. -1.
         -2   -1    0    0    0  501 -0.00000000000E+00 -0.00000000000E+00 -0.63202059941E+03  0.63202059941E+03  0.00000000000E+00 0.  1.
         23    2    1    2    0    0 -0.29283909328E+03  0.13432117710E+03 -0.92252498744E+02  0.34746163138E+03  0.91772264795E+02 0.  0.
        254    2    1    2    0    0  0.29283909328E+03 -0.13432117710E+03  0.14249137596E+03  0.96681844466E+03  0.90035393015E+03 0.  0.
        -24    2    4    4    0    0  0.54620078714E+03 -0.29781910655E+03  0.18300926259E+03  0.65327025901E+03  0.78981776464E+02 0.  0.
         24    2    4    4    0    0 -0.25336169386E+03  0.16349792945E+03 -0.40517886625E+02  0.31354818565E+03  0.75809265497E+02 0.  0.
         13    1    3    3    0    0 -0.19534225698E+03  0.68438659277E+02 -0.16769432435E+02  0.20766237336E+03  0.00000000000E+00 0. -1.
        -13    1    3    3    0    0 -0.97496836302E+02  0.65882517821E+02 -0.75483066309E+02  0.13979925802E+03  0.00000000000E+00 0.  1.
          2    1    6    6  502    0 -0.19327443524E+02  0.38797662554E+02  0.76801667750E+01  0.44020377719E+02  0.00000000000E+00 0. -1.
          3    1    5    5  503    0  0.12762293311E+03 -0.10887491742E+03  0.54439933524E+02  0.17636628664E+03  0.00000000000E+00 0. -1.
         -4    1    5    5    0  503  0.41857785403E+03 -0.18894418913E+03  0.12856932907E+03  0.47690397237E+03  0.00000000000E+00 0.  1.
         -3    1    6    6    0  502 -0.23403425034E+03  0.12470026690E+03 -0.48198053400E+02  0.26952780793E+03  0.00000000000E+00 0.  1.
<mgrwt>
<rscale>  0 0.13133195E+04</rscale>
<asrwt>0</asrwt>
<pdfrwt beam="1">  1        2 0.10496300E+00 0.13133195E+04</pdfrwt>
<pdfrwt beam="2">  1       -2 0.97233938E-01 0.13133195E+04</pdfrwt>
<totfact> 0.36589291E+01</totfact>
</mgrwt>
</event>
<event>
12    1  0.2433511E-007  0.4876608E+04  0.7818608E-02  0.7847829E-01
         -2   -1    0    0    0  501 -0.00000000000E+00  0.00000000000E+00  0.19020182742E+04  0.19020182742E+04  0.00000000000E+00 0.  1.
          2   -1    0    0  501    0  0.00000000000E+00 -0.00000000000E+00 -0.31257988506E+04  0.31257988506E+04  0.00000000000E+00 0. -1.
         23    2    1    2    0    0 -0.12650084800E+03 -0.22854452578E+04 -0.22217517138E+02  0.22908897045E+04  0.91757992671E+02 0.  0.
        254    2    1    2    0    0  0.12650084800E+03  0.22854452578E+04 -0.12015630592E+04  0.27369274203E+04  0.89875215047E+03 0.  0.
        -24    2    4    4    0    0 -0.85379436049E+02  0.10370711559E+04 -0.10125663440E+04  0.14541618022E+04  0.80558771127E+02 0.  0.
         24    2    4    4    0    0  0.21188028405E+03  0.12483741019E+04 -0.18899671527E+03  0.12827656181E+04  0.80229169341E+02 0.  0.
         11    1    3    3    0    0 -0.63036929269E+02 -0.13270553679E+04 -0.56966648733E+02  0.13297724628E+04  0.00000000000E+00 0. -1.
        -11    1    3    3    0    0 -0.63463918732E+02 -0.95838988989E+03  0.34749131595E+02  0.96111724164E+03  0.00000000000E+00 0.  1.
          2    1    6    6  502    0  0.11694194861E+03  0.66810948175E+03 -0.60910033172E+02  0.68099613148E+03  0.00000000000E+00 0. -1.
          3    1    5    5  503    0 -0.22862282097E+02  0.63816476515E+03 -0.58409727643E+03  0.86541699762E+03  0.00000000000E+00 0. -1.
         -4    1    5    5    0  503 -0.62517153951E+02  0.39890639074E+03 -0.42846906752E+03  0.58874480459E+03  0.00000000000E+00 0.  1.
         -1    1    6    6    0  502  0.94938335442E+02  0.58026462013E+03 -0.12808668210E+03  0.60176948663E+03  0.00000000000E+00 0.  1.
<mgrwt>
<rscale>  0 0.48766081E+04</rscale>
<asrwt>0</asrwt>
<pdfrwt beam="1">  1        2 0.48089213E+00 0.48766081E+04</pdfrwt>
<pdfrwt beam="2">  1       -2 0.29261819E+00 0.48766081E+04</pdfrwt>
<totfact> 0.37528751E-02</totfact>
</mgrwt>
</event>
<event>
12    1  0.3714320E-007  0.2060630E+04  0.7818608E-02  0.8578787E-01
         -1   -1    0    0    0  501 -0.00000000000E+00  0.00000000000E+00  0.61256859242E+03  0.61256859242E+03  0.00000000000E+00 0.  1.
          1   -1    0    0  501    0  0.00000000000E+00 -0.00000000000E+00 -0.17329474470E+04  0.17329474470E+04  0.00000000000E+00 0. -1.
         23    2    1    2    0    0  0.48171989185E+03 -0.62143406967E+03 -0.76041342491E+03  0.10976613192E+04  0.91637534706E+02 0.  0.
        254    2    1    2    0    0 -0.48171989185E+03  0.62143406967E+03 -0.35996542967E+03  0.12478547202E+04  0.89962877624E+03 0.  0.
        -24    2    4    4    0    0 -0.12996515383E+03  0.18205407607E+03  0.29629007784E+03  0.37953819605E+03  0.78910102058E+02 0.  0.
         24    2    4    4    0    0 -0.35175473802E+03  0.43937999360E+03 -0.65625550752E+03  0.86831652416E+03  0.80722490616E+02 0.  0.
         11    1    3    3    0    0  0.17762700586E+03 -0.25752538151E+03 -0.24579761013E+03  0.39785316447E+03  0.00000000000E+00 0. -1.
        -11    1    3    3    0    0  0.30409288599E+03 -0.36390868816E+03 -0.51461581477E+03  0.69980815474E+03  0.00000000000E+00 0.  1.
          4    1    6    6  502    0 -0.14395913105E+02  0.45140086512E+02 -0.35173629229E+02  0.59008930829E+02  0.00000000000E+00 0. -1.
          3    1    5    5  503    0  0.96564174996E+01  0.13955544549E+02  0.35136544548E+02  0.39020256091E+02  0.00000000000E+00 0. -1.
         -4    1    5    5    0  503 -0.13962157133E+03  0.16809853152E+03  0.26115353329E+03  0.34051793996E+03  0.00000000000E+00 0.  1.
         -3    1    6    6    0  502 -0.33735882492E+03  0.39423990708E+03 -0.62108187829E+03  0.80930759333E+03  0.00000000000E+00 0.  1.
<mgrwt>
<rscale>  0 0.20606302E+04</rscale>
<asrwt>0</asrwt>
<pdfrwt beam="1">  1        1 0.26660730E+00 0.20606302E+04</pdfrwt>
<pdfrwt beam="2">  1       -1 0.94241322E-01 0.20606302E+04</pdfrwt>
<totfact> 0.45525688E+00</totfact>
</mgrwt>
</event>
<event>
12    1  0.2433511E-007  0.3758400E+04  0.7818608E-02  0.8055142E-01
         -2   -1    0    0    0  501 -0.00000000000E+00  0.00000000000E+00  0.90159844402E+03  0.90159844402E+03  0.00000000000E+00 0.  1.
          2   -1    0    0  501    0  0.00000000000E+00 -0.00000000000E+00 -0.39168128234E+04  0.39168128234E+04  0.00000000000E+00 0. -1.
         23    2    1    2    0    0 -0.16295869567E+03 -0.17099866104E+04 -0.87406792242E+03  0.19295132392E+04  0.91743463624E+02 0.  0.
        254    2    1    2    0    0  0.16295869567E+03  0.17099866104E+04 -0.21411464569E+04  0.28888980282E+04  0.90034100388E+03 0.  0.
        -24    2    4    4    0    0  0.31331225595E+03  0.15862380129E+04 -0.21340006793E+04  0.26785837826E+04  0.80849105945E+02 0.  0.
         24    2    4    4    0    0 -0.15035356027E+03  0.12374859747E+03 -0.71457775904E+01  0.21031424557E+03  0.79127184263E+02 0.  0.
         13    1    3    3    0    0 -0.15694842361E+03 -0.14941303462E+04 -0.79352967569E+03  0.16990431558E+04  0.00000000000E+00 0. -1.
        -13    1    3    3    0    0 -0.60102720697E+01 -0.21585626419E+03 -0.80538246725E+02  0.23047008341E+03  0.00000000000E+00 0.  1.
          2    1    6    6  502    0 -0.10221276074E+03  0.61626421155E+02 -0.38924705061E+02  0.12554041942E+03  0.00000000000E+00 0. -1.
          1    1    5    5  503    0  0.30948903293E+03  0.15473480554E+04 -0.20603615972E+04  0.25952185606E+04  0.00000000000E+00 0. -1.
         -2    1    5    5    0  503  0.38232230178E+01  0.38889957490E+02 -0.73639082131E+02  0.83365222035E+02  0.00000000000E+00 0.  1.
         -1    1    6    6    0  502 -0.48140799530E+02  0.62122176312E+02  0.31778927470E+02  0.84773826151E+02  0.00000000000E+00 0.  1.
<mgrwt>
<rscale>  0 0.37583998E+04</rscale>
<asrwt>0</asrwt>
<pdfrwt beam="1">  1        2 0.60258657E+00 0.37583998E+04</pdfrwt>
<pdfrwt beam="2">  1       -2 0.13870746E+00 0.37583998E+04</pdfrwt>
<totfact> 0.11767887E-01</totfact>
</mgrwt>
</event>
<event>
12    1  0.2433511E-007  0.2564648E+04  0.7818608E-02  0.8380309E-01
         -1   -1    0    0    0  501 -0.00000000000E+00  0.00000000000E+00  0.21453235974E+04  0.21453235974E+04  0.00000000000E+00 0.  1.
          1   -1    0    0  501    0  0.00000000000E+00 -0.00000000000E+00 -0.76648363891E+03  0.76648363891E+03  0.00000000000E+00 0. -1.
         23    2    1    2    0    0  0.28302638162E+03  0.37429909958E+03  0.17622938008E+04  0.18260006473E+04  0.91625188292E+02 0.  0.
        254    2    1    2    0    0 -0.28302638162E+03 -0.37429909958E+03 -0.38345384232E+03  0.10858065890E+04  0.90096356795E+03 0.  0.
        -24    2    4    4    0    0 -0.32830201365E+03 -0.49573602166E+03 -0.58382576248E+03  0.83719026708E+03  0.80613938161E+02 0.  0.
         24    2    4    4    0    0  0.45275632030E+02  0.12143692208E+03  0.20037192016E+03  0.24861632187E+03  0.69744965484E+02 0.  0.
         13    1    3    3    0    0  0.84913240952E+02  0.16191602594E+03  0.55846186196E+03  0.58762803644E+03  0.00000000000E+00 0. -1.
        -13    1    3    3    0    0  0.19811314067E+03  0.21238307364E+03  0.12038319388E+04  0.12383726109E+04  0.00000000000E+00 0.  1.
          4    1    6    6  502    0  0.14210278296E+02 -0.25097240648E+01  0.46055158190E+02  0.48262908326E+02  0.00000000000E+00 0. -1.
          3    1    5    5  503    0 -0.93711114225E+02 -0.99077188091E+02 -0.16888385291E+03  0.21707099738E+03  0.00000000000E+00 0. -1.
         -4    1    5    5    0  503 -0.23459089943E+03 -0.39665883357E+03 -0.41494190957E+03  0.62011926970E+03  0.00000000000E+00 0.  1.
         -3    1    6    6    0  502  0.31065353733E+02  0.12394664614E+03  0.15431676197E+03  0.20035341354E+03  0.00000000000E+00 0.  1.
<mgrwt>
<rscale>  0 0.25646485E+04</rscale>
<asrwt>0</asrwt>
<pdfrwt beam="1">  1        1 0.11792056E+00 0.25646485E+04</pdfrwt>
<pdfrwt beam="2">  1       -1 0.33004978E+00 0.25646485E+04</pdfrwt>
<totfact> 0.43994783E-01</totfact>
</mgrwt>
</event>
<event>
12    1  0.2433511E-007  0.3077610E+04  0.7818608E-02  0.8221910E-01
          2   -1    0    0  501    0  0.00000000000E+00  0.00000000000E+00  0.30161594355E+04  0.30161594355E+04  0.00000000000E+00 0. -1.
         -2   -1    0    0    0  501 -0.00000000000E+00 -0.00000000000E+00 -0.78507808682E+03  0.78507808682E+03  0.00000000000E+00 0.  1.
         23    2    1    2    0    0 -0.10266473483E+04  0.90741499460E+03  0.14121432906E+04  0.19696885713E+04  0.90097971020E+02 0.  0.
        254    2    1    2    0    0  0.10266473483E+04 -0.90741499460E+03  0.81893805806E+03  0.18315489510E+04  0.89805638287E+03 0.  0.
        -24    2    4    4    0    0  0.10798904843E+04 -0.73058664023E+03  0.39916114269E+03  0.13659971337E+04  0.81842864602E+02 0.  0.
         24    2    4    4    0    0 -0.53243135993E+02 -0.17682835437E+03  0.41977691537E+03  0.46555181730E+03  0.80141983239E+02 0.  0.
         11    1    3    3    0    0 -0.75648762759E+03  0.64371390610E+03  0.97100113087E+03  0.13890587892E+04  0.00000000000E+00 0. -1.
        -11    1    3    3    0    0 -0.27015972075E+03  0.26370108850E+03  0.44114215977E+03  0.58062978215E+03  0.00000000000E+00 0.  1.
          4    1    6    6  502    0 -0.46636720401E+02 -0.18172879373E+03  0.41629433438E+03  0.45661943782E+03  0.00000000000E+00 0. -1.
          1    1    5    5  503    0  0.49797455352E+03 -0.38558131269E+03  0.18531137028E+03  0.65649973999E+03  0.00000000000E+00 0. -1.
         -2    1    5    5    0  503  0.58191593081E+03 -0.34500532754E+03  0.21384977241E+03  0.70949739374E+03  0.00000000000E+00 0.  1.
         -3    1    6    6    0  502 -0.66064155919E+01  0.49004393597E+01  0.34825809948E+01  0.89323794856E+01  0.00000000000E+00 0.  1.
<mgrwt>
<rscale>  0 0.30776099E+04</rscale>
<asrwt>0</asrwt>
<pdfrwt beam="1">  1        2 0.46402452E+00 0.30776099E+04</pdfrwt>
<pdfrwt beam="2">  1       -2 0.12078125E+00 0.30776099E+04</pdfrwt>
<totfact> 0.75542381E-01</totfact>
</mgrwt>
</event>
<event>
12    1  0.2433511E-007  0.1764093E+04  0.7818608E-02  0.8725631E-01
         -2   -1    0    0    0  501 -0.00000000000E+00  0.00000000000E+00  0.87540791033E+03  0.87540791033E+03  0.00000000000E+00 0.  1.
          2   -1    0    0  501    0  0.00000000000E+00 -0.00000000000E+00 -0.88873525879E+03  0.88873525879E+03  0.00000000000E+00 0. -1.
         23    2    1    2    0    0 -0.15179012433E+03  0.61325690959E+03 -0.15216601763E+03  0.65613827612E+03  0.90767072622E+02 0.  0.
        254    2    1    2    0    0  0.15179012433E+03 -0.61325690959E+03  0.13883866917E+03  0.11080048930E+04  0.89959679182E+03 0.  0.
        -24    2    4    4    0    0  0.34661095539E+03 -0.27990134147E+03 -0.28037649997E+03  0.53261485560E+03  0.81139924365E+02 0.  0.
         24    2    4    4    0    0 -0.19482083106E+03 -0.33335556812E+03  0.41921516914E+03  0.57539003740E+03  0.79064822058E+02 0.  0.
         11    1    3    3    0    0 -0.20625311708E+01  0.12094939453E+03 -0.53136861500E+02  0.13212318541E+03  0.00000000000E+00 0. -1.
        -11    1    3    3    0    0 -0.14972759315E+03  0.49230751505E+03 -0.99029156126E+02  0.52401509071E+03  0.00000000000E+00 0.  1.
          4    1    6    6  502    0 -0.16135789610E+02 -0.23119177536E+01  0.83359525624E+01  0.18308379917E+02  0.00000000000E+00 0. -1.
          3    1    5    5  503    0  0.12142356536E+03 -0.13212708052E+03 -0.77768880901E+02  0.19557414570E+03  0.00000000000E+00 0. -1.
         -4    1    5    5    0  503  0.22518739003E+03 -0.14777426095E+03 -0.20260761907E+03  0.33704070990E+03  0.00000000000E+00 0.  1.
         -3    1    6    6    0  502 -0.17868504145E+03 -0.33104365036E+03  0.41087921658E+03  0.55708165748E+03  0.00000000000E+00 0.  1.
<mgrwt>
<rscale>  0 0.17640928E+04</rscale>
<asrwt>0</asrwt>
<pdfrwt beam="1">  1        2 0.13672850E+00 0.17640928E+04</pdfrwt>
<pdfrwt beam="2">  1       -2 0.13467814E+00 0.17640928E+04</pdfrwt>
<totfact> 0.11213490E+01</totfact>
</mgrwt>
</event>
<event>
12    1  0.2433511E-007  0.1541123E+04  0.7818608E-02  0.8857558E-01
         -1   -1    0    0    0  501 -0.00000000000E+00  0.00000000000E+00  0.54076642434E+03  0.54076642434E+03  0.00000000000E+00 0.  1.
          1   -1    0    0  501    0  0.00000000000E+00 -0.00000000000E+00 -0.10980058086E+04  0.10980058086E+04  0.00000000000E+00 0. -1.
         23    2    1    2    0    0  0.25616763364E+03 -0.42861819036E+03 -0.24207497940E+03  0.56317392308E+03  0.96068529495E+02 0.  0.
        254    2    1    2    0    0 -0.25616763364E+03  0.42861819036E+03 -0.31516440487E+03  0.10755983099E+04  0.89902597986E+03 0.  0.
        -24    2    4    4    0    0  0.31825718787E+03  0.22846676080E+03 -0.21526127852E+03  0.45397622831E+03  0.79197849799E+02 0.  0.
         24    2    4    4    0    0 -0.57442482151E+03  0.20015142955E+03 -0.99903126345E+02  0.62162208156E+03  0.80055651392E+02 0.  0.
         11    1    3    3    0    0  0.23350828370E+03 -0.35146609354E+03 -0.23361894477E+03  0.48231975371E+03  0.00000000000E+00 0. -1.
        -11    1    3    3    0    0  0.22659349934E+02 -0.77152096819E+02 -0.84560346328E+01  0.80854169371E+02  0.00000000000E+00 0.  1.
          4    1    6    6  502    0 -0.19436594015E+03  0.10728555396E+03 -0.26966447744E+02  0.22364144983E+03  0.00000000000E+00 0. -1.
          1    1    5    5  503    0  0.26750681497E+02  0.22267506128E+02 -0.48995709941E+02  0.60100086375E+02  0.00000000000E+00 0. -1.
         -2    1    5    5    0  503  0.29150650637E+03  0.20619925468E+03 -0.16626556858E+03  0.39387614193E+03  0.00000000000E+00 0.  1.
         -3    1    6    6    0  502 -0.38005888136E+03  0.92865875589E+02 -0.72936678601E+02  0.39798063173E+03  0.00000000000E+00 0.  1.
<mgrwt>
<rscale>  0 0.15411225E+04</rscale>
<asrwt>0</asrwt>
<pdfrwt beam="1">  1        1 0.16892397E+00 0.15411225E+04</pdfrwt>
<pdfrwt beam="2">  1       -1 0.83194836E-01 0.15411225E+04</pdfrwt>
<totfact> 0.17595659E+01</totfact>
</mgrwt>
</event>
<event>
12    1  0.2433511E-007  0.2143746E+04  0.7818608E-02  0.8542214E-01
         -2   -1    0    0    0  501 -0.00000000000E+00  0.00000000000E+00  0.31134398151E+03  0.31134398151E+03  0.00000000000E+00 0.  1.
          2   -1    0    0  501    0  0.00000000000E+00 -0.00000000000E+00 -0.36901700253E+04  0.36901700253E+04  0.00000000000E+00 0. -1.
         23    2    1    2    0    0  0.63219835891E+03 -0.41947597489E+03 -0.56684569448E+03  0.95151184213E+03  0.91792624126E+02 0.  0.
        254    2    1    2    0    0 -0.63219835891E+03  0.41947597489E+03 -0.28119803493E+04  0.30500021647E+04  0.90534239991E+03 0.  0.
        -24    2    4    4    0    0 -0.24233774786E+03  0.53521753734E+03 -0.23747957154E+04  0.24476686746E+04  0.79005405485E+02 0.  0.
         24    2    4    4    0    0 -0.38986061106E+03 -0.11574156245E+03 -0.43718463386E+03  0.60233349010E+03  0.79295799829E+02 0.  0.
         13    1    3    3    0    0  0.35514820374E+03 -0.28839517639E+03 -0.32750839546E+03  0.56264000345E+03  0.00000000000E+00 0. -1.
        -13    1    3    3    0    0  0.27705015518E+03 -0.13108079849E+03 -0.23933729903E+03  0.38887183868E+03  0.00000000000E+00 0.  1.
          2    1    6    6  502    0 -0.15058693495E+03 -0.30949837373E+02 -0.11410013035E+03  0.19145014274E+03  0.00000000000E+00 0. -1.
          1    1    5    5  503    0 -0.42817077668E+02  0.62933043468E+02 -0.41478374565E+03  0.42171012053E+03  0.00000000000E+00 0. -1.
         -2    1    5    5    0  503 -0.19952067019E+03  0.47228449387E+03 -0.19600119698E+04  0.20259585540E+04  0.00000000000E+00 0.  1.
         -3    1    6    6    0  502 -0.23927367611E+03 -0.84791725075E+02 -0.32308450351E+03  0.41088334735E+03  0.00000000000E+00 0.  1.
<mgrwt>
<rscale>  0 0.21437465E+04</rscale>
<asrwt>0</asrwt>
<pdfrwt beam="1">  1        2 0.56771846E+00 0.21437465E+04</pdfrwt>
<pdfrwt beam="2">  1       -2 0.47899075E-01 0.21437465E+04</pdfrwt>
<totfact> 0.22629949E+00</totfact>
</mgrwt>
</event>
<event>
12    1  0.2433511E-007  0.1382127E+04  0.7818608E-02  0.8966859E-01
         -2   -1    0    0    0  501 -0.00000000000E+00  0.00000000000E+00  0.17681843960E+03  0.17681843960E+03  0.00000000000E+00 0.  1.
          2   -1    0    0  501    0  0.00000000000E+00 -0.00000000000E+00 -0.27008988711E+04  0.27008988711E+04  0.00000000000E+00 0. -1.
         23    2    1    2    0    0  0.74651926258E+02 -0.15356679913E+03 -0.14644858082E+04  0.14772126406E+04  0.91010061766E+02 0.  0.
        254    2    1    2    0    0 -0.74651926258E+02  0.15356679913E+03 -0.10595946233E+04  0.14005046701E+04  0.89973156733E+03 0.  0.
        -24    2    4    4    0    0 -0.92193964131E+02  0.68833897665E+00 -0.11810242105E+04  0.11873377666E+04  0.80327985625E+02 0.  0.
         24    2    4    4    0    0  0.17542037873E+02  0.15287846016E+03  0.12142958721E+03  0.21316690349E+03  0.83758208093E+02 0.  0.
         11    1    3    3    0    0  0.83893868922E+01 -0.10573765037E+02 -0.48019047809E+03  0.48038014277E+03  0.00000000000E+00 0. -1.
        -11    1    3    3    0    0  0.66262539366E+02 -0.14299303410E+03 -0.98429533012E+03  0.99683249787E+03  0.00000000000E+00 0.  1.
          4    1    6    6  502    0 -0.37300901935E+01  0.15118714570E+03  0.92713520671E+02  0.17739014491E+03  0.00000000000E+00 0. -1.
          3    1    5    5  503    0  0.12072068738E+02 -0.93152908245E+01 -0.24430977925E+03  0.24478516647E+03  0.00000000000E+00 0. -1.
         -4    1    5    5    0  503 -0.10426603287E+03  0.10003629801E+02 -0.93671443127E+03  0.94255260010E+03  0.00000000000E+00 0.  1.
         -3    1    6    6    0  502  0.21272128067E+02  0.16913144577E+01  0.28716066537E+02  0.35776758579E+02  0.00000000000E+00 0.  1.
<mgrwt>
<rscale>  0 0.13821269E+04</rscale>
<asrwt>0</asrwt>
<pdfrwt beam="1">  1        2 0.41552286E+00 0.13821269E+04</pdfrwt>
<pdfrwt beam="2">  1       -2 0.27202840E-01 0.13821269E+04</pdfrwt>
<totfact> 0.31964657E+01</totfact>
</mgrwt>
</event>
<event>
12    1  0.2433511E-007  0.1976286E+04  0.7818608E-02  0.8617789E-01
          1   -1    0    0  501    0  0.00000000000E+00  0.00000000000E+00  0.22573291316E+04  0.22573291316E+04  0.00000000000E+00 0. -1.
         -1   -1    0    0    0  501 -0.00000000000E+00 -0.00000000000E+00 -0.43255826305E+03  0.43255826305E+03  0.00000000000E+00 0.  1.
         23    2    1    2    0    0  0.20211703148E+03 -0.39440772947E+03 -0.14653334841E+03  0.47637390437E+03  0.95138441722E+02 0.  0.
        254    2    1    2    0    0 -0.20211703148E+03  0.39440772947E+03  0.19713042170E+04  0.22135134903E+04  0.90398722579E+03 0.  0.
        -24    2    4    4    0    0 -0.12447212905E+03  0.64737718557E+03  0.17054972431E+04  0.18301469015E+04  0.78270707776E+02 0.  0.
         24    2    4    4    0    0 -0.77644902432E+02 -0.25296945611E+03  0.26580697387E+03  0.38336658875E+03  0.79336734327E+02 0.  0.
         11    1    3    3    0    0  0.13557087168E+03 -0.16147571052E+03 -0.74976656106E+02  0.22377525622E+03  0.00000000000E+00 0. -1.
        -11    1    3    3    0    0  0.66546159807E+02 -0.23293201895E+03 -0.71556692299E+02  0.25259864816E+03  0.00000000000E+00 0.  1.
          4    1    6    6  502    0 -0.71205958887E+02 -0.25826871127E+03  0.25720050609E+03  0.37138270845E+03  0.00000000000E+00 0. -1.
          1    1    5    5  503    0 -0.12667354342E+03  0.56807058896E+03  0.14441449868E+04  0.15570180229E+04  0.00000000000E+00 0. -1.
         -2    1    5    5    0  503  0.22014143734E+01  0.79306596615E+02  0.26135225631E+03  0.27312887869E+03  0.00000000000E+00 0.  1.
         -3    1    6    6    0  502 -0.64389435459E+01  0.52992551668E+01  0.86064677800E+01  0.11983880296E+02  0.00000000000E+00 0.  1.
<mgrwt>
<rscale>  0 0.19762858E+04</rscale>
<asrwt>0</asrwt>
<pdfrwt beam="1">  1        1 0.34728140E+00 0.19762858E+04</pdfrwt>
<pdfrwt beam="2">  1       -1 0.66547426E-01 0.19762858E+04</pdfrwt>
<totfact> 0.42344249E+00</totfact>
</mgrwt>
</event>
<event>
12    1  0.2433511E-007  0.2840067E+04  0.7818608E-02  0.8290936E-01
          2   -1    0    0  501    0  0.00000000000E+00  0.00000000000E+00  0.30790440714E+04  0.30790440714E+04  0.00000000000E+00 0.  1.
         -2   -1    0    0    0  501 -0.00000000000E+00 -0.00000000000E+00 -0.65490949245E+03  0.65490949245E+03  0.00000000000E+00 0. -1.
         23    2    1    2    0    0 -0.10760499777E+04  0.24812962829E+03  0.19292491022E+04  0.22249203659E+04  0.93897120792E+02 0.  0.
        254    2    1    2    0    0  0.10760499777E+04 -0.24812962829E+03  0.49488547677E+03  0.15090331980E+04  0.90156402469E+03 0.  0.
        -24    2    4    4    0    0 -0.96701632205E+02  0.21487289395E+02 -0.10026431480E+03  0.16428443655E+03  0.84401030757E+02 0.  0.
         24    2    4    4    0    0  0.11727516099E+04 -0.26961691768E+03  0.59514979157E+03  0.13447487614E+04  0.78143049637E+02 0.  0.
         13    1    3    3    0    0 -0.61259046522E+03  0.95261507288E+02  0.11051172362E+04  0.12671329601E+04  0.00000000000E+00 0. -1.
        -13    1    3    3    0    0 -0.46345951245E+03  0.15286812100E+03  0.82413186605E+03  0.95778740582E+03  0.00000000000E+00 0.  1.
          2    1    6    6  502    0  0.99583922239E+03 -0.23597906155E+03  0.53546035742E+03  0.11550323237E+04  0.00000000000E+00 0. -1.
          1    1    5    5  503    0 -0.73057395157E+02  0.13248676046E+02 -0.11375548306E+03  0.13584263076E+03  0.00000000000E+00 0. -1.
         -2    1    5    5    0  503 -0.23644237048E+02  0.82386133491E+01  0.13491168264E+02  0.28441805790E+02  0.00000000000E+00 0.  1.
         -1    1    6    6    0  502  0.17691238749E+03 -0.33637856133E+02  0.59689434153E+02  0.18971643778E+03  0.00000000000E+00 0.  1.
<mgrwt>
<rscale>  0 0.28400670E+04</rscale>
<asrwt>0</asrwt>
<pdfrwt beam="1">  1        2 0.47369908E+00 0.28400670E+04</pdfrwt>
<pdfrwt beam="2">  1       -2 0.10075531E+00 0.28400670E+04</pdfrwt>
<totfact> 0.10915826E+00</totfact>
</mgrwt>
</event>
<event>
12    1  0.2813239E-007  0.3896195E+04  0.7818608E-02  0.8025821E-01
          2   -1    0    0  501    0  0.00000000000E+00  0.00000000000E+00  0.24548104481E+04  0.24548104481E+04  0.00000000000E+00 0.  1.
         -2   -1    0    0    0  501 -0.00000000000E+00 -0.00000000000E+00 -0.15459780466E+04  0.15459780466E+04  0.00000000000E+00 0. -1.
         23    2    1    2    0    0 -0.32275241285E+03 -0.16545999312E+04  0.11962722626E+04  0.20690706601E+04  0.90088945067E+02 0.  0.
        254    2    1    2    0    0  0.32275241285E+03  0.16545999312E+04 -0.28743986110E+03  0.19317178346E+04  0.89835520052E+03 0.  0.
        -24    2    4    4    0    0  0.33683741849E+03  0.17063714737E+04 -0.39864542850E+03  0.17861963378E+04  0.80100730055E+02 0.  0.
         24    2    4    4    0    0 -0.14085005633E+02 -0.51771542443E+02  0.11120556740E+03  0.14552149676E+03  0.77013945547E+02 0.  0.
         13    1    3    3    0    0 -0.12385133190E+03 -0.55088927694E+03  0.44932301429E+03  0.72160191174E+03  0.00000000000E+00 0. -1.
        -13    1    3    3    0    0 -0.19890108095E+03 -0.11037106543E+04  0.74694924831E+03  0.13474687484E+04  0.00000000000E+00 0.  1.
          4    1    6    6  502    0 -0.39996064247E+02 -0.38251061762E+02  0.39225296288E+02  0.67834008801E+02  0.00000000000E+00 0. -1.
          1    1    5    5  503    0  0.12001162614E+03  0.49273325550E+03 -0.86794268184E+02  0.51451151247E+03  0.00000000000E+00 0. -1.
         -2    1    5    5    0  503  0.21682579235E+03  0.12136382182E+04 -0.31185116031E+03  0.12716848253E+04  0.00000000000E+00 0.  1.
         -3    1    6    6    0  502  0.25911058613E+02 -0.13520480681E+02  0.71980271115E+02  0.77687487963E+02  0.00000000000E+00 0.  1.
<mgrwt>
<rscale>  0 0.38961946E+04</rscale>
<asrwt>0</asrwt>
<pdfrwt beam="1">  1        2 0.37766315E+00 0.38961946E+04</pdfrwt>
<pdfrwt beam="2">  1       -2 0.23784278E+00 0.38961946E+04</pdfrwt>
<totfact> 0.22468580E-01</totfact>
</mgrwt>
</event>
<event>
12    1  0.2433511E-007  0.2644240E+04  0.7818608E-02  0.8353327E-01
         -1   -1    0    0    0  501 -0.00000000000E+00  0.00000000000E+00  0.12140066316E+04  0.12140066316E+04  0.00000000000E+00 0.  1.
          1   -1    0    0  501    0  0.00000000000E+00 -0.00000000000E+00 -0.14398615594E+04  0.14398615594E+04  0.00000000000E+00 0. -1.
         23    2    1    2    0    0 -0.11353406467E+02  0.10497895548E+04 -0.61143977726E+03  0.12182838659E+04  0.90387871984E+02 0.  0.
        254    2    1    2    0    0  0.11353406467E+02 -0.10497895548E+04  0.38558484947E+03  0.14355843252E+04  0.90002203830E+03 0.  0.
        -24    2    4    4    0    0  0.35523919024E+03 -0.25181108838E+03 -0.74031453197E+02  0.44938940475E+03  0.82864193231E+02 0.  0.
         24    2    4    4    0    0 -0.34388578378E+03 -0.79797846642E+03  0.45961630266E+03  0.98619492046E+03  0.79411650952E+02 0.  0.
         13    1    3    3    0    0 -0.10884028518E+02  0.40778738441E+03 -0.28844709781E+03  0.49961058956E+03  0.00000000000E+00 0. -1.
        -13    1    3    3    0    0 -0.46937794906E+00  0.64200217039E+03 -0.32299267945E+03  0.71867327631E+03  0.00000000000E+00 0.  1.
          2    1    6    6  502    0 -0.20458639196E+03 -0.48535696292E+03  0.32179698302E+03  0.61723599337E+03  0.00000000000E+00 0. -1.
          1    1    5    5  503    0  0.35501013252E+03 -0.25416991552E+03 -0.79164279821E+02  0.44373587116E+03  0.00000000000E+00 0. -1.
         -2    1    5    5    0  503  0.22905771846E+00  0.23588271389E+01  0.51328266243E+01  0.56535335910E+01  0.00000000000E+00 0.  1.
         -1    1    6    6    0  502 -0.13929939181E+03 -0.31262150350E+03  0.13781931965E+03  0.36895892709E+03  0.00000000000E+00 0.  1.
<mgrwt>
<rscale>  0 0.26442401E+04</rscale>
<asrwt>0</asrwt>
<pdfrwt beam="1">  1        1 0.22151716E+00 0.26442401E+04</pdfrwt>
<pdfrwt beam="2">  1       -1 0.18677025E+00 0.26442401E+04</pdfrwt>
<totfact> 0.11770291E+00</totfact>
</mgrwt>
</event>
<event>
12    1  0.2433511E-007  0.2605791E+04  0.7818608E-02  0.8366237E-01
         -1   -1    0    0    0  501 -0.00000000000E+00  0.00000000000E+00  0.16256989604E+04  0.16256989604E+04  0.00000000000E+00 0.  1.
          1   -1    0    0  501    0  0.00000000000E+00 -0.00000000000E+00 -0.10441890777E+04  0.10441890777E+04  0.00000000000E+00 0. -1.
         23    2    1    2    0    0  0.36062160855E+03  0.10742993091E+04  0.42835752074E+03  0.12148440212E+04  0.90492431229E+02 0.  0.
        254    2    1    2    0    0 -0.36062160855E+03 -0.10742993091E+04  0.15315236195E+03  0.14550440170E+04  0.89973912634E+03 0.  0.
        -24    2    4    4    0    0  0.10212777206E+03 -0.44097107753E+03  0.42008067608E+03  0.62279598165E+03  0.80755726122E+02 0.  0.
         24    2    4    4    0    0 -0.46274938062E+03 -0.63332823156E+03 -0.26692831413E+03  0.83224803538E+03  0.78386410572E+02 0.  0.
         13    1    3    3    0    0  0.23402534767E+03  0.82009032755E+03  0.32020442983E+03  0.91095932159E+03  0.00000000000E+00 0.  1.
        -13    1    3    3    0    0  0.12659626088E+03  0.25420898153E+03  0.10815309091E+03  0.30388469957E+03  0.00000000000E+00 0. -1.
          2    1    6    6  502    0 -0.26933664598E+03 -0.37584290900E+03 -0.11664171140E+03  0.47687043309E+03  0.00000000000E+00 0. -1.
          1    1    5    5  503    0  0.94637719023E+02 -0.23753367261E+03  0.21907266988E+03  0.33670666488E+03  0.00000000000E+00 0. -1.
         -2    1    5    5    0  503  0.74900530380E+01 -0.20343740491E+03  0.20100800620E+03  0.28608931677E+03  0.00000000000E+00 0.  1.
         -1    1    6    6    0  502 -0.19341273464E+03 -0.25748532255E+03 -0.15028660273E+03  0.35537760229E+03  0.00000000000E+00 0.  1.
<mgrwt>
<rscale>  0 0.26057913E+04</rscale>
<asrwt>0</asrwt>
<pdfrwt beam="1">  1        1 0.16064447E+00 0.26057913E+04</pdfrwt>
<pdfrwt beam="2">  1       -1 0.25010753E+00 0.26057913E+04</pdfrwt>
<totfact> 0.85671200E-01</totfact>
</mgrwt>
</event>
<event>
12    1  0.2433511E-007  0.2486927E+04  0.7818608E-02  0.8407658E-01
          2   -1    0    0  501    0  0.00000000000E+00  0.00000000000E+00  0.44018387932E+04  0.44018387932E+04  0.00000000000E+00 0. -1.
         -2   -1    0    0    0  501 -0.00000000000E+00 -0.00000000000E+00 -0.35126263995E+03  0.35126263995E+03  0.00000000000E+00 0.  1.
         23    2    1    2    0    0  0.39384832561E+03 -0.81786650862E+03  0.65039597348E+03  0.11205044977E+04  0.92158979835E+02 0.  0.
        254    2    1    2    0    0 -0.39384832561E+03  0.81786650862E+03  0.34001801798E+04  0.36325969354E+04  0.90028501651E+03 0.  0.
        -24    2    4    4    0    0  0.26353226332E+03  0.35615430783E+03  0.92116346011E+03  0.10254407056E+04  0.81800829003E+02 0.  0.
         24    2    4    4    0    0 -0.65738058893E+03  0.46171220080E+03  0.24790167196E+04  0.26071562298E+04  0.80076934697E+02 0.  0.
         13    1    3    3    0    0  0.10202930837E+03 -0.21034893143E+03  0.11955322920E+03  0.26258261049E+03  0.00000000000E+00 0.  1.
        -13    1    3    3    0    0  0.29181901723E+03 -0.60751757720E+03  0.53084274428E+03  0.85792188723E+03  0.00000000000E+00 0. -1.
          4    1    6    6  502    0 -0.37679354232E+03  0.21679866865E+03  0.13099523168E+04  0.13801993003E+04  0.00000000000E+00 0. -1.
          3    1    5    5  503    0  0.11651801571E+03  0.17411039834E+03  0.52611605314E+03  0.56629407570E+03  0.00000000000E+00 0. -1.
         -4    1    5    5    0  503  0.14701424761E+03  0.18204390949E+03  0.39504740697E+03  0.45914662989E+03  0.00000000000E+00 0.  1.
         -3    1    6    6    0  502 -0.28058704660E+03  0.24491353214E+03  0.11690644029E+04  0.12269569296E+04  0.00000000000E+00 0.  1.
<mgrwt>
<rscale>  0 0.24869270E+04</rscale>
<asrwt>0</asrwt>
<pdfrwt beam="1">  1        2 0.67720593E+00 0.24869270E+04</pdfrwt>
<pdfrwt beam="2">  1       -2 0.54040409E-01 0.24869270E+04</pdfrwt>
<totfact> 0.44261200E-01</totfact>
</mgrwt>
</event>
<event>
12    1  0.2433511E-007  0.1943754E+04  0.7818608E-02  0.8633379E-01
         -1   -1    0    0    0  501 -0.00000000000E+00  0.00000000000E+00  0.78487296831E+03  0.78487296831E+03  0.00000000000E+00 0.  1.
          1   -1    0    0  501    0  0.00000000000E+00 -0.00000000000E+00 -0.12034367122E+04  0.12034367122E+04  0.00000000000E+00 0. -1.
         23    2    1    2    0    0 -0.24518367846E+03 -0.63029614720E+03  0.20080689029E+03  0.71129241283E+03  0.90692998634E+02 0.  0.
        254    2    1    2    0    0  0.24518367846E+03  0.63029614720E+03 -0.61937063422E+03  0.12770172677E+04  0.88868714977E+03 0.  0.
        -24    2    4    4    0    0 -0.26691520421E+03  0.32617089486E+03 -0.50952275984E+03  0.66593196426E+03  0.78871790482E+02 0.  0.
         24    2    4    4    0    0  0.51209888267E+03  0.30412525234E+03 -0.10984787438E+03  0.61108530346E+03  0.81371111969E+02 0.  0.
         13    1    3    3    0    0 -0.16058567750E+03 -0.29050770642E+03  0.10753430406E+03  0.34892135770E+03  0.00000000000E+00 0.  1.
        -13    1    3    3    0    0 -0.84598000953E+02 -0.33978844078E+03  0.93272586230E+02  0.36237105513E+03  0.00000000000E+00 0. -1.
          2    1    6    6  502    0  0.18311514209E+03  0.15095149876E+03 -0.26911529013E+02  0.23883412786E+03  0.00000000000E+00 0. -1.
          3    1    5    5  503    0 -0.13938419950E+03  0.13997623429E+03 -0.18492935719E+03  0.27059225485E+03  0.00000000000E+00 0. -1.
         -4    1    5    5    0  503 -0.12753100471E+03  0.18619466057E+03 -0.32459340265E+03  0.39533970940E+03  0.00000000000E+00 0.  1.
         -1    1    6    6    0  502  0.32898374058E+03  0.15317375359E+03 -0.82936345370E+02  0.37225117560E+03  0.00000000000E+00 0.  1.
<mgrwt>
<rscale>  0 0.19437540E+04</rscale>
<asrwt>0</asrwt>
<pdfrwt beam="1">  1        1 0.18514411E+00 0.19437540E+04</pdfrwt>
<pdfrwt beam="2">  1       -1 0.12074969E+00 0.19437540E+04</pdfrwt>
<totfact> 0.60382059E+00</totfact>
</mgrwt>
</event>
<event>
12    1  0.2433511E-007  0.1325563E+04  0.7818608E-02  0.9009536E-01
          2   -1    0    0  501    0  0.00000000000E+00  0.00000000000E+00  0.70141788594E+03  0.70141788594E+03  0.00000000000E+00 0. -1.
         -2   -1    0    0    0  501 -0.00000000000E+00 -0.00000000000E+00 -0.62627322673E+03  0.62627322673E+03  0.00000000000E+00 0.  1.
         23    2    1    2    0    0  0.29959466444E+03 -0.60562044059E+02 -0.12761498219E+03  0.34298688124E+03  0.89048823035E+02 0.  0.
        254    2    1    2    0    0 -0.29959466444E+03  0.60562044059E+02  0.20275964140E+03  0.98470423143E+03  0.91384146715E+03 0.  0.
        -24    2    4    4    0    0 -0.17021429289E+03 -0.14133552313E+03 -0.32389624772E+03  0.40048367750E+03  0.80806936902E+02 0.  0.
         24    2    4    4    0    0 -0.12938037154E+03  0.20189756719E+03  0.52665588912E+03  0.58422055393E+03  0.80282762229E+02 0.  0.
         13    1    3    3    0    0  0.15242414910E+03 -0.74453527752E+02 -0.55302565735E+02  0.17842315657E+03  0.00000000000E+00 0. -1.
        -13    1    3    3    0    0  0.14717051534E+03  0.13891483693E+02 -0.72312416453E+02  0.16456372467E+03  0.00000000000E+00 0.  1.
          2    1    6    6  502    0 -0.85685478316E+02  0.13666239734E+03  0.25753412159E+03  0.30387898221E+03  0.00000000000E+00 0. -1.
          3    1    5    5  503    0 -0.67631545584E+02 -0.97783390002E+01 -0.84024867615E+02  0.10830429470E+03  0.00000000000E+00 0. -1.
         -4    1    5    5    0  503 -0.10258274731E+03 -0.13155718413E+03 -0.23987138011E+03  0.29217938280E+03  0.00000000000E+00 0.  1.
         -1    1    6    6    0  502 -0.43694893228E+02  0.65235169841E+02  0.26912176753E+03  0.28034157173E+03  0.00000000000E+00 0.  1.
<mgrwt>
<rscale>  0 0.13255629E+04</rscale>
<asrwt>0</asrwt>
<pdfrwt beam="1">  1        2 0.10791044E+00 0.13255629E+04</pdfrwt>
<pdfrwt beam="2">  1       -2 0.96349726E-01 0.13255629E+04</pdfrwt>
<totfact> 0.36067181E+01</totfact>
</mgrwt>
</event>
<event>
12    1  0.2433511E-007  0.1389425E+04  0.7818608E-02  0.8961509E-01
          1   -1    0    0  501    0  0.00000000000E+00  0.00000000000E+00  0.45399009610E+03  0.45399009610E+03  0.00000000000E+00 0. -1.
         -1   -1    0    0    0  501 -0.00000000000E+00 -0.00000000000E+00 -0.10630743960E+04  0.10630743960E+04  0.00000000000E+00 0.  1.
         23    2    1    2    0    0  0.10428120232E+03 -0.30768855829E+03 -0.42720221514E+03  0.54416361805E+03  0.89808087243E+02 0.  0.
        254    2    1    2    0    0 -0.10428120232E+03  0.30768855829E+03 -0.18188208481E+03  0.97290087409E+03  0.89883713763E+03 0.  0.
        -24    2    4    4    0    0  0.28224555351E+03  0.38832591193E+03  0.78753098816E+02  0.49317766574E+03  0.81009833089E+02 0.  0.
         24    2    4    4    0    0 -0.38652675583E+03 -0.80637353638E+02 -0.26063518362E+03  0.47972320835E+03  0.79362093674E+02 0.  0.
         13    1    3    3    0    0  0.10237778045E+03 -0.28764945314E+03 -0.35037427951E+03  0.46474245939E+03  0.00000000000E+00 0. -1.
        -13    1    3    3    0    0  0.19034218676E+01 -0.20039105152E+02 -0.76827935625E+02  0.79421158657E+02  0.00000000000E+00 0.  1.
          4    1    6    6  502    0 -0.24818561118E+01  0.57628113600E+01 -0.13618829127E+02  0.14994736121E+02  0.00000000000E+00 0. -1.
          1    1    5    5  503    0  0.57714345203E+02  0.51747264611E+02  0.38592151117E+02  0.86591449721E+02  0.00000000000E+00 0. -1.
         -2    1    5    5    0  503  0.22453120831E+03  0.33657864732E+03  0.40160947698E+02  0.40658621602E+03  0.00000000000E+00 0.  1.
         -3    1    6    6    0  502 -0.38404489972E+03 -0.86400164998E+02 -0.24701635450E+03  0.46472847223E+03  0.00000000000E+00 0.  1.
<mgrwt>
<rscale>  0 0.13894247E+04</rscale>
<asrwt>0</asrwt>
<pdfrwt beam="1">  1        1 0.69844630E-01 0.13894247E+04</pdfrwt>
<pdfrwt beam="2">  1       -1 0.16354991E+00 0.13894247E+04</pdfrwt>
<totfact> 0.13565391E+01</totfact>
</mgrwt>
</event>
<event>
12    1  0.2433511E-007  0.3239202E+04  0.7818608E-02  0.8178540E-01
          3   -1    0    0  501    0  0.00000000000E+00  0.00000000000E+00  0.10758243407E+04  0.10758243407E+04  0.00000000000E+00 0. -1.
         -3   -1    0    0    0  501 -0.00000000000E+00 -0.00000000000E+00 -0.24382294526E+04  0.24382294526E+04  0.00000000000E+00 0.  1.
         23    2    1    2    0    0  0.13219970846E+04 -0.89524446606E+02  0.11697115868E+03  0.13334290771E+04  0.93058762896E+02 0.  0.
        254    2    1    2    0    0 -0.13219970846E+04  0.89524446606E+02 -0.14793762706E+04  0.21806247162E+04  0.90048824791E+03 0.  0.
        -24    2    4    4    0    0 -0.94023704636E+03  0.38406199118E+03 -0.62255054791E+03  0.11940680963E+04  0.81731985829E+02 0.  0.
         24    2    4    4    0    0 -0.38176003823E+03 -0.29453754457E+03 -0.85682572269E+03  0.98655661988E+03  0.81550924005E+02 0.  0.
         13    1    3    3    0    0  0.97509170495E+03 -0.61384081195E+02  0.45236614779E+02  0.97806860179E+03  0.00000000000E+00 0.  1.
        -13    1    3    3    0    0  0.34690537964E+03 -0.28140365411E+02  0.71734543906E+02  0.35536047526E+03  0.00000000000E+00 0. -1.
          4    1    6    6  502    0 -0.22737405589E+03 -0.14877946971E+03 -0.41024720265E+03  0.49207424154E+03  0.00000000000E+00 0. -1.
          3    1    5    5  503    0 -0.37192351037E+03  0.19520912153E+03 -0.26076198107E+03  0.49439913983E+03  0.00000000000E+00 0. -1.
         -4    1    5    5    0  503 -0.56831353600E+03  0.18885286965E+03 -0.36178856685E+03  0.69966895649E+03  0.00000000000E+00 0.  1.
         -3    1    6    6    0  502 -0.15438598235E+03 -0.14575807486E+03 -0.44657852004E+03  0.49448237834E+03  0.00000000000E+00 0.  1.
<mgrwt>
<rscale>  0 0.32392015E+04</rscale>
<asrwt>0</asrwt>
<pdfrwt beam="1">  1        3 0.16551144E+00 0.32392015E+04</pdfrwt>
<pdfrwt beam="2">  1       -3 0.37511222E+00 0.32392015E+04</pdfrwt>
<totfact> 0.78767887E-03</totfact>
</mgrwt>
</event>
<event>
12    1  0.2433511E-007  0.1318791E+04  0.7818608E-02  0.9014795E-01
         -2   -1    0    0    0  501 -0.00000000000E+00  0.00000000000E+00  0.39296554839E+03  0.39296554839E+03  0.00000000000E+00 0.  1.
          2   -1    0    0  501    0  0.00000000000E+00 -0.00000000000E+00 -0.11064645881E+04  0.11064645881E+04  0.00000000000E+00 0. -1.
         23    2    1    2    0    0  0.20271970913E+01 -0.27709887924E+03 -0.43012904857E+03  0.52037626014E+03  0.94829084620E+02 0.  0.
        254    2    1    2    0    0 -0.20271970913E+01  0.27709887924E+03 -0.28336999117E+03  0.97905387638E+03  0.89524300755E+03 0.  0.
        -24    2    4    4    0    0 -0.35866383360E+03 -0.10487399673E+03 -0.23377273834E+03  0.44787850035E+03  0.79417612405E+02 0.  0.
         24    2    4    4    0    0  0.35663663651E+03  0.38197287596E+03 -0.49597252827E+02  0.53117537603E+03  0.81206059747E+02 0.  0.
         13    1    3    3    0    0 -0.17906458271E+02 -0.27782784572E+02 -0.16341384951E+02  0.36872282659E+02  0.00000000000E+00 0.  1.
        -13    1    3    3    0    0  0.19933655362E+02 -0.24931609467E+03 -0.41378766362E+03  0.48350397748E+03  0.00000000000E+00 0. -1.
          4    1    6    6  502    0  0.12825656127E+03  0.84999117593E+02 -0.56125815378E+01  0.15396784265E+03  0.00000000000E+00 0. -1.
          1    1    5    5  503    0 -0.19437059290E+03 -0.34635421210E+02 -0.16175254836E+03  0.25523210355E+03  0.00000000000E+00 0. -1.
         -2    1    5    5    0  503 -0.16429324071E+03 -0.70238575515E+02 -0.72020189982E+02  0.19264639680E+03  0.00000000000E+00 0.  1.
         -3    1    6    6    0  502  0.22838007525E+03  0.29697375837E+03 -0.43984671289E+02  0.37720753338E+03  0.00000000000E+00 0.  1.
<mgrwt>
<rscale>  0 0.13187911E+04</rscale>
<asrwt>0</asrwt>
<pdfrwt beam="1">  1        2 0.17022532E+00 0.13187911E+04</pdfrwt>
<pdfrwt beam="2">  1       -2 0.60456239E-01 0.13187911E+04</pdfrwt>
<totfact> 0.53860781E+01</totfact>
</mgrwt>
</event>
<event>
12    1  0.2433511E-007  0.1518874E+04  0.7818608E-02  0.8871998E-01
         -2   -1    0    0    0  501 -0.00000000000E+00  0.00000000000E+00  0.21733889273E+03  0.21733889273E+03  0.00000000000E+00 0.  1.
          2   -1    0    0  501    0  0.00000000000E+00 -0.00000000000E+00 -0.26536662078E+04  0.26536662078E+04  0.00000000000E+00 0. -1.
         23    2    1    2    0    0 -0.45275927879E+03 -0.16826068607E+03 -0.89314494567E+03  0.10198101493E+04  0.94880048514E+02 0.  0.
        254    2    1    2    0    0  0.45275927879E+03  0.16826068607E+03 -0.15431823694E+04  0.18511949513E+04  0.90122599789E+03 0.  0.
        -24    2    4    4    0    0  0.19814073719E+02 -0.79427032034E+02  0.87846020813E+02  0.14362685256E+03  0.78806715888E+02 0.  0.
         24    2    4    4    0    0  0.43294520507E+03  0.24768771810E+03 -0.16310283902E+04  0.17075680987E+04  0.82124574000E+02 0.  0.
         13    1    3    3    0    0 -0.22268417589E+03 -0.35173484454E+02 -0.44250174854E+03  0.49662180143E+03  0.00000000000E+00 0. -1.
        -13    1    3    3    0    0 -0.23007510291E+03 -0.13308720161E+03 -0.45064319714E+03  0.52318834786E+03  0.00000000000E+00 0.  1.
          4    1    6    6  502    0  0.10365120631E+03  0.30951135803E+02 -0.27890319042E+03  0.29914634379E+03  0.00000000000E+00 0. -1.
          1    1    5    5  503    0 -0.27850509214E+02 -0.50777289719E+02  0.47883781888E+02  0.75145462821E+02  0.00000000000E+00 0. -1.
         -2    1    5    5    0  503  0.47664582933E+02 -0.28649742315E+02  0.39962238925E+02  0.68481389741E+02  0.00000000000E+00 0.  1.
         -3    1    6    6    0  502  0.32929399876E+03  0.21673658230E+03 -0.13521251998E+04  0.14084217549E+04  0.00000000000E+00 0.  1.
<mgrwt>
<rscale>  0 0.15188744E+04</rscale>
<asrwt>0</asrwt>
<pdfrwt beam="1">  1        2 0.40825633E+00 0.15188744E+04</pdfrwt>
<pdfrwt beam="2">  1       -2 0.33436753E-01 0.15188744E+04</pdfrwt>
<totfact> 0.22903949E+01</totfact>
</mgrwt>
</event>
<event>
12    1  0.2433511E-007  0.2123162E+04  0.7818608E-02  0.8551109E-01
          2   -1    0    0  501    0  0.00000000000E+00  0.00000000000E+00  0.10043235745E+04  0.10043235745E+04  0.00000000000E+00 0. -1.
         -2   -1    0    0    0  501 -0.00000000000E+00 -0.00000000000E+00 -0.11221022869E+04  0.11221022869E+04  0.00000000000E+00 0.  1.
         23    2    1    2    0    0  0.56192214440E+03 -0.28683240519E+03 -0.64552367865E+03  0.90713794512E+03  0.90383110923E+02 0.  0.
        254    2    1    2    0    0 -0.56192214440E+03  0.28683240519E+03  0.52774496629E+03  0.12192879163E+04  0.90006608005E+03 0.  0.
        -24    2    4    4    0    0 -0.76557244765E+03  0.22028321194E+03  0.57494904219E+03  0.98571799045E+03  0.80297506327E+02 0.  0.
         24    2    4    4    0    0  0.20365030325E+03  0.66549193253E+02 -0.47204075898E+02  0.23356992589E+03  0.80152631676E+02 0.  0.
         11    1    3    3    0    0  0.47146395004E+03 -0.24448024666E+03 -0.49183543965E+03  0.72384455989E+03  0.00000000000E+00 0. -1.
        -11    1    3    3    0    0  0.90458194360E+02 -0.42352158528E+02 -0.15368823900E+03  0.18329338522E+03  0.00000000000E+00 0.  1.
          4    1    6    6  502    0  0.14548060114E+03  0.78646543206E+02 -0.53515941464E+02  0.17382128770E+03  0.00000000000E+00 0. -1.
          3    1    5    5  503    0 -0.59867657122E+03  0.16346482105E+03  0.48601577949E+03  0.78825485888E+03  0.00000000000E+00 0. -1.
         -4    1    5    5    0  503 -0.16689587643E+03  0.56818390882E+02  0.88933262701E+02  0.19746313156E+03  0.00000000000E+00 0.  1.
         -3    1    6    6    0  502  0.58169702106E+02 -0.12097349953E+02  0.63118655658E+01  0.59748638193E+02  0.00000000000E+00 0.  1.
<mgrwt>
<rscale>  0 0.21231616E+04</rscale>
<asrwt>0</asrwt>
<pdfrwt beam="1">  1        2 0.15451132E+00 0.21231616E+04</pdfrwt>
<pdfrwt beam="2">  1       -2 0.17263112E+00 0.21231616E+04</pdfrwt>
<totfact> 0.46993804E+00</totfact>
</mgrwt>
</event>
<event>
12    1  0.2433511E-007  0.2284522E+04  0.7818608E-02  0.8484049E-01
         -1   -1    0    0    0  501 -0.00000000000E+00  0.00000000000E+00  0.10492793447E+04  0.10492793447E+04  0.00000000000E+00 0.  1.
          1   -1    0    0  501    0  0.00000000000E+00 -0.00000000000E+00 -0.12434821398E+04  0.12434821398E+04  0.00000000000E+00 0. -1.
         23    2    1    2    0    0  0.23713533475E+03 -0.92950295657E+03 -0.10714853934E+03  0.96956443081E+03  0.91462903639E+02 0.  0.
        254    2    1    2    0    0 -0.23713533475E+03  0.92950295657E+03 -0.87054255744E+02  0.13231970537E+04  0.90722824376E+03 0.  0.
        -24    2    4    4    0    0  0.28078481760E+03  0.58151808125E+03  0.11732022697E+03  0.66128792581E+03  0.80834971164E+02 0.  0.
         24    2    4    4    0    0 -0.51792015235E+03  0.34798487532E+03 -0.20437448271E+03  0.66190912791E+03  0.83785480635E+02 0.  0.
         11    1    3    3    0    0  0.43755237820E+02 -0.34482091947E+03 -0.48332810557E+02  0.35093026076E+03  0.00000000000E+00 0. -1.
        -11    1    3    3    0    0  0.19338009693E+03 -0.58468203710E+03 -0.58815728784E+02  0.61863417005E+03  0.00000000000E+00 0.  1.
          4    1    6    6  502    0 -0.26308836480E+03  0.22692634791E+03 -0.11119705224E+03  0.36479561331E+03  0.00000000000E+00 0. -1.
          1    1    5    5  503    0  0.18546224354E+03  0.33858022965E+03  0.34945507276E+02  0.38762611389E+03  0.00000000000E+00 0. -1.
         -2    1    5    5    0  503  0.95322574057E+02  0.24293785159E+03  0.82374719691E+02  0.27366181192E+03  0.00000000000E+00 0.  1.
         -3    1    6    6    0  502 -0.25483178755E+03  0.12105852742E+03 -0.93177430471E+02  0.29711351460E+03  0.00000000000E+00 0.  1.
<mgrwt>
<rscale>  0 0.22845219E+04</rscale>
<asrwt>0</asrwt>
<pdfrwt beam="1">  1        1 0.19130494E+00 0.22845219E+04</pdfrwt>
<pdfrwt beam="2">  1       -1 0.16142759E+00 0.22845219E+04</pdfrwt>
<totfact> 0.25632665E+00</totfact>
</mgrwt>
</event>
<event>
12    1  0.2433511E-007  0.3053135E+04  0.7818608E-02  0.8228719E-01
         -1   -1    0    0    0  501 -0.00000000000E+00  0.00000000000E+00  0.10256832531E+04  0.10256832531E+04  0.00000000000E+00 0.  1.
          1   -1    0    0  501    0  0.00000000000E+00 -0.00000000000E+00 -0.22720544340E+04  0.22720544340E+04  0.00000000000E+00 0. -1.
         23    2    1    2    0    0 -0.10812903505E+04 -0.80661280380E+03 -0.22315594292E+03  0.13704041150E+04  0.91628742038E+02 0.  0.
        254    2    1    2    0    0  0.10812903505E+04  0.80661280380E+03 -0.10232152379E+04  0.19273335721E+04  0.92077806099E+03 0.  0.
        -24    2    4    4    0    0 -0.74281575532E+02  0.15513189376E+03  0.74224169973E+02  0.20384096139E+03  0.80363257806E+02 0.  0.
         24    2    4    4    0    0  0.11555719260E+04  0.65148091003E+03 -0.10974394079E+04  0.17234926107E+04  0.79244386131E+02 0.  0.
         11    1    3    3    0    0 -0.76166163495E+03 -0.55320555159E+03 -0.19640259125E+03  0.96163340536E+03  0.00000000000E+00 0.  1.
        -11    1    3    3    0    0 -0.31962871552E+03 -0.25340725221E+03 -0.26753351672E+02  0.40877070967E+03  0.00000000000E+00 0. -1.
          4    1    6    6  502    0  0.23752329870E+03  0.10127586263E+03 -0.23061248296E+03  0.34620259253E+03  0.00000000000E+00 0. -1.
          1    1    5    5  503    0 -0.29392779576E+02  0.13883685655E+03  0.59333655852E+02  0.15381836998E+03  0.00000000000E+00 0. -1.
         -2    1    5    5    0  503 -0.44888795956E+02  0.16295037218E+02  0.14890514120E+02  0.50022591408E+02  0.00000000000E+00 0.  1.
         -3    1    6    6    0  502  0.91804862730E+03  0.55020504741E+03 -0.86682692494E+03  0.13772900181E+04  0.00000000000E+00 0.  1.
<mgrwt>
<rscale>  0 0.30531349E+04</rscale>
<asrwt>0</asrwt>
<pdfrwt beam="1">  1        1 0.34954684E+00 0.30531349E+04</pdfrwt>
<pdfrwt beam="2">  1       -1 0.15779742E+00 0.30531349E+04</pdfrwt>
<totfact> 0.50042371E-01</totfact>
</mgrwt>
</event>
<event>
12    1  0.2433511E-007  0.2351640E+04  0.7818608E-02  0.8457834E-01
          2   -1    0    0  501    0  0.00000000000E+00  0.00000000000E+00  0.22366684204E+04  0.22366684204E+04  0.00000000000E+00 0. -1.
         -2   -1    0    0    0  501 -0.00000000000E+00 -0.00000000000E+00 -0.61813024975E+03  0.61813024975E+03  0.00000000000E+00 0.  1.
         23    2    1    2    0    0  0.32020485932E+03 -0.79055378130E+03  0.13300523178E+04  0.15826212901E+04  0.90247142393E+02 0.  0.
        254    2    1    2    0    0 -0.32020485932E+03  0.79055378130E+03  0.28848585289E+03  0.12721773801E+04  0.89872396542E+03 0.  0.
        -24    2    4    4    0    0  0.16870531164E+03  0.29267241451E+03 -0.21470714429E+03  0.40823772289E+03  0.80251206801E+02 0.  0.
         24    2    4    4    0    0 -0.48891017096E+03  0.49788136679E+03  0.50319299717E+03  0.86393965719E+03  0.79180352381E+02 0.  0.
         13    1    3    3    0    0  0.66327116396E+01 -0.96970137146E+01  0.45832168046E+01  0.12610742046E+02  0.00000000000E+00 0.  1.
        -13    1    3    3    0    0  0.31357214768E+03 -0.78085676758E+03  0.13254691010E+04  0.15700105480E+04  0.00000000000E+00 0. -1.
          2    1    6    6  502    0 -0.29850857991E+03  0.28954997856E+03  0.25302287198E+03  0.48679270343E+03  0.00000000000E+00 0. -1.
          3    1    5    5  503    0  0.37530843520E+02  0.26026954080E+02 -0.82954147931E+01  0.46419612887E+02  0.00000000000E+00 0. -1.
         -4    1    5    5    0  503  0.13117446812E+03  0.26664546043E+03 -0.20641172949E+03  0.36181811000E+03  0.00000000000E+00 0.  1.
         -1    1    6    6    0  502 -0.19040159105E+03  0.20833138823E+03  0.25017012520E+03  0.37714695377E+03  0.00000000000E+00 0.  1.
<mgrwt>
<rscale>  0 0.23516398E+04</rscale>
<asrwt>0</asrwt>
<pdfrwt beam="1">  1        2 0.34410283E+00 0.23516398E+04</pdfrwt>
<pdfrwt beam="2">  1       -2 0.95096963E-01 0.23516398E+04</pdfrwt>
<totfact> 0.41325021E+00</totfact>
</mgrwt>
</event>
<event>
12    1  0.2433511E-007  0.2665848E+04  0.7818608E-02  0.8346172E-01
          2   -1    0    0  501    0  0.00000000000E+00  0.00000000000E+00  0.13202884010E+04  0.13202884010E+04  0.00000000000E+00 0. -1.
         -2   -1    0    0    0  501 -0.00000000000E+00 -0.00000000000E+00 -0.13456806138E+04  0.13456806138E+04  0.00000000000E+00 0.  1.
         23    2    1    2    0    0  0.33996240265E+03  0.56366020378E+03  0.96713082392E+03  0.11735049115E+04  0.92111270171E+02 0.  0.
        254    2    1    2    0    0 -0.33996240265E+03 -0.56366020378E+03 -0.99252303673E+03  0.14924641034E+04  0.89947754891E+03 0.  0.
        -24    2    4    4    0    0 -0.51963600457E+03 -0.41405552800E+02 -0.31221302955E+03  0.61344353390E+03  0.84261476502E+02 0.  0.
         24    2    4    4    0    0  0.17967360192E+03 -0.52225465098E+03 -0.68031000718E+03  0.87902056951E+03  0.69447332949E+02 0.  0.
         11    1    3    3    0    0  0.88164414675E+02  0.17687821972E+03  0.36232650399E+03  0.41272189683E+03  0.00000000000E+00 0. -1.
        -11    1    3    3    0    0  0.25179798797E+03  0.38678198406E+03  0.60480431993E+03  0.76078301463E+03  0.00000000000E+00 0.  1.
          2    1    6    6  502    0  0.12833504210E+03 -0.28718160342E+03 -0.35346668784E+03  0.47316155358E+03  0.00000000000E+00 0. -1.
          3    1    5    5  503    0 -0.40599826270E+03 -0.12723634890E+02 -0.27478303300E+03  0.49041023177E+03  0.00000000000E+00 0. -1.
         -4    1    5    5    0  503 -0.11363774187E+03 -0.28681917910E+02 -0.37429996543E+02  0.12303330213E+03  0.00000000000E+00 0.  1.
         -1    1    6    6    0  502  0.51338559818E+02 -0.23507304756E+03 -0.32684331934E+03  0.40585901593E+03  0.00000000000E+00 0.  1.
<mgrwt>
<rscale>  0 0.26658481E+04</rscale>
<asrwt>0</asrwt>
<pdfrwt beam="1">  1        2 0.20312129E+00 0.26658481E+04</pdfrwt>
<pdfrwt beam="2">  1       -2 0.20702779E+00 0.26658481E+04</pdfrwt>
<totfact> 0.16939294E+00</totfact>
</mgrwt>
</event>
<event>
12    1  0.2433511E-007  0.1693296E+04  0.7818608E-02  0.8765197E-01
          2   -1    0    0  501    0  0.00000000000E+00  0.00000000000E+00  0.19915177859E+04  0.19915177859E+04  0.00000000000E+00 0. -1.
         -2   -1    0    0    0  501 -0.00000000000E+00 -0.00000000000E+00 -0.35993301405E+03  0.35993301405E+03  0.00000000000E+00 0.  1.
         23    2    1    2    0    0  0.33486282435E+03 -0.45678125411E+03  0.88033848545E+03  0.10508572446E+04  0.92319414169E+02 0.  0.
        254    2    1    2    0    0 -0.33486282435E+03  0.45678125411E+03  0.75124628643E+03  0.13005935554E+04  0.89799242106E+03 0.  0.
        -24    2    4    4    0    0 -0.32766908793E+02  0.64034272225E+03  0.27553303975E+03  0.70246534297E+03  0.80166263662E+02 0.  0.
         24    2    4    4    0    0 -0.30209591555E+03 -0.18356146813E+03  0.47571324669E+03  0.59812821246E+03  0.80607137923E+02 0.  0.
         13    1    3    3    0    0  0.30305883609E+03 -0.35687088287E+03  0.74009046275E+03  0.87574846744E+03  0.00000000000E+00 0. -1.
        -13    1    3    3    0    0  0.31803988254E+02 -0.99910371245E+02  0.14024802270E+03  0.17510877712E+03  0.00000000000E+00 0.  1.
          2    1    6    6  502    0 -0.19515376238E+03 -0.98081285902E+02  0.23229639450E+03  0.31885191627E+03  0.00000000000E+00 0. -1.
          3    1    5    5  503    0  0.11281528536E+02  0.41945558090E+03  0.20059498232E+03  0.46508988826E+03  0.00000000000E+00 0. -1.
         -4    1    5    5    0  503 -0.44048437329E+02  0.22088714135E+03  0.74938057426E+02  0.23737545471E+03  0.00000000000E+00 0.  1.
         -1    1    6    6    0  502 -0.10694215318E+03 -0.85480182233E+02  0.24341685218E+03  0.27927629618E+03  0.00000000000E+00 0.  1.
<mgrwt>
<rscale>  0 0.16932962E+04</rscale>
<asrwt>0</asrwt>
<pdfrwt beam="1">  1        2 0.30638735E+00 0.16932962E+04</pdfrwt>
<pdfrwt beam="2">  1       -2 0.55374311E-01 0.16932962E+04</pdfrwt>
<totfact> 0.19713325E+01</totfact>
</mgrwt>
</event>
<event>
12    1  0.2433511E-007  0.2916573E+04  0.7818608E-02  0.8267964E-01
         -1   -1    0    0    0  501 -0.00000000000E+00  0.00000000000E+00  0.12863050960E+04  0.12863050960E+04  0.00000000000E+00 0.  1.
          1   -1    0    0  501    0  0.00000000000E+00 -0.00000000000E+00 -0.16532620478E+04  0.16532620478E+04  0.00000000000E+00 0. -1.
         23    2    1    2    0    0 -0.53595659954E+03  0.10704472082E+04  0.38919439236E+03  0.12624546900E+04  0.95983681326E+02 0.  0.
        254    2    1    2    0    0  0.53595659954E+03 -0.10704472082E+04 -0.75615134411E+03  0.16771124538E+04  0.89879620911E+03 0.  0.
        -24    2    4    4    0    0  0.35537807342E+03 -0.37086006234E+03  0.12528848409E+03  0.53460724349E+03  0.79227139601E+02 0.  0.
         24    2    4    4    0    0  0.18057852612E+03 -0.69958714586E+03 -0.88143982820E+03  0.11425052103E+04  0.79694455207E+02 0.  0.
         13    1    3    3    0    0 -0.23760547309E+03  0.54219749544E+03  0.15308492180E+03  0.61144867175E+03  0.00000000000E+00 0. -1.
        -13    1    3    3    0    0 -0.29835112645E+03  0.52824971276E+03  0.23610947056E+03  0.65100601823E+03  0.00000000000E+00 0.  1.
          2    1    6    6  502    0  0.17467060079E+03 -0.54747005970E+03 -0.69467701604E+03  0.90155944988E+03  0.00000000000E+00 0. -1.
          1    1    5    5  503    0  0.19792789833E+03 -0.17795551006E+03  0.99971358914E+02  0.28432004695E+03  0.00000000000E+00 0. -1.
         -2    1    5    5    0  503  0.15745017509E+03 -0.19290455228E+03  0.25317125175E+02  0.25028719654E+03  0.00000000000E+00 0.  1.
         -1    1    6    6    0  502  0.59079253248E+01 -0.15211708616E+03 -0.18676281215E+03  0.24094576046E+03  0.00000000000E+00 0.  1.
<mgrwt>
<rscale>  0 0.29165729E+04</rscale>
<asrwt>0</asrwt>
<pdfrwt beam="1">  1        1 0.25434801E+00 0.29165729E+04</pdfrwt>
<pdfrwt beam="2">  1       -1 0.19789309E+00 0.29165729E+04</pdfrwt>
<totfact> 0.68440202E-01</totfact>
</mgrwt>
</event>
<event>
12    1  0.2433511E-007  0.2355899E+04  0.7818608E-02  0.8456201E-01
          1   -1    0    0  501    0  0.00000000000E+00  0.00000000000E+00  0.81514265683E+03  0.81514265683E+03  0.00000000000E+00 0. -1.
         -1   -1    0    0    0  501 -0.00000000000E+00 -0.00000000000E+00 -0.17022362687E+04  0.17022362687E+04  0.00000000000E+00 0.  1.
         23    2    1    2    0    0 -0.72845158519E+03  0.71161459239E+02 -0.11116589500E+04  0.13341473231E+04  0.91966262779E+02 0.  0.
        254    2    1    2    0    0  0.72845158519E+03 -0.71161459239E+02  0.22456533813E+03  0.11832316024E+04  0.90216504508E+03 0.  0.
        -24    2    4    4    0    0  0.15327519883E+03 -0.43378127171E+03  0.16784726097E+03  0.49627449705E+03  0.80350452057E+02 0.  0.
         24    2    4    4    0    0  0.57517638636E+03  0.36261981247E+03  0.56718077154E+02  0.68695710534E+03  0.79825562771E+02 0.  0.
         13    1    3    3    0    0 -0.89792786924E+02  0.34385770661E+02 -0.17879938357E+03  0.20301316551E+03  0.00000000000E+00 0. -1.
        -13    1    3    3    0    0 -0.63865879827E+03  0.36775688577E+02 -0.93285956639E+03  0.11311341576E+04  0.00000000000E+00 0.  1.
          4    1    6    6  502    0  0.27238142621E+03  0.19337768038E+03 -0.77442238481E+01  0.33413551385E+03  0.00000000000E+00 0. -1.
          1    1    5    5  503    0  0.15714236759E+03 -0.43435793192E+03  0.16252027044E+03  0.48966659577E+03  0.00000000000E+00 0. -1.
         -2    1    5    5    0  503 -0.38671687586E+01  0.57666020646E+00  0.53269905339E+01  0.66079012817E+01  0.00000000000E+00 0.  1.
         -3    1    6    6    0  502  0.30279496016E+03  0.16924213209E+03  0.64462301002E+02  0.35282159149E+03  0.00000000000E+00 0.  1.
<mgrwt>
<rscale>  0 0.23558993E+04</rscale>
<asrwt>0</asrwt>
<pdfrwt beam="1">  1        1 0.12540657E+00 0.23558993E+04</pdfrwt>
<pdfrwt beam="2">  1       -1 0.26188250E+00 0.23558993E+04</pdfrwt>
<totfact> 0.11255459E+00</totfact>
</mgrwt>
</event>
<event>
12    1  0.2433511E-007  0.2157836E+04  0.7818608E-02  0.8536185E-01
          1   -1    0    0  501    0  0.00000000000E+00  0.00000000000E+00  0.41666750428E+04  0.41666750428E+04  0.00000000000E+00 0. -1.
         -1   -1    0    0    0  501 -0.00000000000E+00 -0.00000000000E+00 -0.27937486258E+03  0.27937486258E+03  0.00000000000E+00 0.  1.
         23    2    1    2    0    0 -0.64068960839E+03  0.16270821359E+03  0.28314442648E+04  0.29091653634E+04  0.95965356438E+02 0.  0.
        254    2    1    2    0    0  0.64068960839E+03 -0.16270821359E+03  0.10558559154E+04  0.15368845420E+04  0.90012512701E+03 0.  0.
        -24    2    4    4    0    0  0.49576350866E+03  0.21552165612E+03  0.97256560136E+03  0.11155497135E+04  0.79600712954E+02 0.  0.
         24    2    4    4    0    0  0.14492609973E+03 -0.37822986971E+03  0.83290314059E+02  0.42133482854E+03  0.80773464691E+02 0.  0.
         11    1    3    3    0    0 -0.12822112768E+03  0.33899398971E+02  0.41731404649E+03  0.43788222187E+03  0.00000000000E+00 0.  1.
        -11    1    3    3    0    0 -0.51246848071E+03  0.12880881462E+03  0.24141302183E+04  0.24712831415E+04  0.00000000000E+00 0. -1.
          2    1    6    6  502    0  0.12233577066E+03 -0.34603000559E+03  0.97101685140E+02  0.37964660252E+03  0.00000000000E+00 0. -1.
          3    1    5    5  503    0  0.48688154132E+03  0.19725769450E+03  0.92369689518E+03  0.10626289039E+04  0.00000000000E+00 0. -1.
         -4    1    5    5    0  503  0.88819673328E+01  0.18263961618E+02  0.48868706183E+02  0.52920809534E+02  0.00000000000E+00 0.  1.
         -1    1    6    6    0  502  0.22590329075E+02 -0.32199864123E+02 -0.13811371081E+02  0.41688226017E+02  0.00000000000E+00 0.  1.
<mgrwt>
<rscale>  0 0.21578362E+04</rscale>
<asrwt>0</asrwt>
<pdfrwt beam="1">  1        1 0.64102689E+00 0.21578362E+04</pdfrwt>
<pdfrwt beam="2">  1       -1 0.42980751E-01 0.21578362E+04</pdfrwt>
<totfact> 0.33395762E-01</totfact>
</mgrwt>
</event>
<event>
12    1  0.2433511E-007  0.1663248E+04  0.7818608E-02  0.8782608E-01
          2   -1    0    0  501    0  0.00000000000E+00  0.00000000000E+00  0.13762473422E+04  0.13762473422E+04  0.00000000000E+00 0. -1.
         -2   -1    0    0    0  501 -0.00000000000E+00 -0.00000000000E+00 -0.50252460218E+03  0.50252460218E+03  0.00000000000E+00 0.  1.
         23    2    1    2    0    0  0.39863993596E+03  0.10168473072E+03 -0.15692762653E+03  0.44999234535E+03  0.92807585352E+02 0.  0.
        254    2    1    2    0    0 -0.39863993596E+03 -0.10168473072E+03  0.10306503665E+04  0.14287795990E+04  0.89995409968E+03 0.  0.
        -24    2    4    4    0    0 -0.27431368727E+03 -0.48425094521E+03  0.46040011597E+03  0.72654479245E+03  0.78435270724E+02 0.  0.
         24    2    4    4    0    0 -0.12432624869E+03  0.38256621449E+03  0.57025025057E+03  0.70223480657E+03  0.78322734262E+02 0.  0.
         11    1    3    3    0    0  0.10801431996E+03 -0.39999087759E+01 -0.69951207618E+02  0.12874884090E+03  0.00000000000E+00 0.  1.
        -11    1    3    3    0    0  0.29062561600E+03  0.10568463949E+03 -0.86976418908E+02  0.32124350444E+03  0.00000000000E+00 0. -1.
          4    1    6    6  502    0 -0.34376457821E+02  0.67429530181E+02  0.63753539890E+02  0.98959568720E+02  0.00000000000E+00 0. -1.
          3    1    5    5  503    0 -0.16838412846E+03 -0.36785525865E+03  0.32511836996E+03  0.51901123352E+03  0.00000000000E+00 0. -1.
         -4    1    5    5    0  503 -0.10592955881E+03 -0.11639568656E+03  0.13528174602E+03  0.20753355893E+03  0.00000000000E+00 0.  1.
         -3    1    6    6    0  502 -0.89949790872E+02  0.31513668431E+03  0.50649671068E+03  0.60327523785E+03  0.00000000000E+00 0.  1.
<mgrwt>
<rscale>  0 0.16632476E+04</rscale>
<asrwt>0</asrwt>
<pdfrwt beam="1">  1        2 0.21173036E+00 0.16632476E+04</pdfrwt>
<pdfrwt beam="2">  1       -2 0.77311478E-01 0.16632476E+04</pdfrwt>
<totfact> 0.21267105E+01</totfact>
</mgrwt>
</event>
<event>
12    1  0.2433511E-007  0.1484271E+04  0.7818608E-02  0.8894980E-01
         -2   -1    0    0    0  501 -0.00000000000E+00  0.00000000000E+00  0.19580773652E+03  0.19580773652E+03  0.00000000000E+00 0.  1.
          2   -1    0    0  501    0  0.00000000000E+00 -0.00000000000E+00 -0.28127862650E+04  0.28127862650E+04  0.00000000000E+00 0. -1.
         23    2    1    2    0    0  0.11184826082E+03 -0.41687171136E+03 -0.11622303941E+04  0.12434351917E+04  0.95181562859E+02 0.  0.
        254    2    1    2    0    0 -0.11184826082E+03  0.41687171136E+03 -0.14547481344E+04  0.17651588098E+04  0.90177681946E+03 0.  0.
        -24    2    4    4    0    0  0.16192751210E+03  0.92527400903E+00  0.42648816400E+02  0.18513212640E+03  0.78953197374E+02 0.  0.
         24    2    4    4    0    0 -0.27377577292E+03  0.41594643736E+03 -0.14973969508E+04  0.15800266834E+04  0.79511505029E+02 0.  0.
         11    1    3    3    0    0  0.88542934385E+02 -0.18215876686E+03 -0.45889588734E+03  0.50160452848E+03  0.00000000000E+00 0.  1.
        -11    1    3    3    0    0  0.23305326433E+02 -0.23471294451E+03 -0.70333450672E+03  0.74183066322E+03  0.00000000000E+00 0. -1.
          2    1    6    6  502    0 -0.19517324685E+03  0.35380874255E+03 -0.12008396690E+04  0.12670000526E+04  0.00000000000E+00 0. -1.
          1    1    5    5  503    0  0.16668331009E+03 -0.99085506199E+01  0.45286960622E+02  0.17300986689E+03  0.00000000000E+00 0. -1.
         -2    1    5    5    0  503 -0.47557979892E+01  0.10833824629E+02 -0.26381442220E+01  0.12122259506E+02  0.00000000000E+00 0.  1.
         -1    1    6    6    0  502 -0.78602526071E+02  0.62137694810E+02 -0.29655728183E+03  0.31302663086E+03  0.00000000000E+00 0.  1.
<mgrwt>
<rscale>  0 0.14842713E+04</rscale>
<asrwt>0</asrwt>
<pdfrwt beam="1">  1        2 0.43273633E+00 0.14842713E+04</pdfrwt>
<pdfrwt beam="2">  1       -2 0.30124269E-01 0.14842713E+04</pdfrwt>
<totfact> 0.22483994E+01</totfact>
</mgrwt>
</event>
<event>
12    1  0.2433511E-007  0.1950674E+04  0.7818608E-02  0.8630036E-01
          2   -1    0    0  501    0  0.00000000000E+00  0.00000000000E+00  0.30457915718E+04  0.30457915718E+04  0.00000000000E+00 0. -1.
         -2   -1    0    0    0  501 -0.00000000000E+00 -0.00000000000E+00 -0.31232664191E+03  0.31232664191E+03  0.00000000000E+00 0.  1.
         23    2    1    2    0    0  0.63473917954E+03 -0.93046751906E+02  0.36372146384E+03  0.74310374849E+03  0.91424032245E+02 0.  0.
        254    2    1    2    0    0 -0.63473917954E+03  0.93046751906E+02  0.23697434660E+04  0.26150144652E+04  0.90059149136E+03 0.  0.
        -24    2    4    4    0    0 -0.23561729117E+03  0.33812670086E+03  0.19023145176E+04  0.19482367900E+04  0.83551734342E+02 0.  0.
         24    2    4    4    0    0 -0.39912188837E+03 -0.24507994895E+03  0.46742894843E+03  0.66677767520E+03  0.82098618467E+02 0.  0.
         13    1    3    3    0    0  0.41799720923E+03 -0.52668295934E+02  0.28655291755E+03  0.50951760605E+03  0.00000000000E+00 0. -1.
        -13    1    3    3    0    0  0.21674197032E+03 -0.40378455972E+02  0.77168546295E+02  0.23358614244E+03  0.00000000000E+00 0.  1.
          2    1    6    6  502    0 -0.26815941121E+03 -0.12231881065E+03  0.31373207861E+03  0.43046391069E+03  0.00000000000E+00 0. -1.
          3    1    5    5  503    0 -0.25675410697E+02  0.96181925758E+02  0.49767242988E+03  0.50753131629E+03  0.00000000000E+00 0. -1.
         -4    1    5    5    0  503 -0.20994188047E+03  0.24194477510E+03  0.14046420877E+04  0.14407054737E+04  0.00000000000E+00 0.  1.
         -1    1    6    6    0  502 -0.13096247717E+03 -0.12276113831E+03  0.15369686983E+03  0.23631376451E+03  0.00000000000E+00 0.  1.
<mgrwt>
<rscale>  0 0.19506736E+04</rscale>
<asrwt>0</asrwt>
<pdfrwt beam="1">  1        2 0.46858330E+00 0.19506736E+04</pdfrwt>
<pdfrwt beam="2">  1       -2 0.48050255E-01 0.19506736E+04</pdfrwt>
<totfact> 0.62544354E+00</totfact>
</mgrwt>
</event>
<event>
12    1  0.2433511E-007  0.1462313E+04  0.7818608E-02  0.8909909E-01
          2   -1    0    0  501    0  0.00000000000E+00  0.00000000000E+00  0.10563023840E+04  0.10563023840E+04  0.00000000000E+00 0. -1.
         -2   -1    0    0    0  501 -0.00000000000E+00 -0.00000000000E+00 -0.50609519203E+03  0.50609519203E+03  0.00000000000E+00 0.  1.
         23    2    1    2    0    0 -0.29636784041E+03 -0.33298487290E+02  0.52867398429E+03  0.61396067336E+03  0.92243377445E+02 0.  0.
        254    2    1    2    0    0  0.29636784041E+03  0.33298487290E+02  0.21533207718E+02  0.94843690271E+03  0.90007010466E+03 0.  0.
        -24    2    4    4    0    0 -0.18349760699E+03  0.16584398320E+02 -0.30331412785E+03  0.36377425840E+03  0.79911431503E+02 0.  0.
         24    2    4    4    0    0  0.47986544740E+03  0.16714088970E+02  0.32484733557E+03  0.58466264431E+03  0.75857813360E+02 0.  0.
         11    1    3    3    0    0 -0.20976943159E+03 -0.14922045281E+02  0.28127654907E+03  0.35120133673E+03  0.00000000000E+00 0.  1.
        -11    1    3    3    0    0 -0.86598408815E+02 -0.18376442009E+02  0.24739743523E+03  0.26275933663E+03  0.00000000000E+00 0. -1.
          4    1    6    6  502    0  0.29451512057E+03 -0.15165755154E+02  0.23022284230E+03  0.37412793733E+03  0.00000000000E+00 0. -1.
          1    1    5    5  503    0 -0.71910807294E+02  0.35330608592E+02 -0.17640673622E+03  0.19374920050E+03  0.00000000000E+00 0. -1.
         -2    1    5    5    0  503 -0.11158679969E+03 -0.18746210272E+02 -0.12690739163E+03  0.17002505790E+03  0.00000000000E+00 0.  1.
         -3    1    6    6    0  502  0.18535032682E+03  0.31879844124E+02  0.94624493267E+02  0.21053470697E+03  0.00000000000E+00 0.  1.
<mgrwt>
<rscale>  0 0.14623126E+04</rscale>
<asrwt>0</asrwt>
<pdfrwt beam="1">  1        2 0.16250806E+00 0.14623126E+04</pdfrwt>
<pdfrwt beam="2">  1       -2 0.77860799E-01 0.14623126E+04</pdfrwt>
<totfact> 0.33021757E+01</totfact>
</mgrwt>
</event>
<event>
12    1  0.2433511E-007  0.1573084E+04  0.7818608E-02  0.8837256E-01
          2   -1    0    0  501    0  0.00000000000E+00  0.00000000000E+00  0.81655142748E+03  0.81655142748E+03  0.00000000000E+00 0. -1.
         -2   -1    0    0    0  501 -0.00000000000E+00 -0.00000000000E+00 -0.75763517122E+03  0.75763517122E+03  0.00000000000E+00 0.  1.
         23    2    1    2    0    0 -0.40549188972E+03 -0.32781408819E+03  0.62224237434E+02  0.53358486308E+03  0.94631925609E+02 0.  0.
        254    2    1    2    0    0  0.40549188972E+03  0.32781408819E+03 -0.33079811747E+01  0.10406017356E+04  0.90053055494E+03 0.  0.
        -24    2    4    4    0    0 -0.10207069883E+03  0.21750275121E+01  0.32485824890E+03  0.34938693015E+03  0.78199659722E+02 0.  0.
         24    2    4    4    0    0  0.50756258855E+03  0.32563906067E+03 -0.32816623007E+03  0.69121480546E+03  0.80151441582E+02 0.  0.
         11    1    3    3    0    0 -0.34835316003E+03 -0.23502198567E+03  0.60845759807E+02  0.42460271353E+03  0.00000000000E+00 0. -1.
        -11    1    3    3    0    0 -0.57138729685E+02 -0.92792102517E+02  0.13784776268E+01  0.10898214955E+03  0.00000000000E+00 0.  1.
          2    1    6    6  502    0  0.18868484647E+03  0.16796507148E+03 -0.13682498134E+03  0.28728959613E+03  0.00000000000E+00 0. -1.
          3    1    5    5  503    0 -0.11424016490E+03  0.74100868605E+01  0.30195773227E+03  0.32293063766E+03  0.00000000000E+00 0. -1.
         -4    1    5    5    0  503  0.12169466063E+02 -0.52350593484E+01  0.22900516629E+02  0.26456292494E+02  0.00000000000E+00 0.  1.
         -1    1    6    6    0  502  0.31887774208E+03  0.15767398919E+03 -0.19134124873E+03  0.40392520933E+03  0.00000000000E+00 0.  1.
<mgrwt>
<rscale>  0 0.15730837E+04</rscale>
<asrwt>0</asrwt>
<pdfrwt beam="1">  1        2 0.12562330E+00 0.15730837E+04</pdfrwt>
<pdfrwt beam="2">  1       -2 0.11655926E+00 0.15730837E+04</pdfrwt>
<totfact> 0.18373454E+01</totfact>
</mgrwt>
</event>
<event>
12    1  0.2433511E-007  0.3553081E+04  0.7818608E-02  0.8101324E-01
         -2   -1    0    0    0  501 -0.00000000000E+00  0.00000000000E+00  0.28060440315E+04  0.28060440315E+04  0.00000000000E+00 0.  1.
          2   -1    0    0  501    0  0.00000000000E+00 -0.00000000000E+00 -0.11247493973E+04  0.11247493973E+04  0.00000000000E+00 0. -1.
         23    2    1    2    0    0 -0.46108738326E+03  0.15889801866E+04  0.78392607572E+03  0.18332072535E+04  0.93000719180E+02 0.  0.
        254    2    1    2    0    0  0.46108738326E+03 -0.15889801866E+04  0.89736855840E+03  0.20975861753E+04  0.92581738197E+03 0.  0.
        -24    2    4    4    0    0  0.43589215633E+02 -0.12430203446E+04  0.28910635735E+03  0.12792574326E+04  0.76925263334E+02 0.  0.
         24    2    4    4    0    0  0.41749816763E+03 -0.34595984202E+03  0.60826220105E+03  0.81832874274E+03  0.75406191350E+02 0.  0.
         11    1    3    3    0    0 -0.30848796021E+03  0.11619275532E+04  0.60320033020E+03  0.13450245718E+04  0.00000000000E+00 0.  1.
        -11    1    3    3    0    0 -0.15259942305E+03  0.42705263338E+03  0.18072574552E+03  0.48818268167E+03  0.00000000000E+00 0. -1.
          2    1    6    6  502    0  0.23952941466E+03 -0.24054609564E+03  0.35229153112E+03  0.48923009670E+03  0.00000000000E+00 0. -1.
          1    1    5    5  503    0 -0.10463132775E+02 -0.54314047277E+03  0.15099701314E+03  0.56383610055E+03  0.00000000000E+00 0. -1.
         -2    1    5    5    0  503  0.54052348408E+02 -0.69987987181E+03  0.13810934421E+03  0.71542133200E+03  0.00000000000E+00 0.  1.
         -1    1    6    6    0  502  0.17796875296E+03 -0.10541374638E+03  0.25597066993E+03  0.32909864603E+03  0.00000000000E+00 0.  1.
<mgrwt>
<rscale>  0 0.35530811E+04</rscale>
<asrwt>0</asrwt>
<pdfrwt beam="1">  1        2 0.17303837E+00 0.35530811E+04</pdfrwt>
<pdfrwt beam="2">  1       -2 0.43169908E+00 0.35530811E+04</pdfrwt>
<totfact> 0.78885013E-02</totfact>
</mgrwt>
</event>
<event>
12    1  0.2433511E-007  0.1540283E+04  0.7818608E-02  0.8858098E-01
         -1   -1    0    0    0  501 -0.00000000000E+00  0.00000000000E+00  0.39973665763E+03  0.39973665763E+03  0.00000000000E+00 0.  1.
          1   -1    0    0  501    0  0.00000000000E+00 -0.00000000000E+00 -0.14837722252E+04  0.14837722252E+04  0.00000000000E+00 0. -1.
         23    2    1    2    0    0  0.37424553276E+03  0.32301600326E+03 -0.26109172155E+03  0.56675561659E+03  0.92973032222E+02 0.  0.
        254    2    1    2    0    0 -0.37424553276E+03 -0.32301600326E+03 -0.82294384601E+03  0.13167532662E+04  0.90122335373E+03 0.  0.
        -24    2    4    4    0    0 -0.63919876047E+03 -0.33483356044E+03 -0.71505266123E+03  0.10190561950E+04  0.80539752559E+02 0.  0.
         24    2    4    4    0    0  0.26495322771E+03  0.11817557179E+02 -0.10789118478E+03  0.29769707119E+03  0.81505649553E+02 0.  0.
         13    1    3    3    0    0  0.19097639334E+03  0.22314910074E+03 -0.13885159968E+03  0.32488039446E+03  0.00000000000E+00 0. -1.
        -13    1    3    3    0    0  0.18326913942E+03  0.99866902520E+02 -0.12224012187E+03  0.24187522212E+03  0.00000000000E+00 0.  1.
          2    1    6    6  502    0  0.90585866105E+02  0.21358270318E+01 -0.79949531513E+02  0.12083992918E+03  0.00000000000E+00 0. -1.
          1    1    5    5  503    0 -0.34288464372E+03 -0.15097565435E+03 -0.32639997496E+03  0.49689080366E+03  0.00000000000E+00 0. -1.
         -2    1    5    5    0  503 -0.29631411675E+03 -0.18385790608E+03 -0.38865268627E+03  0.52216539138E+03  0.00000000000E+00 0.  1.
         -1    1    6    6    0  502  0.17436736161E+03  0.96817301469E+01 -0.27941653266E+02  0.17685714201E+03  0.00000000000E+00 0.  1.
<mgrwt>
<rscale>  0 0.15402833E+04</rscale>
<asrwt>0</asrwt>
<pdfrwt beam="1">  1        1 0.22827265E+00 0.15402833E+04</pdfrwt>
<pdfrwt beam="2">  1       -1 0.61497949E-01 0.15402833E+04</pdfrwt>
<totfact> 0.17359063E+01</totfact>
</mgrwt>
</event>
<event>
12    1  0.2433511E-007  0.4266685E+04  0.7818608E-02  0.7952807E-01
          1   -1    0    0  501    0  0.00000000000E+00  0.00000000000E+00  0.14353346453E+04  0.14353346453E+04  0.00000000000E+00 0. -1.
         -1   -1    0    0    0  501 -0.00000000000E+00 -0.00000000000E+00 -0.31707942845E+04  0.31707942845E+04  0.00000000000E+00 0.  1.
         23    2    1    2    0    0  0.19047992309E+04  0.16130844643E+03 -0.15907661957E+04  0.24884887374E+04  0.88082814411E+02 0.  0.
        254    2    1    2    0    0 -0.19047992309E+04 -0.16130844643E+03 -0.14469344353E+03  0.21176401924E+04  0.89954614513E+03 0.  0.
        -24    2    4    4    0    0 -0.17178380617E+04 -0.47670435947E+02  0.16768787765E+03  0.17284849543E+04  0.79378436992E+02 0.  0.
         24    2    4    4    0    0 -0.18696116918E+03 -0.11363801048E+03 -0.31238132118E+03  0.38915523814E+03  0.77405641572E+02 0.  0.
         13    1    3    3    0    0  0.75051718030E+03  0.95970769326E+02 -0.66646513868E+03  0.10082966863E+04  0.00000000000E+00 0. -1.
        -13    1    3    3    0    0  0.11542820506E+04  0.65337677102E+02 -0.92430105699E+03  0.14801920511E+04  0.00000000000E+00 0.  1.
          2    1    6    6  502    0 -0.18778040104E+02 -0.23511427028E+01 -0.76548112197E+02  0.78852749750E+02  0.00000000000E+00 0. -1.
          1    1    5    5  503    0 -0.61076363993E+03 -0.33564220246E+02  0.25368942663E+02  0.61221104530E+03  0.00000000000E+00 0. -1.
         -2    1    5    5    0  503 -0.11070744218E+04 -0.14106215701E+02  0.14231893499E+03  0.11162739090E+04  0.00000000000E+00 0.  1.
         -1    1    6    6    0  502 -0.16818312908E+03 -0.11128686778E+03 -0.23583320898E+03  0.31030248840E+03  0.00000000000E+00 0.  1.
<mgrwt>
<rscale>  0 0.42666853E+04</rscale>
<asrwt>0</asrwt>
<pdfrwt beam="1">  1        1 0.22082072E+00 0.42666853E+04</pdfrwt>
<pdfrwt beam="2">  1       -1 0.48781450E+00 0.42666853E+04</pdfrwt>
<totfact> 0.99708959E-03</totfact>
</mgrwt>
</event>
<event>
12    1  0.2433511E-007  0.3286350E+04  0.7818608E-02  0.8166377E-01
          2   -1    0    0  501    0  0.00000000000E+00  0.00000000000E+00  0.16039273296E+04  0.16039273296E+04  0.00000000000E+00 0.  1.
         -2   -1    0    0    0  501 -0.00000000000E+00 -0.00000000000E+00 -0.16833834554E+04  0.16833834554E+04  0.00000000000E+00 0. -1.
         23    2    1    2    0    0  0.34346442879E+03 -0.62876435722E+03 -0.13759446265E+04  0.15539447259E+04  0.90598924805E+02 0.  0.
        254    2    1    2    0    0 -0.34346442879E+03  0.62876435722E+03  0.12964885008E+04  0.17333660591E+04  0.90020166165E+03 0.  0.
        -24    2    4    4    0    0  0.15570368658E+03  0.29614067340E+03  0.50277675989E+02  0.34812159246E+03  0.81962564487E+02 0.  0.
         24    2    4    4    0    0 -0.49916811537E+03  0.33262368382E+03  0.12462108248E+04  0.13852444667E+04  0.77804178920E+02 0.  0.
         11    1    3    3    0    0  0.34713826866E+03 -0.62832538774E+03 -0.13725073690E+04  0.15488945246E+04  0.00000000000E+00 0. -1.
        -11    1    3    3    0    0 -0.36738398757E+01 -0.43896948284E+00 -0.34372574577E+01  0.50502012306E+01  0.00000000000E+00 0.  1.
          2    1    6    6  502    0 -0.36374055524E+03  0.27846501772E+03  0.97689182181E+03  0.10789659815E+04  0.00000000000E+00 0. -1.
          3    1    5    5  503    0  0.47984854507E+02  0.51244451732E+02 -0.17041482157E+02  0.72242315920E+02  0.00000000000E+00 0. -1.
         -4    1    5    5    0  503  0.10771883207E+03  0.24489622167E+03  0.67319158146E+02  0.27587927654E+03  0.00000000000E+00 0.  1.
         -1    1    6    6    0  502 -0.13542756013E+03  0.54158666103E+02  0.26931900296E+03  0.30627848523E+03  0.00000000000E+00 0.  1.
<mgrwt>
<rscale>  0 0.32863504E+04</rscale>
<asrwt>0</asrwt>
<pdfrwt beam="1">  1        2 0.24675805E+00 0.32863504E+04</pdfrwt>
<pdfrwt beam="2">  1       -2 0.25898207E+00 0.32863504E+04</pdfrwt>
<totfact> 0.52510458E-01</totfact>
</mgrwt>
</event>
<event>
12    1  0.2433511E-007  0.3664309E+04  0.7818608E-02  0.8075918E-01
          1   -1    0    0  501    0  0.00000000000E+00  0.00000000000E+00  0.32239241765E+04  0.32239241765E+04  0.00000000000E+00 0. -1.
         -1   -1    0    0    0  501 -0.00000000000E+00 -0.00000000000E+00 -0.10412124282E+04  0.10412124282E+04  0.00000000000E+00 0.  1.
         23    2    1    2    0    0  0.27615334340E+03 -0.12850513427E+04 -0.26635880930E+03  0.13441778514E+04  0.90826529541E+02 0.  0.
        254    2    1    2    0    0 -0.27615334340E+03  0.12850513427E+04  0.24490705577E+04  0.29209587533E+04  0.89801771671E+03 0.  0.
        -24    2    4    4    0    0 -0.40947382885E+03  0.30441686117E+03  0.43357227667E+03  0.67421882358E+03  0.79042147634E+02 0.  0.
         24    2    4    4    0    0  0.13332048544E+03  0.98063448156E+03  0.20154982810E+04  0.22467399297E+04  0.78667991087E+02 0.  0.
         13    1    3    3    0    0  0.15466867107E+03 -0.51627433011E+03 -0.12215927317E+03  0.55261602381E+03  0.00000000000E+00 0. -1.
        -13    1    3    3    0    0  0.12148467234E+03 -0.76877701261E+03 -0.14419953613E+03  0.79156182763E+03  0.00000000000E+00 0.  1.
          4    1    6    6  502    0  0.12919651360E+03  0.75334492616E+03  0.15076415254E+04  0.16903263844E+04  0.00000000000E+00 0. -1.
          3    1    5    5  503    0 -0.40351075301E+03  0.28870676397E+03  0.40247927099E+03  0.63887564278E+03  0.00000000000E+00 0. -1.
         -4    1    5    5    0  503 -0.59630758374E+01  0.15710097201E+02  0.31093005673E+02  0.35343180803E+02  0.00000000000E+00 0.  1.
         -3    1    6    6    0  502  0.41239718416E+01  0.22728955539E+03  0.50785675561E+03  0.55641354526E+03  0.00000000000E+00 0.  1.
<mgrwt>
<rscale>  0 0.36643089E+04</rscale>
<asrwt>0</asrwt>
<pdfrwt beam="1">  1        1 0.49598833E+00 0.36643089E+04</pdfrwt>
<pdfrwt beam="2">  1       -1 0.16018653E+00 0.36643089E+04</pdfrwt>
<totfact> 0.95496327E-02</totfact>
</mgrwt>
</event>
<event>
12    1  0.2433511E-007  0.1384499E+04  0.7818608E-02  0.8965116E-01
          1   -1    0    0  501    0  0.00000000000E+00  0.00000000000E+00  0.16665802208E+04  0.16665802208E+04  0.00000000000E+00 0. -1.
         -1   -1    0    0    0  501 -0.00000000000E+00 -0.00000000000E+00 -0.28754058853E+03  0.28754058853E+03  0.00000000000E+00 0.  1.
         23    2    1    2    0    0 -0.36818784276E+03 -0.10736841338E+03  0.50964474784E+03  0.64445270630E+03  0.92148021772E+02 0.  0.
        254    2    1    2    0    0  0.36818784276E+03  0.10736841338E+03  0.86939488444E+03  0.13096681030E+04  0.90127288391E+03 0.  0.
        -24    2    4    4    0    0  0.57908451630E+03  0.30875836912E+03  0.70068071172E+03  0.96333565786E+03  0.79946997471E+02 0.  0.
         24    2    4    4    0    0 -0.21089667354E+03 -0.20138995574E+03  0.16871417272E+03  0.34633244518E+03  0.80289285238E+02 0.  0.
         13    1    3    3    0    0 -0.11699263197E+03  0.89603519669E+01  0.16294571056E+03  0.20079558868E+03  0.00000000000E+00 0.  1.
        -13    1    3    3    0    0 -0.25119521080E+03 -0.11632876535E+03  0.34669903728E+03  0.44365711763E+03  0.00000000000E+00 0. -1.
          2    1    6    6  502    0 -0.13093457058E+03 -0.17381715607E+03  0.11495695599E+03  0.24611250933E+03  0.00000000000E+00 0. -1.
          1    1    5    5  503    0  0.17560993519E+03  0.12591687356E+03  0.26606971662E+03  0.34276377067E+03  0.00000000000E+00 0. -1.
         -2    1    5    5    0  503  0.40347458111E+03  0.18284149556E+03  0.43461099510E+03  0.62057188719E+03  0.00000000000E+00 0.  1.
         -1    1    6    6    0  502 -0.79962102961E+02 -0.27572799669E+02  0.53757216730E+02  0.10021993585E+03  0.00000000000E+00 0.  1.
<mgrwt>
<rscale>  0 0.13844991E+04</rscale>
<asrwt>0</asrwt>
<pdfrwt beam="1">  1        1 0.25639695E+00 0.13844991E+04</pdfrwt>
<pdfrwt beam="2">  1       -1 0.44237015E-01 0.13844991E+04</pdfrwt>
<totfact> 0.24798481E+01</totfact>
</mgrwt>
</event>
<event>
12    1  0.2433511E-007  0.3647015E+04  0.7818608E-02  0.8079806E-01
          2   -1    0    0  501    0  0.00000000000E+00  0.00000000000E+00  0.23811254378E+04  0.23811254378E+04  0.00000000000E+00 0. -1.
         -2   -1    0    0    0  501 -0.00000000000E+00 -0.00000000000E+00 -0.13964742279E+04  0.13964742279E+04  0.00000000000E+00 0.  1.
         23    2    1    2    0    0 -0.10111763762E+04 -0.10933409784E+04  0.13311397438E+04  0.19995150626E+04  0.90858733091E+02 0.  0.
        254    2    1    2    0    0  0.10111763762E+04  0.10933409784E+04 -0.34648853381E+03  0.17780846031E+04  0.90755627541E+03 0.  0.
        -24    2    4    4    0    0  0.87407109901E+03  0.80679975268E+03 -0.62634385497E+03  0.13468121788E+04  0.81671863287E+02 0.  0.
         24    2    4    4    0    0  0.13710527715E+03  0.28654122569E+03  0.27985532116E+03  0.43127242431E+03  0.82299283982E+02 0.  0.
         11    1    3    3    0    0 -0.61149570116E+03 -0.61998072902E+03  0.73067703828E+03  0.11367462475E+04  0.00000000000E+00 0.  1.
        -11    1    3    3    0    0 -0.39968067500E+03 -0.47336024935E+03  0.60046270549E+03  0.86276881511E+03  0.00000000000E+00 0. -1.
          2    1    6    6  502    0  0.14086420533E+03  0.23574008400E+03  0.25431199739E+03  0.37428692679E+03  0.00000000000E+00 0. -1.
          3    1    5    5  503    0  0.85833463316E+03  0.80383047980E+03 -0.62144182742E+03  0.13300645577E+04  0.00000000000E+00 0. -1.
         -4    1    5    5    0  503  0.15736465850E+02  0.29692728795E+01 -0.49020275431E+01  0.16747621112E+02  0.00000000000E+00 0.  1.
         -1    1    6    6    0  502 -0.37589281821E+01  0.50801141694E+02  0.25543323766E+02  0.56985497519E+02  0.00000000000E+00 0.  1.
<mgrwt>
<rscale>  0 0.36470154E+04</rscale>
<asrwt>0</asrwt>
<pdfrwt beam="1">  1        2 0.36632699E+00 0.36470154E+04</pdfrwt>
<pdfrwt beam="2">  1       -2 0.21484219E+00 0.36470154E+04</pdfrwt>
<totfact> 0.35274235E-01</totfact>
</mgrwt>
</event>
<event>
12    1  0.2433511E-007  0.1507912E+04  0.7818608E-02  0.8879208E-01
          2   -1    0    0  501    0  0.00000000000E+00  0.00000000000E+00  0.10264429896E+04  0.10264429896E+04  0.00000000000E+00 0. -1.
         -2   -1    0    0    0  501 -0.00000000000E+00 -0.00000000000E+00 -0.55380546575E+03  0.55380546575E+03  0.00000000000E+00 0.  1.
         23    2    1    2    0    0  0.18421392156E+00  0.44799363583E+03 -0.20393550366E+02  0.46057122036E+03  0.10493626852E+03 0.  0.
        254    2    1    2    0    0 -0.18421392156E+00 -0.44799363583E+03  0.49303107419E+03  0.11196772350E+04  0.89994396421E+03 0.  0.
        -24    2    4    4    0    0  0.23087712086E+03 -0.42676182561E+03  0.65994779668E+03  0.82291949653E+03  0.78965199182E+02 0.  0.
         24    2    4    4    0    0 -0.23106133478E+03 -0.21231810210E+02 -0.16691672249E+03  0.29675773845E+03  0.79773635288E+02 0.  0.
         11    1    3    3    0    0 -0.44359185563E+02  0.28913549709E+03  0.10554109424E+02  0.29270883527E+03  0.00000000000E+00 0. -1.
        -11    1    3    3    0    0  0.44543399484E+02  0.15885813874E+03 -0.30947659790E+02  0.16786238509E+03  0.00000000000E+00 0.  1.
          4    1    6    6  502    0 -0.10093616653E+03 -0.23727749153E+02 -0.11956548874E+03  0.15826250943E+03  0.00000000000E+00 0. -1.
          3    1    5    5  503    0  0.90548405360E+01 -0.65910224798E+01  0.41767334034E+02  0.43242824917E+02  0.00000000000E+00 0. -1.
         -4    1    5    5    0  503  0.22182228032E+03 -0.42017080314E+03  0.61818046265E+03  0.77967667161E+03  0.00000000000E+00 0.  1.
         -3    1    6    6    0  502 -0.13012516825E+03  0.24959389424E+01 -0.47351233751E+02  0.13849522902E+03  0.00000000000E+00 0.  1.
<mgrwt>
<rscale>  0 0.15079121E+04</rscale>
<asrwt>0</asrwt>
<pdfrwt beam="1">  1        2 0.15791431E+00 0.15079121E+04</pdfrwt>
<pdfrwt beam="2">  1       -2 0.85200841E-01 0.15079121E+04</pdfrwt>
<totfact> 0.28041947E+01</totfact>
</mgrwt>
</event>
<event>
12    1  0.2433511E-007  0.3975141E+04  0.7818608E-02  0.8009580E-01
         -2   -1    0    0    0  501 -0.00000000000E+00  0.00000000000E+00  0.17271191796E+04  0.17271191796E+04  0.00000000000E+00 0.  1.
          2   -1    0    0  501    0  0.00000000000E+00 -0.00000000000E+00 -0.22872983951E+04  0.22872983951E+04  0.00000000000E+00 0. -1.
         23    2    1    2    0    0 -0.17960884808E+04  0.56896215311E+03 -0.24872289415E+03  0.19030594799E+04  0.10060091073E+03 0.  0.
        254    2    1    2    0    0  0.17960884808E+04 -0.56896215311E+03 -0.31145632131E+03  0.21113580948E+04  0.90065320847E+03 0.  0.
        -24    2    4    4    0    0  0.14378044000E+04 -0.59284576493E+02 -0.34840042797E+03  0.14826417532E+04  0.77766035641E+02 0.  0.
         24    2    4    4    0    0  0.35828408079E+03 -0.50967757662E+03  0.36944106663E+02  0.62871634166E+03  0.76030629322E+02 0.  0.
         13    1    3    3    0    0 -0.13499380964E+04  0.43748673773E+03 -0.14441987408E+03  0.14263886601E+04  0.00000000000E+00 0. -1.
        -13    1    3    3    0    0 -0.44615038446E+03  0.13147541538E+03 -0.10430302007E+03  0.47667081975E+03  0.00000000000E+00 0.  1.
          4    1    6    6  502    0  0.56552812981E+02 -0.10302316396E+03 -0.19789863571E+02  0.11917899004E+03  0.00000000000E+00 0. -1.
          1    1    5    5  503    0  0.31665341592E+03 -0.45379616516E+02 -0.77139183937E+02  0.32905797226E+03  0.00000000000E+00 0. -1.
         -2    1    5    5    0  503  0.11211509841E+04 -0.13904959977E+02 -0.27126124403E+03  0.11535837809E+04  0.00000000000E+00 0.  1.
         -3    1    6    6    0  502  0.30173126781E+03 -0.40665441266E+03  0.56733970234E+02  0.50953735162E+03  0.00000000000E+00 0.  1.
<mgrwt>
<rscale>  0 0.39751412E+04</rscale>
<asrwt>0</asrwt>
<pdfrwt beam="1">  1        2 0.35189206E+00 0.39751412E+04</pdfrwt>
<pdfrwt beam="2">  1       -2 0.26571064E+00 0.39751412E+04</pdfrwt>
<totfact> 0.18759627E-01</totfact>
</mgrwt>
</event>
<event>
12    1  0.2433511E-007  0.4148233E+04  0.7818608E-02  0.7975293E-01
          1   -1    0    0  501    0  0.00000000000E+00  0.00000000000E+00  0.20160001323E+04  0.20160001323E+04  0.00000000000E+00 0. -1.
         -1   -1    0    0    0  501 -0.00000000000E+00 -0.00000000000E+00 -0.21339078457E+04  0.21339078457E+04  0.00000000000E+00 0.  1.
         23    2    1    2    0    0 -0.54747277994E+03  0.91346959460E+03  0.16083306862E+04  0.19310469476E+04  0.89786260047E+02 0.  0.
        254    2    1    2    0    0  0.54747277994E+03 -0.91346959460E+03 -0.17262383996E+04  0.22188610305E+04  0.89960664473E+03 0.  0.
        -24    2    4    4    0    0  0.12251418649E+03 -0.90735711549E+03 -0.90061078631E+03  0.12868469696E+04  0.81047356195E+02 0.  0.
         24    2    4    4    0    0  0.42495859345E+03 -0.61124791162E+01 -0.82562761332E+03  0.93201406085E+03  0.79762680479E+02 0.  0.
         13    1    3    3    0    0 -0.12122926673E+03  0.23026580533E+03  0.33057126659E+03  0.42070920897E+03  0.00000000000E+00 0.  1.
        -13    1    3    3    0    0 -0.42624351321E+03  0.68320378927E+03  0.12777594196E+04  0.15103377386E+04  0.00000000000E+00 0. -1.
          2    1    6    6  502    0  0.21621375300E+03  0.18713742124E+02 -0.49116945966E+03  0.53697861152E+03  0.00000000000E+00 0. -1.
          1    1    5    5  503    0  0.47680457751E+02 -0.21148949515E+03 -0.17399106392E+03  0.27798223492E+03  0.00000000000E+00 0. -1.
         -2    1    5    5    0  503  0.74833728735E+02 -0.69586762034E+03 -0.72661972239E+03  0.10088647347E+04  0.00000000000E+00 0.  1.
         -1    1    6    6    0  502  0.20874484045E+03 -0.24826221240E+02 -0.33445815366E+03  0.39503544933E+03  0.00000000000E+00 0.  1.
<mgrwt>
<rscale>  0 0.41482326E+04</rscale>
<asrwt>0</asrwt>
<pdfrwt beam="1">  1        1 0.31015387E+00 0.41482326E+04</pdfrwt>
<pdfrwt beam="2">  1       -1 0.32829351E+00 0.41482326E+04</pdfrwt>
<totfact> 0.48537950E-02</totfact>
</mgrwt>
</event>
<event>
12    1  0.2433511E-007  0.1221750E+04  0.7818608E-02  0.9094029E-01
          2   -1    0    0  501    0  0.00000000000E+00  0.00000000000E+00  0.12317872304E+04  0.12317872304E+04  0.00000000000E+00 0. -1.
         -2   -1    0    0    0  501 -0.00000000000E+00 -0.00000000000E+00 -0.30294852033E+03  0.30294852033E+03  0.00000000000E+00 0.  1.
         23    2    1    2    0    0  0.19042048476E+03  0.10647230750E+03  0.20235822712E+02  0.23719157695E+03  0.90851760445E+02 0.  0.
        254    2    1    2    0    0 -0.19042048476E+03 -0.10647230750E+03  0.90860288732E+03  0.12975441737E+04  0.90025849769E+03 0.  0.
        -24    2    4    4    0    0 -0.41286854914E+03 -0.22049178564E+03  0.91987930563E+03  0.10353995423E+04  0.82445187119E+02 0.  0.
         24    2    4    4    0    0  0.22244806438E+03  0.11401947814E+03 -0.11276418308E+02  0.26214463143E+03  0.78160523524E+02 0.  0.
         11    1    3    3    0    0  0.72656089776E+02  0.11837551006E+02  0.41689182891E+02  0.84599190100E+02  0.00000000000E+00 0. -1.
        -11    1    3    3    0    0  0.11776439499E+03  0.94634756494E+02 -0.21453360180E+02  0.15259238685E+03  0.00000000000E+00 0.  1.
          2    1    6    6  502    0  0.17932569381E+03  0.11890323878E+03 -0.25039716055E+02  0.21661641681E+03  0.00000000000E+00 0. -1.
          3    1    5    5  503    0 -0.34467465692E+02 -0.46765846429E+02  0.13342056421E+03  0.14552009324E+03  0.00000000000E+00 0. -1.
         -4    1    5    5    0  503 -0.37840108345E+03 -0.17372593921E+03  0.78645874142E+03  0.88987944906E+03  0.00000000000E+00 0.  1.
         -1    1    6    6    0  502  0.43122370565E+02 -0.48837606422E+01  0.13763297747E+02  0.45528214615E+02  0.00000000000E+00 0.  1.
<mgrwt>
<rscale>  0 0.12217498E+04</rscale>
<asrwt>0</asrwt>
<pdfrwt beam="1">  1        2 0.18950573E+00 0.12217498E+04</pdfrwt>
<pdfrwt beam="2">  1       -2 0.46607465E-01 0.12217498E+04</pdfrwt>
<totfact> 0.77943819E+01</totfact>
</mgrwt>
</event>
<event>
12    1  0.2433511E-007  0.2617805E+04  0.7818608E-02  0.8362178E-01
         -2   -1    0    0    0  501 -0.00000000000E+00  0.00000000000E+00  0.81165297975E+03  0.81165297975E+03  0.00000000000E+00 0. -1.
          2   -1    0    0  501    0  0.00000000000E+00 -0.00000000000E+00 -0.21107864223E+04  0.21107864223E+04  0.00000000000E+00 0.  1.
         23    2    1    2    0    0  0.64227435249E+03 -0.57477896979E+03  0.27984227903E+03  0.91074811118E+03  0.90902216127E+02 0.  0.
        254    2    1    2    0    0 -0.64227435249E+03  0.57477896979E+03 -0.15789757216E+04  0.20116912909E+04  0.90047227190E+03 0.  0.
        -24    2    4    4    0    0 -0.39157693290E+03 -0.75952541353E+02 -0.10692999286E+04  0.11442483145E+04  0.82465658994E+02 0.  0.
         24    2    4    4    0    0 -0.25069741959E+03  0.65073151114E+03 -0.50967579295E+03  0.86744297640E+03  0.79920007468E+02 0.  0.
         13    1    3    3    0    0  0.70808173886E+02 -0.10344087743E+03  0.52252725559E+02  0.13580927782E+03  0.00000000000E+00 0. -1.
        -13    1    3    3    0    0  0.57146617860E+03 -0.47133809236E+03  0.22758955347E+03  0.77493883336E+03  0.00000000000E+00 0.  1.
          2    1    6    6  502    0 -0.72185247821E+02  0.12320869276E+03 -0.13274204073E+03  0.19496548759E+03  0.00000000000E+00 0. -1.
          3    1    5    5  503    0  0.33595276072E+01 -0.43426908242E+01 -0.21843682929E+02  0.22523140839E+02  0.00000000000E+00 0. -1.
         -4    1    5    5    0  503 -0.39493646051E+03 -0.71609850529E+02 -0.10474562457E+04  0.11217251736E+04  0.00000000000E+00 0.  1.
         -1    1    6    6    0  502 -0.17851217177E+03  0.52752281838E+03 -0.37693375222E+03  0.67247748880E+03  0.00000000000E+00 0.  1.
<mgrwt>
<rscale>  0 0.26178053E+04</rscale>
<asrwt>0</asrwt>
<pdfrwt beam="1">  1        2 0.32473637E+00 0.26178053E+04</pdfrwt>
<pdfrwt beam="2">  1       -2 0.12486969E+00 0.26178053E+04</pdfrwt>
<totfact> 0.24604867E+00</totfact>
</mgrwt>
</event>
<event>
12    1  0.2433511E-007  0.2129439E+04  0.7818608E-02  0.8548385E-01
         -1   -1    0    0    0  501 -0.00000000000E+00  0.00000000000E+00  0.10339922376E+04  0.10339922376E+04  0.00000000000E+00 0.  1.
          1   -1    0    0  501    0  0.00000000000E+00 -0.00000000000E+00 -0.10963598527E+04  0.10963598527E+04  0.00000000000E+00 0. -1.
         23    2    1    2    0    0  0.62956463975E+03  0.49121533682E+03  0.32293295505E+03  0.86614682003E+03  0.90997129795E+02 0.  0.
        254    2    1    2    0    0 -0.62956463975E+03 -0.49121533682E+03 -0.38530057019E+03  0.12642052703E+04  0.90117384194E+03 0.  0.
        -24    2    4    4    0    0 -0.25993072053E+03 -0.68516962788E+03 -0.39852184353E+03  0.83802042103E+03  0.80231962731E+02 0.  0.
         24    2    4    4    0    0 -0.36963391922E+03  0.19395429106E+03  0.13221273337E+02  0.42618484930E+03  0.84918916889E+02 0.  0.
         11    1    3    3    0    0  0.30272747511E+03  0.21650205198E+03  0.10455706174E+03  0.38658665504E+03  0.00000000000E+00 0.  1.
        -11    1    3    3    0    0  0.32683716464E+03  0.27471328484E+03  0.21837589331E+03  0.47956016498E+03  0.00000000000E+00 0. -1.
          4    1    6    6  502    0 -0.24391946495E+03  0.14415570355E+03 -0.28280327243E+02  0.28474084561E+03  0.00000000000E+00 0. -1.
          1    1    5    5  503    0 -0.25751604648E+03 -0.68680199948E+03 -0.39911283717E+03  0.83504644031E+03  0.00000000000E+00 0. -1.
         -2    1    5    5    0  503 -0.24146740486E+01  0.16323715982E+01  0.59099364507E+00  0.29739807135E+01  0.00000000000E+00 0.  1.
         -3    1    6    6    0  502 -0.12571445427E+03  0.49798587515E+02  0.41501600580E+02  0.14144400370E+03  0.00000000000E+00 0.  1.
<mgrwt>
<rscale>  0 0.21294390E+04</rscale>
<asrwt>0</asrwt>
<pdfrwt beam="1">  1        1 0.16867075E+00 0.21294390E+04</pdfrwt>
<pdfrwt beam="2">  1       -1 0.15907573E+00 0.21294390E+04</pdfrwt>
<totfact> 0.34764844E+00</totfact>
</mgrwt>
</event>
<event>
12    1  0.2433511E-007  0.1193492E+04  0.7818608E-02  0.9118572E-01
          1   -1    0    0  501    0  0.00000000000E+00  0.00000000000E+00  0.48326588896E+03  0.48326588896E+03  0.00000000000E+00 0. -1.
         -1   -1    0    0    0  501 -0.00000000000E+00 -0.00000000000E+00 -0.73687319877E+03  0.73687319877E+03  0.00000000000E+00 0.  1.
         23    2    1    2    0    0  0.16461338713E+03 -0.16207243551E+03  0.33284175728E+02  0.25071258582E+03  0.91563763369E+02 0.  0.
        254    2    1    2    0    0 -0.16461338713E+03  0.16207243551E+03 -0.28689148554E+03  0.96942650191E+03  0.89672513991E+03 0.  0.
        -24    2    4    4    0    0 -0.87091628217E+02 -0.36577617888E+03 -0.10048877439E+03  0.39847092065E+03  0.85462951504E+02 0.  0.
         24    2    4    4    0    0 -0.77521758909E+02  0.52784861439E+03 -0.18640271115E+03  0.57095558126E+03  0.81305118080E+02 0.  0.
         13    1    3    3    0    0  0.17353188007E+03 -0.13462449114E+03  0.29843876840E+02  0.22164774757E+03  0.00000000000E+00 0. -1.
        -13    1    3    3    0    0 -0.89184929448E+01 -0.27447944366E+02  0.34402988876E+01  0.29064838255E+02  0.00000000000E+00 0.  1.
          4    1    6    6  502    0  0.16114568702E+02  0.50957613082E+02 -0.13559086611E+02  0.55138067478E+02  0.00000000000E+00 0. -1.
          3    1    5    5  503    0 -0.18396968276E+02 -0.57107346412E+02 -0.50298744445E+02  0.78292152536E+02  0.00000000000E+00 0. -1.
         -4    1    5    5    0  503 -0.68694659941E+02 -0.30866883247E+03 -0.50190029941E+02  0.32017876811E+03  0.00000000000E+00 0.  1.
         -3    1    6    6    0  502 -0.93636327611E+02  0.47689100131E+03 -0.17284362454E+03  0.51581751378E+03  0.00000000000E+00 0.  1.
<mgrwt>
<rscale>  0 0.11934918E+04</rscale>
<asrwt>0</asrwt>
<pdfrwt beam="1">  1        1 0.74348598E-01 0.11934918E+04</pdfrwt>
<pdfrwt beam="2">  1       -1 0.11336511E+00 0.11934918E+04</pdfrwt>
<totfact> 0.32689645E+01</totfact>
</mgrwt>
</event>
<event>
12    1  0.2433511E-007  0.1778589E+04  0.7818608E-02  0.8717769E-01
          2   -1    0    0  501    0  0.00000000000E+00  0.00000000000E+00  0.14617970063E+04  0.14617970063E+04  0.00000000000E+00 0. -1.
         -2   -1    0    0    0  501 -0.00000000000E+00 -0.00000000000E+00 -0.54100847337E+03  0.54100847337E+03  0.00000000000E+00 0.  1.
         23    2    1    2    0    0 -0.10161674887E+03  0.59560079429E+03  0.63607230992E+03  0.88125967900E+03  0.83452792402E+02 0.  0.
        254    2    1    2    0    0  0.10161674887E+03 -0.59560079429E+03  0.28471622299E+03  0.11215458007E+04  0.90096358724E+03 0.  0.
        -24    2    4    4    0    0  0.44779937512E+01 -0.74339524457E+03 -0.33318412060E+02  0.74852589134E+03  0.80773457010E+02 0.  0.
         24    2    4    4    0    0  0.97138755123E+02  0.14779445028E+03  0.31803463505E+03  0.37301990932E+03  0.81967593448E+02 0.  0.
         11    1    3    3    0    0 -0.47255225399E+02  0.17237240639E+03  0.23853306985E+03  0.29806597965E+03  0.00000000000E+00 0. -1.
        -11    1    3    3    0    0 -0.54361523474E+02  0.42322838790E+03  0.39753924008E+03  0.58319369935E+03  0.00000000000E+00 0.  1.
          2    1    6    6  502    0  0.37653898532E+02  0.43429848200E+02  0.39667422509E+02  0.69838901752E+02  0.00000000000E+00 0. -1.
          1    1    5    5  503    0 -0.22058430019E+02 -0.48568309521E+03  0.75798339783E+01  0.48624283767E+03  0.00000000000E+00 0. -1.
         -2    1    5    5    0  503  0.26536423770E+02 -0.25771214936E+03 -0.40898246038E+02  0.26228305367E+03  0.00000000000E+00 0.  1.
         -1    1    6    6    0  502  0.59484856590E+02  0.10436460208E+03  0.27836721254E+03  0.30318100756E+03  0.00000000000E+00 0.  1.
<mgrwt>
<rscale>  0 0.17785888E+04</rscale>
<asrwt>0</asrwt>
<pdfrwt beam="1">  1        2 0.22489185E+00 0.17785888E+04</pdfrwt>
<pdfrwt beam="2">  1       -2 0.83232073E-01 0.17785888E+04</pdfrwt>
<totfact> 0.15947896E+01</totfact>
</mgrwt>
</event>
<event>
12    1  0.2433511E-007  0.1424930E+04  0.7818608E-02  0.8935968E-01
          2   -1    0    0  501    0  0.00000000000E+00  0.00000000000E+00  0.29831854721E+03  0.29831854721E+03  0.00000000000E+00 0. -1.
         -2   -1    0    0    0  501 -0.00000000000E+00 -0.00000000000E+00 -0.17015590609E+04  0.17015590609E+04  0.00000000000E+00 0.  1.
         23    2    1    2    0    0 -0.18307602649E+03 -0.36146954764E+03 -0.59707255640E+03  0.72850783141E+03  0.10025446366E+03 0.  0.
        254    2    1    2    0    0  0.18307602649E+03  0.36146954764E+03 -0.80616795732E+03  0.12713697767E+04  0.89571048247E+03 0.  0.
        -24    2    4    4    0    0  0.31337588644E+03 -0.49342544044E+02  0.29030273388E+02  0.32837538820E+03  0.79677512184E+02 0.  0.
         24    2    4    4    0    0 -0.13029985996E+03  0.41081209168E+03 -0.83519823070E+03  0.94299438852E+03  0.77056498920E+02 0.  0.
         13    1    3    3    0    0 -0.10876079204E+03 -0.10807583032E+03 -0.22203957899E+03  0.26983489326E+03  0.00000000000E+00 0. -1.
        -13    1    3    3    0    0 -0.74315234446E+02 -0.25339371732E+03 -0.37503297741E+03  0.45867293815E+03  0.00000000000E+00 0.  1.
          4    1    6    6  502    0 -0.27967199033E+02  0.14412095260E+03 -0.21706160329E+03  0.26204723396E+03  0.00000000000E+00 0. -1.
          3    1    5    5  503    0  0.20579570203E+03 -0.67685959529E+02  0.53710961527E+01  0.21670742665E+03  0.00000000000E+00 0. -1.
         -4    1    5    5    0  503  0.10758018441E+03  0.18343415485E+02  0.23659177235E+02  0.11166796155E+03  0.00000000000E+00 0.  1.
         -3    1    6    6    0  502 -0.10233266092E+03  0.26669113908E+03 -0.61813662741E+03  0.68094715456E+03  0.00000000000E+00 0.  1.
<mgrwt>
<rscale>  0 0.14249304E+04</rscale>
<asrwt>0</asrwt>
<pdfrwt beam="1">  1        2 0.45895162E-01 0.14249304E+04</pdfrwt>
<pdfrwt beam="2">  1       -2 0.26177831E+00 0.14249304E+04</pdfrwt>
<totfact> 0.58505961E+00</totfact>
</mgrwt>
</event>
<event>
12    1  0.2433511E-007  0.1383040E+04  0.7818608E-02  0.8966188E-01
          2   -1    0    0  501    0  0.00000000000E+00  0.00000000000E+00  0.14125576742E+04  0.14125576742E+04  0.00000000000E+00 0.  1.
         -2   -1    0    0    0  501 -0.00000000000E+00 -0.00000000000E+00 -0.33853455086E+03  0.33853455086E+03  0.00000000000E+00 0. -1.
         23    2    1    2    0    0 -0.15832556776E+02  0.39143506709E+03  0.32895950683E+03  0.51895350958E+03  0.87328725896E+02 0.  0.
        254    2    1    2    0    0  0.15832556776E+02 -0.39143506709E+03  0.74506361650E+03  0.12321387155E+04  0.89976326882E+03 0.  0.
        -24    2    4    4    0    0  0.76346518060E+02 -0.10601358522E+03  0.88556982087E+03  0.89875401968E+03  0.80356761983E+02 0.  0.
         24    2    4    4    0    0 -0.60513961285E+02 -0.28542148187E+03 -0.14050620437E+03  0.33338469579E+03  0.79221209872E+02 0.  0.
         13    1    3    3    0    0  0.26416770395E+02  0.26119175358E+03  0.23979160956E+03  0.35555448797E+03  0.00000000000E+00 0.  1.
        -13    1    3    3    0    0 -0.42249327171E+02  0.13024331351E+03  0.89167897270E+02  0.16339902161E+03  0.00000000000E+00 0. -1.
          4    1    6    6  502    0 -0.28850822696E+02 -0.58941393119E+02 -0.65492286921E+02  0.92712984199E+02  0.00000000000E+00 0. -1.
          1    1    5    5  503    0  0.45430630372E+02 -0.14667192503E+02  0.16525705517E+03  0.17201442671E+03  0.00000000000E+00 0. -1.
         -2    1    5    5    0  503  0.30915887688E+02 -0.91346392713E+02  0.72031276570E+03  0.72673959297E+03  0.00000000000E+00 0.  1.
         -3    1    6    6    0  502 -0.31663138588E+02 -0.22648008875E+03 -0.75013917447E+02  0.24067171159E+03  0.00000000000E+00 0.  1.
<mgrwt>
<rscale>  0 0.13830395E+04</rscale>
<asrwt>0</asrwt>
<pdfrwt beam="1">  1        2 0.21731656E+00 0.13830395E+04</pdfrwt>
<pdfrwt beam="2">  1       -2 0.52082239E-01 0.13830395E+04</pdfrwt>
<totfact> 0.48263153E+01</totfact>
</mgrwt>
</event>
<event>
12    1  0.2433511E-007  0.1378165E+04  0.7818608E-02  0.8969778E-01
          1   -1    0    0  501    0  0.00000000000E+00  0.00000000000E+00  0.26483546098E+04  0.26483546098E+04  0.00000000000E+00 0. -1.
         -1   -1    0    0    0  501 -0.00000000000E+00 -0.00000000000E+00 -0.17929412710E+03  0.17929412710E+03  0.00000000000E+00 0.  1.
         23    2    1    2    0    0 -0.18339630396E+03 -0.25602494575E+03  0.11747171703E+04  0.12195949873E+04  0.90931434462E+02 0.  0.
        254    2    1    2    0    0  0.18339630396E+03  0.25602494575E+03  0.12943433124E+04  0.16080537496E+04  0.90073818283E+03 0.  0.
        -24    2    4    4    0    0 -0.22702002259E+03 -0.12649779521E+03  0.83906860852E+03  0.88197428961E+03  0.79389765598E+02 0.  0.
         24    2    4    4    0    0  0.41041632655E+03  0.38252274096E+03  0.45527470392E+03  0.72607945999E+03  0.71771287728E+02 0.  0.
         13    1    3    3    0    0 -0.40359318601E+02 -0.49908121283E+02  0.40412032632E+03  0.40918569539E+03  0.00000000000E+00 0. -1.
        -13    1    3    3    0    0 -0.14303698536E+03 -0.20611682447E+03  0.77059684393E+03  0.81040929190E+03  0.00000000000E+00 0.  1.
          2    1    6    6  502    0  0.34489771263E+03  0.34691832644E+03  0.37398483015E+03  0.61576895877E+03  0.00000000000E+00 0. -1.
          3    1    5    5  503    0 -0.17127023589E+03 -0.10713418494E+03  0.73582836881E+03  0.76305610254E+03  0.00000000000E+00 0. -1.
         -4    1    5    5    0  503 -0.55749786702E+02 -0.19363610266E+02  0.10324023971E+03  0.11891818707E+03  0.00000000000E+00 0.  1.
         -1    1    6    6    0  502  0.65518613925E+02  0.35604414521E+02  0.81289873764E+02  0.11031050122E+03  0.00000000000E+00 0.  1.
<mgrwt>
<rscale>  0 0.13781646E+04</rscale>
<asrwt>0</asrwt>
<pdfrwt beam="1">  1        1 0.40743914E+00 0.13781646E+04</pdfrwt>
<pdfrwt beam="2">  1       -1 0.27583714E-01 0.13781646E+04</pdfrwt>
<totfact> 0.12378245E+01</totfact>
</mgrwt>
</event>
<event>
12    1  0.2433511E-007  0.3039561E+04  0.7818608E-02  0.8232523E-01
          2   -1    0    0  501    0  0.00000000000E+00  0.00000000000E+00  0.11178598437E+04  0.11178598437E+04  0.00000000000E+00 0.  1.
         -2   -1    0    0    0  501 -0.00000000000E+00 -0.00000000000E+00 -0.20662099280E+04  0.20662099280E+04  0.00000000000E+00 0. -1.
         23    2    1    2    0    0 -0.98292497193E+03 -0.70886781376E+03  0.26900999763E+03  0.12448978499E+04  0.93644007136E+02 0.  0.
        254    2    1    2    0    0  0.98292497193E+03  0.70886781376E+03 -0.12173600819E+04  0.19391719218E+04  0.89988171192E+03 0.  0.
        -24    2    4    4    0    0  0.10288974016E+04  0.82329978172E+03 -0.12115707450E+04  0.17917698736E+04  0.77994974529E+02 0.  0.
         24    2    4    4    0    0 -0.45972429659E+02 -0.11443196795E+03 -0.57893368764E+01  0.14740204823E+03  0.80533892390E+02 0.  0.
         11    1    3    3    0    0 -0.79295921531E+03 -0.56009973140E+03  0.25209655806E+03  0.10030197909E+04  0.00000000000E+00 0. -1.
        -11    1    3    3    0    0 -0.18996575662E+03 -0.14876808236E+03  0.16913439568E+02  0.24187805906E+03  0.00000000000E+00 0.  1.
          2    1    6    6  502    0 -0.63172840348E+02 -0.10433983137E+03 -0.19050946178E+02  0.12345260920E+03  0.00000000000E+00 0. -1.
          3    1    5    5  503    0  0.10203873823E+04  0.81985295307E+03 -0.12098300582E+04  0.17824247654E+04  0.00000000000E+00 0. -1.
         -4    1    5    5    0  503  0.85100192437E+01  0.34468286488E+01 -0.17406868072E+01  0.93451081226E+01  0.00000000000E+00 0.  1.
         -1    1    6    6    0  502  0.17200410689E+02 -0.10092136580E+02  0.13261609302E+02  0.23949439031E+02  0.00000000000E+00 0.  1.
<mgrwt>
<rscale>  0 0.30395612E+04</rscale>
<asrwt>0</asrwt>
<pdfrwt beam="1">  1        2 0.17197844E+00 0.30395612E+04</pdfrwt>
<pdfrwt beam="2">  1       -2 0.31787845E+00 0.30395612E+04</pdfrwt>
<totfact> 0.44719050E-01</totfact>
</mgrwt>
</event>
<event>
12    1  0.2433511E-007  0.7632774E+04  0.7818608E-02  0.7515479E-01
          2   -1    0    0  501    0  0.00000000000E+00  0.00000000000E+00  0.32406077391E+04  0.32406077391E+04  0.00000000000E+00 0. -1.
         -2   -1    0    0    0  501 -0.00000000000E+00 -0.00000000000E+00 -0.44944680632E+04  0.44944680632E+04  0.00000000000E+00 0.  1.
         23    2    1    2    0    0  0.21682265760E+04  0.26873708151E+04 -0.21346192722E+04  0.40600179807E+04  0.63072838458E+02 0.  0.
        254    2    1    2    0    0 -0.21682265760E+04 -0.26873708151E+04  0.88075894820E+03  0.36750578216E+04  0.89841264714E+03 0.  0.
        -24    2    4    4    0    0 -0.16539279493E+04 -0.21679731946E+04  0.31284631448E+03  0.27459269869E+04  0.81589013900E+02 0.  0.
         24    2    4    4    0    0 -0.51429862673E+03 -0.51939762052E+03  0.56791263372E+03  0.92913083469E+03  0.80513245906E+02 0.  0.
         11    1    3    3    0    0  0.86943561416E+03  0.10480182046E+04 -0.81288454511E+03  0.15858883088E+04  0.00000000000E+00 0. -1.
        -11    1    3    3    0    0  0.12987909618E+04  0.16393526106E+04 -0.13217347271E+04  0.24741296719E+04  0.00000000000E+00 0.  1.
          2    1    6    6  502    0 -0.20236748243E+03 -0.20554459719E+03  0.17510278104E+03  0.33743468006E+03  0.00000000000E+00 0. -1.
          3    1    5    5  503    0 -0.18858963448E+03 -0.26775466861E+03  0.61227454221E+02  0.33317775128E+03  0.00000000000E+00 0. -1.
         -4    1    5    5    0  503 -0.14653383148E+04 -0.19002185260E+04  0.25161886026E+03  0.24127492357E+04  0.00000000000E+00 0.  1.
         -1    1    6    6    0  502 -0.31193114431E+03 -0.31385302333E+03  0.39280985267E+03  0.59169615463E+03  0.00000000000E+00 0.  1.
<mgrwt>
<rscale>  0 0.76327735E+04</rscale>
<asrwt>0</asrwt>
<pdfrwt beam="1">  1        2 0.49855504E+00 0.76327735E+04</pdfrwt>
<pdfrwt beam="2">  1       -2 0.69145662E+00 0.76327735E+04</pdfrwt>
<totfact> 0.18222298E-04</totfact>
</mgrwt>
</event>
<event>
12    1  0.2433511E-007  0.1800940E+04  0.7818608E-02  0.8705800E-01
          1   -1    0    0  501    0  0.00000000000E+00  0.00000000000E+00  0.79369189103E+03  0.79369189103E+03  0.00000000000E+00 0. -1.
         -1   -1    0    0    0  501 -0.00000000000E+00 -0.00000000000E+00 -0.10216135889E+04  0.10216135889E+04  0.00000000000E+00 0.  1.
         23    2    1    2    0    0 -0.39277876623E+03 -0.42437317120E+03 -0.42718199075E+03  0.72470309321E+03  0.91336588810E+02 0.  0.
        254    2    1    2    0    0  0.39277876623E+03  0.42437317120E+03  0.19926029290E+03  0.10906023867E+04  0.90296243216E+03 0.  0.
        -24    2    4    4    0    0  0.17246436636E+03  0.68182523693E+03  0.44432961669E+02  0.70908749155E+03  0.78747515601E+02 0.  0.
         24    2    4    4    0    0  0.22031439986E+03 -0.25745206573E+03  0.15482733123E+03  0.38151489513E+03  0.82232060502E+02 0.  0.
         13    1    3    3    0    0 -0.70959666228E+02 -0.35938846706E+02 -0.41456078083E+02  0.89696607204E+02  0.00000000000E+00 0. -1.
        -13    1    3    3    0    0 -0.32181910000E+03 -0.38843432449E+03 -0.38572591266E+03  0.63500648601E+03  0.00000000000E+00 0.  1.
          2    1    6    6  502    0  0.21275409183E+03 -0.25411882279E+03  0.16348170567E+03  0.36954965536E+03  0.00000000000E+00 0. -1.
          1    1    5    5  503    0  0.15571798319E+03  0.60530525869E+03  0.14350994989E+02  0.62517877246E+03  0.00000000000E+00 0. -1.
         -2    1    5    5    0  503  0.16746383176E+02  0.76519978246E+02  0.30081966680E+02  0.83908719091E+02  0.00000000000E+00 0.  1.
         -1    1    6    6    0  502  0.75603080304E+01 -0.33332429389E+01 -0.86543744322E+01  0.11965239773E+02  0.00000000000E+00 0.  1.
<mgrwt>
<rscale>  0 0.18009402E+04</rscale>
<asrwt>0</asrwt>
<pdfrwt beam="1">  1        1 0.12210645E+00 0.18009402E+04</pdfrwt>
<pdfrwt beam="2">  1       -1 0.15717132E+00 0.18009402E+04</pdfrwt>
<totfact> 0.64888044E+00</totfact>
</mgrwt>
</event>
<event>
12    1  0.2433511E-007  0.3415960E+04  0.7818608E-02  0.8134000E-01
         -1   -1    0    0    0  501 -0.00000000000E+00  0.00000000000E+00  0.13696379052E+04  0.13696379052E+04  0.00000000000E+00 0.  1.
          1   -1    0    0  501    0  0.00000000000E+00 -0.00000000000E+00 -0.21299023446E+04  0.21299023446E+04  0.00000000000E+00 0. -1.
         23    2    1    2    0    0  0.10485713498E+04  0.37687406159E+03  0.80592995912E+03  0.13781640403E+04  0.90978508606E+02 0.  0.
        254    2    1    2    0    0 -0.10485713498E+04 -0.37687406159E+03 -0.15661943985E+04  0.21213762095E+04  0.89762809374E+03 0.  0.
        -24    2    4    4    0    0 -0.84649847131E+03 -0.65667388458E+03 -0.12214572663E+04  0.16266458460E+04  0.78984821878E+02 0.  0.
         24    2    4    4    0    0 -0.20207287848E+03  0.27979982299E+03 -0.34473713216E+03  0.49473036358E+03  0.82419980604E+02 0.  0.
         11    1    3    3    0    0  0.23684897137E+03  0.10383152590E+03  0.14593867893E+03  0.29694531318E+03  0.00000000000E+00 0.  1.
        -11    1    3    3    0    0  0.81172237842E+03  0.27304253569E+03  0.65999128019E+03  0.10812187271E+04  0.00000000000E+00 0. -1.
          2    1    6    6  502    0 -0.72614513430E+02  0.13651977001E+03 -0.10507066112E+03  0.18695015109E+03  0.00000000000E+00 0. -1.
          1    1    5    5  503    0 -0.66711763419E+02 -0.66151038526E+02 -0.13825993930E+03  0.16715929556E+03  0.00000000000E+00 0. -1.
         -2    1    5    5    0  503 -0.77978670789E+03 -0.59052284605E+03 -0.10831973270E+04  0.14594865504E+04  0.00000000000E+00 0.  1.
         -1    1    6    6    0  502 -0.12945836505E+03  0.14328005298E+03 -0.23966647104E+03  0.30778021249E+03  0.00000000000E+00 0.  1.
<mgrwt>
<rscale>  0 0.34159596E+04</rscale>
<asrwt>0</asrwt>
<pdfrwt beam="1">  1        1 0.32767728E+00 0.34159596E+04</pdfrwt>
<pdfrwt beam="2">  1       -1 0.21071352E+00 0.34159596E+04</pdfrwt>
<totfact> 0.25402176E-01</totfact>
</mgrwt>
</event>
<event>
12    1  0.2433511E-007  0.2024100E+04  0.7818608E-02  0.8595435E-01
         -2   -1    0    0    0  501 -0.00000000000E+00  0.00000000000E+00  0.85241229427E+03  0.85241229427E+03  0.00000000000E+00 0. -1.
          2   -1    0    0  501    0  0.00000000000E+00 -0.00000000000E+00 -0.12015846811E+04  0.12015846811E+04  0.00000000000E+00 0.  1.
         23    2    1    2    0    0 -0.17236643222E+03 -0.77645273925E+03 -0.29074060099E+03  0.85175023885E+03  0.91429366536E+02 0.  0.
        254    2    1    2    0    0  0.17236643222E+03  0.77645273925E+03 -0.58431785856E+02  0.12022467365E+04  0.89966321404E+03 0.  0.
        -24    2    4    4    0    0  0.49216435148E+03  0.25194116836E+03  0.89270896240E+02  0.56534329792E+03  0.77095073795E+02 0.  0.
         24    2    4    4    0    0 -0.31979791926E+03  0.52451157089E+03 -0.14770268210E+03  0.63690343863E+03  0.80292033702E+02 0.  0.
         13    1    3    3    0    0 -0.37406580412E+02 -0.27965772615E+03 -0.64483897961E+02  0.28942333898E+03  0.00000000000E+00 0. -1.
        -13    1    3    3    0    0 -0.13495985180E+03 -0.49679501310E+03 -0.22625670303E+03  0.56232689987E+03  0.00000000000E+00 0.  1.
          2    1    6    6  502    0 -0.52876917622E+02  0.46967633558E+02 -0.32464525111E+02  0.77819486055E+02  0.00000000000E+00 0. -1.
          1    1    5    5  503    0  0.31669579756E+02  0.32973161272E+02 -0.75223284258E+01  0.46333325708E+02  0.00000000000E+00 0. -1.
         -2    1    5    5    0  503  0.46049477172E+03  0.21896800709E+03  0.96793224666E+02  0.51900997221E+03  0.00000000000E+00 0.  1.
         -1    1    6    6    0  502 -0.26692100164E+03  0.47754393733E+03 -0.11523815699E+03  0.55908395257E+03  0.00000000000E+00 0.  1.
<mgrwt>
<rscale>  0 0.20241003E+04</rscale>
<asrwt>0</asrwt>
<pdfrwt beam="1">  1        2 0.18485918E+00 0.20241003E+04</pdfrwt>
<pdfrwt beam="2">  1       -2 0.13114035E+00 0.20241003E+04</pdfrwt>
<totfact> 0.74451758E+00</totfact>
</mgrwt>
</event>
<event>
12    1  0.2433511E-007  0.1530435E+04  0.7818608E-02  0.8864463E-01
          1   -1    0    0  501    0  0.00000000000E+00  0.00000000000E+00  0.31201419153E+04  0.31201419153E+04  0.00000000000E+00 0. -1.
         -1   -1    0    0    0  501 -0.00000000000E+00 -0.00000000000E+00 -0.18767013036E+03  0.18767013036E+03  0.00000000000E+00 0.  1.
         23    2    1    2    0    0 -0.45955146114E+03 -0.11225690685E+03  0.13253702109E+04  0.14103624874E+04  0.93418367452E+02 0.  0.
        254    2    1    2    0    0  0.45955146114E+03  0.11225690685E+03  0.16071015741E+04  0.18974495583E+04  0.89092659534E+03 0.  0.
        -24    2    4    4    0    0  0.47879549795E+03  0.35712320759E+03  0.15064810352E+04  0.16228786559E+04  0.86417059584E+02 0.  0.
         24    2    4    4    0    0 -0.19244036810E+02 -0.24486630074E+03  0.10062053883E+03  0.27457090232E+03  0.70248483107E+02 0.  0.
         11    1    3    3    0    0 -0.26872744349E+03 -0.72028778908E+02  0.90823202643E+03  0.94988841330E+03  0.00000000000E+00 0. -1.
        -11    1    3    3    0    0 -0.19082401766E+03 -0.40228127942E+02  0.41713818450E+03  0.46047407414E+03  0.00000000000E+00 0.  1.
          4    1    6    6  502    0 -0.36439461986E+02 -0.68095638386E+02  0.21717471214E+02  0.80227793893E+02  0.00000000000E+00 0. -1.
          1    1    5    5  503    0  0.44655232207E+03  0.31238139614E+03  0.14114506404E+04  0.15130049647E+04  0.00000000000E+00 0. -1.
         -4    1    5    5    0  503  0.32243175886E+02  0.44741811450E+02  0.95030394840E+02  0.10987369124E+03  0.00000000000E+00 0.  1.
         -3    1    6    6    0  502  0.17195425176E+02 -0.17677066235E+03  0.78903067617E+02  0.19434310843E+03  0.00000000000E+00 0.  1.
<mgrwt>
<rscale>  0 0.15304345E+04</rscale>
<asrwt>0</asrwt>
<pdfrwt beam="1">  1        1 0.48002180E+00 0.15304345E+04</pdfrwt>
<pdfrwt beam="2">  1       -1 0.28872330E-01 0.15304345E+04</pdfrwt>
<totfact> 0.51702690E+00</totfact>
</mgrwt>
</event>
<event>
12    1  0.2433511E-007  0.2235534E+04  0.7818608E-02  0.8503782E-01
          2   -1    0    0  501    0  0.00000000000E+00  0.00000000000E+00  0.91106007369E+03  0.91106007369E+03  0.00000000000E+00 0. -1.
         -2   -1    0    0    0  501 -0.00000000000E+00 -0.00000000000E+00 -0.13713730316E+04  0.13713730316E+04  0.00000000000E+00 0.  1.
         23    2    1    2    0    0  0.81215334201E+03 -0.46110072780E+03 -0.15592835743E+03  0.95085343023E+03  0.87187504904E+02 0.  0.
        254    2    1    2    0    0 -0.81215334201E+03  0.46110072780E+03 -0.30438460048E+03  0.13315796751E+04  0.89902586945E+03 0.  0.
        -24    2    4    4    0    0 -0.70707031144E+03  0.30857044315E+03  0.18960443523E+03  0.79831592520E+03  0.78704071390E+02 0.  0.
         24    2    4    4    0    0 -0.10508303057E+03  0.15253028465E+03 -0.49398903571E+03  0.53326374987E+03  0.77698960603E+02 0.  0.
         13    1    3    3    0    0  0.79613048033E+03 -0.43488644847E+03 -0.14843486737E+03  0.91922950052E+03  0.00000000000E+00 0. -1.
        -13    1    3    3    0    0  0.16022861684E+02 -0.26214279326E+02 -0.74934900550E+01  0.31623929710E+02  0.00000000000E+00 0.  1.
          2    1    6    6  502    0 -0.24457517625E+02  0.62194369751E+02 -0.27526136312E+03  0.28325805871E+03  0.00000000000E+00 0. -1.
          1    1    5    5  503    0 -0.34315541820E+03  0.19260322501E+03  0.93690752022E+02  0.40451155774E+03  0.00000000000E+00 0. -1.
         -2    1    5    5    0  503 -0.36391489324E+03  0.11596721814E+03  0.95913683209E+02  0.39380436746E+03  0.00000000000E+00 0.  1.
         -1    1    6    6    0  502 -0.80625512942E+02  0.90335914895E+02 -0.21872767259E+03  0.25000569116E+03  0.00000000000E+00 0.  1.
<mgrwt>
<rscale>  0 0.22355341E+04</rscale>
<asrwt>0</asrwt>
<pdfrwt beam="1">  1        2 0.14016309E+00 0.22355341E+04</pdfrwt>
<pdfrwt beam="2">  1       -2 0.21098047E+00 0.22355341E+04</pdfrwt>
<totfact> 0.29635061E+00</totfact>
</mgrwt>
</event>
<event>
12    1  0.2433511E-007  0.1659804E+04  0.7818608E-02  0.8784628E-01
         -1   -1    0    0    0  501 -0.00000000000E+00  0.00000000000E+00  0.32977758205E+03  0.32977758205E+03  0.00000000000E+00 0.  1.
          1   -1    0    0  501    0  0.00000000000E+00 -0.00000000000E+00 -0.20884902014E+04  0.20884902014E+04  0.00000000000E+00 0. -1.
         23    2    1    2    0    0 -0.32247856631E+03  0.45132244256E+03 -0.36948005891E+03  0.67277670817E+03  0.91807473795E+02 0.  0.
        254    2    1    2    0    0  0.32247856631E+03 -0.45132244256E+03 -0.13892325605E+04  0.17454910753E+04  0.89949297609E+03 0.  0.
        -24    2    4    4    0    0  0.29416798260E+03 -0.16349379812E+03 -0.14046397396E+04  0.14465839704E+04  0.79544711830E+02 0.  0.
         24    2    4    4    0    0  0.28310583709E+02 -0.28782864443E+03  0.15407179169E+02  0.29890710493E+03  0.73900328158E+02 0.  0.
         11    1    3    3    0    0 -0.24703038560E+03  0.34782706187E+03 -0.32804276369E+03  0.53816329416E+03  0.00000000000E+00 0. -1.
        -11    1    3    3    0    0 -0.75448180710E+02  0.10349538069E+03 -0.41437295226E+02  0.13461341401E+03  0.00000000000E+00 0.  1.
          4    1    6    6  502    0 -0.53752025527E+01 -0.12690747471E+02 -0.14621253351E+02  0.20093006829E+02  0.00000000000E+00 0. -1.
          1    1    5    5  503    0  0.16844483805E+03 -0.10640521347E+03 -0.66655505704E+03  0.69569488785E+03  0.00000000000E+00 0. -1.
         -2    1    5    5    0  503  0.12572314455E+03 -0.57088584654E+02 -0.73808468260E+03  0.75088908253E+03  0.00000000000E+00 0.  1.
         -3    1    6    6    0  502  0.33685786261E+02 -0.27513789696E+03  0.30028432520E+02  0.27881409810E+03  0.00000000000E+00 0.  1.
<mgrwt>
<rscale>  0 0.16598039E+04</rscale>
<asrwt>0</asrwt>
<pdfrwt beam="1">  1        1 0.32130619E+00 0.16598039E+04</pdfrwt>
<pdfrwt beam="2">  1       -1 0.50735012E-01 0.16598039E+04</pdfrwt>
<totfact> 0.96760290E+00</totfact>
</mgrwt>
</event>
<event>
12    1  0.2433511E-007  0.3122825E+04  0.7818608E-02  0.8209502E-01
         -1   -1    0    0    0  501 -0.00000000000E+00  0.00000000000E+00  0.91823748515E+03  0.91823748515E+03  0.00000000000E+00 0.  1.
          1   -1    0    0  501    0  0.00000000000E+00 -0.00000000000E+00 -0.26550967132E+04  0.26550967132E+04  0.00000000000E+00 0. -1.
         23    2    1    2    0    0 -0.10750787852E+04 -0.93907682677E+03 -0.68957015462E+03  0.15878760964E+04  0.90464459661E+02 0.  0.
        254    2    1    2    0    0  0.10750787852E+04  0.93907682677E+03 -0.10472890735E+04  0.19854581020E+04  0.89864886938E+03 0.  0.
        -24    2    4    4    0    0  0.81605321207E+03  0.67500472397E+03 -0.23309603468E+03  0.10873370326E+04  0.79961483158E+02 0.  0.
         24    2    4    4    0    0  0.25902557311E+03  0.26407210280E+03 -0.81419303879E+03  0.89812106938E+03  0.82962810097E+02 0.  0.
         13    1    3    3    0    0 -0.75423441093E+03 -0.66616128743E+03 -0.44013580671E+03  0.10983441791E+04  0.00000000000E+00 0.  1.
        -13    1    3    3    0    0 -0.32084437425E+03 -0.27291553934E+03 -0.24943434791E+03  0.48953191726E+03  0.00000000000E+00 0. -1.
          2    1    6    6  502    0  0.31923296528E+02  0.81752906803E+02 -0.18010751896E+03  0.20035307090E+03  0.00000000000E+00 0. -1.
          3    1    5    5  503    0  0.24443859673E+03  0.19164985708E+03 -0.10496575270E+03  0.32786842564E+03  0.00000000000E+00 0. -1.
         -4    1    5    5    0  503  0.57161461534E+03  0.48335486689E+03 -0.12813028199E+03  0.75946860697E+03  0.00000000000E+00 0.  1.
         -1    1    6    6    0  502  0.22710227658E+03  0.18231919600E+03 -0.63408551983E+03  0.69776799849E+03  0.00000000000E+00 0.  1.
<mgrwt>
<rscale>  0 0.31228252E+04</rscale>
<asrwt>0</asrwt>
<pdfrwt beam="1">  1        1 0.40847641E+00 0.31228252E+04</pdfrwt>
<pdfrwt beam="2">  1       -1 0.14126731E+00 0.31228252E+04</pdfrwt>
<totfact> 0.36373568E-01</totfact>
</mgrwt>
</event>
<event>
12    1  0.2433511E-007  0.1354965E+04  0.7818608E-02  0.8987078E-01
         -1   -1    0    0    0  501 -0.00000000000E+00  0.00000000000E+00  0.33189715684E+03  0.33189715684E+03  0.00000000000E+00 0.  1.
          1   -1    0    0  501    0  0.00000000000E+00 -0.00000000000E+00 -0.13829057419E+04  0.13829057419E+04  0.00000000000E+00 0. -1.
         23    2    1    2    0    0  0.79780277092E+02  0.33739189472E+03 -0.45931031039E+03  0.58283743301E+03  0.92386843517E+02 0.  0.
        254    2    1    2    0    0 -0.79780277092E+02 -0.33739189472E+03 -0.59169827469E+03  0.11319654658E+04  0.90057802780E+03 0.  0.
        -24    2    4    4    0    0 -0.10816345602E+03 -0.62833655690E+03 -0.29205119472E+03  0.70591367115E+03  0.80709657598E+02 0.  0.
         24    2    4    4    0    0  0.28383178925E+02  0.29094466218E+03 -0.29964707997E+03  0.42605179460E+03  0.79229778853E+02 0.  0.
         11    1    3    3    0    0  0.67013338701E+02  0.21149537841E+03 -0.35603099503E+03  0.41949869139E+03  0.00000000000E+00 0.  1.
        -11    1    3    3    0    0  0.12766938391E+02  0.12589651631E+03 -0.10327931535E+03  0.16333874162E+03  0.00000000000E+00 0. -1.
          4    1    6    6  502    0  0.30675799355E+02  0.27085940064E+03 -0.30062898482E+03  0.40581227937E+03  0.00000000000E+00 0. -1.
          1    1    5    5  503    0 -0.28429345513E+02 -0.10401101956E+03 -0.19319230575E+02  0.10954338203E+03  0.00000000000E+00 0. -1.
         -2    1    5    5    0  503 -0.79734110504E+02 -0.52432553734E+03 -0.27273196415E+03  0.59637028913E+03  0.00000000000E+00 0.  1.
         -1    1    6    6    0  502 -0.22926204296E+01  0.20085261540E+02  0.98190484984E+00  0.20239515229E+02  0.00000000000E+00 0.  1.
<mgrwt>
<rscale>  0 0.13549649E+04</rscale>
<asrwt>0</asrwt>
<pdfrwt beam="1">  1        1 0.21275473E+00 0.13549649E+04</pdfrwt>
<pdfrwt beam="2">  1       -1 0.51061100E-01 0.13549649E+04</pdfrwt>
<totfact> 0.29797293E+01</totfact>
</mgrwt>
</event>
<event>
12    1  0.2433511E-007  0.2801101E+04  0.7818608E-02  0.8302927E-01
         -2   -1    0    0    0  501 -0.00000000000E+00  0.00000000000E+00  0.10851987518E+04  0.10851987518E+04  0.00000000000E+00 0.  1.
          2   -1    0    0  501    0  0.00000000000E+00 -0.00000000000E+00 -0.18075417011E+04  0.18075417011E+04  0.00000000000E+00 0. -1.
         23    2    1    2    0    0  0.45649990634E+03  0.11342159580E+04 -0.37155201252E+02  0.12266587013E+04  0.92049207276E+02 0.  0.
        254    2    1    2    0    0 -0.45649990634E+03 -0.11342159580E+04 -0.68518774802E+03  0.16660817516E+04  0.90083747099E+03 0.  0.
        -24    2    4    4    0    0 -0.33590613063E+03  0.45617130967E+01 -0.29032576935E+03  0.45149273807E+03  0.81871254756E+02 0.  0.
         24    2    4    4    0    0 -0.12059377570E+03 -0.11387776711E+04 -0.39486197867E+03  0.12145890135E+04  0.89179855857E+02 0.  0.
         11    1    3    3    0    0  0.36350292631E+03  0.80851079178E+03 -0.57671844409E+01  0.88648594929E+03  0.00000000000E+00 0.  1.
        -11    1    3    3    0    0  0.92996980023E+02  0.32570516621E+03 -0.31388016811E+02  0.34017275197E+03  0.00000000000E+00 0. -1.
          2    1    6    6  502    0 -0.58938784430E+01 -0.31401307373E+03 -0.13910290257E+03  0.34349463719E+03  0.00000000000E+00 0. -1.
          1    1    5    5  503    0 -0.88555490217E+02  0.19606525386E+02 -0.39592501601E+02  0.98964927466E+02  0.00000000000E+00 0. -1.
         -2    1    5    5    0  503 -0.24735064042E+03 -0.15044812289E+02 -0.25073326775E+03  0.35252781060E+03  0.00000000000E+00 0.  1.
         -1    1    6    6    0  502 -0.11469989726E+03 -0.82476459736E+03 -0.25575907610E+03  0.87109437634E+03  0.00000000000E+00 0.  1.
<mgrwt>
<rscale>  0 0.28011012E+04</rscale>
<asrwt>0</asrwt>
<pdfrwt beam="1">  1        2 0.27808334E+00 0.28011012E+04</pdfrwt>
<pdfrwt beam="2">  1       -2 0.16695366E+00 0.28011012E+04</pdfrwt>
<totfact> 0.16666604E+00</totfact>
</mgrwt>
</event>
<event>
12    1  0.2433511E-007  0.1302563E+04  0.7818608E-02  0.9027535E-01
          2   -1    0    0  501    0  0.00000000000E+00  0.00000000000E+00  0.11845404655E+04  0.11845404655E+04  0.00000000000E+00 0. -1.
         -2   -1    0    0    0  501 -0.00000000000E+00 -0.00000000000E+00 -0.35808606503E+03  0.35808606503E+03  0.00000000000E+00 0.  1.
         23    2    1    2    0    0  0.23571837635E+03  0.17593669076E+03  0.39497645693E+02  0.31062841977E+03  0.91722838192E+02 0.  0.
        254    2    1    2    0    0 -0.23571837635E+03 -0.17593669076E+03  0.78695675482E+03  0.12319981108E+04  0.90111128002E+03 0.  0.
        -24    2    4    4    0    0  0.12366507804E+03 -0.45771508424E+03  0.45839297626E+03  0.66362678954E+03  0.74028678566E+02 0.  0.
         24    2    4    4    0    0 -0.35938345439E+03  0.28177839347E+03  0.32856377856E+03  0.56837132127E+03  0.80847213542E+02 0.  0.
         11    1    3    3    0    0  0.99789148390E+02  0.39437093045E+02  0.48565414413E+02  0.11777842723E+03  0.00000000000E+00 0. -1.
        -11    1    3    3    0    0  0.13592922796E+03  0.13649959772E+03 -0.90677687202E+01  0.19284999254E+03  0.00000000000E+00 0.  1.
          2    1    6    6  502    0 -0.19356859388E+02  0.36365093058E+02  0.11844157190E+02  0.42864811419E+02  0.00000000000E+00 0. -1.
          1    1    5    5  503    0  0.14533018127E+01 -0.10677418828E+03  0.12478069062E+03  0.16423477135E+03  0.00000000000E+00 0. -1.
         -2    1    5    5    0  503  0.12221177623E+03 -0.35094089596E+03  0.33361228564E+03  0.49939201819E+03  0.00000000000E+00 0.  1.
         -1    1    6    6    0  502 -0.34002659501E+03  0.24541330042E+03  0.31671962137E+03  0.52550650985E+03  0.00000000000E+00 0.  1.
<mgrwt>
<rscale>  0 0.13025628E+04</rscale>
<asrwt>0</asrwt>
<pdfrwt beam="1">  1        2 0.18223699E+00 0.13025628E+04</pdfrwt>
<pdfrwt beam="2">  1       -2 0.55090164E-01 0.13025628E+04</pdfrwt>
<totfact> 0.58747772E+01</totfact>
</mgrwt>
</event>
<event>
12    1  0.2433511E-007  0.4248593E+04  0.7818608E-02  0.7956193E-01
         -1   -1    0    0    0  501 -0.00000000000E+00  0.00000000000E+00  0.10678564995E+04  0.10678564995E+04  0.00000000000E+00 0.  1.
          1   -1    0    0  501    0  0.00000000000E+00 -0.00000000000E+00 -0.42258829082E+04  0.42258829082E+04  0.00000000000E+00 0. -1.
         23    2    1    2    0    0  0.19649203503E+04 -0.49865503761E+03 -0.15446766537E+04  0.25509289354E+04  0.10790569715E+03 0.  0.
        254    2    1    2    0    0 -0.19649203503E+04  0.49865503761E+03 -0.16133497550E+04  0.27428104723E+04  0.90030163037E+03 0.  0.
        -24    2    4    4    0    0 -0.12346157024E+02  0.23246896047E+03 -0.19148494884E+03  0.31148619789E+03  0.78504271639E+02 0.  0.
         24    2    4    4    0    0 -0.19525741933E+04  0.26618607713E+03 -0.14218648062E+04  0.24313242745E+04  0.78975898911E+02 0.  0.
         11    1    3    3    0    0  0.41971854581E+03 -0.14916665238E+03 -0.36033627202E+03  0.57293680001E+03  0.00000000000E+00 0.  1.
        -11    1    3    3    0    0  0.15452018045E+04 -0.34948838523E+03 -0.11843403817E+04  0.19779921354E+04  0.00000000000E+00 0. -1.
          4    1    6    6  502    0 -0.18574647165E+04  0.26701117220E+03 -0.13406522538E+04  0.23062564048E+04  0.00000000000E+00 0. -1.
          3    1    5    5  503    0 -0.67800990995E+01  0.17196531842E+03 -0.18112787519E+03  0.24985065070E+03  0.00000000000E+00 0. -1.
         -4    1    5    5    0  503 -0.55660579244E+01  0.60503642050E+02 -0.10357073642E+02  0.61635547183E+02  0.00000000000E+00 0.  1.
         -3    1    6    6    0  502 -0.95109476805E+02 -0.82509506881E+00 -0.81212552336E+02  0.12506786964E+03  0.00000000000E+00 0.  1.
<mgrwt>
<rscale>  0 0.42485934E+04</rscale>
<asrwt>0</asrwt>
<pdfrwt beam="1">  1        1 0.65013583E+00 0.42485934E+04</pdfrwt>
<pdfrwt beam="2">  1       -1 0.16428562E+00 0.42485934E+04</pdfrwt>
<totfact> 0.12389663E-02</totfact>
</mgrwt>
</event>
<event>
12    1  0.2433511E-007  0.1972219E+04  0.7818608E-02  0.8619720E-01
         -2   -1    0    0    0  501 -0.00000000000E+00  0.00000000000E+00  0.20472771183E+04  0.20472771183E+04  0.00000000000E+00 0.  1.
          2   -1    0    0  501    0  0.00000000000E+00 -0.00000000000E+00 -0.47497833329E+03  0.47497833329E+03  0.00000000000E+00 0. -1.
         23    2    1    2    0    0 -0.31009784836E+03 -0.19667118348E+03 -0.25115348716E+03  0.45748212377E+03  0.10663765514E+03 0.  0.
        254    2    1    2    0    0  0.31009784836E+03  0.19667118348E+03  0.18234522722E+04  0.20647733278E+04  0.89636514680E+03 0.  0.
        -24    2    4    4    0    0  0.99591040327E+02 -0.35009966108E+03  0.80891902660E+03  0.89066127835E+03  0.80245704895E+02 0.  0.
         24    2    4    4    0    0  0.21050680803E+03  0.54677084456E+03  0.10145332455E+04  0.11741120494E+04  0.77394609862E+02 0.  0.
         11    1    3    3    0    0 -0.29803288723E+03 -0.14903698153E+03 -0.21737914357E+03  0.39785589827E+03  0.00000000000E+00 0. -1.
        -11    1    3    3    0    0 -0.12064961130E+02 -0.47634201951E+02 -0.33774343587E+02  0.59626225500E+02  0.00000000000E+00 0.  1.
          4    1    6    6  502    0  0.27918445180E+02  0.46845263396E+02  0.58921570708E+02  0.80284928714E+02  0.00000000000E+00 0. -1.
          3    1    5    5  503    0  0.13083262427E+02 -0.13763627165E+01  0.22723122010E+02  0.26256549734E+02  0.00000000000E+00 0. -1.
         -4    1    5    5    0  503  0.86507777901E+02 -0.34872329837E+03  0.78619590459E+03  0.86440472862E+03  0.00000000000E+00 0.  1.
         -3    1    6    6    0  502  0.18258836285E+03  0.49992558116E+03  0.95561167484E+03  0.10938271207E+04  0.00000000000E+00 0.  1.
<mgrwt>
<rscale>  0 0.19722193E+04</rscale>
<asrwt>0</asrwt>
<pdfrwt beam="1">  1        2 0.73073591E-01 0.19722193E+04</pdfrwt>
<pdfrwt beam="2">  1       -2 0.31496571E+00 0.19722193E+04</pdfrwt>
<totfact> 0.15676932E+00</totfact>
</mgrwt>
</event>
<event>
12    1  0.3454588E-007  0.1907302E+04  0.7818608E-02  0.8651230E-01
          2   -1    0    0  501    0  0.00000000000E+00  0.00000000000E+00  0.12830274030E+04  0.12830274030E+04  0.00000000000E+00 0. -1.
         -2   -1    0    0    0  501 -0.00000000000E+00 -0.00000000000E+00 -0.70883182302E+03  0.70883182302E+03  0.00000000000E+00 0.  1.
         23    2    1    2    0    0  0.12614002231E+02  0.55327418548E+03  0.73558182197E+03  0.92437394696E+03  0.84351287099E+02 0.  0.
        254    2    1    2    0    0 -0.12614002231E+02 -0.55327418548E+03 -0.16138624194E+03  0.10674852791E+04  0.89844747463E+03 0.  0.
        -24    2    4    4    0    0  0.31572555760E+03 -0.41663244939E+03  0.18842369033E+03  0.56103558869E+03  0.77409425076E+02 0.  0.
         24    2    4    4    0    0 -0.32833955983E+03 -0.13664173609E+03 -0.34980993226E+03  0.50644969042E+03  0.87444094301E+02 0.  0.
         13    1    3    3    0    0 -0.32369793197E+02  0.24360122620E+03  0.29442692573E+03  0.38350563947E+03  0.00000000000E+00 0. -1.
        -13    1    3    3    0    0  0.44983795428E+02  0.30967295928E+03  0.44115489624E+03  0.54086830748E+03  0.00000000000E+00 0.  1.
          2    1    6    6  502    0 -0.27531355470E+03 -0.81767268086E+02 -0.30006919630E+03  0.41536124290E+03  0.00000000000E+00 0. -1.
          1    1    5    5  503    0  0.29511327108E+03 -0.40869130821E+03  0.19039084555E+03  0.53885907457E+03  0.00000000000E+00 0. -1.
         -2    1    5    5    0  503  0.20612286522E+02 -0.79411411780E+01 -0.19671552213E+01  0.22176514120E+02  0.00000000000E+00 0.  1.
         -1    1    6    6    0  502 -0.53026005131E+02 -0.54874468002E+02 -0.49740735962E+02  0.91088447526E+02  0.00000000000E+00 0.  1.
<mgrwt>
<rscale>  0 0.19073024E+04</rscale>
<asrwt>0</asrwt>
<pdfrwt beam="1">  1        2 0.19738883E+00 0.19073024E+04</pdfrwt>
<pdfrwt beam="2">  1       -2 0.10905105E+00 0.19073024E+04</pdfrwt>
<totfact> 0.10624062E+01</totfact>
</mgrwt>
</event>
<event>
12    1  0.2433511E-007  0.2710483E+04  0.7818608E-02  0.8331612E-01
         -4   -1    0    0    0  501 -0.00000000000E+00  0.00000000000E+00  0.14959963381E+04  0.14959963381E+04  0.00000000000E+00 0.  1.
          4   -1    0    0  501    0  0.00000000000E+00 -0.00000000000E+00 -0.12277295485E+04  0.12277295485E+04  0.00000000000E+00 0. -1.
         23    2    1    2    0    0 -0.33929336761E+03 -0.13744300374E+02 -0.10409872246E+04  0.10987627579E+04  0.91193757300E+02 0.  0.
        254    2    1    2    0    0  0.33929336761E+03  0.13744300374E+02  0.13092540141E+04  0.16249631287E+04  0.90058325606E+03 0.  0.
        -24    2    4    4    0    0  0.20139394572E+03 -0.20694473983E+02 -0.75583598365E+02  0.23049568457E+03  0.80172299692E+02 0.  0.
         24    2    4    4    0    0  0.13789942188E+03  0.34438774357E+02  0.13848376125E+04  0.13944674441E+04  0.81005926291E+02 0.  0.
         11    1    3    3    0    0 -0.14600982513E+03 -0.33276564382E+01 -0.59350397193E+03  0.61120938068E+03  0.00000000000E+00 0. -1.
        -11    1    3    3    0    0 -0.19328354248E+03 -0.10416643936E+02 -0.44748325264E+03  0.48755337724E+03  0.00000000000E+00 0.  1.
          2    1    6    6  502    0  0.10767058569E+03  0.18295857494E+02  0.67287930473E+03  0.68168486279E+03  0.00000000000E+00 0. -1.
          3    1    5    5  503    0  0.60464571335E+02 -0.11464248092E+02 -0.64002582379E+02  0.88790336874E+02  0.00000000000E+00 0. -1.
         -4    1    5    5    0  503  0.14092937439E+03 -0.92302258907E+01 -0.11581015986E+02  0.14170534770E+03  0.00000000000E+00 0.  1.
         -1    1    6    6    0  502  0.30228836198E+02  0.16142916863E+02  0.71195830773E+03  0.71278258134E+03  0.00000000000E+00 0.  1.
<mgrwt>
<rscale>  0 0.27104825E+04</rscale>
<asrwt>0</asrwt>
<pdfrwt beam="1">  1        4 0.18888147E+00 0.27104825E+04</pdfrwt>
<pdfrwt beam="2">  1       -4 0.23015328E+00 0.27104825E+04</pdfrwt>
<totfact> 0.22921139E-02</totfact>
</mgrwt>
</event>
<event>
12    1  0.2433511E-007  0.1591803E+04  0.7818608E-02  0.8825600E-01
         -1   -1    0    0    0  501 -0.00000000000E+00  0.00000000000E+00  0.19750474502E+04  0.19750474502E+04  0.00000000000E+00 0.  1.
          1   -1    0    0  501    0  0.00000000000E+00 -0.00000000000E+00 -0.32073112016E+03  0.32073112016E+03  0.00000000000E+00 0. -1.
         23    2    1    2    0    0 -0.39052442137E+03 -0.92063029248E+02  0.10843542854E+04  0.11602428190E+04  0.96717411350E+02 0.  0.
        254    2    1    2    0    0  0.39052442137E+03  0.92063029248E+02  0.56996204469E+03  0.11355357514E+04  0.89643727353E+03 0.  0.
        -24    2    4    4    0    0 -0.28122045008E+03 -0.12154616745E+02  0.22233669269E+03  0.36779433821E+03  0.81279727166E+02 0.  0.
         24    2    4    4    0    0  0.67174487145E+03  0.10421764599E+03  0.34762535200E+03  0.76774141324E+03  0.80504671837E+02 0.  0.
         11    1    3    3    0    0 -0.16764339488E+03 -0.87140123318E+02  0.53464906072E+03  0.56705143247E+03  0.00000000000E+00 0.  1.
        -11    1    3    3    0    0 -0.22288102649E+03 -0.49229059304E+01  0.54970522466E+03  0.59319138648E+03  0.00000000000E+00 0. -1.
          4    1    6    6  502    0  0.32924202455E+01  0.84383919717E+01  0.25967408881E+01  0.94228208823E+01  0.00000000000E+00 0. -1.
          1    1    5    5  503    0 -0.57909790296E+02  0.14701689319E+02  0.14342845518E+02  0.61444289389E+02  0.00000000000E+00 0. -1.
         -2    1    5    5    0  503 -0.22331065979E+03 -0.26856306064E+02  0.20799384717E+03  0.30635004882E+03  0.00000000000E+00 0.  1.
         -3    1    6    6    0  502  0.66845245121E+03  0.95779254021E+02  0.34502861112E+03  0.75831859236E+03  0.00000000000E+00 0.  1.
<mgrwt>
<rscale>  0 0.15918030E+04</rscale>
<asrwt>0</asrwt>
<pdfrwt beam="1">  1        1 0.49343250E-01 0.15918030E+04</pdfrwt>
<pdfrwt beam="2">  1       -1 0.30385345E+00 0.15918030E+04</pdfrwt>
<totfact> 0.24100120E+00</totfact>
</mgrwt>
</event>
<event>
12    1  0.2433511E-007  0.1770495E+04  0.7818608E-02  0.8722149E-01
          1   -1    0    0  501    0  0.00000000000E+00  0.00000000000E+00  0.10651443647E+04  0.10651443647E+04  0.00000000000E+00 0. -1.
         -1   -1    0    0    0  501 -0.00000000000E+00 -0.00000000000E+00 -0.73573456943E+03  0.73573456943E+03  0.00000000000E+00 0.  1.
         23    2    1    2    0    0  0.61498415236E+03 -0.22328170714E+03  0.13165027411E+03  0.67357920389E+03  0.91197153762E+02 0.  0.
        254    2    1    2    0    0 -0.61498415236E+03  0.22328170714E+03  0.19775952119E+03  0.11272997303E+04  0.89645726349E+03 0.  0.
        -24    2    4    4    0    0 -0.60170210878E+03 -0.16820877043E+03  0.32355482845E+03  0.70822338267E+03  0.80950692347E+02 0.  0.
         24    2    4    4    0    0 -0.13282043577E+02  0.39149047757E+03 -0.12579530726E+03  0.41907634760E+03  0.79745338912E+02 0.  0.
         13    1    3    3    0    0  0.25966040047E+03 -0.48836519111E+02  0.66056011449E+02  0.27234523278E+03  0.00000000000E+00 0.  1.
        -13    1    3    3    0    0  0.35532375189E+03 -0.17444518803E+03  0.65594262660E+02  0.40123397111E+03  0.00000000000E+00 0. -1.
          4    1    6    6  502    0 -0.41365001965E+02  0.13787353970E+03 -0.56796782513E+02  0.15474511573E+03  0.00000000000E+00 0. -1.
          3    1    5    5  503    0 -0.17401617449E+03 -0.50163879187E+02  0.53580126350E+02  0.18886204939E+03  0.00000000000E+00 0. -1.
         -4    1    5    5    0  503 -0.42768593429E+03 -0.11804489125E+03  0.26997470210E+03  0.51936133328E+03  0.00000000000E+00 0.  1.
         -3    1    6    6    0  502  0.28082958388E+02  0.25361693787E+03 -0.68998524745E+02  0.26433123187E+03  0.00000000000E+00 0.  1.
<mgrwt>
<rscale>  0 0.17704954E+04</rscale>
<asrwt>0</asrwt>
<pdfrwt beam="1">  1        1 0.16386836E+00 0.17704954E+04</pdfrwt>
<pdfrwt beam="2">  1       -1 0.11318993E+00 0.17704954E+04</pdfrwt>
<totfact> 0.90900009E+00</totfact>
</mgrwt>
</event>
<event>
12    1  0.2433511E-007  0.3029651E+04  0.7818608E-02  0.8235314E-01
         -2   -1    0    0    0  501 -0.00000000000E+00  0.00000000000E+00  0.92865695811E+03  0.92865695811E+03  0.00000000000E+00 0.  1.
          2   -1    0    0  501    0  0.00000000000E+00 -0.00000000000E+00 -0.24709833269E+04  0.24709833269E+04  0.00000000000E+00 0. -1.
         23    2    1    2    0    0 -0.32385693989E+03  0.83866674218E+03 -0.18777314882E+04  0.20838459190E+04  0.91066187736E+02 0.  0.
        254    2    1    2    0    0  0.32385693989E+03 -0.83866674218E+03  0.33540511940E+03  0.13157943660E+04  0.90031827564E+03 0.  0.
        -24    2    4    4    0    0 -0.59762625489E+02 -0.70259471881E+03  0.50173573548E+03  0.86898163997E+03  0.78609363591E+02 0.  0.
         24    2    4    4    0    0  0.38361956538E+03 -0.13607202337E+03 -0.16633061608E+03  0.44681272600E+03  0.79348420179E+02 0.  0.
         13    1    3    3    0    0 -0.26855205364E+03  0.59523485243E+03 -0.13141574093E+04  0.14674584940E+04  0.00000000000E+00 0.  1.
        -13    1    3    3    0    0 -0.55304886250E+02  0.24343188975E+03 -0.56357407886E+03  0.61638742504E+03  0.00000000000E+00 0. -1.
          4    1    6    6  502    0  0.32455583274E+03 -0.85856514929E+02 -0.12013252992E+03  0.35656647972E+03  0.00000000000E+00 0. -1.
          3    1    5    5  503    0 -0.75346179147E+02 -0.64242780940E+03  0.46684175117E+03  0.79770405392E+03  0.00000000000E+00 0. -1.
         -4    1    5    5    0  503  0.15583553658E+02 -0.60166909410E+02  0.34893984317E+02  0.71277586056E+02  0.00000000000E+00 0.  1.
         -3    1    6    6    0  502  0.59063732640E+02 -0.50215508439E+02 -0.46198086168E+02  0.90246246275E+02  0.00000000000E+00 0.  1.
<mgrwt>
<rscale>  0 0.30296507E+04</rscale>
<asrwt>0</asrwt>
<pdfrwt beam="1">  1        2 0.38015128E+00 0.30296507E+04</pdfrwt>
<pdfrwt beam="2">  1       -2 0.14287030E+00 0.30296507E+04</pdfrwt>
<totfact> 0.10523521E+00</totfact>
</mgrwt>
</event>
<event>
12    1  0.2433511E-007  0.3500404E+04  0.7818608E-02  0.8113694E-01
         -1   -1    0    0    0  501 -0.00000000000E+00  0.00000000000E+00  0.87062160828E+03  0.87062160828E+03  0.00000000000E+00 0.  1.
          1   -1    0    0  501    0  0.00000000000E+00 -0.00000000000E+00 -0.35184129879E+04  0.35184129879E+04  0.00000000000E+00 0. -1.
         23    2    1    2    0    0 -0.13442563913E+04  0.87590934346E+03 -0.85973979340E+03  0.18226078487E+04  0.92219488212E+02 0.  0.
        254    2    1    2    0    0  0.13442563913E+04 -0.87590934346E+03 -0.17880515863E+04  0.25664267476E+04  0.90287061746E+03 0.  0.
        -24    2    4    4    0    0  0.38610647913E+03 -0.20516722724E+03 -0.11471615164E+04  0.12303581357E+04  0.81423540273E+02 0.  0.
         24    2    4    4    0    0  0.95814991221E+03 -0.67074211621E+03 -0.64089006982E+03  0.13360686119E+04  0.79956321204E+02 0.  0.
         11    1    3    3    0    0 -0.11828221912E+03  0.69144946658E+02 -0.10283892618E+03  0.17131127151E+03  0.00000000000E+00 0. -1.
        -11    1    3    3    0    0 -0.12259741722E+04  0.80676439680E+03 -0.75690086722E+03  0.16512965771E+04  0.00000000000E+00 0.  1.
          4    1    6    6  502    0  0.58399061126E+03 -0.37422270037E+03 -0.34845867130E+03  0.77621589079E+03  0.00000000000E+00 0. -1.
          3    1    5    5  503    0  0.35998242738E+03 -0.21047931741E+03 -0.10551260723E+04  0.11345395187E+04  0.00000000000E+00 0. -1.
         -4    1    5    5    0  503  0.26124051742E+02  0.53120901640E+01 -0.92035444180E+02  0.95818617016E+02  0.00000000000E+00 0.  1.
         -3    1    6    6    0  502  0.37415930095E+03 -0.29651941584E+03 -0.29243139852E+03  0.55985272108E+03  0.00000000000E+00 0.  1.
<mgrwt>
<rscale>  0 0.35004036E+04</rscale>
<asrwt>0</asrwt>
<pdfrwt beam="1">  1        1 0.54129431E+00 0.35004036E+04</pdfrwt>
<pdfrwt beam="2">  1       -1 0.13394179E+00 0.35004036E+04</pdfrwt>
<totfact> 0.92522029E-02</totfact>
</mgrwt>
</event>
<event>
12    1  0.2433511E-007  0.2480855E+04  0.7818608E-02  0.8409838E-01
         -1   -1    0    0    0  501 -0.00000000000E+00  0.00000000000E+00  0.60662112410E+03  0.60662112410E+03  0.00000000000E+00 0.  1.
          1   -1    0    0  501    0  0.00000000000E+00 -0.00000000000E+00 -0.25364439099E+04  0.25364439099E+04  0.00000000000E+00 0. -1.
         23    2    1    2    0    0  0.76788496524E+03  0.44297552522E+03 -0.16143472630E+04  0.18439172377E+04  0.89660793768E+02 0.  0.
        254    2    1    2    0    0 -0.76788496524E+03 -0.44297552522E+03 -0.31547552280E+03  0.12991477964E+04  0.89575976439E+03 0.  0.
        -24    2    4    4    0    0 -0.74801283588E+02 -0.43537020797E+03  0.13585208314E+03  0.46820392268E+03  0.74944477482E+02 0.  0.
         24    2    4    4    0    0 -0.69308368165E+03 -0.76053172536E+01 -0.45132760594E+03  0.83094387368E+03  0.79676111185E+02 0.  0.
         11    1    3    3    0    0  0.53091037584E+03  0.31054242800E+03 -0.10316131099E+04  0.12010528862E+04  0.00000000000E+00 0.  1.
        -11    1    3    3    0    0  0.23697458941E+03  0.13243309722E+03 -0.58273415309E+03  0.64286435151E+03  0.00000000000E+00 0. -1.
          4    1    6    6  502    0 -0.11215994294E+03 -0.44575364596E+01 -0.10998432389E+03  0.15715048181E+03  0.00000000000E+00 0. -1.
          1    1    5    5  503    0 -0.85113600926E+02 -0.31757321645E+03  0.85746371777E+02  0.33977862372E+03  0.00000000000E+00 0. -1.
         -2    1    5    5    0  503  0.10312317337E+02 -0.11779699152E+03  0.50105711359E+02  0.12842529896E+03  0.00000000000E+00 0.  1.
         -3    1    6    6    0  502 -0.58092373871E+03 -0.31477807940E+01 -0.34134328206E+03  0.67379339187E+03  0.00000000000E+00 0.  1.
<mgrwt>
<rscale>  0 0.24808551E+04</rscale>
<asrwt>0</asrwt>
<pdfrwt beam="1">  1        1 0.39022213E+00 0.24808551E+04</pdfrwt>
<pdfrwt beam="2">  1       -1 0.93326329E-01 0.24808551E+04</pdfrwt>
<totfact> 0.12668450E+00</totfact>
</mgrwt>
</event>
<event>
12    1  0.2433511E-007  0.1999002E+04  0.7818608E-02  0.8607087E-01
         -2   -1    0    0    0  501 -0.00000000000E+00  0.00000000000E+00  0.99345076500E+03  0.99345076500E+03  0.00000000000E+00 0.  1.
          2   -1    0    0  501    0  0.00000000000E+00 -0.00000000000E+00 -0.10055883086E+04  0.10055883086E+04  0.00000000000E+00 0. -1.
         23    2    1    2    0    0 -0.57448105965E+03  0.39750799495E+03 -0.38084511837E+03  0.80065921600E+03  0.89280916372E+02 0.  0.
        254    2    1    2    0    0  0.57448105965E+03 -0.39750799495E+03  0.36870757478E+03  0.11983798576E+04  0.90118139876E+03 0.  0.
        -24    2    4    4    0    0  0.97580248546E+02  0.23376656727E+03  0.29901493759E+03  0.40008223292E+03  0.80542829077E+02 0.  0.
         24    2    4    4    0    0  0.47690081110E+03 -0.63127456222E+03  0.69692637188E+02  0.79829762469E+03  0.80498927775E+02 0.  0.
         13    1    3    3    0    0 -0.36402840132E+03  0.21063042265E+03 -0.25932548761E+03  0.49409671163E+03  0.00000000000E+00 0.  1.
        -13    1    3    3    0    0 -0.21045265832E+03  0.18687757230E+03 -0.12151963076E+03  0.30656250437E+03  0.00000000000E+00 0. -1.
          4    1    6    6  502    0  0.30994783694E+03 -0.43657691196E+03  0.81339615097E+02  0.54155627100E+03  0.00000000000E+00 0. -1.
          1    1    5    5  503    0  0.60651840563E+02  0.20360262005E+03  0.20790460821E+03  0.29724905176E+03  0.00000000000E+00 0. -1.
         -2    1    5    5    0  503  0.36928407983E+02  0.30163947215E+02  0.91110329376E+02  0.10283318116E+03  0.00000000000E+00 0.  1.
         -3    1    6    6    0  502  0.16695297416E+03 -0.19469765026E+03 -0.11646977909E+02  0.25674135368E+03  0.00000000000E+00 0.  1.
<mgrwt>
<rscale>  0 0.19990022E+04</rscale>
<asrwt>0</asrwt>
<pdfrwt beam="1">  1        2 0.15470589E+00 0.19990022E+04</pdfrwt>
<pdfrwt beam="2">  1       -2 0.15283858E+00 0.19990022E+04</pdfrwt>
<totfact> 0.66151080E+00</totfact>
</mgrwt>
</event>
<event>
12    1  0.2433511E-007  0.1491223E+04  0.7818608E-02  0.8890310E-01
          2   -1    0    0  501    0  0.00000000000E+00  0.00000000000E+00  0.18706669644E+04  0.18706669644E+04  0.00000000000E+00 0. -1.
         -2   -1    0    0    0  501 -0.00000000000E+00 -0.00000000000E+00 -0.29718643238E+03  0.29718643238E+03  0.00000000000E+00 0.  1.
         23    2    1    2    0    0  0.37660848251E+03 -0.22018581071E+03  0.25525025792E+03  0.51345548206E+03  0.90377527930E+02 0.  0.
        254    2    1    2    0    0 -0.37660848251E+03  0.22018581071E+03  0.13182302741E+04  0.16543979147E+04  0.89943630363E+03 0.  0.
        -24    2    4    4    0    0 -0.44631296460E+03 -0.15501373928E+03  0.11174239695E+04  0.12158268026E+04  0.79837112824E+02 0.  0.
         24    2    4    4    0    0  0.69704482085E+02  0.37519954999E+03  0.20080630457E+03  0.43857111207E+03  0.79925160333E+02 0.  0.
         11    1    3    3    0    0  0.29032532213E+03 -0.15564906328E+03  0.23284814458E+03  0.40340263014E+03  0.00000000000E+00 0. -1.
        -11    1    3    3    0    0  0.86283160379E+02 -0.64536747431E+02  0.22402113340E+02  0.11005285192E+03  0.00000000000E+00 0.  1.
          2    1    6    6  502    0  0.48855111899E+02  0.31164933018E+03  0.19628127381E+03  0.37153528152E+03  0.00000000000E+00 0. -1.
          1    1    5    5  503    0 -0.31563962597E+03 -0.12561062365E+03  0.71288191150E+03  0.78968792696E+03  0.00000000000E+00 0. -1.
         -2    1    5    5    0  503 -0.13067333863E+03 -0.29403115632E+02  0.40454205802E+03  0.42613887566E+03  0.00000000000E+00 0.  1.
         -3    1    6    6    0  502  0.20849370186E+02  0.63550219803E+02  0.45250307510E+01  0.67035830550E+02  0.00000000000E+00 0.  1.
<mgrwt>
<rscale>  0 0.14912234E+04</rscale>
<asrwt>0</asrwt>
<pdfrwt beam="1">  1        2 0.28779491E+00 0.14912234E+04</pdfrwt>
<pdfrwt beam="2">  1       -2 0.45720991E-01 0.14912234E+04</pdfrwt>
<totfact> 0.34578546E+01</totfact>
</mgrwt>
</event>
<event>
12    1  0.2433511E-007  0.2211278E+04  0.7818608E-02  0.8513749E-01
         -1   -1    0    0    0  501 -0.00000000000E+00  0.00000000000E+00  0.20042595362E+04  0.20042595362E+04  0.00000000000E+00 0.  1.
          1   -1    0    0  501    0  0.00000000000E+00 -0.00000000000E+00 -0.60991970851E+03  0.60991970851E+03  0.00000000000E+00 0. -1.
         23    2    1    2    0    0 -0.49115127476E+03  0.22548237528E+03 -0.29690598933E+03  0.62362550517E+03  0.93186522283E+02 0.  0.
        254    2    1    2    0    0  0.49115127476E+03 -0.22548237528E+03  0.16912458171E+04  0.19905537396E+04  0.89995549898E+03 0.  0.
        -24    2    4    4    0    0  0.36540046775E+03 -0.29190705957E+03  0.24300542595E+03  0.53311841724E+03  0.80227030977E+02 0.  0.
         24    2    4    4    0    0  0.12575080701E+03  0.66424684291E+02  0.14482403911E+04  0.14574353223E+04  0.80572850346E+02 0.  0.
         11    1    3    3    0    0 -0.22659937650E+03  0.91742364832E+02 -0.83384520123E+02  0.25829618102E+03  0.00000000000E+00 0.  1.
        -11    1    3    3    0    0 -0.26455189826E+03  0.13374001044E+03 -0.21352146921E+03  0.36532932415E+03  0.00000000000E+00 0. -1.
          4    1    6    6  502    0  0.10156425335E+02  0.17086394285E+02  0.55939540592E+03  0.55974844172E+03  0.00000000000E+00 0. -1.
          3    1    5    5  503    0  0.11063361844E+03 -0.86609256735E+02  0.11579106657E+03  0.18206738307E+03  0.00000000000E+00 0. -1.
         -4    1    5    5    0  503  0.25476684931E+03 -0.20529780283E+03  0.12721435938E+03  0.35105103416E+03  0.00000000000E+00 0.  1.
         -3    1    6    6    0  502  0.11559438168E+03  0.49338290007E+02  0.88884498519E+03  0.89768688062E+03  0.00000000000E+00 0.  1.
<mgrwt>
<rscale>  0 0.22112778E+04</rscale>
<asrwt>0</asrwt>
<pdfrwt beam="1">  1        1 0.93833802E-01 0.22112778E+04</pdfrwt>
<pdfrwt beam="2">  1       -1 0.30834762E+00 0.22112778E+04</pdfrwt>
<totfact> 0.88829070E-01</totfact>
</mgrwt>
</event>
<event>
12    1  0.2433511E-007  0.1547712E+04  0.7818608E-02  0.8853330E-01
         -1   -1    0    0    0  501 -0.00000000000E+00  0.00000000000E+00  0.40674523391E+03  0.40674523391E+03  0.00000000000E+00 0.  1.
          1   -1    0    0  501    0  0.00000000000E+00 -0.00000000000E+00 -0.14723052403E+04  0.14723052403E+04  0.00000000000E+00 0. -1.
         23    2    1    2    0    0  0.10163625237E+03 -0.42624846867E+03 -0.66444263545E+03  0.80123990897E+03  0.92106954558E+02 0.  0.
        254    2    1    2    0    0 -0.10163625237E+03  0.42624846867E+03 -0.40111737094E+03  0.10778105653E+04  0.89931239536E+03 0.  0.
        -24    2    4    4    0    0  0.22893450016E+03  0.27053733172E+02  0.17433375489E+03  0.29924040285E+03  0.77521937292E+02 0.  0.
         24    2    4    4    0    0 -0.33057075252E+03  0.39919473550E+03 -0.57545112583E+03  0.77857016240E+03  0.79962743121E+02 0.  0.
         13    1    3    3    0    0  0.44484608281E+02 -0.23350224044E+03 -0.27908694130E+03  0.36659473191E+03  0.00000000000E+00 0.  1.
        -13    1    3    3    0    0  0.57151644086E+02 -0.19274622823E+03 -0.38535569416E+03  0.43464517705E+03  0.00000000000E+00 0. -1.
          2    1    6    6  502    0 -0.14905144369E+03  0.17621316737E+03 -0.19806599601E+03  0.30413410200E+03  0.00000000000E+00 0. -1.
          3    1    5    5  503    0  0.12332734675E+03 -0.16717190574E+02  0.62302578536E+02  0.13917869883E+03  0.00000000000E+00 0. -1.
         -4    1    5    5    0  503  0.10560715341E+03  0.43770923746E+02  0.11203117635E+03  0.16006170402E+03  0.00000000000E+00 0.  1.
         -1    1    6    6    0  502 -0.18151930884E+03  0.22298156813E+03 -0.37738512982E+03  0.47443606041E+03  0.00000000000E+00 0.  1.
<mgrwt>
<rscale>  0 0.15477120E+04</rscale>
<asrwt>0</asrwt>
<pdfrwt beam="1">  1        1 0.22650850E+00 0.15477120E+04</pdfrwt>
<pdfrwt beam="2">  1       -1 0.62576190E-01 0.15477120E+04</pdfrwt>
<totfact> 0.17067290E+01</totfact>
</mgrwt>
</event>
<event>
12    1  0.2433511E-007  0.2483299E+04  0.7818608E-02  0.8408960E-01
         -1   -1    0    0    0  501 -0.00000000000E+00  0.00000000000E+00  0.80439553151E+03  0.80439553151E+03  0.00000000000E+00 0.  1.
          1   -1    0    0  501    0  0.00000000000E+00 -0.00000000000E+00 -0.19165861129E+04  0.19165861129E+04  0.00000000000E+00 0. -1.
         23    2    1    2    0    0  0.64543980767E+01 -0.83650927481E+03  0.24814768119E+03  0.87735007141E+03  0.91522948149E+02 0.  0.
        254    2    1    2    0    0 -0.64543980767E+01  0.83650927481E+03 -0.13603382626E+04  0.18436315730E+04  0.92123165504E+03 0.  0.
        -24    2    4    4    0    0  0.42493528683E+03  0.21356796147E+03 -0.53507573326E+03  0.72037322363E+03  0.80313565688E+02 0.  0.
         24    2    4    4    0    0 -0.43138968491E+03  0.62294131333E+03 -0.82526252933E+03  0.11232583494E+04  0.80611023139E+02 0.  0.
         11    1    3    3    0    0 -0.36136844707E+02 -0.32696353523E+03  0.12054751131E+03  0.35034658183E+03  0.00000000000E+00 0.  1.
        -11    1    3    3    0    0  0.42591242784E+02 -0.50954573957E+03  0.12760016988E+03  0.52700348958E+03  0.00000000000E+00 0. -1.
          2    1    6    6  502    0 -0.11311474871E+03  0.22916031886E+03 -0.28647473804E+03  0.38389734780E+03  0.00000000000E+00 0. -1.
          1    1    5    5  503    0  0.83780505328E+02  0.29506866986E+02 -0.14771537073E+03  0.17236490079E+03  0.00000000000E+00 0. -1.
         -2    1    5    5    0  503  0.34115478150E+03  0.18406109449E+03 -0.38736036253E+03  0.54800832284E+03  0.00000000000E+00 0.  1.
         -1    1    6    6    0  502 -0.31827493620E+03  0.39378099447E+03 -0.53878779129E+03  0.73936100158E+03  0.00000000000E+00 0.  1.
<mgrwt>
<rscale>  0 0.24832989E+04</rscale>
<asrwt>0</asrwt>
<pdfrwt beam="1">  1        1 0.29485940E+00 0.24832989E+04</pdfrwt>
<pdfrwt beam="2">  1       -1 0.12375316E+00 0.24832989E+04</pdfrwt>
<totfact> 0.17327765E+00</totfact>
</mgrwt>
</event>
<event>
12    1  0.2433511E-007  0.2911233E+04  0.7818608E-02  0.8269543E-01
          1   -1    0    0  501    0  0.00000000000E+00  0.00000000000E+00  0.15414710533E+04  0.15414710533E+04  0.00000000000E+00 0. -1.
         -1   -1    0    0    0  501 -0.00000000000E+00 -0.00000000000E+00 -0.13745433119E+04  0.13745433119E+04  0.00000000000E+00 0.  1.
         23    2    1    2    0    0 -0.77765855025E+03  0.10531229884E+04  0.19240421850E+03  0.13265840308E+04  0.94789017594E+02 0.  0.
        254    2    1    2    0    0  0.77765855025E+03 -0.10531229884E+04 -0.25476477165E+02  0.15894303344E+04  0.90100992646E+03 0.  0.
        -24    2    4    4    0    0  0.46770617284E+03 -0.15547533046E+03  0.30011926284E+03  0.58227057473E+03  0.77754792561E+02 0.  0.
         24    2    4    4    0    0  0.30995237741E+03 -0.89764765796E+03 -0.32559574001E+03  0.10071597597E+04  0.80724231380E+02 0.  0.
         11    1    3    3    0    0 -0.42885882845E+03  0.62171812777E+03  0.70416548005E+02  0.75855903882E+03  0.00000000000E+00 0.  1.
        -11    1    3    3    0    0 -0.34879972180E+03  0.43140486065E+03  0.12198767049E+03  0.56802499194E+03  0.00000000000E+00 0. -1.
          4    1    6    6  502    0  0.63511534102E+02 -0.15999158274E+03 -0.91580109132E+02  0.19498189122E+03  0.00000000000E+00 0. -1.
          1    1    5    5  503    0  0.18744299824E+03 -0.63155505297E+02  0.16564835483E+03  0.25799781568E+03  0.00000000000E+00 0. -1.
         -2    1    5    5    0  503  0.28026317460E+03 -0.92319825162E+02  0.13447090801E+03  0.32427275904E+03  0.00000000000E+00 0.  1.
         -3    1    6    6    0  502  0.24644084330E+03 -0.73765607522E+03 -0.23401563088E+03  0.81217786848E+03  0.00000000000E+00 0.  1.
<mgrwt>
<rscale>  0 0.29112325E+04</rscale>
<asrwt>0</asrwt>
<pdfrwt beam="1">  1        1 0.23714939E+00 0.29112325E+04</pdfrwt>
<pdfrwt beam="2">  1       -1 0.21146820E+00 0.29112325E+04</pdfrwt>
<totfact> 0.65975372E-01</totfact>
</mgrwt>
</event>
<event>
12    1  0.2433511E-007  0.2364448E+04  0.7818608E-02  0.8452935E-01
         -1   -1    0    0    0  501 -0.00000000000E+00  0.00000000000E+00  0.16322986154E+04  0.16322986154E+04  0.00000000000E+00 0.  1.
          1   -1    0    0  501    0  0.00000000000E+00 -0.00000000000E+00 -0.85624902641E+03  0.85624902641E+03  0.00000000000E+00 0. -1.
         23    2    1    2    0    0  0.67191335590E+03  0.57507401867E+03 -0.18761743185E+03  0.90860433331E+03  0.90464628367E+02 0.  0.
        254    2    1    2    0    0 -0.67191335590E+03 -0.57507401867E+03  0.96366702081E+03  0.15799433085E+04  0.88622178162E+03 0.  0.
        -24    2    4    4    0    0 -0.39042085878E+03 -0.43132378915E+03  0.27059435617E+02  0.58828429101E+03  0.82930910630E+02 0.  0.
         24    2    4    4    0    0 -0.28149249713E+03 -0.14375022952E+03  0.93660758520E+03  0.99165901747E+03  0.79067590466E+02 0.  0.
         11    1    3    3    0    0  0.38525040982E+03  0.28492228051E+03 -0.13153001037E+03  0.49688904982E+03  0.00000000000E+00 0. -1.
        -11    1    3    3    0    0  0.28666294608E+03  0.29015173817E+03 -0.56087421474E+02  0.41171528349E+03  0.00000000000E+00 0.  1.
          4    1    6    6  502    0 -0.41472680428E+01 -0.87361095183E+01  0.91631401351E+02  0.92140290618E+02  0.00000000000E+00 0. -1.
          1    1    5    5  503    0 -0.89939256935E+02 -0.59038770362E+02  0.22136770832E+02  0.10983935072E+03  0.00000000000E+00 0. -1.
         -2    1    5    5    0  503 -0.30048160184E+03 -0.37228501878E+03  0.49226647842E+01  0.47844494029E+03  0.00000000000E+00 0.  1.
         -3    1    6    6    0  502 -0.27734522908E+03 -0.13501412001E+03  0.84497618385E+03  0.89951872686E+03  0.00000000000E+00 0.  1.
<mgrwt>
<rscale>  0 0.23644484E+04</rscale>
<asrwt>0</asrwt>
<pdfrwt beam="1">  1        1 0.13173062E+00 0.23644484E+04</pdfrwt>
<pdfrwt beam="2">  1       -1 0.25112286E+00 0.23644484E+04</pdfrwt>
<totfact> 0.12191439E+00</totfact>
</mgrwt>
</event>
<event>
12    1  0.2433511E-007  0.2340495E+04  0.7818608E-02  0.8462124E-01
         -2   -1    0    0    0  501 -0.00000000000E+00  0.00000000000E+00  0.38955471138E+03  0.38955471138E+03  0.00000000000E+00 0.  1.
          2   -1    0    0  501    0  0.00000000000E+00 -0.00000000000E+00 -0.35154985752E+04  0.35154985752E+04  0.00000000000E+00 0. -1.
         23    2    1    2    0    0  0.36969586507E+03  0.72437982064E+03 -0.37781496632E+03  0.90101007084E+03  0.87600466815E+02 0.  0.
        254    2    1    2    0    0 -0.36969586507E+03 -0.72437982064E+03 -0.27481288975E+04  0.30040432157E+04  0.90036772906E+03 0.  0.
        -24    2    4    4    0    0  0.26780209656E+03 -0.39873427907E+03 -0.96375773027E+03  0.10797890120E+04  0.80052230760E+02 0.  0.
         24    2    4    4    0    0 -0.63749796163E+03 -0.32564554157E+03 -0.17843711672E+04  0.19242542037E+04  0.79530548562E+02 0.  0.
         13    1    3    3    0    0  0.22116257737E+03  0.35471231803E+03 -0.16557087776E+03  0.44960808462E+03  0.00000000000E+00 0.  1.
        -13    1    3    3    0    0  0.14853328770E+03  0.36966750261E+03 -0.21224408856E+03  0.45140198623E+03  0.00000000000E+00 0. -1.
          4    1    6    6  502    0 -0.26742193128E+03 -0.18015214235E+03 -0.77838356223E+03  0.84252611453E+03  0.00000000000E+00 0. -1.
          1    1    5    5  503    0  0.70897576079E+02 -0.15246355690E+03 -0.27575456507E+03  0.32297396588E+03  0.00000000000E+00 0. -1.
         -2    1    5    5    0  503  0.19690452048E+03 -0.24627072218E+03 -0.68800316520E+03  0.75681504617E+03  0.00000000000E+00 0.  1.
         -3    1    6    6    0  502 -0.37007603035E+03 -0.14549339922E+03 -0.10059876050E+04  0.10817280892E+04  0.00000000000E+00 0.  1.
<mgrwt>
<rscale>  0 0.23404948E+04</rscale>
<asrwt>0</asrwt>
<pdfrwt beam="1">  1        2 0.54084594E+00 0.23404948E+04</pdfrwt>
<pdfrwt beam="2">  1       -2 0.59931493E-01 0.23404948E+04</pdfrwt>
<totfact> 0.18646285E+00</totfact>
</mgrwt>
</event>
<event>
12    1  0.2433511E-007  0.1480481E+04  0.7818608E-02  0.8897537E-01
         -1   -1    0    0    0  501 -0.00000000000E+00  0.00000000000E+00  0.46907236956E+03  0.46907236956E+03  0.00000000000E+00 0.  1.
          1   -1    0    0  501    0  0.00000000000E+00 -0.00000000000E+00 -0.11681699818E+04  0.11681699818E+04  0.00000000000E+00 0. -1.
         23    2    1    2    0    0  0.43962472055E+03  0.96158831347E+02 -0.33224639205E+03  0.56667749259E+03  0.90660354107E+02 0.  0.
        254    2    1    2    0    0 -0.43962472055E+03 -0.96158831347E+02 -0.36685122023E+03  0.10705648588E+04  0.89945143469E+03 0.  0.
        -24    2    4    4    0    0 -0.46243089032E+03 -0.42610530135E+03 -0.11154027496E+03  0.64402284508E+03  0.83163308525E+02 0.  0.
         24    2    4    4    0    0  0.22806169763E+02  0.32994647000E+03 -0.25531094526E+03  0.42654201373E+03  0.85846469113E+02 0.  0.
         11    1    3    3    0    0  0.87028519309E+01  0.77146069909E+01  0.47140721620E+01  0.12548994745E+02  0.00000000000E+00 0.  1.
        -11    1    3    3    0    0  0.43092186862E+03  0.88444224356E+02 -0.33696046421E+03  0.55412849784E+03  0.00000000000E+00 0. -1.
          4    1    6    6  502    0 -0.26651699856E+02  0.62071627357E+02 -0.68716284372E+02  0.96359367816E+02  0.00000000000E+00 0. -1.
          3    1    5    5  503    0 -0.27048810665E+02 -0.31548549415E+01 -0.66214160526E+01  0.28025602913E+02  0.00000000000E+00 0. -1.
         -4    1    5    5    0  503 -0.43538207965E+03 -0.42295044641E+03 -0.10491885891E+03  0.61599724216E+03  0.00000000000E+00 0.  1.
         -3    1    6    6    0  502  0.49457869620E+02  0.26787484265E+03 -0.18659466089E+03  0.33018264591E+03  0.00000000000E+00 0.  1.
<mgrwt>
<rscale>  0 0.14804814E+04</rscale>
<asrwt>0</asrwt>
<pdfrwt beam="1">  1        1 0.17971846E+00 0.14804814E+04</pdfrwt>
<pdfrwt beam="2">  1       -1 0.72164980E-01 0.14804814E+04</pdfrwt>
<totfact> 0.21170752E+01</totfact>
</mgrwt>
</event>
<event>
12    1  0.2433511E-007  0.3704238E+04  0.7818608E-02  0.8067023E-01
         -1   -1    0    0    0  501 -0.00000000000E+00  0.00000000000E+00  0.17383196721E+04  0.17383196721E+04  0.00000000000E+00 0.  1.
          1   -1    0    0  501    0  0.00000000000E+00 -0.00000000000E+00 -0.19733686377E+04  0.19733686377E+04  0.00000000000E+00 0. -1.
         23    2    1    2    0    0  0.10176082794E+04 -0.39988996850E+03 -0.14684225443E+04  0.18329834878E+04  0.90139339162E+02 0.  0.
        254    2    1    2    0    0 -0.10176082794E+04  0.39988996850E+03  0.12333735787E+04  0.18787048221E+04  0.90160014781E+03 0.  0.
        -24    2    4    4    0    0 -0.10664478949E+04  0.19776867442E+03  0.68129331612E+03  0.12833086410E+04  0.79353162031E+02 0.  0.
         24    2    4    4    0    0  0.48839615442E+02  0.20212129408E+03  0.55208026261E+03  0.59539618112E+03  0.80409393562E+02 0.  0.
         11    1    3    3    0    0  0.77528716082E+03 -0.33600913438E+03 -0.11717400959E+04  0.14446270011E+04  0.00000000000E+00 0.  1.
        -11    1    3    3    0    0  0.24232111860E+03 -0.63880834124E+02 -0.29668244846E+03  0.38835648663E+03  0.00000000000E+00 0. -1.
          4    1    6    6  502    0  0.13061571936E+02  0.16374508816E+03  0.35023269806E+03  0.38684105437E+03  0.00000000000E+00 0. -1.
          1    1    5    5  503    0 -0.20826454763E+03  0.18205392889E+02  0.16016138210E+03  0.26335760184E+03  0.00000000000E+00 0. -1.
         -2    1    5    5    0  503 -0.85818334724E+03  0.17956328153E+03  0.52113193402E+03  0.10199510391E+04  0.00000000000E+00 0.  1.
         -3    1    6    6    0  502  0.35778043506E+02  0.38376205917E+02  0.20184756455E+03  0.20855512675E+03  0.00000000000E+00 0.  1.
<mgrwt>
<rscale>  0 0.37042384E+04</rscale>
<asrwt>0</asrwt>
<pdfrwt beam="1">  1        1 0.30359517E+00 0.37042384E+04</pdfrwt>
<pdfrwt beam="2">  1       -1 0.26743380E+00 0.37042384E+04</pdfrwt>
<totfact> 0.13378188E-01</totfact>
</mgrwt>
</event>
<event>
12    1  0.2433511E-007  0.2323070E+04  0.7818608E-02  0.8468880E-01
         -2   -1    0    0    0  501 -0.00000000000E+00  0.00000000000E+00  0.63210686657E+03  0.63210686657E+03  0.00000000000E+00 0.  1.
          2   -1    0    0  501    0  0.00000000000E+00 -0.00000000000E+00 -0.21343906666E+04  0.21343906666E+04  0.00000000000E+00 0. -1.
         23    2    1    2    0    0  0.19608855400E+02  0.85895179929E+03 -0.12265187213E+04  0.14994806898E+04  0.76886050572E+02 0.  0.
        254    2    1    2    0    0 -0.19608855400E+02 -0.85895179929E+03 -0.27576507880E+03  0.12670168434E+04  0.88943948757E+03 0.  0.
        -24    2    4    4    0    0  0.18325888716E+02  0.15535453823E+03  0.72588862860E+02  0.19099423367E+03  0.82090094038E+02 0.  0.
         24    2    4    4    0    0 -0.37934744116E+02 -0.10143063375E+04 -0.34835394166E+03  0.10760226097E+04  0.78853007732E+02 0.  0.
         13    1    3    3    0    0  0.39172745913E+02  0.65727603778E+03 -0.97480656462E+03  0.11763477939E+04  0.00000000000E+00 0. -1.
        -13    1    3    3    0    0 -0.19563890513E+02  0.20167576152E+03 -0.25171215665E+03  0.32313289588E+03  0.00000000000E+00 0.  1.
          2    1    6    6  502    0 -0.58581789626E+02 -0.86799520495E+03 -0.30753904460E+03  0.92272843559E+03  0.00000000000E+00 0. -1.
          1    1    5    5  503    0  0.15896539594E+02  0.15009145192E+03  0.87873075225E+02  0.17464770614E+03  0.00000000000E+00 0. -1.
         -2    1    5    5    0  503  0.24293491219E+01  0.52630863060E+01 -0.15284212366E+02  0.16346527529E+02  0.00000000000E+00 0.  1.
         -1    1    6    6    0  502  0.20647045510E+02 -0.14631113257E+03 -0.40814897054E+02  0.15329417414E+03  0.00000000000E+00 0.  1.
<mgrwt>
<rscale>  0 0.23230695E+04</rscale>
<asrwt>0</asrwt>
<pdfrwt beam="1">  1        2 0.32836780E+00 0.23230695E+04</pdfrwt>
<pdfrwt beam="2">  1       -2 0.97247210E-01 0.23230695E+04</pdfrwt>
<totfact> 0.44872273E+00</totfact>
</mgrwt>
</event>
<event>
12    1  0.2433511E-007  0.1203143E+04  0.7818608E-02  0.9110110E-01
          2   -1    0    0  501    0  0.00000000000E+00  0.00000000000E+00  0.89758352412E+03  0.89758352412E+03  0.00000000000E+00 0. -1.
         -2   -1    0    0    0  501 -0.00000000000E+00 -0.00000000000E+00 -0.40318033623E+03  0.40318033623E+03  0.00000000000E+00 0.  1.
         23    2    1    2    0    0  0.19652322470E+03  0.15082368020E+03  0.16417746728E+03  0.31146941793E+03  0.93219081671E+02 0.  0.
        254    2    1    2    0    0 -0.19652322470E+03 -0.15082368020E+03  0.33022572061E+03  0.98929444242E+03  0.89904688804E+03 0.  0.
        -24    2    4    4    0    0 -0.26023847894E+03 -0.48776898580E+03  0.96914171968E+02  0.56709591359E+03  0.81010919300E+02 0.  0.
         24    2    4    4    0    0  0.63715254244E+02  0.33694530561E+03  0.23331154864E+03  0.42219852883E+03  0.78902131954E+02 0.  0.
         13    1    3    3    0    0  0.75522003512E+02  0.20721022765E+02  0.88989431132E+02  0.11854135419E+03  0.00000000000E+00 0. -1.
        -13    1    3    3    0    0  0.12100122119E+03  0.13010265743E+03  0.75188036150E+02  0.19292806375E+03  0.00000000000E+00 0.  1.
          4    1    6    6  502    0  0.64945261185E+01  0.21577641852E+03  0.12177356959E+03  0.24785165706E+03  0.00000000000E+00 0. -1.
          1    1    5    5  503    0 -0.12167849903E+03 -0.30391002025E+03  0.38833864956E+02  0.32965895499E+03  0.00000000000E+00 0. -1.
         -4    1    5    5    0  503 -0.13855997991E+03 -0.18385896555E+03  0.58080307012E+02  0.23743695860E+03  0.00000000000E+00 0.  1.
         -3    1    6    6    0  502  0.57220728125E+02  0.12116888709E+03  0.11153797906E+03  0.17434687177E+03  0.00000000000E+00 0.  1.
<mgrwt>
<rscale>  0 0.12031426E+04</rscale>
<asrwt>0</asrwt>
<pdfrwt beam="1">  1        2 0.13808977E+00 0.12031426E+04</pdfrwt>
<pdfrwt beam="2">  1       -2 0.62027744E-01 0.12031426E+04</pdfrwt>
<totfact> 0.70093486E+01</totfact>
</mgrwt>
</event>
<event>
12    1  0.2433511E-007  0.1979410E+04  0.7818608E-02  0.8616308E-01
          1   -1    0    0  501    0  0.00000000000E+00  0.00000000000E+00  0.76092134860E+03  0.76092134860E+03  0.00000000000E+00 0. -1.
         -1   -1    0    0    0  501 -0.00000000000E+00 -0.00000000000E+00 -0.12872767519E+04  0.12872767519E+04  0.00000000000E+00 0.  1.
         23    2    1    2    0    0 -0.59078547667E+03  0.10050477804E+03 -0.72766069696E+03  0.94690353418E+03  0.89484765779E+02 0.  0.
        254    2    1    2    0    0  0.59078547667E+03 -0.10050477804E+03  0.20130529369E+03  0.11012945663E+04  0.90177447881E+03 0.  0.
        -24    2    4    4    0    0  0.29827233507E+03 -0.28501749074E+03  0.48876141352E+03  0.64474675571E+03  0.81297624520E+02 0.  0.
         24    2    4    4    0    0  0.29251314159E+03  0.18451271270E+03 -0.28745611984E+03  0.45654781059E+03  0.78714695987E+02 0.  0.
         13    1    3    3    0    0 -0.27648801486E+02  0.26194507810E+01 -0.10179654263E+02  0.29579437232E+02  0.00000000000E+00 0. -1.
        -13    1    3    3    0    0 -0.56313667518E+03  0.97885327259E+02 -0.71748104269E+03  0.91732409695E+03  0.00000000000E+00 0.  1.
          4    1    6    6  502    0  0.56317375174E+02  0.76038177239E+02 -0.82716878742E+02  0.12568028156E+03  0.00000000000E+00 0. -1.
          3    1    5    5  503    0  0.15564338421E+03 -0.12142697993E+03  0.17872731789E+03  0.26629462755E+03  0.00000000000E+00 0. -1.
         -4    1    5    5    0  503  0.14262895086E+03 -0.16359051081E+03  0.31003409564E+03  0.37845212816E+03  0.00000000000E+00 0.  1.
         -3    1    6    6    0  502  0.23619576642E+03  0.10847453546E+03 -0.20473924110E+03  0.33086752902E+03  0.00000000000E+00 0.  1.
<mgrwt>
<rscale>  0 0.19794104E+04</rscale>
<asrwt>0</asrwt>
<pdfrwt beam="1">  1        1 0.11706482E+00 0.19794104E+04</pdfrwt>
<pdfrwt beam="2">  1       -1 0.19804258E+00 0.19794104E+04</pdfrwt>
<totfact> 0.34544193E+00</totfact>
</mgrwt>
</event>
<event>
12    1  0.2433511E-007  0.2213590E+04  0.7818608E-02  0.8512793E-01
         -1   -1    0    0    0  501 -0.00000000000E+00  0.00000000000E+00  0.60355501146E+03  0.60355501146E+03  0.00000000000E+00 0.  1.
          1   -1    0    0  501    0  0.00000000000E+00 -0.00000000000E+00 -0.20296334462E+04  0.20296334462E+04  0.00000000000E+00 0. -1.
         23    2    1    2    0    0 -0.89753069397E+03 -0.17265830373E+03 -0.74119232454E+03  0.11789098443E+04  0.71345095673E+02 0.  0.
        254    2    1    2    0    0  0.89753069397E+03  0.17265830373E+03 -0.68488611014E+03  0.14542786133E+04  0.90026944004E+03 0.  0.
        -24    2    4    4    0    0  0.56609104459E+03  0.35663558111E+03 -0.80464514898E+03  0.10489305237E+04  0.71787319578E+02 0.  0.
         24    2    4    4    0    0  0.33143964938E+03 -0.18397727738E+03  0.11975903883E+03  0.40534808958E+03  0.79151541850E+02 0.  0.
         13    1    3    3    0    0 -0.56725833011E+03 -0.14379645395E+03 -0.46811965136E+03  0.74939671819E+03  0.00000000000E+00 0.  1.
        -13    1    3    3    0    0 -0.33027236386E+03 -0.28861849787E+02 -0.27307267318E+03  0.42951312616E+03  0.00000000000E+00 0. -1.
          2    1    6    6  502    0  0.26895404949E+03 -0.17506797448E+03  0.11888007815E+03  0.34222441381E+03  0.00000000000E+00 0. -1.
          3    1    5    5  503    0  0.35124847699E+03  0.18252201553E+03 -0.45316617646E+03  0.60170537826E+03  0.00000000000E+00 0. -1.
         -4    1    5    5    0  503  0.21484256760E+03  0.17411356558E+03 -0.35147897252E+03  0.44722514542E+03  0.00000000000E+00 0.  1.
         -1    1    6    6    0  502  0.62485599891E+02 -0.89093028976E+01  0.87896067998E+00  0.63123675778E+02  0.00000000000E+00 0.  1.
<mgrwt>
<rscale>  0 0.22135902E+04</rscale>
<asrwt>0</asrwt>
<pdfrwt beam="1">  1        1 0.31225130E+00 0.22135902E+04</pdfrwt>
<pdfrwt beam="2">  1       -1 0.92854616E-01 0.22135902E+04</pdfrwt>
<totfact> 0.29193555E+00</totfact>
</mgrwt>
</event>
<event>
12    1  0.2433511E-007  0.1518456E+04  0.7818608E-02  0.8872272E-01
          1   -1    0    0  501    0  0.00000000000E+00  0.00000000000E+00  0.98276340257E+03  0.98276340257E+03  0.00000000000E+00 0. -1.
         -1   -1    0    0    0  501 -0.00000000000E+00 -0.00000000000E+00 -0.58653692320E+03  0.58653692320E+03  0.00000000000E+00 0.  1.
         23    2    1    2    0    0  0.47781974128E+03 -0.33536084565E+01  0.24373598019E+03  0.54403504333E+03  0.90796191993E+02 0.  0.
        254    2    1    2    0    0 -0.47781974128E+03  0.33536084565E+01  0.15249049918E+03  0.10252652824E+04  0.89419941578E+03 0.  0.
        -24    2    4    4    0    0 -0.29025921471E+03  0.21144708144E+03 -0.30791035405E+03  0.48052395803E+03  0.84464241752E+02 0.  0.
         24    2    4    4    0    0 -0.18756052657E+03 -0.20809347298E+03  0.46040085323E+03  0.54474132441E+03  0.79324146611E+02 0.  0.
         11    1    3    3    0    0  0.17999813581E+03  0.39486485423E+02  0.11138645907E+03  0.21532639107E+03  0.00000000000E+00 0. -1.
        -11    1    3    3    0    0  0.29782160547E+03 -0.42840093879E+02  0.13234952112E+03  0.32870865225E+03  0.00000000000E+00 0.  1.
          2    1    6    6  502    0 -0.79082130638E+02 -0.12456036518E+03  0.29647714085E+03  0.33116153612E+03  0.00000000000E+00 0. -1.
          1    1    5    5  503    0 -0.14573050969E+03  0.61692486590E+02 -0.10541798161E+03  0.19014808756E+03  0.00000000000E+00 0. -1.
         -4    1    5    5    0  503 -0.14452870502E+03  0.14975459485E+03 -0.20249237244E+03  0.29037587047E+03  0.00000000000E+00 0.  1.
         -1    1    6    6    0  502 -0.10847839593E+03 -0.83533107807E+02  0.16392371238E+03  0.21357978829E+03  0.00000000000E+00 0.  1.
<mgrwt>
<rscale>  0 0.15184558E+04</rscale>
<asrwt>0</asrwt>
<pdfrwt beam="1">  1        1 0.15119437E+00 0.15184558E+04</pdfrwt>
<pdfrwt beam="2">  1       -1 0.90236450E-01 0.15184558E+04</pdfrwt>
<totfact> 0.18112838E+01</totfact>
</mgrwt>
</event>
<event>
12    1  0.2433511E-007  0.1162155E+04  0.7818608E-02  0.9146643E-01
          2   -1    0    0  501    0  0.00000000000E+00  0.00000000000E+00  0.23475178719E+04  0.23475178719E+04  0.00000000000E+00 0. -1.
         -2   -1    0    0    0  501 -0.00000000000E+00 -0.00000000000E+00 -0.14383313699E+03  0.14383313699E+03  0.00000000000E+00 0.  1.
         23    2    1    2    0    0 -0.83252783465E+02  0.17746334400E+03  0.65461440253E+03  0.68970790411E+03  0.93555932899E+02 0.  0.
        254    2    1    2    0    0  0.83252783465E+02 -0.17746334400E+03  0.15490703323E+04  0.18016431047E+04  0.89881851219E+03 0.  0.
        -24    2    4    4    0    0  0.11910589437E+03 -0.52679513662E+03  0.77908592548E+03  0.95137568405E+03  0.80258849286E+02 0.  0.
         24    2    4    4    0    0 -0.35853110902E+02  0.34933179262E+03  0.76998440686E+03  0.85026742068E+03  0.82222581811E+02 0.  0.
         13    1    3    3    0    0  0.32936174609E+01  0.21342851805E+02  0.20222200718E+03  0.20337184030E+03  0.00000000000E+00 0. -1.
        -13    1    3    3    0    0 -0.86546400926E+02  0.15612049219E+03  0.45239239535E+03  0.48633606381E+03  0.00000000000E+00 0.  1.
          2    1    6    6  502    0 -0.25130841729E+02  0.21876728087E+03  0.57141304714E+03  0.61237533656E+03  0.00000000000E+00 0. -1.
          1    1    5    5  503    0  0.51837808919E+02 -0.20221602060E+03  0.23558693426E+03  0.31476925043E+03  0.00000000000E+00 0. -1.
         -2    1    5    5    0  503  0.67268085447E+02 -0.32457911601E+03  0.54349899123E+03  0.63660643363E+03  0.00000000000E+00 0.  1.
         -1    1    6    6    0  502 -0.10722269172E+02  0.13056451174E+03  0.19857135972E+03  0.23789208412E+03  0.00000000000E+00 0.  1.
<mgrwt>
<rscale>  0 0.11621547E+04</rscale>
<asrwt>0</asrwt>
<pdfrwt beam="1">  1        2 0.36115657E+00 0.11621547E+04</pdfrwt>
<pdfrwt beam="2">  1       -2 0.22128177E-01 0.11621547E+04</pdfrwt>
<totfact> 0.75683669E+01</totfact>
</mgrwt>
</event>
<event>
12    1  0.2433511E-007  0.2188807E+04  0.7818608E-02  0.8523101E-01
          1   -1    0    0  501    0  0.00000000000E+00  0.00000000000E+00  0.18036523163E+04  0.18036523163E+04  0.00000000000E+00 0. -1.
         -1   -1    0    0    0  501 -0.00000000000E+00 -0.00000000000E+00 -0.66405187120E+03  0.66405187120E+03  0.00000000000E+00 0.  1.
         23    2    1    2    0    0  0.24102945884E+03  0.10086627242E+03  0.14545457991E+04  0.14805274928E+04  0.89381039794E+02 0.  0.
        254    2    1    2    0    0 -0.24102945884E+03 -0.10086627242E+03 -0.31494535395E+03  0.98717669476E+03  0.89836409421E+03 0.  0.
        -24    2    4    4    0    0 -0.51947189321E+03 -0.27538855574E+03 -0.16192114053E+03  0.61538986124E+03  0.82439802857E+02 0.  0.
         24    2    4    4    0    0  0.27844243437E+03  0.17452228332E+03 -0.15302421342E+03  0.37178683352E+03  0.82588274308E+02 0.  0.
         13    1    3    3    0    0  0.13926338754E+03  0.86211242495E+02  0.69412456456E+03  0.71318691839E+03  0.00000000000E+00 0.  1.
        -13    1    3    3    0    0  0.10176607130E+03  0.14655029926E+02  0.76042123454E+03  0.76734057439E+03  0.00000000000E+00 0. -1.
          4    1    6    6  502    0  0.26582158204E+03  0.17965139926E+03 -0.15754910048E+03  0.35743175264E+03  0.00000000000E+00 0. -1.
          3    1    5    5  503    0 -0.46621469688E+03 -0.24034333526E+03 -0.11702912772E+03  0.53741685788E+03  0.00000000000E+00 0. -1.
         -4    1    5    5    0  503 -0.53257196328E+02 -0.35045220470E+02 -0.44892012811E+02  0.77973003358E+02  0.00000000000E+00 0.  1.
         -3    1    6    6    0  502  0.12620852337E+02 -0.51291159457E+01  0.45248870649E+01  0.14355080879E+02  0.00000000000E+00 0.  1.
<mgrwt>
<rscale>  0 0.21888067E+04</rscale>
<asrwt>0</asrwt>
<pdfrwt beam="1">  1        1 0.27748497E+00 0.21888067E+04</pdfrwt>
<pdfrwt beam="2">  1       -1 0.10216183E+00 0.21888067E+04</pdfrwt>
<totfact> 0.33536731E+00</totfact>
</mgrwt>
</event>
<event>
12    1  0.2433511E-007  0.2884581E+04  0.7818608E-02  0.8277480E-01
         -3   -1    0    0    0  501 -0.00000000000E+00  0.00000000000E+00  0.21764747224E+04  0.21764747224E+04  0.00000000000E+00 0.  1.
          3   -1    0    0  501    0  0.00000000000E+00 -0.00000000000E+00 -0.95576660860E+03  0.95576660860E+03  0.00000000000E+00 0. -1.
         23    2    1    2    0    0  0.11944103038E+02  0.12179298142E+04  0.10472611484E+04  0.16088139506E+04  0.89614289183E+02 0.  0.
        254    2    1    2    0    0 -0.11944103038E+02 -0.12179298142E+04  0.17344696547E+03  0.15234273805E+04  0.89847172458E+03 0.  0.
        -24    2    4    4    0    0 -0.27576673893E+03 -0.48862964141E+03 -0.26905876664E+03  0.62737531522E+03  0.80005909051E+02 0.  0.
         24    2    4    4    0    0  0.26382263589E+03 -0.72930017276E+03  0.44250573210E+03  0.89605206524E+03  0.74945683542E+02 0.  0.
         13    1    3    3    0    0  0.11486169858E+02  0.10609525293E+04  0.94985724134E+03  0.14240719716E+04  0.00000000000E+00 0.  1.
        -13    1    3    3    0    0  0.45793318045E+00  0.15697728491E+03  0.97403907030E+02  0.18474197894E+03  0.00000000000E+00 0. -1.
          2    1    6    6  502    0  0.12713638817E+03 -0.44200047278E+03  0.23820564687E+03  0.51794788284E+03  0.00000000000E+00 0. -1.
          1    1    5    5  503    0 -0.81230899331E+02 -0.13815144673E+03 -0.11796028813E+03  0.19899475072E+03  0.00000000000E+00 0. -1.
         -2    1    5    5    0  503 -0.19453583960E+03 -0.35047819468E+03 -0.15109847851E+03  0.42838056450E+03  0.00000000000E+00 0.  1.
         -1    1    6    6    0  502  0.13668624772E+03 -0.28729969998E+03  0.20430008523E+03  0.37810418240E+03  0.00000000000E+00 0.  1.
<mgrwt>
<rscale>  0 0.28845810E+04</rscale>
<asrwt>0</asrwt>
<pdfrwt beam="1">  1        3 0.14704102E+00 0.28845810E+04</pdfrwt>
<pdfrwt beam="2">  1       -3 0.33484226E+00 0.28845810E+04</pdfrwt>
<totfact> 0.18565754E-02</totfact>
</mgrwt>
</event>
<event>
12    1  0.2433511E-007  0.1215723E+04  0.7818608E-02  0.9099205E-01
          2   -1    0    0  501    0  0.00000000000E+00  0.00000000000E+00  0.13880544512E+04  0.13880544512E+04  0.00000000000E+00 0. -1.
         -2   -1    0    0    0  501 -0.00000000000E+00 -0.00000000000E+00 -0.26619665499E+03  0.26619665499E+03  0.00000000000E+00 0.  1.
         23    2    1    2    0    0  0.31151722047E+02 -0.19918364035E+03  0.48804427504E+03  0.53551028674E+03  0.89103874443E+02 0.  0.
        254    2    1    2    0    0 -0.31151722047E+02  0.19918364035E+03  0.63381352112E+03  0.11187408194E+04  0.89956483317E+03 0.  0.
        -24    2    4    4    0    0  0.39820223494E+03 -0.17504674022E+02  0.42534854206E+03  0.58828151118E+03  0.79261091632E+02 0.  0.
         24    2    4    4    0    0 -0.42935395698E+03  0.21668831438E+03  0.20846497906E+03  0.53045930822E+03  0.81429627397E+02 0.  0.
         11    1    3    3    0    0  0.69275001383E+01 -0.39590701453E+02  0.30881598590E+02  0.50686162127E+02  0.00000000000E+00 0.  1.
        -11    1    3    3    0    0  0.24224221909E+02 -0.15959293890E+03  0.45716267645E+03  0.48482412462E+03  0.00000000000E+00 0. -1.
          4    1    6    6  502    0 -0.21945049538E+03  0.13145524868E+03  0.14977858338E+03  0.29643317353E+03  0.00000000000E+00 0. -1.
          1    1    5    5  503    0  0.37878506819E+03 -0.34078797131E+02  0.40553388897E+03  0.55596513146E+03  0.00000000000E+00 0. -1.
         -2    1    5    5    0  503  0.19417166743E+02  0.16574123109E+02  0.19814653094E+02  0.32316379722E+02  0.00000000000E+00 0.  1.
         -3    1    6    6    0  502 -0.20990346160E+03  0.85233065699E+02  0.58686395675E+02  0.23402613469E+03  0.00000000000E+00 0.  1.
<mgrwt>
<rscale>  0 0.12157228E+04</rscale>
<asrwt>0</asrwt>
<pdfrwt beam="1">  1        2 0.21354684E+00 0.12157228E+04</pdfrwt>
<pdfrwt beam="2">  1       -2 0.40953332E-01 0.12157228E+04</pdfrwt>
<totfact> 0.81782149E+01</totfact>
</mgrwt>
</event>
<event>
12    1  0.2433511E-007  0.4348479E+04  0.7818608E-02  0.7937714E-01
          2   -1    0    0  501    0  0.00000000000E+00  0.00000000000E+00  0.24461683467E+04  0.24461683467E+04  0.00000000000E+00 0. -1.
         -2   -1    0    0    0  501 -0.00000000000E+00 -0.00000000000E+00 -0.19325394802E+04  0.19325394802E+04  0.00000000000E+00 0.  1.
         23    2    1    2    0    0 -0.18900404967E+04 -0.62853186527E+03  0.85056606042E+03  0.21677025225E+04  0.90367129586E+02 0.  0.
        254    2    1    2    0    0  0.18900404967E+04  0.62853186527E+03 -0.33693719397E+03  0.22110053044E+04  0.89872821181E+03 0.  0.
        -24    2    4    4    0    0  0.10008156217E+04  0.28213895449E+03  0.27013351798E+03  0.10773315072E+04  0.80229424382E+02 0.  0.
         24    2    4    4    0    0  0.88922487497E+03  0.34639291078E+03 -0.60707071195E+03  0.11336737972E+04  0.77281966239E+02 0.  0.
         13    1    3    3    0    0 -0.10912044500E+04 -0.38003610912E+03  0.53838654828E+03  0.12747606329E+04  0.00000000000E+00 0. -1.
        -13    1    3    3    0    0 -0.79883604671E+03 -0.24849575615E+03  0.31217951214E+03  0.89294188957E+03  0.00000000000E+00 0.  1.
          2    1    6    6  502    0  0.33710250679E+03  0.13000069843E+03 -0.18594515691E+03  0.40634207640E+03  0.00000000000E+00 0. -1.
          3    1    5    5  503    0  0.15608413589E+03  0.16577858730E+02  0.29287826036E+02  0.15967109829E+03  0.00000000000E+00 0. -1.
         -4    1    5    5    0  503  0.84473148583E+03  0.26556109575E+03  0.24084569195E+03  0.91766040890E+03  0.00000000000E+00 0.  1.
         -1    1    6    6    0  502  0.55212236818E+03  0.21639221235E+03 -0.42112555503E+03  0.72733172082E+03  0.00000000000E+00 0.  1.
<mgrwt>
<rscale>  0 0.43484788E+04</rscale>
<asrwt>0</asrwt>
<pdfrwt beam="1">  1        2 0.37633359E+00 0.43484788E+04</pdfrwt>
<pdfrwt beam="2">  1       -2 0.29731376E+00 0.43484788E+04</pdfrwt>
<totfact> 0.94691696E-02</totfact>
</mgrwt>
</event>
<event>
12    1  0.2433511E-007  0.3404744E+04  0.7818608E-02  0.8136743E-01
         -2   -1    0    0    0  501 -0.00000000000E+00  0.00000000000E+00  0.10209092759E+04  0.10209092759E+04  0.00000000000E+00 0.  1.
          2   -1    0    0  501    0  0.00000000000E+00 -0.00000000000E+00 -0.28387149221E+04  0.28387149221E+04  0.00000000000E+00 0. -1.
         23    2    1    2    0    0 -0.14972000349E+04 -0.25894947540E+03 -0.13449620732E+04  0.20312910483E+04  0.92507129144E+02 0.  0.
        254    2    1    2    0    0  0.14972000349E+04  0.25894947540E+03 -0.47284357292E+03  0.18283331498E+04  0.90031010582E+03 0.  0.
        -24    2    4    4    0    0  0.13556969509E+04  0.13137006448E+03 -0.59730685328E+02  0.13657188370E+04  0.80298632812E+02 0.  0.
         24    2    4    4    0    0  0.14150308407E+03  0.12757941093E+03 -0.41311288759E+03  0.46261431280E+03  0.83964966609E+02 0.  0.
         13    1    3    3    0    0 -0.69112812979E+03 -0.12514158071E+03 -0.68298873414E+03  0.97968980702E+03  0.00000000000E+00 0. -1.
        -13    1    3    3    0    0 -0.80607190515E+03 -0.13380789469E+03 -0.66197333911E+03  0.10516012413E+04  0.00000000000E+00 0.  1.
          4    1    6    6  502    0  0.51112954013E+02  0.93242064945E+02 -0.26710689272E+03  0.28749384147E+03  0.00000000000E+00 0. -1.
          1    1    5    5  503    0  0.91102521653E+03  0.12090378759E+03 -0.59294613245E+02  0.92092373309E+03  0.00000000000E+00 0. -1.
         -2    1    5    5    0  503  0.44467173434E+03  0.10466276888E+02 -0.43607208234E+00  0.44479510388E+03  0.00000000000E+00 0.  1.
         -3    1    6    6    0  502  0.90390130053E+02  0.34337345981E+02 -0.14600599487E+03  0.17512047133E+03  0.00000000000E+00 0.  1.
<mgrwt>
<rscale>  0 0.34047440E+04</rscale>
<asrwt>0</asrwt>
<pdfrwt beam="1">  1        2 0.43672537E+00 0.34047440E+04</pdfrwt>
<pdfrwt beam="2">  1       -2 0.15706297E+00 0.34047440E+04</pdfrwt>
<totfact> 0.48027800E-01</totfact>
</mgrwt>
</event>
<event>
12    1  0.2433511E-007  0.4671323E+04  0.7818608E-02  0.7881311E-01
          2   -1    0    0  501    0  0.00000000000E+00  0.00000000000E+00  0.37075462888E+04  0.37075462888E+04  0.00000000000E+00 0. -1.
         -2   -1    0    0    0  501 -0.00000000000E+00 -0.00000000000E+00 -0.14714083160E+04  0.14714083160E+04  0.00000000000E+00 0.  1.
         23    2    1    2    0    0 -0.16734979080E+04 -0.70744986910E+02 -0.58498329188E+03  0.17767828960E+04  0.95665596926E+02 0.  0.
        254    2    1    2    0    0  0.16734979080E+04  0.70744986910E+02  0.28211212647E+04  0.34021717088E+04  0.90024832404E+03 0.  0.
        -24    2    4    4    0    0  0.13393773072E+04  0.74281097358E+02  0.27324038588E+04  0.30449700908E+04  0.79766872567E+02 0.  0.
         24    2    4    4    0    0  0.33412060074E+03 -0.35361104480E+01  0.88717405963E+02  0.35720161803E+03  0.89850642089E+02 0.  0.
         11    1    3    3    0    0 -0.96269364871E+03 -0.49019941713E+02 -0.38579389754E+03  0.10382769126E+04  0.00000000000E+00 0.  1.
        -11    1    3    3    0    0 -0.71080425927E+03 -0.21725045197E+02 -0.19918939434E+03  0.73850598332E+03  0.00000000000E+00 0. -1.
          4    1    6    6  502    0  0.38695625479E+02 -0.86712219971E+01  0.42520494703E+02  0.58142359703E+02  0.00000000000E+00 0. -1.
          1    1    5    5  503    0  0.16596591963E+03  0.21840474242E+01  0.39888684077E+03  0.43204185941E+03  0.00000000000E+00 0. -1.
         -2    1    5    5    0  503  0.11734113876E+04  0.72097049934E+02  0.23335170180E+04  0.26129282314E+04  0.00000000000E+00 0.  1.
         -3    1    6    6    0  502  0.29542497526E+03  0.51351115491E+01  0.46196911260E+02  0.29905925832E+03  0.00000000000E+00 0.  1.
<mgrwt>
<rscale>  0 0.46713229E+04</rscale>
<asrwt>0</asrwt>
<pdfrwt beam="1">  1        2 0.57039173E+00 0.46713229E+04</pdfrwt>
<pdfrwt beam="2">  1       -2 0.22637051E+00 0.46713229E+04</pdfrwt>
<totfact> 0.38690011E-02</totfact>
</mgrwt>
</event>
<event>
12    1  0.2433511E-007  0.1213130E+04  0.7818608E-02  0.9101441E-01
          1   -1    0    0  501    0  0.00000000000E+00  0.00000000000E+00  0.21913816403E+04  0.21913816403E+04  0.00000000000E+00 0. -1.
         -1   -1    0    0    0  501 -0.00000000000E+00 -0.00000000000E+00 -0.16789444261E+03  0.16789444261E+03  0.00000000000E+00 0.  1.
         23    2    1    2    0    0  0.55198340446E+02  0.24886738977E+03  0.54923970980E+03  0.61214384791E+03  0.89855424080E+02 0.  0.
        254    2    1    2    0    0 -0.55198340446E+02 -0.24886738977E+03  0.14742474879E+04  0.17471322350E+04  0.90226579042E+03 0.  0.
        -24    2    4    4    0    0  0.92607032469E+02  0.78655110271E+02  0.13510188444E+04  0.13588107304E+04  0.79699399177E+02 0.  0.
         24    2    4    4    0    0 -0.14780537292E+03 -0.32752250004E+03  0.12322864345E+03  0.38832150459E+03  0.80565973354E+02 0.  0.
         13    1    3    3    0    0  0.53895510284E+02  0.16972125465E+03  0.45773130282E+03  0.49114964714E+03  0.00000000000E+00 0. -1.
        -13    1    3    3    0    0  0.13028301619E+01  0.79146135128E+02  0.91508406980E+02  0.12099420077E+03  0.00000000000E+00 0.  1.
          4    1    6    6  502    0 -0.14968187005E+03 -0.33156897413E+03  0.12165788253E+03  0.38359260578E+03  0.00000000000E+00 0. -1.
          1    1    5    5  503    0  0.64130463152E+02  0.74398802039E+02  0.12475388647E+04  0.12513996631E+04  0.00000000000E+00 0. -1.
         -2    1    5    5    0  503  0.28476569317E+02  0.42563082316E+01  0.10347997975E+03  0.10741106726E+03  0.00000000000E+00 0.  1.
         -3    1    6    6    0  502  0.18764971342E+01  0.40464740898E+01  0.15707609226E+01  0.47288988074E+01  0.00000000000E+00 0.  1.
<mgrwt>
<rscale>  0 0.12131295E+04</rscale>
<asrwt>0</asrwt>
<pdfrwt beam="1">  1        1 0.33713562E+00 0.12131295E+04</pdfrwt>
<pdfrwt beam="2">  1       -1 0.25829916E-01 0.12131295E+04</pdfrwt>
<totfact> 0.29004556E+01</totfact>
</mgrwt>
</event>
<event>
12    1  0.2433511E-007  0.2092848E+04  0.7818608E-02  0.8564401E-01
          1   -1    0    0  501    0  0.00000000000E+00  0.00000000000E+00  0.18814978700E+04  0.18814978700E+04  0.00000000000E+00 0. -1.
         -1   -1    0    0    0  501 -0.00000000000E+00 -0.00000000000E+00 -0.58198469434E+03  0.58198469434E+03  0.00000000000E+00 0.  1.
         23    2    1    2    0    0  0.28730408177E+02  0.77571749481E+03  0.93542747920E+03  0.12203085235E+04  0.10754187868E+03 0.  0.
        254    2    1    2    0    0 -0.28730408177E+02 -0.77571749481E+03  0.36408569645E+03  0.12431740408E+04  0.90020010733E+03 0.  0.
        -24    2    4    4    0    0 -0.39092968442E+03 -0.70637530639E+03  0.26073680569E+03  0.85191036208E+03  0.77301303612E+02 0.  0.
         24    2    4    4    0    0  0.36219927625E+03 -0.69342188425E+02  0.10334889077E+03  0.39126367872E+03  0.80060091497E+02 0.  0.
         13    1    3    3    0    0  0.44902448781E+02  0.32849372909E+03  0.46418556496E+03  0.57043194045E+03  0.00000000000E+00 0.  1.
        -13    1    3    3    0    0 -0.16172040604E+02  0.44722376572E+03  0.47124191424E+03  0.64987658309E+03  0.00000000000E+00 0. -1.
          2    1    6    6  502    0  0.31224796483E+03 -0.31398288881E+02  0.76382545842E+02  0.32298442284E+03  0.00000000000E+00 0. -1.
          1    1    5    5  503    0 -0.49670130458E+02 -0.14394253044E+03  0.64789507919E+02  0.16548188500E+03  0.00000000000E+00 0. -1.
         -2    1    5    5    0  503 -0.34125955397E+03 -0.56243277595E+03  0.19594729777E+03  0.68642847707E+03  0.00000000000E+00 0.  1.
         -1    1    6    6    0  502  0.49951311412E+02 -0.37943899544E+02  0.26966344924E+02  0.68279255876E+02  0.00000000000E+00 0.  1.
<mgrwt>
<rscale>  0 0.20928478E+04</rscale>
<asrwt>0</asrwt>
<pdfrwt beam="1">  1        1 0.28946121E+00 0.20928478E+04</pdfrwt>
<pdfrwt beam="2">  1       -1 0.89536108E-01 0.20928478E+04</pdfrwt>
<totfact> 0.40318273E+00</totfact>
</mgrwt>
</event>
<event>
12    1  0.2433511E-007  0.1782224E+04  0.7818608E-02  0.8715810E-01
          2   -1    0    0  501    0  0.00000000000E+00  0.00000000000E+00  0.25001995761E+04  0.25001995761E+04  0.00000000000E+00 0. -1.
         -2   -1    0    0    0  501 -0.00000000000E+00 -0.00000000000E+00 -0.31760701245E+03  0.31760701245E+03  0.00000000000E+00 0.  1.
         23    2    1    2    0    0 -0.57362726586E+03 -0.34424965598E+03  0.92210721265E+03  0.11428402529E+04  0.90807853808E+02 0.  0.
        254    2    1    2    0    0  0.57362726586E+03  0.34424965598E+03  0.12604853510E+04  0.16749663356E+04  0.87700218907E+03 0.  0.
        -24    2    4    4    0    0  0.14556718085E+03  0.29785692521E+02 -0.11193948548E+03  0.20117204650E+03  0.76568611479E+02 0.  0.
         24    2    4    4    0    0  0.42806008501E+03  0.31446396346E+03  0.13724248365E+04  0.14737942891E+04  0.79979086069E+02 0.  0.
         11    1    3    3    0    0 -0.14121459994E+03 -0.74996007869E+02  0.16023964402E+03  0.22636852244E+03  0.00000000000E+00 0.  1.
        -11    1    3    3    0    0 -0.43241266591E+03 -0.26925364811E+03  0.76186756863E+03  0.91647173049E+03  0.00000000000E+00 0. -1.
          4    1    6    6  502    0  0.94156125404E+02  0.77991799863E+02  0.23292951544E+03  0.26306701800E+03  0.00000000000E+00 0. -1.
          1    1    5    5  503    0  0.11212058813E+02  0.25336975318E+02 -0.40130138928E+02  0.48765773156E+02  0.00000000000E+00 0. -1.
         -2    1    5    5    0  503  0.13435512204E+03  0.44487172031E+01 -0.71809346548E+02  0.15240627334E+03  0.00000000000E+00 0.  1.
         -3    1    6    6    0  502  0.33390395960E+03  0.23647216360E+03  0.11394953210E+04  0.12107272711E+04  0.00000000000E+00 0.  1.
<mgrwt>
<rscale>  0 0.17822244E+04</rscale>
<asrwt>0</asrwt>
<pdfrwt beam="1">  1        2 0.38464608E+00 0.17822244E+04</pdfrwt>
<pdfrwt beam="2">  1       -2 0.48862619E-01 0.17822244E+04</pdfrwt>
<totfact> 0.13065327E+01</totfact>
</mgrwt>
</event>
<event>
12    1  0.2433511E-007  0.2092006E+04  0.7818608E-02  0.8564773E-01
         -2   -1    0    0    0  501 -0.00000000000E+00  0.00000000000E+00  0.67357665914E+03  0.67357665914E+03  0.00000000000E+00 0.  1.
          2   -1    0    0  501    0  0.00000000000E+00 -0.00000000000E+00 -0.16243473753E+04  0.16243473753E+04  0.00000000000E+00 0. -1.
         23    2    1    2    0    0 -0.65858244919E+03 -0.52825887133E+03 -0.48954060324E+03  0.98035010882E+03  0.92994925356E+02 0.  0.
        254    2    1    2    0    0  0.65858244919E+03  0.52825887133E+03 -0.46123011292E+03  0.13175739256E+04  0.90026637995E+03 0.  0.
        -24    2    4    4    0    0  0.73186494819E+03  0.38132512573E+03 -0.65081666968E+03  0.10540648798E+04  0.80344753072E+02 0.  0.
         24    2    4    4    0    0 -0.73282499005E+02  0.14693374559E+03  0.18958655676E+03  0.26350904583E+03  0.80833807761E+02 0.  0.
         13    1    3    3    0    0 -0.34203611285E+03 -0.31370587267E+03 -0.30821161753E+03  0.55713057556E+03  0.00000000000E+00 0. -1.
        -13    1    3    3    0    0 -0.31654633633E+03 -0.21455299866E+03 -0.18132898570E+03  0.42321953326E+03  0.00000000000E+00 0.  1.
          2    1    6    6  502    0 -0.71898333514E+02  0.11686134647E+03  0.10221326227E+03  0.17109499012E+03  0.00000000000E+00 0. -1.
          1    1    5    5  503    0  0.22982755177E+03  0.10476625015E+03 -0.15614491574E+03  0.29694764763E+03  0.00000000000E+00 0. -1.
         -2    1    5    5    0  503  0.50203739642E+03  0.27655887559E+03 -0.49467175394E+03  0.75711723215E+03  0.00000000000E+00 0.  1.
         -1    1    6    6    0  502 -0.13841654907E+01  0.30072399124E+02  0.87373294486E+02  0.92414055709E+02  0.00000000000E+00 0.  1.
<mgrwt>
<rscale>  0 0.20920062E+04</rscale>
<asrwt>0</asrwt>
<pdfrwt beam="1">  1        2 0.24989959E+00 0.20920062E+04</pdfrwt>
<pdfrwt beam="2">  1       -2 0.10362718E+00 0.20920062E+04</pdfrwt>
<totfact> 0.75616585E+00</totfact>
</mgrwt>
</event>
<event>
12    1  0.2433511E-007  0.1732696E+04  0.7818608E-02  0.8742933E-01
          2   -1    0    0  501    0  0.00000000000E+00  0.00000000000E+00  0.51581755397E+03  0.51581755397E+03  0.00000000000E+00 0. -1.
         -2   -1    0    0    0  501 -0.00000000000E+00 -0.00000000000E+00 -0.14550860542E+04  0.14550860542E+04  0.00000000000E+00 0.  1.
         23    2    1    2    0    0 -0.46559351235E+03  0.88090718112E+02 -0.81302872954E+03  0.94567787795E+03  0.93560891596E+02 0.  0.
        254    2    1    2    0    0  0.46559351235E+03 -0.88090718112E+02 -0.12623977073E+03  0.10252257303E+04  0.90034106034E+03 0.  0.
        -24    2    4    4    0    0 -0.86047998242E+02  0.14967847738E+03 -0.33435402112E+03  0.38463183373E+03  0.79631221804E+02 0.  0.
         24    2    4    4    0    0  0.55164151059E+03 -0.23776919550E+03  0.20811425038E+03  0.64059389654E+03  0.78781041748E+02 0.  0.
         11    1    3    3    0    0 -0.42178236929E+03  0.84438021599E+02 -0.77979232710E+03  0.89056511269E+03  0.00000000000E+00 0.  1.
        -11    1    3    3    0    0 -0.43811143061E+02  0.36526965129E+01 -0.33236402440E+02  0.55112765266E+02  0.00000000000E+00 0. -1.
          2    1    6    6  502    0  0.15271575536E+03 -0.51917690468E+02  0.22112594626E+02  0.16280821650E+03  0.00000000000E+00 0. -1.
          1    1    5    5  503    0 -0.69731250577E+02  0.42719254084E+02 -0.15167738166E+03  0.17231775905E+03  0.00000000000E+00 0. -1.
         -2    1    5    5    0  503 -0.16316747665E+02  0.10695922330E+03 -0.18267663946E+03  0.21231407468E+03  0.00000000000E+00 0.  1.
         -1    1    6    6    0  502  0.39892575523E+03 -0.18585150503E+03  0.18600165576E+03  0.47778568004E+03  0.00000000000E+00 0.  1.
<mgrwt>
<rscale>  0 0.17326961E+04</rscale>
<asrwt>0</asrwt>
<pdfrwt beam="1">  1        2 0.79356549E-01 0.17326961E+04</pdfrwt>
<pdfrwt beam="2">  1       -2 0.22385939E+00 0.17326961E+04</pdfrwt>
<totfact> 0.52625286E+00</totfact>
</mgrwt>
</event>
<event>
12    1  0.2433511E-007  0.1204970E+04  0.7818608E-02  0.9108518E-01
          2   -1    0    0  501    0  0.00000000000E+00  0.00000000000E+00  0.26891341092E+04  0.26891341092E+04  0.00000000000E+00 0. -1.
         -2   -1    0    0    0  501 -0.00000000000E+00 -0.00000000000E+00 -0.13498321514E+03  0.13498321514E+03  0.00000000000E+00 0.  1.
         23    2    1    2    0    0 -0.14254220215E+03 -0.19386455342E+03  0.76256870483E+03  0.80487560999E+03  0.91716811468E+02 0.  0.
        254    2    1    2    0    0  0.14254220215E+03  0.19386455342E+03  0.17915821893E+04  0.20192417144E+04  0.89981587880E+03 0.  0.
        -24    2    4    4    0    0  0.43580317428E+03  0.75286360215E+02  0.44002638440E+03  0.62888375494E+03  0.79240870222E+02 0.  0.
         24    2    4    4    0    0 -0.29326097213E+03  0.11857819321E+03  0.13515558049E+04  0.13903579595E+04  0.79557375732E+02 0.  0.
         13    1    3    3    0    0 -0.14347576085E+03 -0.14414146035E+03  0.54539704792E+03  0.58208246359E+03  0.00000000000E+00 0.  1.
        -13    1    3    3    0    0  0.93355870375E+00 -0.49723093078E+02  0.21717165691E+03  0.22279314640E+03  0.00000000000E+00 0. -1.
          4    1    6    6  502    0 -0.25041702896E+03  0.10213677284E+03  0.12499010527E+04  0.12788249490E+04  0.00000000000E+00 0. -1.
          3    1    5    5  503    0  0.35825975467E+03  0.31663628380E+02  0.36609892181E+03  0.51320664233E+03  0.00000000000E+00 0. -1.
         -4    1    5    5    0  503  0.77543419612E+02  0.43622731835E+02  0.73927462585E+02  0.11567711261E+03  0.00000000000E+00 0.  1.
         -3    1    6    6    0  502 -0.42843943172E+02  0.16441420367E+02  0.10165475218E+03  0.11153301041E+03  0.00000000000E+00 0.  1.
<mgrwt>
<rscale>  0 0.12049697E+04</rscale>
<asrwt>0</asrwt>
<pdfrwt beam="1">  1        2 0.41371290E+00 0.12049697E+04</pdfrwt>
<pdfrwt beam="2">  1       -2 0.20766650E-01 0.12049697E+04</pdfrwt>
<totfact> 0.53664840E+01</totfact>
</mgrwt>
</event>
<event>
12    1  0.2433511E-007  0.3808427E+04  0.7818608E-02  0.8044349E-01
         -2   -1    0    0    0  501 -0.00000000000E+00  0.00000000000E+00  0.18877902864E+04  0.18877902864E+04  0.00000000000E+00 0.  1.
          2   -1    0    0  501    0  0.00000000000E+00 -0.00000000000E+00 -0.19207792874E+04  0.19207792874E+04  0.00000000000E+00 0. -1.
         23    2    1    2    0    0  0.87843779791E+03 -0.15664870245E+04 -0.70394285691E+02  0.17996647715E+04  0.91122838602E+02 0.  0.
        254    2    1    2    0    0 -0.87843779791E+03  0.15664870245E+04  0.37405284726E+02  0.20089048022E+04  0.89931350842E+03 0.  0.
        -24    2    4    4    0    0 -0.13541006677E+03  0.13805974725E+03 -0.29568845035E+03  0.36276652651E+03  0.82289203952E+02 0.  0.
         24    2    4    4    0    0 -0.74302773114E+03  0.14284272773E+04  0.33309373508E+03  0.16461382757E+04  0.79530439820E+02 0.  0.
         13    1    3    3    0    0  0.50820952853E+03 -0.82924210319E+03 -0.12721454027E+02  0.97266706842E+03  0.00000000000E+00 0.  1.
        -13    1    3    3    0    0  0.37022826938E+03 -0.73724492132E+03 -0.57672831664E+02  0.82699770312E+03  0.00000000000E+00 0. -1.
          2    1    6    6  502    0 -0.35890669343E+03  0.68748912909E+03  0.11989241456E+03  0.78474805401E+03  0.00000000000E+00 0. -1.
          1    1    5    5  503    0 -0.45022921227E+02  0.22989053975E+02 -0.14121901077E+03  0.14999456337E+03  0.00000000000E+00 0. -1.
         -2    1    5    5    0  503 -0.90387145542E+02  0.11507069328E+03 -0.15446943959E+03  0.21277196314E+03  0.00000000000E+00 0.  1.
         -1    1    6    6    0  502 -0.38412103771E+03  0.74093814817E+03  0.21320132052E+03  0.86139022173E+03  0.00000000000E+00 0.  1.
<mgrwt>
<rscale>  0 0.38084267E+04</rscale>
<asrwt>0</asrwt>
<pdfrwt beam="1">  1        2 0.29550450E+00 0.38084267E+04</pdfrwt>
<pdfrwt beam="2">  1       -2 0.29042928E+00 0.38084267E+04</pdfrwt>
<totfact> 0.21548616E-01</totfact>
</mgrwt>
</event>
<event>
12    1  0.2433511E-007  0.2942947E+04  0.7818608E-02  0.8260213E-01
          1   -1    0    0  501    0  0.00000000000E+00  0.00000000000E+00  0.22644017989E+04  0.22644017989E+04  0.00000000000E+00 0. -1.
         -1   -1    0    0    0  501 -0.00000000000E+00 -0.00000000000E+00 -0.95620615938E+03  0.95620615938E+03  0.00000000000E+00 0.  1.
         23    2    1    2    0    0 -0.11584855713E+04 -0.62593964522E+03  0.81292010858E+03  0.15513153476E+04  0.10886205136E+03 0.  0.
        254    2    1    2    0    0  0.11584855713E+04  0.62593964522E+03  0.49527553091E+03  0.16692926107E+04  0.89852696679E+03 0.  0.
        -24    2    4    4    0    0  0.12375964537E+04  0.68596152152E+03  0.32103707029E+03  0.14532458594E+04  0.81673349716E+02 0.  0.
         24    2    4    4    0    0 -0.79110882395E+02 -0.60021876304E+02  0.17423846062E+03  0.21604675127E+03  0.80349239115E+02 0.  0.
         11    1    3    3    0    0 -0.59853536926E+03 -0.28074348132E+03  0.45376961835E+03  0.80185307700E+03  0.00000000000E+00 0. -1.
        -11    1    3    3    0    0 -0.55995020208E+03 -0.34519616390E+03  0.35915049023E+03  0.74946227058E+03  0.00000000000E+00 0.  1.
          2    1    6    6  502    0 -0.85920151367E+02 -0.71883071232E+02  0.16538683633E+03  0.19975548546E+03  0.00000000000E+00 0. -1.
          1    1    5    5  503    0  0.57263015838E+03  0.36099125954E+03  0.13849978295E+03  0.69094296265E+03  0.00000000000E+00 0. -1.
         -2    1    5    5    0  503  0.66496629535E+03  0.32497026198E+03  0.18253728735E+03  0.76230289675E+03  0.00000000000E+00 0.  1.
         -1    1    6    6    0  502  0.68092689720E+01  0.11861194928E+02  0.88516242919E+01  0.16291265809E+02  0.00000000000E+00 0.  1.
<mgrwt>
<rscale>  0 0.29429475E+04</rscale>
<asrwt>0</asrwt>
<pdfrwt beam="1">  1        1 0.34836951E+00 0.29429475E+04</pdfrwt>
<pdfrwt beam="2">  1       -1 0.14710864E+00 0.29429475E+04</pdfrwt>
<totfact> 0.61882237E-01</totfact>
</mgrwt>
</event>
<event>
12    1  0.2433511E-007  0.1246501E+04  0.7818608E-02  0.9073101E-01
         -1   -1    0    0    0  501 -0.00000000000E+00  0.00000000000E+00  0.72802085365E+03  0.72802085365E+03  0.00000000000E+00 0.  1.
          1   -1    0    0  501    0  0.00000000000E+00 -0.00000000000E+00 -0.53355742416E+03  0.53355742416E+03  0.00000000000E+00 0. -1.
         23    2    1    2    0    0 -0.24185512939E+03 -0.61287517538E+02 -0.99649466080E+02  0.28368972864E+03  0.91103142802E+02 0.  0.
        254    2    1    2    0    0  0.24185512939E+03  0.61287517538E+02  0.29411289557E+03  0.97788854917E+03  0.89861758042E+03 0.  0.
        -24    2    4    4    0    0  0.19116190326E+03  0.19193986055E+03 -0.27042100257E+03  0.39068785158E+03  0.78266821943E+02 0.  0.
         24    2    4    4    0    0  0.50693226129E+02 -0.13065234301E+03  0.56453389814E+03  0.58720069758E+03  0.80413302271E+02 0.  0.
         13    1    3    3    0    0 -0.44422695428E+02  0.15731160531E+02 -0.44251485026E+02  0.64645488688E+02  0.00000000000E+00 0. -1.
        -13    1    3    3    0    0 -0.19743243397E+03 -0.77018678068E+02 -0.55397981053E+02  0.21904423996E+03  0.00000000000E+00 0.  1.
          4    1    6    6  502    0 -0.19803156123E+02 -0.17838417271E+02  0.64885145102E+02  0.70145963377E+02  0.00000000000E+00 0. -1.
          3    1    5    5  503    0  0.54333925699E+02  0.19278841641E+02 -0.85169395280E+02  0.10284782501E+03  0.00000000000E+00 0. -1.
         -4    1    5    5    0  503  0.13682797757E+03  0.17266101890E+03 -0.18525160729E+03  0.28784002657E+03  0.00000000000E+00 0.  1.
         -3    1    6    6    0  502  0.70496382252E+02 -0.11281392574E+03  0.49964875304E+03  0.51705473421E+03  0.00000000000E+00 0.  1.
<mgrwt>
<rscale>  0 0.12465006E+04</rscale>
<asrwt>0</asrwt>
<pdfrwt beam="1">  1        1 0.82085757E-01 0.12465006E+04</pdfrwt>
<pdfrwt beam="2">  1       -1 0.11200321E+00 0.12465006E+04</pdfrwt>
<totfact> 0.29213760E+01</totfact>
</mgrwt>
</event>
<event>
12    1  0.2433511E-007  0.2612821E+04  0.7818608E-02  0.8363859E-01
          2   -1    0    0  501    0  0.00000000000E+00  0.00000000000E+00  0.37741484441E+04  0.37741484441E+04  0.00000000000E+00 0. -1.
         -2   -1    0    0    0  501 -0.00000000000E+00 -0.00000000000E+00 -0.45221012201E+03  0.45221012201E+03  0.00000000000E+00 0.  1.
         23    2    1    2    0    0  0.25613879096E+03  0.10432963469E+04  0.80496695480E+03  0.13452929872E+04  0.88131013282E+02 0.  0.
        254    2    1    2    0    0 -0.25613879096E+03 -0.10432963469E+04  0.25169713673E+04  0.28810655789E+04  0.90073284516E+03 0.  0.
        -24    2    4    4    0    0 -0.33015479865E+03 -0.96571378653E+03  0.12904916024E+04  0.16472500693E+04  0.80367321616E+02 0.  0.
         24    2    4    4    0    0  0.74016007688E+02 -0.77582560367E+02  0.12264797649E+04  0.12338155096E+04  0.80936239732E+02 0.  0.
         13    1    3    3    0    0  0.13303133254E+03  0.36881351792E+03  0.28075550466E+03  0.48222857634E+03  0.00000000000E+00 0.  1.
        -13    1    3    3    0    0  0.12310745842E+03  0.67448282898E+03  0.52421145014E+03  0.86306441090E+03  0.00000000000E+00 0. -1.
          4    1    6    6  502    0  0.25544961135E+02 -0.80922824305E+02  0.84628209032E+03  0.85052596957E+03  0.00000000000E+00 0. -1.
          3    1    5    5  503    0 -0.25809170457E+03 -0.84038031650E+03  0.11021211507E+04  0.14097948202E+04  0.00000000000E+00 0. -1.
         -4    1    5    5    0  503 -0.72063094079E+02 -0.12533347004E+03  0.18837045167E+03  0.23745524905E+03  0.00000000000E+00 0.  1.
         -3    1    6    6    0  502  0.48471046554E+02  0.33402639379E+01  0.38019767460E+03  0.38328954002E+03  0.00000000000E+00 0.  1.
<mgrwt>
<rscale>  0 0.26128208E+04</rscale>
<asrwt>0</asrwt>
<pdfrwt beam="1">  1        2 0.58063820E+00 0.26128208E+04</pdfrwt>
<pdfrwt beam="2">  1       -2 0.69570790E-01 0.26128208E+04</pdfrwt>
<totfact> 0.85659481E-01</totfact>
</mgrwt>
</event>
<event>
12    1  0.2433511E-007  0.2015814E+04  0.7818608E-02  0.8599262E-01
         -2   -1    0    0    0  501 -0.00000000000E+00  0.00000000000E+00  0.52706068520E+03  0.52706068520E+03  0.00000000000E+00 0.  1.
          2   -1    0    0  501    0  0.00000000000E+00 -0.00000000000E+00 -0.19274383902E+04  0.19274383902E+04  0.00000000000E+00 0. -1.
         23    2    1    2    0    0  0.30360670822E+03 -0.63421642464E+03 -0.86591784444E+02  0.71405464499E+03  0.89265852040E+02 0.  0.
        254    2    1    2    0    0 -0.30360670822E+03  0.63421642464E+03 -0.13137859206E+04  0.17404444304E+04  0.89928074804E+03 0.  0.
        -24    2    4    4    0    0  0.31407101367E+03  0.25039697732E+03 -0.43882169407E+03  0.59992251169E+03  0.77480920042E+02 0.  0.
         24    2    4    4    0    0 -0.61767772189E+03  0.38381944732E+03 -0.87496422649E+03  0.11405219187E+04  0.79904400492E+02 0.  0.
         11    1    3    3    0    0  0.23362625709E+03 -0.50870442878E+03 -0.10378594845E+03  0.56932674885E+03  0.00000000000E+00 0. -1.
        -11    1    3    3    0    0  0.69980451128E+02 -0.12551199586E+03  0.17194164005E+02  0.14472789614E+03  0.00000000000E+00 0.  1.
          4    1    6    6  502    0 -0.35506066847E+03  0.19164706238E+03 -0.53258933334E+03  0.66816769811E+03  0.00000000000E+00 0. -1.
          3    1    5    5  503    0  0.31751309051E+03  0.24299757005E+03 -0.42262133446E+03  0.58178275502E+03  0.00000000000E+00 0. -1.
         -4    1    5    5    0  503 -0.34420768347E+01  0.73994072675E+01 -0.16200359602E+02  0.18139756671E+02  0.00000000000E+00 0.  1.
         -3    1    6    6    0  502 -0.26261705342E+03  0.19217238494E+03 -0.34237489315E+03  0.47235422063E+03  0.00000000000E+00 0.  1.
<mgrwt>
<rscale>  0 0.20158145E+04</rscale>
<asrwt>0</asrwt>
<pdfrwt beam="1">  1        2 0.29652898E+00 0.20158145E+04</pdfrwt>
<pdfrwt beam="2">  1       -2 0.81086260E-01 0.20158145E+04</pdfrwt>
<totfact> 0.91211354E+00</totfact>
</mgrwt>
</event>
<event>
12    1  0.2433511E-007  0.2050906E+04  0.7818608E-02  0.8583183E-01
          2   -1    0    0  501    0  0.00000000000E+00  0.00000000000E+00  0.80981121590E+03  0.80981121590E+03  0.00000000000E+00 0.  1.
         -2   -1    0    0    0  501 -0.00000000000E+00 -0.00000000000E+00 -0.12985174349E+04  0.12985174349E+04  0.00000000000E+00 0. -1.
         23    2    1    2    0    0 -0.11921585016E+03 -0.60455588891E+03 -0.76236884464E+03  0.98464855791E+03  0.92877799064E+02 0.  0.
        254    2    1    2    0    0  0.11921585016E+03  0.60455588891E+03  0.27366262562E+03  0.11236800929E+04  0.89892462242E+03 0.  0.
        -24    2    4    4    0    0  0.30786800724E+03 -0.11252693023E+03  0.14211988236E+03  0.36638183060E+03  0.81194611430E+02 0.  0.
         24    2    4    4    0    0 -0.18865215708E+03  0.71708281914E+03  0.13154274326E+03  0.75729826230E+03  0.79998493115E+02 0.  0.
         13    1    3    3    0    0 -0.97850276146E+02 -0.29175851940E+03 -0.41608798270E+03  0.51751997017E+03  0.00000000000E+00 0.  1.
        -13    1    3    3    0    0 -0.21365574009E+02 -0.31279736951E+03 -0.34628086194E+03  0.46712858773E+03  0.00000000000E+00 0. -1.
          4    1    6    6  502    0 -0.91583985603E+02  0.47173209061E+03  0.62721792591E+02  0.48461615223E+03  0.00000000000E+00 0. -1.
          1    1    5    5  503    0  0.14917489992E+03 -0.95427787191E+02  0.60682941694E+02  0.18719517287E+03  0.00000000000E+00 0. -1.
         -2    1    5    5    0  503  0.15869310732E+03 -0.17099143040E+02  0.81436940666E+02  0.17918665773E+03  0.00000000000E+00 0.  1.
         -3    1    6    6    0  502 -0.97068171481E+02  0.24535072853E+03  0.68820950670E+02  0.27268211008E+03  0.00000000000E+00 0.  1.
<mgrwt>
<rscale>  0 0.20509061E+04</rscale>
<asrwt>0</asrwt>
<pdfrwt beam="1">  1        2 0.12458634E+00 0.20509061E+04</pdfrwt>
<pdfrwt beam="2">  1       -2 0.19977191E+00 0.20509061E+04</pdfrwt>
<totfact> 0.41826906E+00</totfact>
</mgrwt>
</event>
<event>
12    1  0.3511008E-007  0.2638683E+04  0.7818608E-02  0.8355179E-01
         -2   -1    0    0    0  501 -0.00000000000E+00  0.00000000000E+00  0.16594116593E+04  0.16594116593E+04  0.00000000000E+00 0.  1.
          2   -1    0    0  501    0  0.00000000000E+00 -0.00000000000E+00 -0.10489633912E+04  0.10489633912E+04  0.00000000000E+00 0. -1.
         23    2    1    2    0    0  0.41884620713E+03 -0.10694060970E+04  0.75392466324E+02  0.11546346296E+04  0.91845294988E+02 0.  0.
        254    2    1    2    0    0 -0.41884620713E+03  0.10694060970E+04  0.53505580174E+03  0.15537404209E+04  0.89931253693E+03 0.  0.
        -24    2    4    4    0    0 -0.31558145673E+03  0.36869160569E+03  0.66736498555E+03  0.82909210522E+03  0.80576293438E+02 0.  0.
         24    2    4    4    0    0 -0.10326475040E+03  0.70071449136E+03 -0.13230918380E+03  0.72464831573E+03  0.77104178201E+02 0.  0.
         11    1    3    3    0    0  0.68636718274E+02 -0.27872899786E+03  0.31129525937E+02  0.28873846423E+03  0.00000000000E+00 0.  1.
        -11    1    3    3    0    0  0.35020948885E+03 -0.79067709919E+03  0.44262940387E+02  0.86589616534E+03  0.00000000000E+00 0. -1.
          4    1    6    6  502    0  0.25918960420E+01  0.21763617140E+03 -0.31178677893E+02  0.21987344310E+03  0.00000000000E+00 0. -1.
          1    1    5    5  503    0 -0.19597229644E+03  0.18642489203E+03  0.32018804862E+03  0.41914170375E+03  0.00000000000E+00 0. -1.
         -2    1    5    5    0  503 -0.11960916029E+03  0.18226671366E+03  0.34717693692E+03  0.40995040147E+03  0.00000000000E+00 0.  1.
         -3    1    6    6    0  502 -0.10585664644E+03  0.48307831996E+03 -0.10113050591E+03  0.50477487263E+03  0.00000000000E+00 0.  1.
<mgrwt>
<rscale>  0 0.26386831E+04</rscale>
<asrwt>0</asrwt>
<pdfrwt beam="1">  1        2 0.16137898E+00 0.26386831E+04</pdfrwt>
<pdfrwt beam="2">  1       -2 0.25529410E+00 0.26386831E+04</pdfrwt>
<totfact> 0.12324024E+00</totfact>
</mgrwt>
</event>
<event>
12    1  0.2433511E-007  0.4267564E+04  0.7818608E-02  0.7952643E-01
          2   -1    0    0  501    0  0.00000000000E+00  0.00000000000E+00  0.30346420893E+04  0.30346420893E+04  0.00000000000E+00 0. -1.
         -2   -1    0    0    0  501 -0.00000000000E+00 -0.00000000000E+00 -0.15003501689E+04  0.15003501689E+04  0.00000000000E+00 0.  1.
         23    2    1    2    0    0 -0.19670432863E+04  0.46899578433E+03  0.46853812797E+03  0.20782437073E+04  0.10174769617E+03 0.  0.
        254    2    1    2    0    0  0.19670432863E+04 -0.46899578433E+03  0.10657537924E+04  0.24567485509E+04  0.90031436769E+03 0.  0.
        -24    2    4    4    0    0  0.16844650687E+04 -0.11979875596E+03  0.57212883949E+03  0.17846931773E+04  0.77614551181E+02 0.  0.
         24    2    4    4    0    0  0.28257821758E+03 -0.34919702836E+03  0.49362495291E+03  0.67205537361E+03  0.78764315564E+02 0.  0.
         13    1    3    3    0    0 -0.96459668352E+03  0.26129845148E+03  0.27327108055E+03  0.10360505422E+04  0.00000000000E+00 0. -1.
        -13    1    3    3    0    0 -0.10024466028E+04  0.20769733284E+03  0.19526704742E+03  0.10421931651E+04  0.00000000000E+00 0.  1.
          4    1    6    6  502    0  0.28551311484E+03 -0.34771429634E+03  0.49460595613E+03  0.66862397689E+03  0.00000000000E+00 0. -1.
          1    1    5    5  503    0  0.16712091768E+04 -0.12580035940E+03  0.56786749965E+03  0.17695308249E+04  0.00000000000E+00 0. -1.
         -2    1    5    5    0  503  0.13255891936E+02  0.60016034440E+01  0.42613398385E+01  0.15162352461E+02  0.00000000000E+00 0.  1.
         -3    1    6    6    0  502 -0.29348972625E+01 -0.14827320216E+01 -0.98100322476E+00  0.34313967296E+01  0.00000000000E+00 0.  1.
<mgrwt>
<rscale>  0 0.42675641E+04</rscale>
<asrwt>0</asrwt>
<pdfrwt beam="1">  1        2 0.46686801E+00 0.42675641E+04</pdfrwt>
<pdfrwt beam="2">  1       -2 0.23082310E+00 0.42675641E+04</pdfrwt>
<totfact> 0.10794746E-01</totfact>
</mgrwt>
</event>
<event>
12    1  0.2433511E-007  0.1566807E+04  0.7818608E-02  0.8841203E-01
         -2   -1    0    0    0  501 -0.00000000000E+00  0.00000000000E+00  0.62985387426E+03  0.62985387426E+03  0.00000000000E+00 0.  1.
          2   -1    0    0  501    0  0.00000000000E+00 -0.00000000000E+00 -0.97438690325E+03  0.97438690325E+03  0.00000000000E+00 0. -1.
         23    2    1    2    0    0  0.40163664886E+03 -0.15140229807E+03 -0.41455366263E+03  0.60426996834E+03  0.95146213107E+02 0.  0.
        254    2    1    2    0    0 -0.40163664886E+03  0.15140229807E+03  0.70020633634E+02  0.99997080916E+03  0.90044659835E+03 0.  0.
        -24    2    4    4    0    0  0.70338978836E+02  0.36756171485E+03 -0.17489256611E+03  0.42060640282E+03  0.79203221177E+02 0.  0.
         24    2    4    4    0    0 -0.47197562770E+03 -0.21615941677E+03  0.24491319974E+03  0.57936440635E+03  0.78706755321E+02 0.  0.
         11    1    3    3    0    0  0.73224479093E+02 -0.11320197326E+02 -0.12174011393E+03  0.14251535548E+03  0.00000000000E+00 0. -1.
        -11    1    3    3    0    0  0.32841216977E+03 -0.14008210075E+03 -0.29281354869E+03  0.46175461286E+03  0.00000000000E+00 0.  1.
          4    1    6    6  502    0 -0.39803050759E+03 -0.17416722582E+03  0.17174308275E+03  0.46718111477E+03  0.00000000000E+00 0. -1.
          3    1    5    5  503    0  0.61891932246E+02  0.13823526285E+03 -0.50985286873E+02  0.15980956996E+03  0.00000000000E+00 0. -1.
         -4    1    5    5    0  503  0.84470465899E+01  0.22932645200E+03 -0.12390727924E+03  0.26079683286E+03  0.00000000000E+00 0.  1.
         -3    1    6    6    0  502 -0.73945120104E+02 -0.41992190956E+02  0.73170116994E+02  0.11218329158E+03  0.00000000000E+00 0.  1.
<mgrwt>
<rscale>  0 0.15668074E+04</rscale>
<asrwt>0</asrwt>
<pdfrwt beam="1">  1        2 0.14990568E+00 0.15668074E+04</pdfrwt>
<pdfrwt beam="2">  1       -2 0.96900596E-01 0.15668074E+04</pdfrwt>
<totfact> 0.22387728E+01</totfact>
</mgrwt>
</event>
<event>
12    1  0.2433511E-007  0.1354499E+04  0.7818608E-02  0.8987429E-01
          4   -1    0    0  501    0  0.00000000000E+00  0.00000000000E+00  0.78509590181E+03  0.78509590181E+03  0.00000000000E+00 0. -1.
         -4   -1    0    0    0  501 -0.00000000000E+00 -0.00000000000E+00 -0.58421781488E+03  0.58421781488E+03  0.00000000000E+00 0.  1.
         23    2    1    2    0    0  0.36294530679E+03  0.71648447059E+02  0.73680569922E+02  0.38773110919E+03  0.89687183954E+02 0.  0.
        254    2    1    2    0    0 -0.36294530679E+03 -0.71648447059E+02  0.12719751701E+03  0.98158260749E+03  0.90025685852E+03 0.  0.
        -24    2    4    4    0    0 -0.58687051422E+03 -0.27941663492E+03  0.11990447772E+03  0.66578834756E+03  0.80039887803E+02 0.  0.
         24    2    4    4    0    0  0.22392520743E+03  0.20776818786E+03  0.72930392837E+01  0.31579425993E+03  0.79766583060E+02 0.  0.
         13    1    3    3    0    0  0.25521526706E+03  0.86537088359E+02  0.72099322560E+02  0.27896561170E+03  0.00000000000E+00 0. -1.
        -13    1    3    3    0    0  0.10773003973E+03 -0.14888641300E+02  0.15812473618E+01  0.10876549749E+03  0.00000000000E+00 0.  1.
          4    1    6    6  502    0  0.25622092094E+02  0.36689976710E+02 -0.26048444020E+02  0.51779990634E+02  0.00000000000E+00 0. -1.
          1    1    5    5  503    0 -0.17433602478E+03 -0.43912314970E+02  0.27793681595E+02  0.18191709562E+03  0.00000000000E+00 0. -1.
         -4    1    5    5    0  503 -0.41253448944E+03 -0.23550431995E+03  0.92110796129E+02  0.48387125195E+03  0.00000000000E+00 0.  1.
         -3    1    6    6    0  502  0.19830311534E+03  0.17107821115E+03  0.33341483303E+02  0.26401426930E+03  0.00000000000E+00 0.  1.
<mgrwt>
<rscale>  0 0.13544992E+04</rscale>
<asrwt>0</asrwt>
<pdfrwt beam="1">  1        4 0.12078399E+00 0.13544992E+04</pdfrwt>
<pdfrwt beam="2">  1       -4 0.89879664E-01 0.13544992E+04</pdfrwt>
<totfact> 0.10784810E+00</totfact>
</mgrwt>
</event>
<event>
12    1  0.2433511E-007  0.1478203E+04  0.7818608E-02  0.8899078E-01
         -3   -1    0    0    0  501 -0.00000000000E+00  0.00000000000E+00  0.90749839825E+03  0.90749839825E+03  0.00000000000E+00 0.  1.
          3   -1    0    0  501    0  0.00000000000E+00 -0.00000000000E+00 -0.60195270217E+03  0.60195270217E+03  0.00000000000E+00 0. -1.
         23    2    1    2    0    0  0.17605305468E+03  0.14131438424E+03 -0.31244760993E+03  0.39626885923E+03  0.91875277348E+02 0.  0.
        254    2    1    2    0    0 -0.17605305468E+03 -0.14131438424E+03  0.61799330601E+03  0.11131822412E+04  0.89793905281E+03 0.  0.
        -24    2    4    4    0    0 -0.41813315248E+03  0.22343124124E+03  0.33470119341E+03  0.58576239057E+03  0.79597968413E+02 0.  0.
         24    2    4    4    0    0  0.24208009781E+03 -0.36474562548E+03  0.28329211261E+03  0.52741985061E+03  0.79215735151E+02 0.  0.
         13    1    3    3    0    0  0.17094532830E+03  0.13927041106E+03 -0.24904846982E+03  0.33263146722E+03  0.00000000000E+00 0. -1.
        -13    1    3    3    0    0  0.51077263768E+01  0.20439731814E+01 -0.63399140104E+02  0.63637392004E+02  0.00000000000E+00 0.  1.
          2    1    6    6  502    0  0.11857791226E+03 -0.14869553521E+03  0.16540494173E+03  0.25205134044E+03  0.00000000000E+00 0. -1.
          1    1    5    5  503    0 -0.23331070944E+03  0.13072892850E+03  0.14052087421E+03  0.30210934441E+03  0.00000000000E+00 0. -1.
         -2    1    5    5    0  503 -0.18482244304E+03  0.92702312737E+02  0.19418031919E+03  0.28365304617E+03  0.00000000000E+00 0.  1.
         -1    1    6    6    0  502  0.12350218554E+03 -0.21605009027E+03  0.11788717088E+03  0.27536851018E+03  0.00000000000E+00 0.  1.
<mgrwt>
<rscale>  0 0.14782031E+04</rscale>
<asrwt>0</asrwt>
<pdfrwt beam="1">  1        3 0.92608107E-01 0.14782031E+04</pdfrwt>
<pdfrwt beam="2">  1       -3 0.13961514E+00 0.14782031E+04</pdfrwt>
<totfact> 0.10275489E+00</totfact>
</mgrwt>
</event>
<event>
12    1  0.2433511E-007  0.2018231E+04  0.7818608E-02  0.8598144E-01
          2   -1    0    0  501    0  0.00000000000E+00  0.00000000000E+00  0.29774610901E+04  0.29774610901E+04  0.00000000000E+00 0. -1.
         -2   -1    0    0    0  501 -0.00000000000E+00 -0.00000000000E+00 -0.34200741409E+03  0.34200741409E+03  0.00000000000E+00 0.  1.
         23    2    1    2    0    0 -0.20452384598E+03 -0.21216203581E+02 -0.22243356837E+03  0.31623518243E+03  0.90817770278E+02 0.  0.
        254    2    1    2    0    0  0.20452384598E+03  0.21216203581E+02  0.28578872443E+04  0.30032333217E+04  0.89978372541E+03 0.  0.
        -24    2    4    4    0    0  0.15027383037E+03 -0.17923909704E+03  0.27403664276E+04  0.27513525686E+04  0.74992809389E+02 0.  0.
         24    2    4    4    0    0  0.54250015618E+02  0.20045530062E+03  0.11752081674E+03  0.25188075309E+03  0.80668331254E+02 0.  0.
         11    1    3    3    0    0 -0.18991128019E+03 -0.69617714562E+01 -0.22624544045E+03  0.29546871227E+03  0.00000000000E+00 0.  1.
        -11    1    3    3    0    0 -0.14612565791E+02 -0.14254432125E+02  0.38118720785E+01  0.20766470161E+02  0.00000000000E+00 0. -1.
          4    1    6    6  502    0 -0.14858615495E+02  0.74989321387E+02  0.61351645112E+02  0.98021432016E+02  0.00000000000E+00 0. -1.
          3    1    5    5  503    0  0.24568821258E+02 -0.10246965847E+02  0.14270114393E+03  0.14516281813E+03  0.00000000000E+00 0. -1.
         -4    1    5    5    0  503  0.12570500911E+03 -0.16899213119E+03  0.25976652837E+04  0.26061897505E+04  0.00000000000E+00 0.  1.
         -3    1    6    6    0  502  0.69108631113E+02  0.12546597923E+03  0.56169171630E+02  0.15385932107E+03  0.00000000000E+00 0.  1.
<mgrwt>
<rscale>  0 0.20182307E+04</rscale>
<asrwt>0</asrwt>
<pdfrwt beam="1">  1        2 0.45807092E+00 0.20182307E+04</pdfrwt>
<pdfrwt beam="2">  1       -2 0.52616527E-01 0.20182307E+04</pdfrwt>
<totfact> 0.56988679E+00</totfact>
</mgrwt>
</event>
<event>
12    1  0.2433511E-007  0.4024633E+04  0.7818608E-02  0.7999596E-01
         -2   -1    0    0    0  501 -0.00000000000E+00  0.00000000000E+00  0.14054155227E+04  0.14054155227E+04  0.00000000000E+00 0.  1.
          2   -1    0    0  501    0  0.00000000000E+00 -0.00000000000E+00 -0.28812953957E+04  0.28812953957E+04  0.00000000000E+00 0. -1.
         23    2    1    2    0    0 -0.11065589842E+04 -0.12433939698E+04  0.29837184538E+03  0.16934221092E+04  0.90284727524E+02 0.  0.
        254    2    1    2    0    0  0.11065589842E+04  0.12433939698E+04 -0.17742517184E+04  0.25932888092E+04  0.89815162310E+03 0.  0.
        -24    2    4    4    0    0  0.27425921682E+03  0.88958117386E+03 -0.60864137827E+03  0.11157943048E+04  0.89329839852E+02 0.  0.
         24    2    4    4    0    0  0.83229976742E+03  0.35381279589E+03 -0.11656103402E+04  0.14774945045E+04  0.80225608515E+02 0.  0.
         13    1    3    3    0    0 -0.65867012561E+03 -0.68751193355E+03  0.14225243922E+03  0.96268102173E+03  0.00000000000E+00 0. -1.
        -13    1    3    3    0    0 -0.44788885864E+03 -0.55588203621E+03  0.15611940616E+03  0.73074108742E+03  0.00000000000E+00 0.  1.
          4    1    6    6  502    0  0.31190685675E+03  0.15496695289E+03 -0.50311533871E+03  0.61190333209E+03  0.00000000000E+00 0. -1.
          1    1    5    5  503    0  0.73417445662E+02  0.16215691822E+03 -0.84888399038E+02  0.19720808236E+03  0.00000000000E+00 0. -1.
         -2    1    5    5    0  503  0.20084177116E+03  0.72742425563E+03 -0.52375297923E+03  0.91858622240E+03  0.00000000000E+00 0.  1.
         -3    1    6    6    0  502  0.52039291067E+03  0.19884584300E+03 -0.66249500144E+03  0.86559117238E+03  0.00000000000E+00 0.  1.
<mgrwt>
<rscale>  0 0.40246328E+04</rscale>
<asrwt>0</asrwt>
<pdfrwt beam="1">  1        2 0.44327621E+00 0.40246328E+04</pdfrwt>
<pdfrwt beam="2">  1       -2 0.21621777E+00 0.40246328E+04</pdfrwt>
<totfact> 0.16960540E-01</totfact>
</mgrwt>
</event>
<event>
12    1  0.2433511E-007  0.2362938E+04  0.7818608E-02  0.8453511E-01
         -2   -1    0    0    0  501 -0.00000000000E+00  0.00000000000E+00  0.47257316479E+03  0.47257316479E+03  0.00000000000E+00 0.  1.
          2   -1    0    0  501    0  0.00000000000E+00 -0.00000000000E+00 -0.29537634462E+04  0.29537634462E+04  0.00000000000E+00 0. -1.
         23    2    1    2    0    0 -0.54399166841E+03 -0.63691938314E+03 -0.18743961889E+04  0.20549694950E+04  0.89136503509E+02 0.  0.
        254    2    1    2    0    0  0.54399166841E+03  0.63691938314E+03 -0.60679409247E+03  0.13713671160E+04  0.90047513031E+03 0.  0.
        -24    2    4    4    0    0  0.77753756941E+02 -0.20333601659E+03 -0.41109256061E+01  0.23435548621E+03  0.86685707278E+02 0.  0.
         24    2    4    4    0    0  0.46623791146E+03  0.84025539973E+03 -0.60268316686E+03  0.11370116298E+04  0.78495349022E+02 0.  0.
         13    1    3    3    0    0 -0.45351168344E+03 -0.56843563718E+03 -0.16631413835E+04  0.18151669847E+04  0.00000000000E+00 0. -1.
        -13    1    3    3    0    0 -0.90479984961E+02 -0.68483745959E+02 -0.21125480542E+03  0.23980251031E+03  0.00000000000E+00 0.  1.
          2    1    6    6  502    0  0.21946353664E+03  0.46905536189E+03 -0.34283579054E+03  0.62105841570E+03  0.00000000000E+00 0. -1.
          3    1    5    5  503    0  0.32930960672E+02 -0.16065424197E+02 -0.18900550201E+02  0.41228349752E+02  0.00000000000E+00 0. -1.
         -4    1    5    5    0  503  0.44822796269E+02 -0.18727059240E+03  0.14789624595E+02  0.19312713646E+03  0.00000000000E+00 0.  1.
         -1    1    6    6    0  502  0.24677437482E+03  0.37120003785E+03 -0.25984737632E+03  0.51595321411E+03  0.00000000000E+00 0.  1.
<mgrwt>
<rscale>  0 0.23629383E+04</rscale>
<asrwt>0</asrwt>
<pdfrwt beam="1">  1        2 0.45442514E+00 0.23629383E+04</pdfrwt>
<pdfrwt beam="2">  1       -2 0.72703565E-01 0.23629383E+04</pdfrwt>
<totfact> 0.28724018E+00</totfact>
</mgrwt>
</event>
<event>
12    1  0.2433511E-007  0.2194944E+04  0.7818608E-02  0.8520536E-01
          1   -1    0    0  501    0  0.00000000000E+00  0.00000000000E+00  0.88988571118E+03  0.88988571118E+03  0.00000000000E+00 0. -1.
         -1   -1    0    0    0  501 -0.00000000000E+00 -0.00000000000E+00 -0.13534820533E+04  0.13534820533E+04  0.00000000000E+00 0.  1.
         23    2    1    2    0    0  0.77032013476E+03 -0.25643834207E+03  0.22762712592E+03  0.84796830345E+03  0.89902179541E+02 0.  0.
        254    2    1    2    0    0 -0.77032013476E+03  0.25643834207E+03 -0.69122346801E+03  0.13953994610E+04  0.90010890437E+03 0.  0.
        -24    2    4    4    0    0 -0.63769851336E+03 -0.23128473011E+03 -0.50967097847E+03  0.85243259004E+03  0.82004840997E+02 0.  0.
         24    2    4    4    0    0 -0.13262162141E+03  0.48772307219E+03 -0.18155248954E+03  0.54296687096E+03  0.79933890788E+02 0.  0.
         11    1    3    3    0    0  0.24536281225E+03 -0.70141297073E+02  0.30152933091E+02  0.25696674992E+03  0.00000000000E+00 0. -1.
        -11    1    3    3    0    0  0.52495732252E+03 -0.18629704500E+03  0.19747419283E+03  0.59100155353E+03  0.00000000000E+00 0.  1.
          4    1    6    6  502    0 -0.12438990861E+03  0.45653965527E+03 -0.14651674099E+03  0.49534680941E+03  0.00000000000E+00 0. -1.
          3    1    5    5  503    0 -0.45261987033E+03 -0.19117830795E+03 -0.33389758210E+03  0.59405512184E+03  0.00000000000E+00 0. -1.
         -4    1    5    5    0  503 -0.18507864302E+03 -0.40106422163E+02 -0.17577339637E+03  0.25837746820E+03  0.00000000000E+00 0.  1.
         -3    1    6    6    0  502 -0.82317127968E+01  0.31183416914E+02 -0.35035748549E+02  0.47620061554E+02  0.00000000000E+00 0.  1.
<mgrwt>
<rscale>  0 0.21949436E+04</rscale>
<asrwt>0</asrwt>
<pdfrwt beam="1">  1        1 0.13690549E+00 0.21949436E+04</pdfrwt>
<pdfrwt beam="2">  1       -1 0.20822801E+00 0.21949436E+04</pdfrwt>
<totfact> 0.22361181E+00</totfact>
</mgrwt>
</event>
<event>
12    1  0.2433511E-007  0.1721680E+04  0.7818608E-02  0.8749095E-01
          2   -1    0    0  501    0  0.00000000000E+00  0.00000000000E+00  0.94048633459E+03  0.94048633459E+03  0.00000000000E+00 0. -1.
         -2   -1    0    0    0  501 -0.00000000000E+00 -0.00000000000E+00 -0.78793888316E+03  0.78793888316E+03  0.00000000000E+00 0.  1.
         23    2    1    2    0    0 -0.25482793658E+03 -0.56340080417E+03 -0.81156092850E+01  0.62496279252E+03  0.90304404731E+02 0.  0.
        254    2    1    2    0    0  0.25482793658E+03  0.56340080417E+03  0.16066306071E+03  0.11034624252E+04  0.89969937280E+03 0.  0.
        -24    2    4    4    0    0  0.14218080754E+03  0.32920568371E+03  0.52969057276E+03  0.64438393251E+03  0.77889571740E+02 0.  0.
         24    2    4    4    0    0  0.11264712904E+03  0.23419512046E+03 -0.36902751205E+03  0.45907849272E+03  0.83875071984E+02 0.  0.
         13    1    3    3    0    0 -0.85989920093E+02 -0.15099421604E+03  0.34999625485E+02  0.17725262599E+03  0.00000000000E+00 0. -1.
        -13    1    3    3    0    0 -0.16883801649E+03 -0.41240658813E+03 -0.43115234770E+02  0.44771016653E+03  0.00000000000E+00 0.  1.
          4    1    6    6  502    0  0.10041792438E+03  0.22652054986E+03 -0.36920052877E+03  0.44463957256E+03  0.00000000000E+00 0. -1.
          1    1    5    5  503    0  0.94305926115E+02  0.24830115108E+03  0.32952593194E+03  0.42324273077E+03  0.00000000000E+00 0. -1.
         -2    1    5    5    0  503  0.47874881425E+02  0.80904532621E+02  0.20016464083E+03  0.22114120174E+03  0.00000000000E+00 0.  1.
         -3    1    6    6    0  502  0.12229204664E+02  0.76745706078E+01  0.17301671664E+00  0.14438920164E+02  0.00000000000E+00 0.  1.
<mgrwt>
<rscale>  0 0.17216803E+04</rscale>
<asrwt>0</asrwt>
<pdfrwt beam="1">  1        2 0.14469021E+00 0.17216803E+04</pdfrwt>
<pdfrwt beam="2">  1       -2 0.12122137E+00 0.17216803E+04</pdfrwt>
<totfact> 0.13548795E+01</totfact>
</mgrwt>
</event>
<event>
12    1  0.2433511E-007  0.2025509E+04  0.7818608E-02  0.8594786E-01
          2   -1    0    0  501    0  0.00000000000E+00  0.00000000000E+00  0.23171923290E+04  0.23171923290E+04  0.00000000000E+00 0.  1.
         -2   -1    0    0    0  501 -0.00000000000E+00 -0.00000000000E+00 -0.44263545615E+03  0.44263545615E+03  0.00000000000E+00 0. -1.
         23    2    1    2    0    0  0.11986443170E+03 -0.61807851165E+03  0.61231335418E+02  0.63949892696E+03  0.93920565351E+02 0.  0.
        254    2    1    2    0    0 -0.11986443170E+03  0.61807851165E+03  0.18133255374E+04  0.21203288582E+04  0.90069774819E+03 0.  0.
        -24    2    4    4    0    0 -0.36147292442E+03  0.52056086612E+03  0.17164902212E+04  0.18314923307E+04  0.79869817262E+02 0.  0.
         24    2    4    4    0    0  0.24160849272E+03  0.97517645530E+02  0.96835316256E+02  0.28883652745E+03  0.78518190068E+02 0.  0.
         11    1    3    3    0    0  0.89244240552E+02 -0.39536135359E+03  0.82714124722E+02  0.41366261713E+03  0.00000000000E+00 0.  1.
        -11    1    3    3    0    0  0.30620191146E+02 -0.22271715806E+03 -0.21482789304E+02  0.22583630983E+03  0.00000000000E+00 0. -1.
          4    1    6    6  502    0  0.84676312842E+02  0.49694186041E+02  0.74539915172E+02  0.12327120116E+03  0.00000000000E+00 0. -1.
          3    1    5    5  503    0 -0.16716907895E+03  0.17677317685E+03  0.69239937307E+03  0.73390132091E+03  0.00000000000E+00 0. -1.
         -4    1    5    5    0  503 -0.19430384547E+03  0.34378768927E+03  0.10240908481E+04  0.10975910098E+04  0.00000000000E+00 0.  1.
         -3    1    6    6    0  502  0.15693217988E+03  0.47823459490E+02  0.22295401084E+02  0.16556532629E+03  0.00000000000E+00 0.  1.
<mgrwt>
<rscale>  0 0.20255088E+04</rscale>
<asrwt>0</asrwt>
<pdfrwt beam="1">  1        2 0.35649112E+00 0.20255088E+04</pdfrwt>
<pdfrwt beam="2">  1       -2 0.68097764E-01 0.20255088E+04</pdfrwt>
<totfact> 0.81139131E+00</totfact>
</mgrwt>
</event>
<event>
12    1  0.2433511E-007  0.1173442E+04  0.7818608E-02  0.9136426E-01
         -1   -1    0    0    0  501 -0.00000000000E+00  0.00000000000E+00  0.80921053692E+03  0.80921053692E+03  0.00000000000E+00 0.  1.
          1   -1    0    0  501    0  0.00000000000E+00 -0.00000000000E+00 -0.42540420472E+03  0.42540420472E+03  0.00000000000E+00 0. -1.
         23    2    1    2    0    0 -0.73300372875E+01 -0.22800566094E+03  0.46029595656E+02  0.24852773310E+03  0.87218114972E+02 0.  0.
        254    2    1    2    0    0  0.73300372875E+01  0.22800566094E+03  0.33777673655E+03  0.98608700854E+03  0.89790542586E+03 0.  0.
        -24    2    4    4    0    0 -0.31874277153E+03  0.80756167985E+02  0.48473025319E+03  0.59127140699E+03  0.80746178229E+02 0.  0.
         24    2    4    4    0    0  0.32607280882E+03  0.14724949295E+03 -0.14695351664E+03  0.39481560154E+03  0.79234672613E+02 0.  0.
         11    1    3    3    0    0 -0.34446231977E+02 -0.18952041760E+03  0.55593724030E+02  0.20048739047E+03  0.00000000000E+00 0.  1.
        -11    1    3    3    0    0  0.27116194689E+02 -0.38485243338E+02 -0.95641283737E+01  0.48040342638E+02  0.00000000000E+00 0. -1.
          2    1    6    6  502    0  0.25564982055E+03  0.13857718414E+03 -0.14220586727E+03  0.32370198547E+03  0.00000000000E+00 0. -1.
          3    1    5    5  503    0 -0.21541755931E+02  0.86122771110E+01  0.84150759714E+02  0.87290142204E+02  0.00000000000E+00 0. -1.
         -4    1    5    5    0  503 -0.29720101560E+03  0.72143890874E+02  0.40057949348E+03  0.50398126479E+03  0.00000000000E+00 0.  1.
         -3    1    6    6    0  502  0.70422988264E+02  0.86723088099E+01 -0.47476493756E+01  0.71113616071E+02  0.00000000000E+00 0.  1.
<mgrwt>
<rscale>  0 0.11734421E+04</rscale>
<asrwt>0</asrwt>
<pdfrwt beam="1">  1        1 0.65446801E-01 0.11734421E+04</pdfrwt>
<pdfrwt beam="2">  1       -1 0.12449393E+00 0.11734421E+04</pdfrwt>
<totfact> 0.30977494E+01</totfact>
</mgrwt>
</event>
<event>
12    1  0.2433511E-007  0.1670623E+04  0.7818608E-02  0.8778299E-01
          1   -1    0    0  501    0  0.00000000000E+00  0.00000000000E+00  0.14855978293E+04  0.14855978293E+04  0.00000000000E+00 0. -1.
         -1   -1    0    0    0  501 -0.00000000000E+00 -0.00000000000E+00 -0.46967316139E+03  0.46967316139E+03  0.00000000000E+00 0.  1.
         23    2    1    2    0    0  0.77834049258E+02 -0.45204891535E+03 -0.68881023933E+02  0.47374069562E+03  0.96329072127E+02 0.  0.
        254    2    1    2    0    0 -0.77834049258E+02  0.45204891535E+03  0.10848056918E+04  0.14815302950E+04  0.89873370083E+03 0.  0.
        -24    2    4    4    0    0 -0.53804754246E+02  0.66017073668E+02  0.10801843506E+04  0.10864831565E+04  0.79963820430E+02 0.  0.
         24    2    4    4    0    0 -0.24029295012E+02  0.38603184169E+03  0.46213412581E+01  0.39504713853E+03  0.80267646376E+02 0.  0.
         13    1    3    3    0    0  0.50935799394E+02 -0.21721725045E+03  0.13271858498E+02  0.22350376234E+03  0.00000000000E+00 0. -1.
        -13    1    3    3    0    0  0.26898249863E+02 -0.23483166491E+03 -0.82152882431E+02  0.25023693329E+03  0.00000000000E+00 0.  1.
          2    1    6    6  502    0  0.82190023237E+01  0.32200809801E+03 -0.82272917597E+01  0.32221802481E+03  0.00000000000E+00 0. -1.
          3    1    5    5  503    0 -0.53569759368E+02  0.64427116831E+02  0.55436315560E+03  0.56065950522E+03  0.00000000000E+00 0. -1.
         -4    1    5    5    0  503 -0.23499487787E+00  0.15899568364E+01  0.52582119495E+03  0.52582365128E+03  0.00000000000E+00 0.  1.
         -1    1    6    6    0  502 -0.32248297335E+02  0.64023743676E+02  0.12848633018E+02  0.72829113723E+02  0.00000000000E+00 0.  1.
<mgrwt>
<rscale>  0 0.16706232E+04</rscale>
<asrwt>0</asrwt>
<pdfrwt beam="1">  1        1 0.22855351E+00 0.16706232E+04</pdfrwt>
<pdfrwt beam="2">  1       -1 0.72257410E-01 0.16706232E+04</pdfrwt>
<totfact> 0.12338746E+01</totfact>
</mgrwt>
</event>
<event>
12    1  0.2433511E-007  0.2659209E+04  0.7818608E-02  0.8348363E-01
         -2   -1    0    0    0  501 -0.00000000000E+00  0.00000000000E+00  0.85411988307E+03  0.85411988307E+03  0.00000000000E+00 0.  1.
          2   -1    0    0  501    0  0.00000000000E+00 -0.00000000000E+00 -0.20697886780E+04  0.20697886780E+04  0.00000000000E+00 0. -1.
         23    2    1    2    0    0  0.86183479093E+03  0.79895323794E+03 -0.54782325406E+03  0.12998385528E+04  0.91566709880E+02 0.  0.
        254    2    1    2    0    0 -0.86183479093E+03 -0.79895323794E+03 -0.66784554082E+03  0.16240700082E+04  0.90027786933E+03 0.  0.
        -24    2    4    4    0    0 -0.92770241766E+03 -0.92934124802E+03 -0.56818789457E+03  0.14329561070E+04  0.78859304890E+02 0.  0.
         24    2    4    4    0    0  0.65867626732E+02  0.13038801008E+03 -0.99657646250E+02  0.19111390127E+03  0.72479648023E+02 0.  0.
         11    1    3    3    0    0  0.57417991226E+02  0.44757419623E+02 -0.58827277776E+02  0.93598616113E+02  0.00000000000E+00 0. -1.
        -11    1    3    3    0    0  0.80441679970E+03  0.75419581832E+03 -0.48899597629E+03  0.12062399367E+04  0.00000000000E+00 0.  1.
          2    1    6    6  502    0  0.69333273835E+02  0.11796489133E+03 -0.10920494093E+03  0.17506723728E+03  0.00000000000E+00 0. -1.
          3    1    5    5  503    0 -0.85641784811E+03 -0.86496331951E+03 -0.54760922820E+03  0.13347242942E+04  0.00000000000E+00 0. -1.
         -4    1    5    5    0  503 -0.71284569552E+02 -0.64377928510E+02 -0.20578666371E+02  0.98231812795E+02  0.00000000000E+00 0.  1.
         -1    1    6    6    0  502 -0.34656471028E+01  0.12423118754E+02  0.95472946777E+01  0.16046663986E+02  0.00000000000E+00 0.  1.
<mgrwt>
<rscale>  0 0.26592087E+04</rscale>
<asrwt>0</asrwt>
<pdfrwt beam="1">  1        2 0.31842903E+00 0.26592087E+04</pdfrwt>
<pdfrwt beam="2">  1       -2 0.13140306E+00 0.26592087E+04</pdfrwt>
<totfact> 0.22725706E+00</totfact>
</mgrwt>
</event>
<event>
12    1  0.3672000E-007  0.2083366E+04  0.7818608E-02  0.8568606E-01
          3   -1    0    0  501    0  0.00000000000E+00  0.00000000000E+00  0.17807325058E+04  0.17807325058E+04  0.00000000000E+00 0. -1.
         -3   -1    0    0    0  501 -0.00000000000E+00 -0.00000000000E+00 -0.60935779912E+03  0.60935779912E+03  0.00000000000E+00 0.  1.
         23    2    1    2    0    0 -0.18186733266E+03 -0.77381305895E+03  0.80303321028E+03  0.11342920793E+04  0.99467619857E+02 0.  0.
        254    2    1    2    0    0  0.18186733266E+03  0.77381305895E+03  0.36834149638E+03  0.12557982256E+04  0.89971737153E+03 0.  0.
        -24    2    4    4    0    0 -0.33794244958E+03  0.25525777881E+03  0.16205821978E+01  0.43115613840E+03  0.80816808431E+02 0.  0.
         24    2    4    4    0    0  0.51980978224E+03  0.51855528014E+03  0.36672091418E+03  0.82464208722E+03  0.80302894391E+02 0.  0.
         11    1    3    3    0    0 -0.40578733742E+02 -0.27891170880E+03  0.34339697430E+03  0.44425201958E+03  0.00000000000E+00 0. -1.
        -11    1    3    3    0    0 -0.14128859892E+03 -0.49490135014E+03  0.45963623599E+03  0.69004005970E+03  0.00000000000E+00 0.  1.
          2    1    6    6  502    0  0.47449264640E+03  0.46591304089E+03  0.30452673008E+03  0.73140601754E+03  0.00000000000E+00 0. -1.
          3    1    5    5  503    0 -0.30932447081E+03  0.22018961178E+03  0.24419464449E+02  0.38047523392E+03  0.00000000000E+00 0. -1.
         -4    1    5    5    0  503 -0.28617978762E+02  0.35068167035E+02 -0.22798882251E+02  0.50680904486E+02  0.00000000000E+00 0.  1.
         -1    1    6    6    0  502  0.45317135838E+02  0.52642239245E+02  0.62194184100E+02  0.93236069679E+02  0.00000000000E+00 0.  1.
<mgrwt>
<rscale>  0 0.20833658E+04</rscale>
<asrwt>0</asrwt>
<pdfrwt beam="1">  1        3 0.27395884E+00 0.20833658E+04</pdfrwt>
<pdfrwt beam="2">  1       -3 0.93747355E-01 0.20833658E+04</pdfrwt>
<totfact> 0.13219469E-01</totfact>
</mgrwt>
</event>
<event>
12    1  0.2433511E-007  0.3014846E+04  0.7818608E-02  0.8239504E-01
          2   -1    0    0  501    0  0.00000000000E+00  0.00000000000E+00  0.20517838412E+04  0.20517838412E+04  0.00000000000E+00 0. -1.
         -2   -1    0    0    0  501 -0.00000000000E+00 -0.00000000000E+00 -0.11074873913E+04  0.11074873913E+04  0.00000000000E+00 0.  1.
         23    2    1    2    0    0  0.44620310303E+03  0.12614357342E+04  0.74589697739E+03  0.15345894515E+04  0.91022872348E+02 0.  0.
        254    2    1    2    0    0 -0.44620310303E+03 -0.12614357342E+04  0.19839947259E+03  0.16246817809E+04  0.89995067533E+03 0.  0.
        -24    2    4    4    0    0 -0.12954417988E+03 -0.35793969697E+03  0.48543451672E+03  0.62196644771E+03  0.79328877758E+02 0.  0.
         24    2    4    4    0    0 -0.31665892315E+03 -0.90349603720E+03 -0.28703504413E+03  0.10027153332E+04  0.80442278128E+02 0.  0.
         13    1    3    3    0    0  0.35601609708E+03  0.10676405437E+04  0.59591478336E+03  0.12734670082E+04  0.00000000000E+00 0. -1.
        -13    1    3    3    0    0  0.90187005952E+02  0.19379519048E+03  0.14998219402E+03  0.26112244335E+03  0.00000000000E+00 0.  1.
          4    1    6    6  502    0 -0.18955208811E+02 -0.17054135407E+02 -0.47252188078E+01  0.25932049057E+02  0.00000000000E+00 0. -1.
          1    1    5    5  503    0 -0.11045650800E+03 -0.29203391510E+03  0.34274035072E+03  0.46363282427E+03  0.00000000000E+00 0. -1.
         -2    1    5    5    0  503 -0.19087671886E+02 -0.65905781867E+02  0.14269416600E+03  0.15833362344E+03  0.00000000000E+00 0.  1.
         -3    1    6    6    0  502 -0.29770371434E+03 -0.88644190179E+03 -0.28230982532E+03  0.97678328418E+03  0.00000000000E+00 0.  1.
<mgrwt>
<rscale>  0 0.30148464E+04</rscale>
<asrwt>0</asrwt>
<pdfrwt beam="1">  1        2 0.31565905E+00 0.30148464E+04</pdfrwt>
<pdfrwt beam="2">  1       -2 0.17038268E+00 0.30148464E+04</pdfrwt>
<totfact> 0.11321661E+00</totfact>
</mgrwt>
</event>
<event>
12    1  0.2433511E-007  0.2195043E+04  0.7818608E-02  0.8520494E-01
         -2   -1    0    0    0  501 -0.00000000000E+00  0.00000000000E+00  0.64187327924E+03  0.64187327924E+03  0.00000000000E+00 0.  1.
          2   -1    0    0  501    0  0.00000000000E+00 -0.00000000000E+00 -0.18766222648E+04  0.18766222648E+04  0.00000000000E+00 0. -1.
         23    2    1    2    0    0 -0.37966712376E+03  0.35550746442E+03  0.34318417947E+03  0.62972664211E+03  0.90816191420E+02 0.  0.
        254    2    1    2    0    0  0.37966712376E+03 -0.35550746442E+03 -0.15779331651E+04  0.18887689020E+04  0.89835528020E+03 0.  0.
        -24    2    4    4    0    0 -0.26824669103E+03 -0.15699191152E+03 -0.29351885671E+03  0.43443114318E+03  0.77293928574E+02 0.  0.
         24    2    4    4    0    0  0.64791381478E+03 -0.19851555290E+03 -0.12844143083E+04  0.14543377588E+04  0.78596850825E+02 0.  0.
         11    1    3    3    0    0 -0.77112529104E+02  0.12544630406E+03  0.11009830825E+03  0.18386069408E+03  0.00000000000E+00 0.  1.
        -11    1    3    3    0    0 -0.30255459465E+03  0.23006116035E+03  0.23308587122E+03  0.44586594803E+03  0.00000000000E+00 0. -1.
          4    1    6    6  502    0  0.62462759998E+03 -0.20045066864E+03 -0.12600080578E+04  0.14205493356E+04  0.00000000000E+00 0. -1.
          1    1    5    5  503    0 -0.14108894922E+03 -0.11630463518E+03 -0.13560808160E+03  0.22764536357E+03  0.00000000000E+00 0. -1.
         -2    1    5    5    0  503 -0.12715774180E+03 -0.40687276335E+02 -0.15791077511E+03  0.20678577961E+03  0.00000000000E+00 0.  1.
         -3    1    6    6    0  502  0.23286214804E+02  0.19351157419E+01 -0.24406250542E+02  0.33788423141E+02  0.00000000000E+00 0.  1.
<mgrwt>
<rscale>  0 0.21950432E+04</rscale>
<asrwt>0</asrwt>
<pdfrwt beam="1">  1        2 0.28871112E+00 0.21950432E+04</pdfrwt>
<pdfrwt beam="2">  1       -2 0.98749735E-01 0.21950432E+04</pdfrwt>
<totfact> 0.60877725E+00</totfact>
</mgrwt>
</event>
<event>
12    1  0.2433511E-007  0.1699320E+04  0.7818608E-02  0.8761752E-01
          2   -1    0    0  501    0  0.00000000000E+00  0.00000000000E+00  0.20380704099E+04  0.20380704099E+04  0.00000000000E+00 0. -1.
         -2   -1    0    0    0  501 -0.00000000000E+00 -0.00000000000E+00 -0.35421861826E+03  0.35421861826E+03  0.00000000000E+00 0.  1.
         23    2    1    2    0    0  0.49431129167E+03 -0.25354388014E+03  0.25925750636E+03  0.61975357052E+03  0.90839866436E+02 0.  0.
        254    2    1    2    0    0 -0.49431129167E+03  0.25354388014E+03  0.14245942853E+04  0.17725354577E+04  0.89654052820E+03 0.  0.
        -24    2    4    4    0    0 -0.23679101544E+03  0.46965996705E+03  0.12990788706E+04  0.14038599319E+04  0.81032874279E+02 0.  0.
         24    2    4    4    0    0 -0.25752027623E+03 -0.21611608691E+03  0.12551541470E+03  0.36867552576E+03  0.84526139591E+02 0.  0.
         13    1    3    3    0    0  0.59027260512E+02 -0.66902497066E+02  0.45183776558E+02  0.10000867593E+03  0.00000000000E+00 0. -1.
        -13    1    3    3    0    0  0.43528403116E+03 -0.18664138308E+03  0.21407372980E+03  0.51974489459E+03  0.00000000000E+00 0.  1.
          2    1    6    6  502    0 -0.10376984750E+03 -0.37254853742E+02  0.49602759815E+02  0.12089887989E+03  0.00000000000E+00 0. -1.
          3    1    5    5  503    0 -0.10888635116E+03  0.13507230309E+03  0.45236627555E+03  0.48449562618E+03  0.00000000000E+00 0. -1.
         -4    1    5    5    0  503 -0.12790466427E+03  0.33458766396E+03  0.84671259506E+03  0.91936430573E+03  0.00000000000E+00 0.  1.
         -1    1    6    6    0  502 -0.15375042873E+03 -0.17886123317E+03  0.75912654889E+02  0.24777664586E+03  0.00000000000E+00 0.  1.
<mgrwt>
<rscale>  0 0.16993204E+04</rscale>
<asrwt>0</asrwt>
<pdfrwt beam="1">  1        2 0.31354929E+00 0.16993204E+04</pdfrwt>
<pdfrwt beam="2">  1       -2 0.54495173E-01 0.16993204E+04</pdfrwt>
<totfact> 0.19192052E+01</totfact>
</mgrwt>
</event>
<event>
12    1  0.2433511E-007  0.2558404E+04  0.7818608E-02  0.8382469E-01
         -2   -1    0    0    0  501 -0.00000000000E+00  0.00000000000E+00  0.11743532618E+04  0.11743532618E+04  0.00000000000E+00 0.  1.
          2   -1    0    0  501    0  0.00000000000E+00 -0.00000000000E+00 -0.13934116956E+04  0.13934116956E+04  0.00000000000E+00 0. -1.
         23    2    1    2    0    0 -0.10004133950E+04  0.48658526601E+03  0.21651297378E+02  0.11167222621E+04  0.94908640920E+02 0.  0.
        254    2    1    2    0    0  0.10004133950E+04 -0.48658526601E+03 -0.24070973126E+03  0.14510426953E+04  0.89999530375E+03 0.  0.
        -24    2    4    4    0    0  0.65394091847E+03 -0.31062160630E+03  0.29371011953E+03  0.78548698159E+03  0.81238271669E+02 0.  0.
         24    2    4    4    0    0  0.34647247651E+03 -0.17596365971E+03 -0.53441985080E+03  0.66555571366E+03  0.79708497341E+02 0.  0.
         13    1    3    3    0    0 -0.52287855956E+03  0.27303268183E+03 -0.32816920150E+02  0.59078404146E+03  0.00000000000E+00 0. -1.
        -13    1    3    3    0    0 -0.47753483542E+03  0.21355258418E+03  0.54468217528E+02  0.52593822068E+03  0.00000000000E+00 0.  1.
          2    1    6    6  502    0  0.26495684820E+03 -0.14772757683E+03 -0.35852082984E+03  0.46964109040E+03  0.00000000000E+00 0. -1.
          1    1    5    5  503    0  0.14118606909E+03 -0.79120667516E+02  0.10114928374E+03  0.19085272787E+03  0.00000000000E+00 0. -1.
         -2    1    5    5    0  503  0.51275484938E+03 -0.23150093878E+03  0.19256083579E+03  0.59463425373E+03  0.00000000000E+00 0.  1.
         -1    1    6    6    0  502  0.81515628310E+02 -0.28236082883E+02 -0.17589902095E+03  0.19591462326E+03  0.00000000000E+00 0.  1.
<mgrwt>
<rscale>  0 0.25584039E+04</rscale>
<asrwt>0</asrwt>
<pdfrwt beam="1">  1        2 0.21437103E+00 0.25584039E+04</pdfrwt>
<pdfrwt beam="2">  1       -2 0.18066973E+00 0.25584039E+04</pdfrwt>
<totfact> 0.23247018E+00</totfact>
</mgrwt>
</event>
<event>
12    1  0.2433511E-007  0.1955414E+04  0.7818608E-02  0.8627755E-01
          1   -1    0    0  501    0  0.00000000000E+00  0.00000000000E+00  0.18477080434E+04  0.18477080434E+04  0.00000000000E+00 0. -1.
         -1   -1    0    0    0  501 -0.00000000000E+00 -0.00000000000E+00 -0.51734951386E+03  0.51734951386E+03  0.00000000000E+00 0.  1.
         23    2    1    2    0    0  0.84767320305E+01 -0.17471319141E+03  0.14331310469E+04  0.14466132735E+04  0.90712795201E+02 0.  0.
        254    2    1    2    0    0 -0.84767320305E+01  0.17471319141E+03 -0.10277251734E+03  0.91844428379E+03  0.89575730969E+03 0.  0.
        -24    2    4    4    0    0  0.30658909368E+03 -0.16234285957E+03  0.15011442516E+03  0.38618214821E+03  0.79058424837E+02 0.  0.
         24    2    4    4    0    0 -0.31506582571E+03  0.33705605099E+03 -0.25288694250E+03  0.53226213558E+03  0.80485521987E+02 0.  0.
         11    1    3    3    0    0  0.44670376190E+01 -0.49569357070E+02  0.78017600519E+03  0.78176190407E+03  0.00000000000E+00 0. -1.
        -11    1    3    3    0    0  0.40096944115E+01 -0.12514383434E+03  0.65295504171E+03  0.66485136942E+03  0.00000000000E+00 0.  1.
          4    1    6    6  502    0 -0.25868772171E+03  0.28215108113E+03 -0.24186190203E+03  0.45279769169E+03  0.00000000000E+00 0. -1.
          1    1    5    5  503    0  0.29298505793E+03 -0.14930051642E+03  0.15910479580E+03  0.36530155272E+03  0.00000000000E+00 0. -1.
         -2    1    5    5    0  503  0.13604035750E+02 -0.13042343152E+02 -0.89903706454E+01  0.20880595488E+02  0.00000000000E+00 0.  1.
         -3    1    6    6    0  502 -0.56378104003E+02  0.54904969852E+02 -0.11025040471E+02  0.79464443890E+02  0.00000000000E+00 0.  1.
<mgrwt>
<rscale>  0 0.19554139E+04</rscale>
<asrwt>0</asrwt>
<pdfrwt beam="1">  1        1 0.28426277E+00 0.19554139E+04</pdfrwt>
<pdfrwt beam="2">  1       -1 0.79592234E-01 0.19554139E+04</pdfrwt>
<totfact> 0.55517317E+00</totfact>
</mgrwt>
</event>
<event>
12    1  0.2433511E-007  0.1518783E+04  0.7818608E-02  0.8872058E-01
          2   -1    0    0  501    0  0.00000000000E+00  0.00000000000E+00  0.89101110028E+03  0.89101110028E+03  0.00000000000E+00 0. -1.
         -2   -1    0    0    0  501 -0.00000000000E+00 -0.00000000000E+00 -0.64721455808E+03  0.64721455808E+03  0.00000000000E+00 0.  1.
         23    2    1    2    0    0  0.41595669400E+03 -0.44829795218E+02  0.33043789290E+03  0.54074366066E+03  0.90470015229E+02 0.  0.
        254    2    1    2    0    0 -0.41595669400E+03  0.44829795218E+02 -0.86641350701E+02  0.99748199770E+03  0.90135116922E+03 0.  0.
        -24    2    4    4    0    0 -0.24935619143E+03 -0.38900805034E+03  0.11776299805E+03  0.48346312811E+03  0.79766528670E+02 0.  0.
         24    2    4    4    0    0 -0.16660050257E+03  0.43383784556E+03 -0.20440434875E+03  0.51401886958E+03  0.80394382895E+02 0.  0.
         11    1    3    3    0    0  0.13655017258E+03  0.26057194792E+02  0.12283796796E+03  0.18551035929E+03  0.00000000000E+00 0.  1.
        -11    1    3    3    0    0  0.27940652143E+03 -0.70886990010E+02  0.20759992494E+03  0.35523330137E+03  0.00000000000E+00 0. -1.
          2    1    6    6  502    0 -0.99407936847E+01  0.12393927297E+03 -0.50717458283E+02  0.13428336955E+03  0.00000000000E+00 0. -1.
          3    1    5    5  503    0 -0.20344378244E+00 -0.40092202324E+02  0.77979305056E+01  0.40844017881E+02  0.00000000000E+00 0. -1.
         -4    1    5    5    0  503 -0.24915274765E+03 -0.34891584802E+03  0.10996506754E+03  0.44261911023E+03  0.00000000000E+00 0.  1.
         -1    1    6    6    0  502 -0.15665970889E+03  0.30989857259E+03 -0.15368689047E+03  0.37973550003E+03  0.00000000000E+00 0.  1.
<mgrwt>
<rscale>  0 0.15187829E+04</rscale>
<asrwt>0</asrwt>
<pdfrwt beam="1">  1        2 0.13707863E+00 0.15187829E+04</pdfrwt>
<pdfrwt beam="2">  1       -2 0.99571471E-01 0.15187829E+04</pdfrwt>
<totfact> 0.23946630E+01</totfact>
</mgrwt>
</event>
<event>
12    1  0.2433511E-007  0.1897869E+04  0.7818608E-02  0.8655918E-01
          2   -1    0    0  501    0  0.00000000000E+00  0.00000000000E+00  0.76857273683E+03  0.76857273683E+03  0.00000000000E+00 0.  1.
         -2   -1    0    0    0  501 -0.00000000000E+00 -0.00000000000E+00 -0.11716217615E+04  0.11716217615E+04  0.00000000000E+00 0. -1.
         23    2    1    2    0    0  0.55573237201E+03  0.47336432905E+03 -0.11084837739E+03  0.74412915003E+03  0.92350267084E+02 0.  0.
        254    2    1    2    0    0 -0.55573237201E+03 -0.47336432905E+03 -0.29220064724E+03  0.11960653483E+04  0.90126513398E+03 0.  0.
        -24    2    4    4    0    0 -0.34373351925E+03 -0.12761412905E+03  0.29536476561E+03  0.47773294893E+03  0.80934093805E+02 0.  0.
         24    2    4    4    0    0 -0.21199885276E+03 -0.34575020000E+03 -0.58756541284E+03  0.71833239933E+03  0.79256590755E+02 0.  0.
         11    1    3    3    0    0  0.24583045045E+03  0.15736617691E+03 -0.66082773925E+02  0.29927187809E+03  0.00000000000E+00 0.  1.
        -11    1    3    3    0    0  0.30990192156E+03  0.31599815215E+03 -0.44765603467E+02  0.44485727194E+03  0.00000000000E+00 0. -1.
          2    1    6    6  502    0 -0.75625417935E+02 -0.62067988044E+02 -0.15691231264E+03  0.18491379839E+03  0.00000000000E+00 0. -1.
          1    1    5    5  503    0 -0.17784052200E+03 -0.94223722298E+02  0.19884434493E+03  0.28292125162E+03  0.00000000000E+00 0. -1.
         -2    1    5    5    0  503 -0.16589299725E+03 -0.33390406752E+02  0.96520420681E+02  0.19481169731E+03  0.00000000000E+00 0.  1.
         -1    1    6    6    0  502 -0.13637343483E+03 -0.28368221196E+03 -0.43065310020E+03  0.53341860093E+03  0.00000000000E+00 0.  1.
<mgrwt>
<rscale>  0 0.18978689E+04</rscale>
<asrwt>0</asrwt>
<pdfrwt beam="1">  1        2 0.11824196E+00 0.18978689E+04</pdfrwt>
<pdfrwt beam="2">  1       -2 0.18024950E+00 0.18978689E+04</pdfrwt>
<totfact> 0.61412749E+00</totfact>
</mgrwt>
</event>
<event>
12    1  0.2433511E-007  0.2086775E+04  0.7818608E-02  0.8567091E-01
         -2   -1    0    0    0  501 -0.00000000000E+00  0.00000000000E+00  0.14170988028E+04  0.14170988028E+04  0.00000000000E+00 0.  1.
          2   -1    0    0  501    0  0.00000000000E+00 -0.00000000000E+00 -0.76822997834E+03  0.76822997834E+03  0.00000000000E+00 0. -1.
         23    2    1    2    0    0 -0.35062739217E+03 -0.28588733610E+03  0.10172599958E+04  0.11170510341E+04  0.91181010358E+02 0.  0.
        254    2    1    2    0    0  0.35062739217E+03  0.28588733610E+03 -0.36839117133E+03  0.10682777471E+04  0.89489337502E+03 0.  0.
        -24    2    4    4    0    0  0.91091670302E+02  0.68199701258E+02  0.29109492948E+03  0.32255846250E+03  0.79742160188E+02 0.  0.
         24    2    4    4    0    0  0.25953572187E+03  0.21768763485E+03 -0.65948610081E+03  0.74571928456E+03  0.80178780917E+02 0.  0.
         11    1    3    3    0    0 -0.11444633052E+03 -0.70449554095E+02  0.39914260874E+03  0.42116021222E+03  0.00000000000E+00 0.  1.
        -11    1    3    3    0    0 -0.23618106165E+03 -0.21543778201E+03  0.61811738703E+03  0.69589082186E+03  0.00000000000E+00 0. -1.
          4    1    6    6  502    0  0.24511012146E+03  0.21126172781E+03 -0.57526618262E+03  0.66003156754E+03  0.00000000000E+00 0. -1.
          3    1    5    5  503    0  0.81475640807E+02  0.47809854601E+02  0.28341237546E+03  0.29874175605E+03  0.00000000000E+00 0. -1.
         -4    1    5    5    0  503  0.96160294954E+01  0.20389846657E+02  0.76825540171E+01  0.23816706451E+02  0.00000000000E+00 0.  1.
         -3    1    6    6    0  502  0.14425600413E+02  0.64259070314E+01 -0.84219918183E+02  0.85687717015E+02  0.00000000000E+00 0.  1.
<mgrwt>
<rscale>  0 0.20867753E+04</rscale>
<asrwt>0</asrwt>
<pdfrwt beam="1">  1        2 0.11818923E+00 0.20867753E+04</pdfrwt>
<pdfrwt beam="2">  1       -2 0.21801520E+00 0.20867753E+04</pdfrwt>
<totfact> 0.34096821E+00</totfact>
</mgrwt>
</event>
<event>
12    1  0.2433511E-007  0.1468829E+04  0.7818608E-02  0.8905450E-01
         -1   -1    0    0    0  501 -0.00000000000E+00  0.00000000000E+00  0.94645881742E+03  0.94645881742E+03  0.00000000000E+00 0.  1.
          1   -1    0    0  501    0  0.00000000000E+00 -0.00000000000E+00 -0.56987651737E+03  0.56987651737E+03  0.00000000000E+00 0. -1.
         23    2    1    2    0    0 -0.19819392763E+03  0.38831155757E+03  0.23327608667E+03  0.50415711347E+03  0.98437613553E+02 0.  0.
        254    2    1    2    0    0  0.19819392763E+03 -0.38831155757E+03  0.14330621339E+03  0.10121782213E+04  0.90216483097E+03 0.  0.
        -24    2    4    4    0    0  0.10323654483E+03 -0.67442952368E+03  0.13244763653E+03  0.69956636393E+03  0.79610015200E+02 0.  0.
         24    2    4    4    0    0  0.94957382799E+02  0.28611796611E+03  0.10858576857E+02  0.31261185740E+03  0.82023591823E+02 0.  0.
         11    1    3    3    0    0 -0.38269117427E+02  0.17222809459E+03  0.71214935921E+02  0.19025932043E+03  0.00000000000E+00 0.  1.
        -11    1    3    3    0    0 -0.15992481020E+03  0.21608346298E+03  0.16206115075E+03  0.31389779303E+03  0.00000000000E+00 0. -1.
          4    1    6    6  502    0 -0.96931481638E+01  0.83735295838E+02 -0.30436561130E+01  0.84349396755E+02  0.00000000000E+00 0. -1.
          3    1    5    5  503    0 -0.11337220228E+02 -0.40769108084E+02  0.86659683281E+00  0.42324977573E+02  0.00000000000E+00 0. -1.
         -4    1    5    5    0  503  0.11457376506E+03 -0.63366041559E+03  0.13158103970E+03  0.65724138635E+03  0.00000000000E+00 0.  1.
         -3    1    6    6    0  502  0.10465053096E+03  0.20238267027E+03  0.13902232970E+02  0.22826246064E+03  0.00000000000E+00 0.  1.
<mgrwt>
<rscale>  0 0.14688290E+04</rscale>
<asrwt>0</asrwt>
<pdfrwt beam="1">  1        1 0.87673310E-01 0.14688290E+04</pdfrwt>
<pdfrwt beam="2">  1       -1 0.14560905E+00 0.14688290E+04</pdfrwt>
<totfact> 0.13515808E+01</totfact>
</mgrwt>
</event>
<event>
12    1  0.2433511E-007  0.1697346E+04  0.7818608E-02  0.8762879E-01
          1   -1    0    0  501    0  0.00000000000E+00  0.00000000000E+00  0.40626783373E+03  0.40626783373E+03  0.00000000000E+00 0. -1.
         -1   -1    0    0    0  501 -0.00000000000E+00 -0.00000000000E+00 -0.17728355535E+04  0.17728355535E+04  0.00000000000E+00 0.  1.
         23    2    1    2    0    0 -0.91355333007E+02 -0.58882737153E+03 -0.33330152459E+03  0.68882169668E+03  0.91224739997E+02 0.  0.
        254    2    1    2    0    0  0.91355333007E+02  0.58882737153E+03 -0.10332661951E+04  0.14902816905E+04  0.89344110982E+03 0.  0.
        -24    2    4    4    0    0  0.11411628884E+03  0.81328207112E+03 -0.87124399111E+03  0.11999558289E+04  0.79860157009E+02 0.  0.
         24    2    4    4    0    0 -0.22760955829E+02 -0.22445469959E+03 -0.16202220403E+03  0.29032586162E+03  0.84498154104E+02 0.  0.
         13    1    3    3    0    0 -0.73520525458E+01 -0.19930957026E+03 -0.70723468997E+02  0.21161324755E+03  0.00000000000E+00 0. -1.
        -13    1    3    3    0    0 -0.84003280462E+02 -0.38951780127E+03 -0.26257805560E+03  0.47720844912E+03  0.00000000000E+00 0.  1.
          4    1    6    6  502    0 -0.23091611892E+02 -0.20962668767E+03 -0.17225896926E+03  0.27230446786E+03  0.00000000000E+00 0. -1.
          1    1    5    5  503    0  0.39991832595E+02  0.33791858360E+03 -0.30539803902E+03  0.45722672500E+03  0.00000000000E+00 0. -1.
         -2    1    5    5    0  503  0.74124456241E+02  0.47536348752E+03 -0.56584595209E+03  0.74272910390E+03  0.00000000000E+00 0.  1.
         -3    1    6    6    0  502  0.33065606386E+00 -0.14828011915E+02  0.10236765226E+02  0.18021393761E+02  0.00000000000E+00 0.  1.
<mgrwt>
<rscale>  0 0.16973462E+04</rscale>
<asrwt>0</asrwt>
<pdfrwt beam="1">  1        1 0.62502743E-01 0.16973462E+04</pdfrwt>
<pdfrwt beam="2">  1       -1 0.27274393E+00 0.16973462E+04</pdfrwt>
<totfact> 0.27759646E+00</totfact>
</mgrwt>
</event>
<event>
12    1  0.2433511E-007  0.3120052E+04  0.7818608E-02  0.8210256E-01
         -1   -1    0    0    0  501 -0.00000000000E+00  0.00000000000E+00  0.11191960612E+04  0.11191960612E+04  0.00000000000E+00 0.  1.
          1   -1    0    0  501    0  0.00000000000E+00 -0.00000000000E+00 -0.21744897364E+04  0.21744897364E+04  0.00000000000E+00 0. -1.
         23    2    1    2    0    0  0.65797268880E+03 -0.91048093613E+03  0.44750579922E+03  0.12127460965E+04  0.92671785673E+02 0.  0.
        254    2    1    2    0    0 -0.65797268880E+03  0.91048093613E+03 -0.15027994744E+04  0.20809397011E+04  0.90000010288E+03 0.  0.
        -24    2    4    4    0    0  0.99884810034E+02  0.60131109003E+03 -0.70212260217E+03  0.93321876663E+03  0.79806739350E+02 0.  0.
         24    2    4    4    0    0 -0.75785749884E+03  0.30916984610E+03 -0.80067687220E+03  0.11477209345E+04  0.79031053806E+02 0.  0.
         13    1    3    3    0    0  0.12608193696E+03 -0.11845822911E+03  0.62537910001E+02  0.18395650861E+03  0.00000000000E+00 0. -1.
        -13    1    3    3    0    0  0.53189075184E+03 -0.79202270702E+03  0.38496788922E+03  0.10287895878E+04  0.00000000000E+00 0.  1.
          4    1    6    6  502    0 -0.36300001558E+03  0.10589964768E+03 -0.36117044712E+03  0.52290327840E+03  0.00000000000E+00 0. -1.
          3    1    5    5  503    0  0.46657771724E+02  0.10107138303E+03 -0.13993340280E+03  0.17881199442E+03  0.00000000000E+00 0. -1.
         -4    1    5    5    0  503  0.53227038311E+02  0.50023970701E+03 -0.56218919937E+03  0.75440677221E+03  0.00000000000E+00 0.  1.
         -1    1    6    6    0  502 -0.39485748326E+03  0.20327019842E+03 -0.43950642508E+03  0.62481765607E+03  0.00000000000E+00 0.  1.
<mgrwt>
<rscale>  0 0.31200515E+04</rscale>
<asrwt>0</asrwt>
<pdfrwt beam="1">  1        1 0.33453688E+00 0.31200515E+04</pdfrwt>
<pdfrwt beam="2">  1       -1 0.17218401E+00 0.31200515E+04</pdfrwt>
<totfact> 0.45295786E-01</totfact>
</mgrwt>
</event>
<event>
12    1  0.2433511E-007  0.1815477E+04  0.7818608E-02  0.8698112E-01
         -2   -1    0    0    0  501 -0.00000000000E+00  0.00000000000E+00  0.95654678562E+03  0.95654678562E+03  0.00000000000E+00 0.  1.
          2   -1    0    0  501    0  0.00000000000E+00 -0.00000000000E+00 -0.86142085087E+03  0.86142085087E+03  0.00000000000E+00 0. -1.
         23    2    1    2    0    0  0.61001769529E+03  0.28438002915E+03 -0.67869477603E+02  0.68256140111E+03  0.91050594392E+02 0.  0.
        254    2    1    2    0    0 -0.61001769529E+03 -0.28438002915E+03  0.16299541236E+03  0.11354062354E+04  0.89977009583E+03 0.  0.
        -24    2    4    4    0    0 -0.26456780393E+03 -0.15421728623E+03  0.52449001399E+03  0.61267833787E+03  0.80659014823E+02 0.  0.
         24    2    4    4    0    0 -0.34544989137E+03 -0.13016274292E+03 -0.36149460163E+03  0.52272789752E+03  0.79297797886E+02 0.  0.
         11    1    3    3    0    0  0.12865014668E+03  0.98472459648E+02  0.64796301238E+00  0.16201267051E+03  0.00000000000E+00 0.  1.
        -11    1    3    3    0    0  0.48136754861E+03  0.18590756950E+03 -0.68517440616E+02  0.52054873059E+03  0.00000000000E+00 0. -1.
          4    1    6    6  502    0  0.38416060413E+01 -0.16077347331E+01 -0.98236099822E+01  0.10669866964E+02  0.00000000000E+00 0. -1.
          1    1    5    5  503    0 -0.65115944824E+02 -0.76921533903E+02  0.13712599240E+03  0.17017798459E+03  0.00000000000E+00 0. -1.
         -2    1    5    5    0  503 -0.19945185910E+03 -0.77295752326E+02  0.38736402159E+03  0.44250035328E+03  0.00000000000E+00 0.  1.
         -3    1    6    6    0  502 -0.34929149741E+03 -0.12855500819E+03 -0.35167099165E+03  0.51205803056E+03  0.00000000000E+00 0.  1.
<mgrwt>
<rscale>  0 0.18154772E+04</rscale>
<asrwt>0</asrwt>
<pdfrwt beam="1">  1        2 0.13252628E+00 0.18154772E+04</pdfrwt>
<pdfrwt beam="2">  1       -2 0.14716104E+00 0.18154772E+04</pdfrwt>
<totfact> 0.92579458E+00</totfact>
</mgrwt>
</event>
<event>
12    1  0.2433511E-007  0.2749437E+04  0.7818608E-02  0.8319140E-01
          1   -1    0    0  501    0  0.00000000000E+00  0.00000000000E+00  0.18158969205E+04  0.18158969205E+04  0.00000000000E+00 0. -1.
         -1   -1    0    0    0  501 -0.00000000000E+00 -0.00000000000E+00 -0.10407256211E+04  0.10407256211E+04  0.00000000000E+00 0.  1.
         23    2    1    2    0    0 -0.65583589095E+03  0.10307065733E+04  0.45242934708E+03  0.13056988064E+04  0.87637337844E+02 0.  0.
        254    2    1    2    0    0  0.65583589095E+03 -0.10307065733E+04  0.32274195227E+03  0.15509237352E+04  0.89929155927E+03 0.  0.
        -24    2    4    4    0    0  0.78449796548E+03 -0.50768055059E+03  0.36123746942E+03  0.10050586528E+04  0.80459847307E+02 0.  0.
         24    2    4    4    0    0 -0.12866207453E+03 -0.52302602268E+03 -0.38495517155E+02  0.54586508236E+03  0.79853825642E+02 0.  0.
         11    1    3    3    0    0 -0.39564689623E+02  0.33995724611E+02  0.29109301768E+02  0.59736298899E+02  0.00000000000E+00 0. -1.
        -11    1    3    3    0    0 -0.61627120133E+03  0.99671084866E+03  0.42332004531E+03  0.12459625075E+04  0.00000000000E+00 0.  1.
          2    1    6    6  502    0 -0.52242919521E+02 -0.26651526984E+03 -0.57252944984E+02  0.27755650129E+03  0.00000000000E+00 0. -1.
          3    1    5    5  503    0  0.58413928262E+03 -0.35091321040E+03  0.29229688212E+03  0.74148246778E+03  0.00000000000E+00 0. -1.
         -4    1    5    5    0  503  0.20035868286E+03 -0.15676734019E+03  0.68940587302E+02  0.26357618505E+03  0.00000000000E+00 0.  1.
         -1    1    6    6    0  502 -0.76419155010E+02 -0.25651075284E+03  0.18757427830E+02  0.26830858107E+03  0.00000000000E+00 0.  1.
<mgrwt>
<rscale>  0 0.27494366E+04</rscale>
<asrwt>0</asrwt>
<pdfrwt beam="1">  1        1 0.27936876E+00 0.27494366E+04</pdfrwt>
<pdfrwt beam="2">  1       -1 0.16011163E+00 0.27494366E+04</pdfrwt>
<totfact> 0.10077641E+00</totfact>
</mgrwt>
</event>
<event>
12    1  0.2433511E-007  0.1690487E+04  0.7818608E-02  0.8766808E-01
         -1   -1    0    0    0  501 -0.00000000000E+00  0.00000000000E+00  0.23901621649E+03  0.23901621649E+03  0.00000000000E+00 0.  1.
          1   -1    0    0  501    0  0.00000000000E+00 -0.00000000000E+00 -0.29890732974E+04  0.29890732974E+04  0.00000000000E+00 0. -1.
         23    2    1    2    0    0 -0.22737495092E+03  0.53977229860E+03 -0.12348439278E+04  0.13699078586E+04  0.93565551890E+02 0.  0.
        254    2    1    2    0    0  0.22737495092E+03 -0.53977229860E+03 -0.15152131531E+04  0.18581816553E+04  0.90217219083E+03 0.  0.
        -24    2    4    4    0    0 -0.76286050546E+02 -0.70724646159E+03 -0.93642563680E+03  0.11787718200E+04  0.81196744543E+02 0.  0.
         24    2    4    4    0    0  0.30366100147E+03  0.16747416299E+03 -0.57878751633E+03  0.67940983531E+03  0.79656363050E+02 0.  0.
         11    1    3    3    0    0 -0.17887291684E+03  0.30958638721E+03 -0.76760407255E+03  0.84679115709E+03  0.00000000000E+00 0. -1.
        -11    1    3    3    0    0 -0.48502034086E+02  0.23018591138E+03 -0.46723985525E+03  0.52311670155E+03  0.00000000000E+00 0.  1.
          2    1    6    6  502    0  0.26583421136E+03  0.11378990176E+03 -0.45110203019E+03  0.53582554186E+03  0.00000000000E+00 0. -1.
          1    1    5    5  503    0 -0.85731785234E+02 -0.60580081122E+03 -0.76790795074E+03  0.98184885939E+03  0.00000000000E+00 0. -1.
         -2    1    5    5    0  503  0.94457346880E+01 -0.10144565036E+03 -0.16851768606E+03  0.19692296056E+03  0.00000000000E+00 0.  1.
         -1    1    6    6    0  502  0.37826790112E+02  0.53684261234E+02 -0.12768548613E+03  0.14358429344E+03  0.00000000000E+00 0.  1.
<mgrwt>
<rscale>  0 0.16904875E+04</rscale>
<asrwt>0</asrwt>
<pdfrwt beam="1">  1        1 0.45985742E+00 0.16904875E+04</pdfrwt>
<pdfrwt beam="2">  1       -1 0.36771727E-01 0.16904875E+04</pdfrwt>
<totfact> 0.41328799E+00</totfact>
</mgrwt>
</event>
<event>
12    1  0.2433511E-007  0.2812244E+04  0.7818608E-02  0.8299477E-01
         -2   -1    0    0    0  501 -0.00000000000E+00  0.00000000000E+00  0.15000021492E+04  0.15000021492E+04  0.00000000000E+00 0.  1.
          2   -1    0    0  501    0  0.00000000000E+00 -0.00000000000E+00 -0.13181172961E+04  0.13181172961E+04  0.00000000000E+00 0. -1.
         23    2    1    2    0    0 -0.21071870361E+03  0.84660173030E+03 -0.82886903499E+03  0.12071160193E+04  0.94701346642E+02 0.  0.
        254    2    1    2    0    0  0.21071870361E+03 -0.84660173030E+03  0.10107538881E+04  0.16110034260E+04  0.90142762025E+03 0.  0.
        -24    2    4    4    0    0  0.54331494935E+03 -0.59887384393E+03  0.79535944423E+03  0.11369361379E+04  0.78651897720E+02 0.  0.
         24    2    4    4    0    0 -0.33259624574E+03 -0.24772788638E+03  0.21539444389E+03  0.47406728814E+03  0.79722386122E+02 0.  0.
         13    1    3    3    0    0 -0.10705605103E+03  0.58500920058E+03 -0.52978494896E+03  0.79647275847E+03  0.00000000000E+00 0.  1.
        -13    1    3    3    0    0 -0.10366265258E+03  0.26159252972E+03 -0.29908408603E+03  0.41064326082E+03  0.00000000000E+00 0. -1.
          4    1    6    6  502    0 -0.29236089317E+03 -0.21813075151E+03  0.15671583989E+03  0.39700852772E+03  0.00000000000E+00 0. -1.
          3    1    5    5  503    0  0.46895703057E+03 -0.51168043943E+03  0.71827884594E+03  0.99883035053E+03  0.00000000000E+00 0. -1.
         -4    1    5    5    0  503  0.74357918786E+02 -0.87193404495E+02  0.77080598298E+02  0.13810578738E+03  0.00000000000E+00 0.  1.
         -3    1    6    6    0  502 -0.40235352570E+02 -0.29597134870E+02  0.58678604004E+02  0.77058760416E+02  0.00000000000E+00 0.  1.
<mgrwt>
<rscale>  0 0.28122438E+04</rscale>
<asrwt>0</asrwt>
<pdfrwt beam="1">  1        2 0.20278728E+00 0.28122438E+04</pdfrwt>
<pdfrwt beam="2">  1       -2 0.23076956E+00 0.28122438E+04</pdfrwt>
<totfact> 0.11859452E+00</totfact>
</mgrwt>
</event>
<event>
12    1  0.2433511E-007  0.1346511E+04  0.7818608E-02  0.8993474E-01
          2   -1    0    0  501    0  0.00000000000E+00  0.00000000000E+00  0.93704927262E+03  0.93704927262E+03  0.00000000000E+00 0. -1.
         -2   -1    0    0    0  501 -0.00000000000E+00 -0.00000000000E+00 -0.48372354620E+03  0.48372354620E+03  0.00000000000E+00 0.  1.
         23    2    1    2    0    0 -0.24559378809E+02  0.27819869119E+03  0.37412654377E+03  0.47568260709E+03  0.91135048535E+02 0.  0.
        254    2    1    2    0    0  0.24559378809E+02 -0.27819869119E+03  0.79199182650E+02  0.94509021173E+03  0.89940275901E+03 0.  0.
        -24    2    4    4    0    0  0.64968789457E+02  0.18309474988E+03 -0.28184764450E+03  0.35194681239E+03  0.81754712427E+02 0.  0.
         24    2    4    4    0    0 -0.40409410648E+02 -0.46129344107E+03  0.36104682715E+03  0.59314339934E+03  0.83903048484E+02 0.  0.
         11    1    3    3    0    0  0.33102861148E+02  0.13837036154E+03  0.19112165420E+03  0.23826380983E+03  0.00000000000E+00 0. -1.
        -11    1    3    3    0    0 -0.57662239956E+02  0.13982832965E+03  0.18300488956E+03  0.23741879726E+03  0.00000000000E+00 0.  1.
          2    1    6    6  502    0  0.17678941450E+02 -0.26483475407E+03  0.19307746773E+03  0.32822081055E+03  0.00000000000E+00 0. -1.
          1    1    5    5  503    0  0.81871437135E+01  0.13685097966E+03 -0.17251929793E+03  0.22035908903E+03  0.00000000000E+00 0. -1.
         -2    1    5    5    0  503  0.56781645743E+02  0.46243770219E+02 -0.10932834657E+03  0.13158772337E+03  0.00000000000E+00 0.  1.
         -1    1    6    6    0  502 -0.58088352098E+02 -0.19645868700E+03  0.16796935942E+03  0.26492258879E+03  0.00000000000E+00 0.  1.
<mgrwt>
<rscale>  0 0.13465107E+04</rscale>
<asrwt>0</asrwt>
<pdfrwt beam="1">  1        2 0.14416143E+00 0.13465107E+04</pdfrwt>
<pdfrwt beam="2">  1       -2 0.74419007E-01 0.13465107E+04</pdfrwt>
<totfact> 0.43965870E+01</totfact>
</mgrwt>
</event>
<event>
12    1  0.2433511E-007  0.2203535E+04  0.7818608E-02  0.8516958E-01
         -1   -1    0    0    0  501 -0.00000000000E+00  0.00000000000E+00  0.46257873985E+03  0.46257873985E+03  0.00000000000E+00 0.  1.
          1   -1    0    0  501    0  0.00000000000E+00 -0.00000000000E+00 -0.26241839314E+04  0.26241839314E+04  0.00000000000E+00 0. -1.
         23    2    1    2    0    0 -0.23445415696E+03  0.61030725371E+03 -0.47469890951E+01  0.65994208100E+03  0.89762579787E+02 0.  0.
        254    2    1    2    0    0  0.23445415696E+03 -0.61030725371E+03 -0.21568582024E+04  0.24268205902E+04  0.89998731997E+03 0.  0.
        -24    2    4    4    0    0  0.57438664583E+03 -0.40379946066E+03 -0.13671153675E+04  0.15388518253E+04  0.78015952395E+02 0.  0.
         24    2    4    4    0    0 -0.33993248887E+03 -0.20650779305E+03 -0.78974283491E+03  0.88796876491E+03  0.81210938832E+02 0.  0.
         13    1    3    3    0    0 -0.19927639510E+03  0.54981169617E+03  0.21489101643E+02  0.58520574534E+03  0.00000000000E+00 0.  1.
        -13    1    3    3    0    0 -0.35177761856E+02  0.60495557536E+02 -0.26236090738E+02  0.74736335661E+02  0.00000000000E+00 0. -1.
          2    1    6    6  502    0 -0.33402662268E+03 -0.19489530660E+03 -0.78300602497E+03  0.87330200981E+03  0.00000000000E+00 0. -1.
          3    1    5    5  503    0  0.48133927138E+03 -0.32580915548E+03 -0.10656527270E+04  0.12138594789E+04  0.00000000000E+00 0. -1.
         -4    1    5    5    0  503  0.93047374451E+02 -0.77990305174E+02 -0.30146264055E+03  0.32499234643E+03  0.00000000000E+00 0.  1.
         -1    1    6    6    0  502 -0.59058661936E+01 -0.11612486452E+02 -0.67368099348E+01  0.14666755101E+02  0.00000000000E+00 0.  1.
<mgrwt>
<rscale>  0 0.22035351E+04</rscale>
<asrwt>0</asrwt>
<pdfrwt beam="1">  1        1 0.40372060E+00 0.22035351E+04</pdfrwt>
<pdfrwt beam="2">  1       -1 0.71165961E-01 0.22035351E+04</pdfrwt>
<totfact> 0.20172546E+00</totfact>
</mgrwt>
</event>
<event>
12    1  0.2433511E-007  0.1813305E+04  0.7818608E-02  0.8699256E-01
          2   -1    0    0  501    0  0.00000000000E+00  0.00000000000E+00  0.55503855664E+03  0.55503855664E+03  0.00000000000E+00 0. -1.
         -2   -1    0    0    0  501 -0.00000000000E+00 -0.00000000000E+00 -0.14810113587E+04  0.14810113587E+04  0.00000000000E+00 0.  1.
         23    2    1    2    0    0  0.11959976189E+03  0.46819281715E+03 -0.88678259628E+03  0.10136751011E+04  0.87436951637E+02 0.  0.
        254    2    1    2    0    0 -0.11959976189E+03 -0.46819281715E+03 -0.39190205810E+02  0.10223748142E+04  0.90011431023E+03 0.  0.
        -24    2    4    4    0    0  0.10787318079E+03 -0.43620449358E+03  0.34192946971E+03  0.57034189941E+03  0.80393635383E+02 0.  0.
         24    2    4    4    0    0 -0.22747294268E+03 -0.31988323565E+02 -0.38111967552E+03  0.45203291483E+03  0.79462925419E+02 0.  0.
         13    1    3    3    0    0  0.41375856587E+02  0.69470784520E+02 -0.10416669346E+03  0.13186679429E+03  0.00000000000E+00 0. -1.
        -13    1    3    3    0    0  0.78223905306E+02  0.39872203262E+03 -0.78261590281E+03  0.88180830683E+03  0.00000000000E+00 0.  1.
          2    1    6    6  502    0 -0.41020611636E+02 -0.20719189447E+02 -0.31731956593E+02  0.55847045218E+02  0.00000000000E+00 0. -1.
          3    1    5    5  503    0  0.69378087988E+02 -0.16416218694E+03  0.10060425589E+03  0.20465521986E+03  0.00000000000E+00 0. -1.
         -4    1    5    5    0  503  0.38495092804E+02 -0.27204230665E+03  0.24132521382E+03  0.36568667955E+03  0.00000000000E+00 0.  1.
         -1    1    6    6    0  502 -0.18645233105E+03 -0.11269134117E+02 -0.34938771893E+03  0.39618586961E+03  0.00000000000E+00 0.  1.
<mgrwt>
<rscale>  0 0.18133046E+04</rscale>
<asrwt>0</asrwt>
<pdfrwt beam="1">  1        2 0.85390548E-01 0.18133046E+04</pdfrwt>
<pdfrwt beam="2">  1       -2 0.22784790E+00 0.18133046E+04</pdfrwt>
<totfact> 0.45270024E+00</totfact>
</mgrwt>
</event>
<event>
12    1  0.2433511E-007  0.1797025E+04  0.7818608E-02  0.8707883E-01
         -2   -1    0    0    0  501 -0.00000000000E+00  0.00000000000E+00  0.10791836621E+04  0.10791836621E+04  0.00000000000E+00 0.  1.
          2   -1    0    0  501    0  0.00000000000E+00 -0.00000000000E+00 -0.74808816616E+03  0.74808816616E+03  0.00000000000E+00 0. -1.
         23    2    1    2    0    0  0.28494188147E+03 -0.96533076942E+02 -0.48555894750E+03  0.57553182506E+03  0.70419311300E+02 0.  0.
        254    2    1    2    0    0 -0.28494188147E+03  0.96533076942E+02  0.81665444344E+03  0.12517400032E+04  0.89967663349E+03 0.  0.
        -24    2    4    4    0    0  0.27351129412E+03 -0.48762088736E+02  0.56993212106E+02  0.29454432259E+03  0.79510769290E+02 0.  0.
         24    2    4    4    0    0 -0.55845317560E+03  0.14529516568E+03  0.75966123133E+03  0.95719568061E+03  0.78471332863E+02 0.  0.
         13    1    3    3    0    0  0.20513304698E+03 -0.38456529509E+02 -0.30168903037E+03  0.36684430303E+03  0.00000000000E+00 0. -1.
        -13    1    3    3    0    0  0.79808834496E+02 -0.58076547433E+02 -0.18386991713E+03  0.20868752203E+03  0.00000000000E+00 0.  1.
          4    1    6    6  502    0 -0.38065168661E+03  0.10651744546E+03  0.45891509379E+03  0.60567708890E+03  0.00000000000E+00 0. -1.
          1    1    5    5  503    0  0.10603762265E+03 -0.20532440185E+02  0.62183447662E+02  0.12462880759E+03  0.00000000000E+00 0. -1.
         -2    1    5    5    0  503  0.16747367147E+03 -0.28229648551E+02 -0.51902355562E+01  0.16991551500E+03  0.00000000000E+00 0.  1.
         -3    1    6    6    0  502 -0.17780148898E+03  0.38777720215E+02  0.30074613754E+03  0.35151859171E+03  0.00000000000E+00 0.  1.
<mgrwt>
<rscale>  0 0.17970248E+04</rscale>
<asrwt>0</asrwt>
<pdfrwt beam="1">  1        2 0.11509049E+00 0.17970248E+04</pdfrwt>
<pdfrwt beam="2">  1       -2 0.16602825E+00 0.17970248E+04</pdfrwt>
<totfact> 0.80809855E+00</totfact>
</mgrwt>
</event>
<event>
12    1  0.2433511E-007  0.1709322E+04  0.7818608E-02  0.8756065E-01
         -2   -1    0    0    0  501 -0.00000000000E+00  0.00000000000E+00  0.29928280189E+03  0.29928280189E+03  0.00000000000E+00 0.  1.
          2   -1    0    0  501    0  0.00000000000E+00 -0.00000000000E+00 -0.24406531189E+04  0.24406531189E+04  0.00000000000E+00 0. -1.
         23    2    1    2    0    0 -0.51990986867E+03  0.32690601522E+03 -0.80681161607E+03  0.10174761597E+04  0.84492232859E+02 0.  0.
        254    2    1    2    0    0  0.51990986867E+03 -0.32690601522E+03 -0.13345587010E+04  0.17224597611E+04  0.89924795689E+03 0.  0.
        -24    2    4    4    0    0  0.18020198749E+03  0.30495490999E+03 -0.51927300815E+03  0.63346834954E+03  0.78533046924E+02 0.  0.
         24    2    4    4    0    0  0.33970788119E+03 -0.63186092520E+03 -0.81528569282E+03  0.10889914116E+04  0.81005309745E+02 0.  0.
         13    1    3    3    0    0 -0.35980610537E+03  0.18951824571E+03 -0.57175601269E+03  0.70162848927E+03  0.00000000000E+00 0. -1.
        -13    1    3    3    0    0 -0.16010376331E+03  0.13738776951E+03 -0.23505560338E+03  0.31584767043E+03  0.00000000000E+00 0.  1.
          2    1    6    6  502    0  0.34391745205E+03 -0.62755654976E+03 -0.80518281121E+03  0.10772306143E+04  0.00000000000E+00 0. -1.
          3    1    5    5  503    0  0.18143213517E+03  0.25569639540E+03 -0.45098728288E+03  0.54926113609E+03  0.00000000000E+00 0. -1.
         -4    1    5    5    0  503 -0.12301476862E+01  0.49258514582E+02 -0.68285725268E+02  0.84207213453E+02  0.00000000000E+00 0.  1.
         -1    1    6    6    0  502 -0.42095708672E+01 -0.43043754402E+01 -0.10102881614E+02  0.11760797240E+02  0.00000000000E+00 0.  1.
<mgrwt>
<rscale>  0 0.17093221E+04</rscale>
<asrwt>0</asrwt>
<pdfrwt beam="1">  1        2 0.37548509E+00 0.17093221E+04</pdfrwt>
<pdfrwt beam="2">  1       -2 0.46043509E-01 0.17093221E+04</pdfrwt>
<totfact> 0.16042538E+01</totfact>
</mgrwt>
</event>
<event>
12    1  0.2433511E-007  0.1735547E+04  0.7818608E-02  0.8741346E-01
         -1   -1    0    0    0  501 -0.00000000000E+00  0.00000000000E+00  0.60226515494E+03  0.60226515494E+03  0.00000000000E+00 0.  1.
          1   -1    0    0  501    0  0.00000000000E+00 -0.00000000000E+00 -0.12503308234E+04  0.12503308234E+04  0.00000000000E+00 0. -1.
         23    2    1    2    0    0 -0.38840870504E+03  0.13562205170E+03  0.28341914520E+03  0.50752027554E+03  0.89418986575E+02 0.  0.
        254    2    1    2    0    0  0.38840870504E+03 -0.13562205170E+03 -0.93148481362E+03  0.13450757028E+04  0.87881171197E+03 0.  0.
        -24    2    4    4    0    0 -0.17739648845E+03  0.17693084244E+03 -0.83279767851E+02  0.27570827947E+03  0.79407169153E+02 0.  0.
         24    2    4    4    0    0  0.56580519349E+03 -0.31255289414E+03 -0.84820504577E+03  0.10693674233E+04  0.79183695944E+02 0.  0.
         13    1    3    3    0    0 -0.17101795697E+03  0.67364933292E+02  0.74324392111E+02  0.19826570835E+03  0.00000000000E+00 0. -1.
        -13    1    3    3    0    0 -0.21739074807E+03  0.68257118406E+02  0.20909475309E+03  0.30925456719E+03  0.00000000000E+00 0.  1.
          4    1    6    6  502    0  0.93890548084E+02 -0.69332903307E+02 -0.19922083743E+03  0.23089267760E+03  0.00000000000E+00 0. -1.
          1    1    5    5  503    0 -0.70123833761E+02  0.95875295455E+02 -0.24067989034E+01  0.11880747881E+03  0.00000000000E+00 0. -1.
         -2    1    5    5    0  503 -0.10727265469E+03  0.81055546986E+02 -0.80872968947E+02  0.15690080066E+03  0.00000000000E+00 0.  1.
         -3    1    6    6    0  502  0.47191464541E+03 -0.24321999083E+03 -0.64898420834E+03  0.83847474569E+03  0.00000000000E+00 0.  1.
<mgrwt>
<rscale>  0 0.17355468E+04</rscale>
<asrwt>0</asrwt>
<pdfrwt beam="1">  1        1 0.19235859E+00 0.17355468E+04</pdfrwt>
<pdfrwt beam="2">  1       -1 0.92656179E-01 0.17355468E+04</pdfrwt>
<totfact> 0.10552782E+01</totfact>
</mgrwt>
</event>
<event>
12    1  0.2433511E-007  0.1142277E+04  0.7818608E-02  0.9164938E-01
         -1   -1    0    0    0  501 -0.00000000000E+00  0.00000000000E+00  0.37905201735E+03  0.37905201735E+03  0.00000000000E+00 0.  1.
          1   -1    0    0  501    0  0.00000000000E+00 -0.00000000000E+00 -0.86056650013E+03  0.86056650013E+03  0.00000000000E+00 0. -1.
         23    2    1    2    0    0  0.95876548953E+02 -0.10598535966E+03  0.63177213187E+02  0.18059102087E+03  0.90534785860E+02 0.  0.
        254    2    1    2    0    0 -0.95876548953E+02  0.10598535966E+03 -0.54469169597E+03  0.10590274966E+04  0.89689742214E+03 0.  0.
        -24    2    4    4    0    0  0.34300098363E+03  0.45103751164E+02 -0.34194000894E+01  0.35518576658E+03  0.80381672923E+02 0.  0.
         24    2    4    4    0    0 -0.43887753258E+03  0.60881608492E+02 -0.54127229588E+03  0.70384173005E+03  0.78086002665E+02 0.  0.
         13    1    3    3    0    0  0.10779791017E+03 -0.10540012614E+03  0.70663332608E+02  0.16650189969E+03  0.00000000000E+00 0.  1.
        -13    1    3    3    0    0 -0.11921361213E+02 -0.58523351731E+00 -0.74861194208E+01  0.14089121173E+02  0.00000000000E+00 0. -1.
          2    1    6    6  502    0 -0.41609657580E+03  0.41356962191E+02 -0.51892482940E+03  0.66643059450E+03  0.00000000000E+00 0. -1.
          1    1    5    5  503    0  0.29091420961E+03  0.62707962046E+02 -0.18510250886E+02  0.29817108385E+03  0.00000000000E+00 0. -1.
         -2    1    5    5    0  503  0.52086774021E+02 -0.17604210882E+02  0.15090850797E+02  0.57014682727E+02  0.00000000000E+00 0.  1.
         -1    1    6    6    0  502 -0.22780956778E+02  0.19524646302E+02 -0.22347466478E+02  0.37411135547E+02  0.00000000000E+00 0.  1.
<mgrwt>
<rscale>  0 0.11422775E+04</rscale>
<asrwt>0</asrwt>
<pdfrwt beam="1">  1        1 0.13239485E+00 0.11422775E+04</pdfrwt>
<pdfrwt beam="2">  1       -1 0.58315695E-01 0.11422775E+04</pdfrwt>
<totfact> 0.58094523E+01</totfact>
</mgrwt>
</event>
<event>
12    1  0.2433511E-007  0.1294166E+04  0.7818608E-02  0.9034205E-01
         -1   -1    0    0    0  501 -0.00000000000E+00  0.00000000000E+00  0.31049939226E+03  0.31049939226E+03  0.00000000000E+00 0.  1.
          1   -1    0    0  501    0  0.00000000000E+00 -0.00000000000E+00 -0.13485247917E+04  0.13485247917E+04  0.00000000000E+00 0. -1.
         23    2    1    2    0    0  0.33826353974E+02  0.31676631868E+03 -0.35661209818E+03  0.48646377088E+03  0.89385059901E+02 0.  0.
        254    2    1    2    0    0 -0.33826353974E+02 -0.31676631868E+03 -0.68141330122E+03  0.11725604131E+04  0.89949358659E+03 0.  0.
        -24    2    4    4    0    0 -0.24673671747E+03 -0.51685464023E+03 -0.21662094561E+03  0.61766532979E+03  0.81043807100E+02 0.  0.
         24    2    4    4    0    0  0.21291036350E+03  0.20008832155E+03 -0.46479235561E+03  0.55489508326E+03  0.80687423378E+02 0.  0.
         11    1    3    3    0    0  0.29120556692E+02  0.10497805647E+03 -0.18119010363E+03  0.21141961313E+03  0.00000000000E+00 0. -1.
        -11    1    3    3    0    0  0.47057972819E+01  0.21178826222E+03 -0.17542199455E+03  0.27504415775E+03  0.00000000000E+00 0.  1.
          4    1    6    6  502    0  0.12166403079E+03  0.10793172962E+03 -0.32968000775E+03  0.36761433889E+03  0.00000000000E+00 0. -1.
          1    1    5    5  503    0 -0.68002817031E+02 -0.81237342592E+02 -0.22186037395E+02  0.10824097750E+03  0.00000000000E+00 0. -1.
         -2    1    5    5    0  503 -0.17873390044E+03 -0.43561729764E+03 -0.19443490822E+03  0.50942435229E+03  0.00000000000E+00 0.  1.
         -3    1    6    6    0  502  0.91246332712E+02  0.92156591935E+02 -0.13511234786E+03  0.18728074438E+03  0.00000000000E+00 0.  1.
<mgrwt>
<rscale>  0 0.12941656E+04</rscale>
<asrwt>0</asrwt>
<pdfrwt beam="1">  1        1 0.20746535E+00 0.12941656E+04</pdfrwt>
<pdfrwt beam="2">  1       -1 0.47769137E-01 0.12941656E+04</pdfrwt>
<totfact> 0.35934015E+01</totfact>
</mgrwt>
</event>
<event>
12    1  0.2433511E-007  0.1254516E+04  0.7818608E-02  0.9066433E-01
         -2   -1    0    0    0  501 -0.00000000000E+00  0.00000000000E+00  0.57130175940E+03  0.57130175940E+03  0.00000000000E+00 0.  1.
          2   -1    0    0  501    0  0.00000000000E+00 -0.00000000000E+00 -0.68869518247E+03  0.68869518247E+03  0.00000000000E+00 0. -1.
         23    2    1    2    0    0  0.25127034380E+03 -0.80762908752E+02  0.98611955068E+02  0.29632477107E+03  0.91785724194E+02 0.  0.
        254    2    1    2    0    0 -0.25127034380E+03  0.80762908752E+02 -0.21600537814E+03  0.96367217080E+03  0.90130255535E+03 0.  0.
        -24    2    4    4    0    0 -0.34572585736E+03  0.26865502520E+03  0.20273001376E+03  0.48903114344E+03  0.79687575968E+02 0.  0.
         24    2    4    4    0    0  0.94455513565E+02 -0.18789211644E+03 -0.41873539190E+03  0.47464102736E+03  0.75627276551E+02 0.  0.
         11    1    3    3    0    0  0.24047326236E+03 -0.51668664393E+02  0.74411398362E+02  0.25697100420E+03  0.00000000000E+00 0.  1.
        -11    1    3    3    0    0  0.10797081434E+02 -0.29094244359E+02  0.24200556706E+02  0.39353766874E+02  0.00000000000E+00 0. -1.
          2    1    6    6  502    0  0.33558452964E+02 -0.13945710417E+02 -0.44233119736E+02  0.57247021634E+02  0.00000000000E+00 0. -1.
          1    1    5    5  503    0 -0.11140790431E+03  0.13372040117E+03  0.91728307975E+02  0.19674081761E+03  0.00000000000E+00 0. -1.
         -2    1    5    5    0  503 -0.23431795305E+03  0.13493462403E+03  0.11100170578E+03  0.29229032583E+03  0.00000000000E+00 0.  1.
         -1    1    6    6    0  502  0.60897060601E+02 -0.17394640603E+03 -0.37450227216E+03  0.41739400572E+03  0.00000000000E+00 0.  1.
<mgrwt>
<rscale>  0 0.12545163E+04</rscale>
<asrwt>0</asrwt>
<pdfrwt beam="1">  1        2 0.10595311E+00 0.12545163E+04</pdfrwt>
<pdfrwt beam="2">  1       -2 0.87892578E-01 0.12545163E+04</pdfrwt>
<totfact> 0.45916973E+01</totfact>
</mgrwt>
</event>
<event>
12    1  0.2433511E-007  0.4794568E+04  0.7818608E-02  0.7861003E-01
         -1   -1    0    0    0  501 -0.00000000000E+00  0.00000000000E+00  0.18622165012E+04  0.18622165012E+04  0.00000000000E+00 0.  1.
          1   -1    0    0  501    0  0.00000000000E+00 -0.00000000000E+00 -0.30860916509E+04  0.30860916509E+04  0.00000000000E+00 0. -1.
         23    2    1    2    0    0  0.40241144172E+02  0.90290221068E+03  0.16043619170E+04  0.18436711734E+04  0.91074054005E+02 0.  0.
        254    2    1    2    0    0 -0.40241144172E+02 -0.90290221068E+03 -0.28282370667E+04  0.31046369787E+04  0.90719022937E+03 0.  0.
        -24    2    4    4    0    0 -0.22683905490E+03 -0.21653043433E+02 -0.13527445230E+04  0.13739797520E+04  0.77316254074E+02 0.  0.
         24    2    4    4    0    0  0.18659791073E+03 -0.88124916725E+03 -0.14754925437E+04  0.17306572267E+04  0.81714838805E+02 0.  0.
         11    1    3    3    0    0 -0.86296962964E+01  0.67069100555E+03  0.11629509443E+04  0.13425184525E+04  0.00000000000E+00 0.  1.
        -11    1    3    3    0    0  0.48870840468E+02  0.23221120513E+03  0.44141097268E+03  0.50115272087E+03  0.00000000000E+00 0. -1.
          2    1    6    6  502    0  0.84542536850E+02 -0.55836286644E+03 -0.96377960284E+03  0.11170441594E+04  0.00000000000E+00 0. -1.
          3    1    5    5  503    0 -0.13765430458E+03  0.19199264667E+02 -0.67380664850E+03  0.68799180148E+03  0.00000000000E+00 0. -1.
         -4    1    5    5    0  503 -0.89184750319E+02 -0.40852308099E+02 -0.67893787452E+03  0.68598795049E+03  0.00000000000E+00 0.  1.
         -3    1    6    6    0  502  0.10205537388E+03 -0.32288630081E+03 -0.51171294084E+03  0.61361306734E+03  0.00000000000E+00 0.  1.
<mgrwt>
<rscale>  0 0.47945681E+04</rscale>
<asrwt>0</asrwt>
<pdfrwt beam="1">  1        1 0.47478333E+00 0.47945681E+04</pdfrwt>
<pdfrwt beam="2">  1       -1 0.28649485E+00 0.47945681E+04</pdfrwt>
<totfact> 0.15314812E-02</totfact>
</mgrwt>
</event>
<event>
12    1  0.2433511E-007  0.1122638E+04  0.7818608E-02  0.9183404E-01
          2   -1    0    0  501    0  0.00000000000E+00  0.00000000000E+00  0.35297849131E+03  0.35297849131E+03  0.00000000000E+00 0. -1.
         -2   -1    0    0    0  501 -0.00000000000E+00 -0.00000000000E+00 -0.89262979907E+03  0.89262979907E+03  0.00000000000E+00 0.  1.
         23    2    1    2    0    0  0.75132718283E+02 -0.16724811328E+03 -0.10423302254E+03  0.22989258944E+03  0.91483457201E+02 0.  0.
        254    2    1    2    0    0 -0.75132718283E+02  0.16724811328E+03 -0.43541828523E+03  0.10157157009E+04  0.89915095800E+03 0.  0.
        -24    2    4    4    0    0  0.33371850094E+03 -0.72372186809E+02  0.22982289032E+02  0.35138553577E+03  0.79610538547E+02 0.  0.
         24    2    4    4    0    0 -0.40885121922E+03  0.23962030009E+03 -0.45840057426E+03  0.66433016517E+03  0.81401929970E+02 0.  0.
         11    1    3    3    0    0  0.60324321854E+02 -0.15213627139E+03 -0.49141931704E+02  0.17087831440E+03  0.00000000000E+00 0. -1.
        -11    1    3    3    0    0  0.14808396430E+02 -0.15111841890E+02 -0.55091090832E+02  0.59014275046E+02  0.00000000000E+00 0.  1.
          2    1    6    6  502    0 -0.23387595250E+03  0.15084763909E+03 -0.32073426748E+03  0.42464507734E+03  0.00000000000E+00 0. -1.
          1    1    5    5  503    0  0.21545339282E+03 -0.38036057446E+02  0.51966335093E+02  0.22487197720E+03  0.00000000000E+00 0. -1.
         -2    1    5    5    0  503  0.11826510811E+03 -0.34336129363E+02 -0.28984046062E+02  0.12651355857E+03  0.00000000000E+00 0.  1.
         -1    1    6    6    0  502 -0.17497526672E+03  0.88772660996E+02 -0.13766630678E+03  0.23968508783E+03  0.00000000000E+00 0.  1.
<mgrwt>
<rscale>  0 0.11226382E+04</rscale>
<asrwt>0</asrwt>
<pdfrwt beam="1">  1        2 0.54304385E-01 0.11226382E+04</pdfrwt>
<pdfrwt beam="2">  1       -2 0.13732766E+00 0.11226382E+04</pdfrwt>
<totfact> 0.34238358E+01</totfact>
</mgrwt>
</event>
<event>
12    1  0.2433511E-007  0.2015503E+04  0.7818608E-02  0.8599407E-01
         -2   -1    0    0    0  501 -0.00000000000E+00  0.00000000000E+00  0.94708498792E+03  0.94708498792E+03  0.00000000000E+00 0.  1.
          2   -1    0    0  501    0  0.00000000000E+00 -0.00000000000E+00 -0.10723035526E+04  0.10723035526E+04  0.00000000000E+00 0. -1.
         23    2    1    2    0    0 -0.10945929736E+03  0.78346099281E+03  0.93633897486E+02  0.80182525718E+03  0.91454749751E+02 0.  0.
        254    2    1    2    0    0  0.10945929736E+03 -0.78346099281E+03 -0.21885246218E+03  0.12175632833E+04  0.89931723197E+03 0.  0.
        -24    2    4    4    0    0  0.38496388838E+03 -0.27388987664E+03 -0.37922982193E+03  0.61107179371E+03  0.79878779086E+02 0.  0.
         24    2    4    4    0    0 -0.27550459102E+03 -0.50957111617E+03  0.16037735975E+03  0.60649148964E+03  0.80904433558E+02 0.  0.
         13    1    3    3    0    0 -0.14176857222E+02  0.14631669187E+03  0.53184973060E+02  0.15632721759E+03  0.00000000000E+00 0.  1.
        -13    1    3    3    0    0 -0.95282440143E+02  0.63714430095E+03  0.40448924427E+02  0.64549803959E+03  0.00000000000E+00 0. -1.
          4    1    6    6  502    0 -0.18741409826E+03 -0.26511410676E+03  0.10007006395E+03  0.33974041786E+03  0.00000000000E+00 0. -1.
          3    1    5    5  503    0  0.54441185362E+02 -0.29542682231E+02 -0.19740237871E+02  0.65009920229E+02  0.00000000000E+00 0. -1.
         -4    1    5    5    0  503  0.33052270302E+03 -0.24434719440E+03 -0.35948958406E+03  0.54606187348E+03  0.00000000000E+00 0.  1.
         -3    1    6    6    0  502 -0.88090492758E+02 -0.24445700942E+03  0.60307295805E+02  0.26675107178E+03  0.00000000000E+00 0.  1.
<mgrwt>
<rscale>  0 0.20155025E+04</rscale>
<asrwt>0</asrwt>
<pdfrwt beam="1">  1        2 0.16496978E+00 0.20155025E+04</pdfrwt>
<pdfrwt beam="2">  1       -2 0.14570538E+00 0.20155025E+04</pdfrwt>
<totfact> 0.68043159E+00</totfact>
</mgrwt>
</event>
<event>
12    1  0.2433511E-007  0.2339071E+04  0.7818608E-02  0.8462674E-01
         -2   -1    0    0    0  501 -0.00000000000E+00  0.00000000000E+00  0.32403748890E+04  0.32403748890E+04  0.00000000000E+00 0.  1.
          2   -1    0    0  501    0  0.00000000000E+00 -0.00000000000E+00 -0.42211558330E+03  0.42211558330E+03  0.00000000000E+00 0. -1.
         23    2    1    2    0    0 -0.54857822396E+03  0.27775954162E+03 -0.19815988385E+02  0.62203914441E+03  0.91932546015E+02 0.  0.
        254    2    1    2    0    0  0.54857822396E+03 -0.27775954162E+03  0.28380752941E+04  0.30404513279E+04  0.90087983197E+03 0.  0.
        -24    2    4    4    0    0  0.66868397215E+03 -0.19871439876E+03  0.11711453014E+04  0.13655238675E+04  0.80302234581E+02 0.  0.
         24    2    4    4    0    0 -0.12010574819E+03 -0.79045142851E+02  0.16669299927E+04  0.16749274604E+04  0.77800203373E+02 0.  0.
         11    1    3    3    0    0 -0.12917446275E+03  0.10943395399E+03  0.57435545953E+01  0.16939545606E+03  0.00000000000E+00 0.  1.
        -11    1    3    3    0    0 -0.41940376121E+03  0.16832558762E+03 -0.25559542980E+02  0.45264368835E+03  0.00000000000E+00 0. -1.
          4    1    6    6  502    0 -0.50186501218E+02  0.89044667309E+01  0.55470040120E+03  0.55703726045E+03  0.00000000000E+00 0. -1.
          1    1    5    5  503    0  0.26238597657E+02  0.11312658593E+01  0.23720854476E+02  0.35389584719E+02  0.00000000000E+00 0. -1.
         -2    1    5    5    0  503  0.64244537450E+03 -0.19984566462E+03  0.11474244469E+04  0.13301342828E+04  0.00000000000E+00 0.  1.
         -3    1    6    6    0  502 -0.69919246973E+02 -0.87949609582E+02  0.11122295915E+04  0.11178901999E+04  0.00000000000E+00 0.  1.
<mgrwt>
<rscale>  0 0.23390705E+04</rscale>
<asrwt>0</asrwt>
<pdfrwt beam="1">  1        2 0.64940861E-01 0.23390705E+04</pdfrwt>
<pdfrwt beam="2">  1       -2 0.49851920E+00 0.23390705E+04</pdfrwt>
<totfact> 0.11346575E-01</totfact>
</mgrwt>
</event>
<event>
12    1  0.2433511E-007  0.3290249E+04  0.7818608E-02  0.8165381E-01
         -2   -1    0    0    0  501 -0.00000000000E+00  0.00000000000E+00  0.14702565969E+04  0.14702565969E+04  0.00000000000E+00 0.  1.
          2   -1    0    0  501    0  0.00000000000E+00 -0.00000000000E+00 -0.18407905107E+04  0.18407905107E+04  0.00000000000E+00 0. -1.
         23    2    1    2    0    0 -0.13806307056E+04 -0.18687814856E+03 -0.77401704369E+03  0.15964256671E+04  0.91694814563E+02 0.  0.
        254    2    1    2    0    0  0.13806307056E+04  0.18687814856E+03  0.40348312995E+03  0.17146214405E+04  0.91436505864E+03 0.  0.
        -24    2    4    4    0    0  0.12694008947E+03 -0.32035963289E+02 -0.24290248470E+03  0.28504297414E+03  0.71468809802E+02 0.  0.
         24    2    4    4    0    0  0.12536906161E+04  0.21891411185E+03  0.64638561465E+03  0.14295784664E+04  0.78845921525E+02 0.  0.
         13    1    3    3    0    0 -0.29112983823E+03 -0.64876694102E+02 -0.19793907607E+03  0.35797408563E+03  0.00000000000E+00 0. -1.
        -13    1    3    3    0    0 -0.10895008674E+04 -0.12200145446E+03 -0.57607796762E+03  0.12384515815E+04  0.00000000000E+00 0.  1.
          2    1    6    6  502    0  0.24680780777E+03  0.18276988659E+02  0.10413895948E+03  0.26850151801E+03  0.00000000000E+00 0. -1.
          3    1    5    5  503    0  0.22179231314E+02 -0.36996686764E+02 -0.87596467401E+02  0.97641252728E+02  0.00000000000E+00 0. -1.
         -4    1    5    5    0  503  0.10476085815E+03  0.49607234748E+01 -0.15530601730E+03  0.18740172141E+03  0.00000000000E+00 0.  1.
         -1    1    6    6    0  502  0.10068828084E+04  0.20063712319E+03  0.54224665518E+03  0.11610769484E+04  0.00000000000E+00 0.  1.
<mgrwt>
<rscale>  0 0.32902489E+04</rscale>
<asrwt>0</asrwt>
<pdfrwt beam="1">  1        2 0.28319854E+00 0.32902489E+04</pdfrwt>
<pdfrwt beam="2">  1       -2 0.22619332E+00 0.32902489E+04</pdfrwt>
<totfact> 0.61845820E-01</totfact>
</mgrwt>
</event>
<event>
12    1  0.2433511E-007  0.2143415E+04  0.7818608E-02  0.8542356E-01
          1   -1    0    0  501    0  0.00000000000E+00  0.00000000000E+00  0.20880099004E+04  0.20880099004E+04  0.00000000000E+00 0.  1.
         -1   -1    0    0    0  501 -0.00000000000E+00 -0.00000000000E+00 -0.55007231129E+03  0.55007231129E+03  0.00000000000E+00 0. -1.
         23    2    1    2    0    0 -0.63955453830E+02  0.87084417791E+03  0.50807942240E+03  0.10147109264E+04  0.95045685535E+02 0.  0.
        254    2    1    2    0    0  0.63955453830E+02 -0.87084417791E+03  0.10298581667E+04  0.16233712853E+04  0.90125834490E+03 0.  0.
        -24    2    4    4    0    0  0.45241658627E+03 -0.58301669291E+03  0.76717824617E+03  0.10673210948E+04  0.77605581123E+02 0.  0.
         24    2    4    4    0    0 -0.38846113244E+03 -0.28782748500E+03  0.26267992054E+03  0.55605019055E+03  0.80276778848E+02 0.  0.
         11    1    3    3    0    0 -0.36819256897E+02  0.22723506724E+03  0.17732908989E+03  0.29058052168E+03  0.00000000000E+00 0.  1.
        -11    1    3    3    0    0 -0.27136196933E+02  0.64360911067E+03  0.33075033251E+03  0.72413040468E+03  0.00000000000E+00 0. -1.
          2    1    6    6  502    0 -0.21408120745E+03 -0.20267056000E+03  0.13898413096E+03  0.32591825345E+03  0.00000000000E+00 0. -1.
          3    1    5    5  503    0  0.44653113711E+02 -0.45024292059E+02  0.98476989584E+02  0.11712730219E+03  0.00000000000E+00 0. -1.
         -4    1    5    5    0  503  0.40776347256E+03 -0.53799240085E+03  0.66870125659E+03  0.95019379260E+03  0.00000000000E+00 0.  1.
         -1    1    6    6    0  502 -0.17437992499E+03 -0.85156924999E+02  0.12369578958E+03  0.23013193710E+03  0.00000000000E+00 0.  1.
<mgrwt>
<rscale>  0 0.21434145E+04</rscale>
<asrwt>0</asrwt>
<pdfrwt beam="1">  1        1 0.32123229E+00 0.21434145E+04</pdfrwt>
<pdfrwt beam="2">  1       -1 0.84626511E-01 0.21434145E+04</pdfrwt>
<totfact> 0.32881656E+00</totfact>
</mgrwt>
</event>
<event>
12    1  0.2433511E-007  0.1305646E+04  0.7818608E-02  0.9025100E-01
          3   -1    0    0  501    0  0.00000000000E+00  0.00000000000E+00  0.31874532641E+03  0.31874532641E+03  0.00000000000E+00 0. -1.
         -3   -1    0    0    0  501 -0.00000000000E+00 -0.00000000000E+00 -0.13370483226E+04  0.13370483226E+04  0.00000000000E+00 0.  1.
         23    2    1    2    0    0  0.15735883753E+02 -0.24490428807E+03  0.16078436377E+02  0.26260320632E+03  0.92066277769E+02 0.  0.
        254    2    1    2    0    0 -0.15735883753E+02  0.24490428807E+03 -0.10343814326E+04  0.13931904427E+04  0.90044929520E+03 0.  0.
        -24    2    4    4    0    0 -0.25539590730E+03 -0.17581400130E+02 -0.99056489797E+03  0.10261899543E+04  0.79440733469E+02 0.  0.
         24    2    4    4    0    0  0.23966002355E+03  0.26248568820E+03 -0.43816534622E+02  0.36700048841E+03  0.80211011646E+02 0.  0.
         11    1    3    3    0    0  0.10327912417E+02 -0.25042472906E+02  0.32207070914E+02  0.42084280212E+02  0.00000000000E+00 0. -1.
        -11    1    3    3    0    0  0.54079713363E+01 -0.21986181516E+03 -0.16128634536E+02  0.22051892611E+03  0.00000000000E+00 0.  1.
          2    1    6    6  502    0  0.19296075299E+03  0.15614965361E+03 -0.31117448091E+02  0.25016966661E+03  0.00000000000E+00 0. -1.
          1    1    5    5  503    0 -0.10860293724E+03  0.31790550613E+02 -0.42243156884E+03  0.43732558516E+03  0.00000000000E+00 0. -1.
         -2    1    5    5    0  503 -0.14679297005E+03 -0.49371950743E+02 -0.56813332913E+03  0.58886436914E+03  0.00000000000E+00 0.  1.
         -3    1    6    6    0  502  0.46699270559E+02  0.10633603459E+03 -0.12699086532E+02  0.11683082180E+03  0.00000000000E+00 0.  1.
<mgrwt>
<rscale>  0 0.13056461E+04</rscale>
<asrwt>0</asrwt>
<pdfrwt beam="1">  1        3 0.49037742E-01 0.13056461E+04</pdfrwt>
<pdfrwt beam="2">  1       -3 0.20569974E+00 0.13056461E+04</pdfrwt>
<totfact> 0.14304858E+00</totfact>
</mgrwt>
</event>
<event>
12    1  0.2689038E-007  0.1931973E+04  0.7818608E-02  0.8639103E-01
          1   -1    0    0  501    0  0.00000000000E+00  0.00000000000E+00  0.13241787265E+04  0.13241787265E+04  0.00000000000E+00 0. -1.
         -1   -1    0    0    0  501 -0.00000000000E+00 -0.00000000000E+00 -0.70468552615E+03  0.70468552615E+03  0.00000000000E+00 0.  1.
         23    2    1    2    0    0  0.36108311999E+03  0.41653966776E+03  0.78251293461E+03  0.96144080821E+03  0.90308474173E+02 0.  0.
        254    2    1    2    0    0 -0.36108311999E+03 -0.41653966776E+03 -0.16301973426E+03  0.10674234444E+04  0.89940594928E+03 0.  0.
        -24    2    4    4    0    0 -0.54582758881E+03 -0.32435218369E+03  0.17482482466E+03  0.66361527793E+03  0.81788886868E+02 0.  0.
         24    2    4    4    0    0  0.18474446882E+03 -0.92187484073E+02 -0.33784455892E+03  0.40380816651E+03  0.79328673064E+02 0.  0.
         11    1    3    3    0    0  0.68664298891E+02  0.94775784748E+02  0.23283027984E+03  0.26059005071E+03  0.00000000000E+00 0. -1.
        -11    1    3    3    0    0  0.29241882110E+03  0.32176388301E+03  0.54968265477E+03  0.70085075751E+03  0.00000000000E+00 0.  1.
          4    1    6    6  502    0  0.10287281999E+03 -0.92640633298E+02 -0.19463283979E+03  0.23884523516E+03  0.00000000000E+00 0. -1.
          1    1    5    5  503    0 -0.45917866796E+03 -0.23633310715E+03  0.14809278769E+03  0.53724283188E+03  0.00000000000E+00 0. -1.
         -2    1    5    5    0  503 -0.86648920848E+02 -0.88019076536E+02  0.26732036967E+02  0.12637244604E+03  0.00000000000E+00 0.  1.
         -3    1    6    6    0  502  0.81871648825E+02  0.45314922527E+00 -0.14321171912E+03  0.16496293135E+03  0.00000000000E+00 0.  1.
<mgrwt>
<rscale>  0 0.19319727E+04</rscale>
<asrwt>0</asrwt>
<pdfrwt beam="1">  1        1 0.20371980E+00 0.19319727E+04</pdfrwt>
<pdfrwt beam="2">  1       -1 0.10841316E+00 0.19319727E+04</pdfrwt>
<totfact> 0.64068569E+00</totfact>
</mgrwt>
</event>
<event>
12    1  0.2433511E-007  0.3710638E+04  0.7818608E-02  0.8065608E-01
          2   -1    0    0  501    0  0.00000000000E+00  0.00000000000E+00  0.18821859959E+04  0.18821859959E+04  0.00000000000E+00 0. -1.
         -2   -1    0    0    0  501 -0.00000000000E+00 -0.00000000000E+00 -0.18288354968E+04  0.18288354968E+04  0.00000000000E+00 0.  1.
         23    2    1    2    0    0  0.21063582513E+03  0.17310078278E+04 -0.40309052268E+02  0.17466123294E+04  0.90962951454E+02 0.  0.
        254    2    1    2    0    0 -0.21063582513E+03 -0.17310078278E+04  0.93659551422E+02  0.19644091634E+04  0.89965309914E+03 0.  0.
        -24    2    4    4    0    0 -0.94555982992E+02 -0.16560811055E+04 -0.15665120056E+03  0.16680783641E+04  0.80002302094E+02 0.  0.
         24    2    4    4    0    0 -0.11607984214E+03 -0.74926722353E+02  0.25031075198E+03  0.29633079928E+03  0.77896897032E+02 0.  0.
         11    1    3    3    0    0  0.66645382496E+02  0.72461410908E+03  0.22623419526E+02  0.72802406087E+03  0.00000000000E+00 0. -1.
        -11    1    3    3    0    0  0.14399044264E+03  0.10063937187E+04 -0.62932471794E+02  0.10185882685E+04  0.00000000000E+00 0.  1.
          2    1    6    6  502    0 -0.86942466901E+02 -0.33451428683E+02  0.95400418161E+02  0.13333878062E+03  0.00000000000E+00 0. -1.
          1    1    5    5  503    0 -0.33743566788E+02 -0.11989244950E+04 -0.12225389301E+03  0.12056137804E+04  0.00000000000E+00 0. -1.
         -2    1    5    5    0  503 -0.60812416204E+02 -0.45715661043E+03 -0.34397307554E+02  0.46246458371E+03  0.00000000000E+00 0.  1.
         -1    1    6    6    0  502 -0.29137375239E+02 -0.41475293670E+02  0.15491033382E+03  0.16299201866E+03  0.00000000000E+00 0.  1.
<mgrwt>
<rscale>  0 0.37106380E+04</rscale>
<asrwt>0</asrwt>
<pdfrwt beam="1">  1        2 0.28956708E+00 0.37106380E+04</pdfrwt>
<pdfrwt beam="2">  1       -2 0.28135931E+00 0.37106380E+04</pdfrwt>
<totfact> 0.25924374E-01</totfact>
</mgrwt>
</event>
<event>
12    1  0.2433511E-007  0.1635413E+04  0.7818608E-02  0.8799083E-01
          2   -1    0    0  501    0  0.00000000000E+00  0.00000000000E+00  0.13847060980E+04  0.13847060980E+04  0.00000000000E+00 0. -1.
         -2   -1    0    0    0  501 -0.00000000000E+00 -0.00000000000E+00 -0.48287800455E+03  0.48287800455E+03  0.00000000000E+00 0.  1.
         23    2    1    2    0    0  0.35698461720E+03  0.23584658782E+03  0.73908083841E+03  0.85888682874E+03  0.91566745975E+02 0.  0.
        254    2    1    2    0    0 -0.35698461720E+03 -0.23584658782E+03  0.16274725503E+03  0.10086972738E+04  0.89884475371E+03 0.  0.
        -24    2    4    4    0    0  0.20041968179E+03 -0.12935852593E+03 -0.21003950085E+03  0.32614840170E+03  0.73174523809E+02 0.  0.
         24    2    4    4    0    0 -0.55740429899E+03 -0.10648806188E+03  0.37278675587E+03  0.68254887211E+03  0.69740501895E+02 0.  0.
         11    1    3    3    0    0  0.10113859120E+03  0.11924051428E+03  0.25987448870E+03  0.30328545094E+03  0.00000000000E+00 0.  1.
        -11    1    3    3    0    0  0.25584602600E+03  0.11660607354E+03  0.47920634971E+03  0.55560137780E+03  0.00000000000E+00 0. -1.
          2    1    6    6  502    0 -0.40319573753E+03 -0.97370196432E+02  0.24255788147E+03  0.48050190819E+03  0.00000000000E+00 0. -1.
          3    1    5    5  503    0  0.10560741350E+02  0.83357061371E+01 -0.41926690201E+01  0.14092257739E+02  0.00000000000E+00 0. -1.
         -4    1    5    5    0  503  0.18985894044E+03 -0.13769423207E+03 -0.20584683183E+03  0.31205614396E+03  0.00000000000E+00 0.  1.
         -1    1    6    6    0  502 -0.15420856146E+03 -0.91178654526E+01  0.13022887441E+03  0.20204696392E+03  0.00000000000E+00 0.  1.
<mgrwt>
<rscale>  0 0.16354132E+04</rscale>
<asrwt>0</asrwt>
<pdfrwt beam="1">  1        2 0.21303171E+00 0.16354132E+04</pdfrwt>
<pdfrwt beam="2">  1       -2 0.74288924E-01 0.16354132E+04</pdfrwt>
<totfact> 0.23030288E+01</totfact>
</mgrwt>
</event>
<event>
12    1  0.2433511E-007  0.2993792E+04  0.7818608E-02  0.8245506E-01
          1   -1    0    0  501    0  0.00000000000E+00  0.00000000000E+00  0.16873336350E+04  0.16873336350E+04  0.00000000000E+00 0. -1.
         -1   -1    0    0    0  501 -0.00000000000E+00 -0.00000000000E+00 -0.13279518817E+04  0.13279518817E+04  0.00000000000E+00 0.  1.
         23    2    1    2    0    0 -0.24991824359E+03 -0.10455719944E+04 -0.67483111840E+03  0.12724754073E+04  0.90092729866E+02 0.  0.
        254    2    1    2    0    0  0.24991824359E+03  0.10455719944E+04  0.10342128717E+04  0.17428101093E+04  0.90117195319E+03 0.  0.
        -24    2    4    4    0    0 -0.23968435999E+03  0.44250662846E+03  0.89844829635E+02  0.51741061382E+03  0.79880793924E+02 0.  0.
         24    2    4    4    0    0  0.48960260357E+03  0.60306536590E+03  0.94436804208E+03  0.12253994955E+04  0.79839712228E+02 0.  0.
         13    1    3    3    0    0 -0.44568508435E+02 -0.26765140975E+03 -0.13062789323E+03  0.30114328081E+03  0.00000000000E+00 0. -1.
        -13    1    3    3    0    0 -0.20534973515E+03 -0.77792058461E+03 -0.54420322517E+03  0.97133212650E+03  0.00000000000E+00 0.  1.
          2    1    6    6  502    0  0.44199193087E+03  0.54816992119E+03  0.81540174997E+03  0.10773704763E+04  0.00000000000E+00 0. -1.
          3    1    5    5  503    0 -0.16479757203E+03  0.34738605774E+03  0.40288504810E+02  0.38659859866E+03  0.00000000000E+00 0. -1.
         -4    1    5    5    0  503 -0.74886787954E+02  0.95120570711E+02  0.49556324825E+02  0.13081201517E+03  0.00000000000E+00 0.  1.
         -1    1    6    6    0  502  0.47610672704E+02  0.54895444716E+02  0.12896629211E+03  0.14802901914E+03  0.00000000000E+00 0.  1.
<mgrwt>
<rscale>  0 0.29937922E+04</rscale>
<asrwt>0</asrwt>
<pdfrwt beam="1">  1        1 0.25958979E+00 0.29937922E+04</pdfrwt>
<pdfrwt beam="2">  1       -1 0.20430029E+00 0.29937922E+04</pdfrwt>
<totfact> 0.58209159E-01</totfact>
</mgrwt>
</event>
<event>
12    1  0.2741509E-007  0.4319728E+04  0.7818608E-02  0.7942980E-01
          2   -1    0    0  501    0  0.00000000000E+00  0.00000000000E+00  0.30981722584E+04  0.30981722584E+04  0.00000000000E+00 0. -1.
         -2   -1    0    0    0  501 -0.00000000000E+00 -0.00000000000E+00 -0.15057303021E+04  0.15057303021E+04  0.00000000000E+00 0.  1.
         23    2    1    2    0    0 -0.18523233395E+04 -0.79468820470E+03  0.28356417669E+03  0.20375617074E+04  0.92833034560E+02 0.  0.
        254    2    1    2    0    0  0.18523233395E+04  0.79468820470E+03  0.13088777797E+04  0.25663408531E+04  0.90017400294E+03 0.  0.
        -24    2    4    4    0    0  0.10962504123E+04  0.37709640001E+03  0.12347672690E+04  0.16956140095E+04  0.80560531205E+02 0.  0.
         24    2    4    4    0    0  0.75607292720E+03  0.41759180470E+03  0.74110510605E+02  0.87072684360E+03  0.81508783562E+02 0.  0.
         13    1    3    3    0    0 -0.71057637121E+03 -0.27659385405E+03  0.14441872967E+03  0.77606681987E+03  0.00000000000E+00 0. -1.
        -13    1    3    3    0    0 -0.11417469683E+04 -0.51809435065E+03  0.13914544701E+03  0.12614948875E+04  0.00000000000E+00 0.  1.
          2    1    6    6  502    0  0.37330001381E+03  0.24566196296E+03  0.16580536044E+02  0.44718856708E+03  0.00000000000E+00 0. -1.
          1    1    5    5  503    0  0.97381902582E+03  0.33332468988E+03  0.10568349577E+04  0.14752386152E+04  0.00000000000E+00 0. -1.
         -2    1    5    5    0  503  0.12243138650E+03  0.43771710124E+02  0.17793231135E+03  0.22037539434E+03  0.00000000000E+00 0.  1.
         -3    1    6    6    0  502  0.38277291339E+03  0.17192984174E+03  0.57529974561E+02  0.42353827652E+03  0.00000000000E+00 0.  1.
<mgrwt>
<rscale>  0 0.43197277E+04</rscale>
<asrwt>0</asrwt>
<pdfrwt beam="1">  1        2 0.47664189E+00 0.43197277E+04</pdfrwt>
<pdfrwt beam="2">  1       -2 0.23165082E+00 0.43197277E+04</pdfrwt>
<totfact> 0.96779693E-02</totfact>
</mgrwt>
</event>
<event>
12    1  0.2433511E-007  0.1922579E+04  0.7818608E-02  0.8643698E-01
          2   -1    0    0  501    0  0.00000000000E+00  0.00000000000E+00  0.93100059555E+03  0.93100059555E+03  0.00000000000E+00 0. -1.
         -2   -1    0    0    0  501 -0.00000000000E+00 -0.00000000000E+00 -0.99256412374E+03  0.99256412374E+03  0.00000000000E+00 0.  1.
         23    2    1    2    0    0  0.18418918680E+03 -0.63165077075E+03  0.33002228255E+03  0.74132117851E+03  0.87943334123E+02 0.  0.
        254    2    1    2    0    0 -0.18418918680E+03  0.63165077075E+03 -0.39158581074E+03  0.11822435408E+04  0.90080629984E+03 0.  0.
        -24    2    4    4    0    0 -0.50439062391E+03  0.15115343653E+03 -0.18680277404E+03  0.56466336002E+03  0.81805689899E+02 0.  0.
         24    2    4    4    0    0  0.32020143711E+03  0.48049733422E+03 -0.20478303670E+03  0.61758018076E+03  0.77862308151E+02 0.  0.
         13    1    3    3    0    0  0.81107628698E+02 -0.35644359112E+03  0.14047351178E+03  0.39161625170E+03  0.00000000000E+00 0.  1.
        -13    1    3    3    0    0  0.10308155810E+03 -0.27520717962E+03  0.18954877077E+03  0.34970492681E+03  0.00000000000E+00 0. -1.
          2    1    6    6  502    0  0.18855470657E+03  0.29668751573E+03 -0.16372653498E+03  0.38779213197E+03  0.00000000000E+00 0. -1.
          1    1    5    5  503    0 -0.17629819453E+03  0.83574663799E+02 -0.41197242836E+02  0.19940659628E+03  0.00000000000E+00 0. -1.
         -2    1    5    5    0  503 -0.32809242938E+03  0.67578772726E+02 -0.14560553121E+03  0.36525676374E+03  0.00000000000E+00 0.  1.
         -1    1    6    6    0  502  0.13164673053E+03  0.18380981849E+03 -0.41056501716E+02  0.22978804879E+03  0.00000000000E+00 0.  1.
<mgrwt>
<rscale>  0 0.19225793E+04</rscale>
<asrwt>0</asrwt>
<pdfrwt beam="1">  1        2 0.14323086E+00 0.19225793E+04</pdfrwt>
<pdfrwt beam="2">  1       -2 0.15270217E+00 0.19225793E+04</pdfrwt>
<totfact> 0.74637031E+00</totfact>
</mgrwt>
</event>
<event>
12    1  0.2433511E-007  0.1678858E+04  0.7818608E-02  0.8773515E-01
         -2   -1    0    0    0  501 -0.00000000000E+00  0.00000000000E+00  0.10636599243E+04  0.10636599243E+04  0.00000000000E+00 0. -1.
          2   -1    0    0  501    0  0.00000000000E+00 -0.00000000000E+00 -0.66246846161E+03  0.66246846161E+03  0.00000000000E+00 0.  1.
         23    2    1    2    0    0 -0.12759396156E+03  0.41109055856E+03 -0.27797876407E+03  0.52006669401E+03  0.89002845931E+02 0.  0.
        254    2    1    2    0    0  0.12759396156E+03 -0.41109055856E+03  0.67917022674E+03  0.12060616919E+04  0.89890875029E+03 0.  0.
        -24    2    4    4    0    0  0.15729058493E+03 -0.56738636452E+02  0.80094549658E+03  0.82198122203E+03  0.78611957799E+02 0.  0.
         24    2    4    4    0    0 -0.29696623375E+02 -0.35435192211E+03 -0.12177526984E+03  0.38408046984E+03  0.79002638105E+02 0.  0.
         11    1    3    3    0    0 -0.80900843907E+02  0.22835279851E+03 -0.20663690432E+03  0.31841601304E+03  0.00000000000E+00 0.  1.
        -11    1    3    3    0    0 -0.46693117650E+02  0.18273776005E+03 -0.71341859746E+02  0.20165068097E+03  0.00000000000E+00 0. -1.
          4    1    6    6  502    0 -0.18840578508E+02 -0.11825496736E+03 -0.80155296175E+02  0.14409745386E+03  0.00000000000E+00 0. -1.
          1    1    5    5  503    0  0.25572633260E+02 -0.54137419255E+01  0.30967404058E+03  0.31077528792E+03  0.00000000000E+00 0. -1.
         -2    1    5    5    0  503  0.13171795167E+03 -0.51324894526E+02  0.49127145600E+03  0.51120593411E+03  0.00000000000E+00 0.  1.
         -3    1    6    6    0  502 -0.10856044867E+02 -0.23609695475E+03 -0.41619973660E+02  0.23998301598E+03  0.00000000000E+00 0.  1.
<mgrwt>
<rscale>  0 0.16788581E+04</rscale>
<asrwt>0</asrwt>
<pdfrwt beam="1">  1        2 0.10191823E+00 0.16788581E+04</pdfrwt>
<pdfrwt beam="2">  1       -2 0.16363999E+00 0.16788581E+04</pdfrwt>
<totfact> 0.99059532E+00</totfact>
</mgrwt>
</event>
<event>
12    1  0.2433511E-007  0.1779980E+04  0.7818608E-02  0.8717019E-01
         -1   -1    0    0    0  501 -0.00000000000E+00  0.00000000000E+00  0.85242943244E+03  0.85242943244E+03  0.00000000000E+00 0.  1.
          1   -1    0    0  501    0  0.00000000000E+00 -0.00000000000E+00 -0.92920514748E+03  0.92920514748E+03  0.00000000000E+00 0. -1.
         23    2    1    2    0    0 -0.41958505259E+03  0.47815420123E+03  0.13603294039E+03  0.65605209875E+03  0.84949037083E+02 0.  0.
        254    2    1    2    0    0  0.41958505259E+03 -0.47815420123E+03 -0.21280865543E+03  0.11255824812E+04  0.90386135087E+03 0.  0.
        -24    2    4    4    0    0  0.20923374467E+03  0.72739896652E+02 -0.43102171079E+03  0.49144743773E+03  0.81676290364E+02 0.  0.
         24    2    4    4    0    0  0.21035130792E+03 -0.55089409788E+03  0.21821305537E+03  0.63413504344E+03  0.82330650189E+02 0.  0.
         11    1    3    3    0    0 -0.20963166263E+03  0.20752246589E+03  0.25230772771E+02  0.29605337309E+03  0.00000000000E+00 0. -1.
        -11    1    3    3    0    0 -0.20995338995E+03  0.27063173534E+03  0.11080216762E+03  0.35999872566E+03  0.00000000000E+00 0.  1.
          4    1    6    6  502    0  0.12730426075E+03 -0.41485532781E+03  0.13577708503E+03  0.45469411106E+03  0.00000000000E+00 0. -1.
          1    1    5    5  503    0  0.55394594233E+02  0.44861787389E+02 -0.79809158593E+02  0.10700767652E+03  0.00000000000E+00 0. -1.
         -2    1    5    5    0  503  0.15383915043E+03  0.27878109263E+02 -0.35121255220E+03  0.38443976122E+03  0.00000000000E+00 0.  1.
         -3    1    6    6    0  502  0.83047047167E+02 -0.13603877007E+03  0.82435970340E+02  0.17944093238E+03  0.00000000000E+00 0.  1.
<mgrwt>
<rscale>  0 0.17799796E+04</rscale>
<asrwt>0</asrwt>
<pdfrwt beam="1">  1        1 0.14295464E+00 0.17799796E+04</pdfrwt>
<pdfrwt beam="2">  1       -1 0.13114299E+00 0.17799796E+04</pdfrwt>
<totfact> 0.80776238E+00</totfact>
</mgrwt>
</event>
<event>
12    1  0.2433511E-007  0.3742681E+04  0.7818608E-02  0.8058569E-01
          2   -1    0    0  501    0  0.00000000000E+00  0.00000000000E+00  0.21439127041E+04  0.21439127041E+04  0.00000000000E+00 0. -1.
         -2   -1    0    0    0  501 -0.00000000000E+00 -0.00000000000E+00 -0.16334223097E+04  0.16334223097E+04  0.00000000000E+00 0.  1.
         23    2    1    2    0    0 -0.13441651520E+04  0.49196723373E+02  0.13894216962E+04  0.19357466135E+04  0.86151194754E+02 0.  0.
        254    2    1    2    0    0  0.13441651520E+04 -0.49196723373E+02 -0.87893130182E+03  0.18415884004E+04  0.89984850378E+03 0.  0.
        -24    2    4    4    0    0 -0.47437999950E+02 -0.16211117803E+03  0.52565063881E+01  0.18706031539E+03  0.80209306503E+02 0.  0.
         24    2    4    4    0    0  0.13916031519E+04  0.11291445466E+03 -0.88418780821E+03  0.16545280850E+04  0.79787827161E+02 0.  0.
         11    1    3    3    0    0 -0.36568633997E+03  0.18625323529E+02  0.43407475302E+03  0.56788580993E+03  0.00000000000E+00 0. -1.
        -11    1    3    3    0    0 -0.97847881200E+03  0.30571399844E+02  0.95534694317E+03  0.13678608035E+04  0.00000000000E+00 0.  1.
          4    1    6    6  502    0  0.46145324605E+03  0.53277002119E+00 -0.28313560897E+03  0.54139186843E+03  0.00000000000E+00 0. -1.
          1    1    5    5  503    0 -0.57116407585E+02 -0.61541436506E+02  0.15943047849E+02  0.85462349589E+02  0.00000000000E+00 0. -1.
         -2    1    5    5    0  503  0.96784076351E+01 -0.10056974153E+03 -0.10686541461E+02  0.10159796580E+03  0.00000000000E+00 0.  1.
         -3    1    6    6    0  502  0.93014990587E+03  0.11238168464E+03 -0.60105219924E+03  0.11131362166E+04  0.00000000000E+00 0.  1.
<mgrwt>
<rscale>  0 0.37426808E+04</rscale>
<asrwt>0</asrwt>
<pdfrwt beam="1">  1        2 0.32983273E+00 0.37426808E+04</pdfrwt>
<pdfrwt beam="2">  1       -2 0.25129574E+00 0.37426808E+04</pdfrwt>
<totfact> 0.28222927E-01</totfact>
</mgrwt>
</event>
<event>
12    1  0.2433511E-007  0.1987572E+04  0.7818608E-02  0.8612453E-01
         -2   -1    0    0    0  501 -0.00000000000E+00  0.00000000000E+00  0.49575395693E+03  0.49575395693E+03  0.00000000000E+00 0.  1.
          2   -1    0    0  501    0  0.00000000000E+00 -0.00000000000E+00 -0.19921384944E+04  0.19921384944E+04  0.00000000000E+00 0. -1.
         23    2    1    2    0    0 -0.74407267991E+03 -0.32712037706E+02 -0.27929999172E+03  0.80080071861E+03  0.92515269789E+02 0.  0.
        254    2    1    2    0    0  0.74407267991E+03  0.32712037706E+02 -0.12170845457E+04  0.16870917327E+04  0.90014970570E+03 0.  0.
        -24    2    4    4    0    0  0.69944365291E+03  0.18967990007E+01 -0.13503573491E+04  0.15228356118E+04  0.79613498417E+02 0.  0.
         24    2    4    4    0    0  0.44629027006E+02  0.30815238706E+02  0.13327280333E+03  0.16425612084E+03  0.79228177669E+02 0.  0.
         13    1    3    3    0    0 -0.20695203601E+03 -0.48000095285E+02 -0.63323057064E+02  0.22168212357E+03  0.00000000000E+00 0.  1.
        -13    1    3    3    0    0 -0.53712064391E+03  0.15288057579E+02 -0.21597693465E+03  0.57911859504E+03  0.00000000000E+00 0. -1.
          4    1    6    6  502    0  0.46480919493E+02  0.15986154401E+01  0.26469485641E+02  0.53513223771E+02  0.00000000000E+00 0. -1.
          1    1    5    5  503    0  0.92233469880E+02 -0.20750092899E+02 -0.14714950092E+03  0.17490155786E+03  0.00000000000E+00 0. -1.
         -2    1    5    5    0  503  0.60721018303E+03  0.22646891900E+02 -0.12032078481E+04  0.13479340540E+04  0.00000000000E+00 0.  1.
         -3    1    6    6    0  502 -0.18518924878E+01  0.29216623265E+02  0.10680331769E+03  0.11074289707E+03  0.00000000000E+00 0.  1.
<mgrwt>
<rscale>  0 0.19875719E+04</rscale>
<asrwt>0</asrwt>
<pdfrwt beam="1">  1        2 0.30648284E+00 0.19875719E+04</pdfrwt>
<pdfrwt beam="2">  1       -2 0.76269841E-01 0.19875719E+04</pdfrwt>
<totfact> 0.96541611E+00</totfact>
</mgrwt>
</event>
<event>
12    1  0.2433511E-007  0.1810003E+04  0.7818608E-02  0.8700998E-01
         -2   -1    0    0    0  501 -0.00000000000E+00  0.00000000000E+00  0.24604619197E+03  0.24604619197E+03  0.00000000000E+00 0.  1.
          2   -1    0    0  501    0  0.00000000000E+00 -0.00000000000E+00 -0.33287550453E+04  0.33287550453E+04  0.00000000000E+00 0. -1.
         23    2    1    2    0    0  0.31153510067E+01  0.54341972225E+03 -0.19621920745E+04  0.20381274999E+04  0.91930783498E+02 0.  0.
        254    2    1    2    0    0 -0.31153510067E+01 -0.54341972225E+03 -0.11205167789E+04  0.15366737374E+04  0.90027419344E+03 0.  0.
        -24    2    4    4    0    0  0.34651918789E+03 -0.26146393244E+03 -0.95285713129E+03  0.10502307068E+04  0.81295074981E+02 0.  0.
         24    2    4    4    0    0 -0.34963453890E+03 -0.28195578981E+03 -0.16765964764E+03  0.48644303064E+03  0.82302408282E+02 0.  0.
         11    1    3    3    0    0  0.71553780816E+01  0.30457983958E+03 -0.12641630125E+04  0.13003569511E+04  0.00000000000E+00 0. -1.
        -11    1    3    3    0    0 -0.40400270749E+01  0.23883988267E+03 -0.69802906197E+03  0.73777054884E+03  0.00000000000E+00 0.  1.
          4    1    6    6  502    0 -0.26515839507E+03 -0.24338467493E+03 -0.10688598610E+03  0.37545930338E+03  0.00000000000E+00 0. -1.
          1    1    5    5  503    0  0.25847394329E+03 -0.14753372374E+03 -0.64880167127E+03  0.71380570721E+03  0.00000000000E+00 0. -1.
         -2    1    5    5    0  503  0.88045244605E+02 -0.11393020871E+03 -0.30405546001E+03  0.33642499954E+03  0.00000000000E+00 0.  1.
         -3    1    6    6    0  502 -0.84476143830E+02 -0.38571114875E+02 -0.60773661540E+02  0.11098372726E+03  0.00000000000E+00 0.  1.
<mgrwt>
<rscale>  0 0.18100028E+04</rscale>
<asrwt>0</asrwt>
<pdfrwt beam="1">  1        2 0.51211614E+00 0.18100028E+04</pdfrwt>
<pdfrwt beam="2">  1       -2 0.37853262E-01 0.18100028E+04</pdfrwt>
<totfact> 0.66625701E+00</totfact>
</mgrwt>
</event>
<event>
12    1  0.2433511E-007  0.2570775E+04  0.7818608E-02  0.8378196E-01
          2   -1    0    0  501    0  0.00000000000E+00  0.00000000000E+00  0.13947153014E+04  0.13947153014E+04  0.00000000000E+00 0. -1.
         -2   -1    0    0    0  501 -0.00000000000E+00 -0.00000000000E+00 -0.11846298473E+04  0.11846298473E+04  0.00000000000E+00 0.  1.
         23    2    1    2    0    0 -0.94506827045E+03 -0.54380733296E+03  0.37354819831E+03  0.11561184690E+04  0.90505285143E+02 0.  0.
        254    2    1    2    0    0  0.94506827045E+03  0.54380733296E+03 -0.16346274412E+03  0.14232266797E+04  0.89998536764E+03 0.  0.
        -24    2    4    4    0    0  0.72448862405E+03  0.16970394338E+03 -0.47191493327E+03  0.88454302508E+03  0.77649624630E+02 0.  0.
         24    2    4    4    0    0  0.22057964640E+03  0.37410338958E+03  0.30845218915E+03  0.53868365464E+03  0.80178552503E+02 0.  0.
         13    1    3    3    0    0 -0.56033763183E+03 -0.37169148469E+03  0.24098801256E+03  0.71428848768E+03  0.00000000000E+00 0.  1.
        -13    1    3    3    0    0 -0.38473063862E+03 -0.17211584827E+03  0.13256018575E+03  0.44182998129E+03  0.00000000000E+00 0. -1.
          4    1    6    6  502    0  0.21258519430E+03  0.31374560922E+03  0.28154039496E+03  0.47211626337E+03  0.00000000000E+00 0. -1.
          1    1    5    5  503    0  0.36292844598E+03  0.72047987379E+02 -0.27795218940E+03  0.46278006545E+03  0.00000000000E+00 0. -1.
         -2    1    5    5    0  503  0.36156017807E+03  0.97655955997E+02 -0.19396274387E+03  0.42176295963E+03  0.00000000000E+00 0.  1.
         -3    1    6    6    0  502  0.79944520989E+01  0.60357780359E+02  0.26911794195E+02  0.66567391274E+02  0.00000000000E+00 0.  1.
<mgrwt>
<rscale>  0 0.25707753E+04</rscale>
<asrwt>0</asrwt>
<pdfrwt beam="1">  1        2 0.21457158E+00 0.25707753E+04</pdfrwt>
<pdfrwt beam="2">  1       -2 0.18225075E+00 0.25707753E+04</pdfrwt>
<totfact> 0.22609529E+00</totfact>
</mgrwt>
</event>
<event>
12    1  0.2433511E-007  0.1586262E+04  0.7818608E-02  0.8829033E-01
         -2   -1    0    0    0  501 -0.00000000000E+00  0.00000000000E+00  0.27082677048E+03  0.27082677048E+03  0.00000000000E+00 0.  1.
          2   -1    0    0  501    0  0.00000000000E+00 -0.00000000000E+00 -0.23227272587E+04  0.23227272587E+04  0.00000000000E+00 0. -1.
         23    2    1    2    0    0 -0.99331977925E+01  0.51119237703E+03 -0.44690482113E+03  0.68320477533E+03  0.75023537207E+02 0.  0.
        254    2    1    2    0    0  0.99331977925E+01 -0.51119237703E+03 -0.16049956671E+04  0.19103492538E+04  0.90111423558E+03 0.  0.
        -24    2    4    4    0    0 -0.35751396862E+03 -0.39374554514E+03 -0.13156831739E+04  0.14212710023E+04  0.78340639745E+02 0.  0.
         24    2    4    4    0    0  0.36744716642E+03 -0.11744683189E+03 -0.28931249316E+03  0.48907825152E+03  0.81759641543E+02 0.  0.
         13    1    3    3    0    0  0.14545929433E+00  0.77788591548E+02 -0.10715922472E+03  0.13241671185E+03  0.00000000000E+00 0. -1.
        -13    1    3    3    0    0 -0.10078657087E+02  0.43340378548E+03 -0.33974559641E+03  0.55078806349E+03  0.00000000000E+00 0.  1.
          4    1    6    6  502    0  0.71112492875E+02  0.44854409505E+01 -0.75732684976E+02  0.10398339001E+03  0.00000000000E+00 0. -1.
          3    1    5    5  503    0 -0.15958870102E+03 -0.22680202010E+03 -0.63045954379E+03  0.68875753801E+03  0.00000000000E+00 0. -1.
         -4    1    5    5    0  503 -0.19792526761E+03 -0.16694352504E+03 -0.68522363013E+03  0.73251346432E+03  0.00000000000E+00 0.  1.
         -1    1    6    6    0  502  0.29633467354E+03 -0.12193227284E+03 -0.21357980819E+03  0.38509486152E+03  0.00000000000E+00 0.  1.
<mgrwt>
<rscale>  0 0.15862619E+04</rscale>
<asrwt>0</asrwt>
<pdfrwt beam="1">  1        2 0.35734264E+00 0.15862619E+04</pdfrwt>
<pdfrwt beam="2">  1       -2 0.41665659E-01 0.15862619E+04</pdfrwt>
<totfact> 0.23087221E+01</totfact>
</mgrwt>
</event>
<event>
12    1  0.2433511E-007  0.2012100E+04  0.7818608E-02  0.8600984E-01
          2   -1    0    0  501    0  0.00000000000E+00  0.00000000000E+00  0.31603955375E+04  0.31603955375E+04  0.00000000000E+00 0. -1.
         -2   -1    0    0    0  501 -0.00000000000E+00 -0.00000000000E+00 -0.32025639577E+03  0.32025639577E+03  0.00000000000E+00 0.  1.
         23    2    1    2    0    0 -0.65426588231E+03  0.45053198108E+03  0.13188033952E+04  0.15422859558E+04  0.91436664287E+02 0.  0.
        254    2    1    2    0    0  0.65426588231E+03 -0.45053198108E+03  0.15213357465E+04  0.19383659774E+04  0.90097574781E+03 0.  0.
        -24    2    4    4    0    0  0.81235851112E+03 -0.25851631004E+03  0.80292104492E+03  0.11738868437E+04  0.81062224909E+02 0.  0.
         24    2    4    4    0    0 -0.15809262881E+03 -0.19201567104E+03  0.71841470160E+03  0.76447913374E+03  0.80283032074E+02 0.  0.
         13    1    3    3    0    0 -0.39331243947E+03  0.28588057079E+03  0.88761901477E+03  0.10120720781E+04  0.00000000000E+00 0. -1.
        -13    1    3    3    0    0 -0.26095344284E+03  0.16465141029E+03  0.43118438043E+03  0.53021387776E+03  0.00000000000E+00 0.  1.
          4    1    6    6  502    0 -0.59361723880E+02 -0.63842406822E+02  0.37298715228E+03  0.38303927075E+03  0.00000000000E+00 0. -1.
          3    1    5    5  503    0  0.45079946474E+03 -0.18178936993E+03  0.43316303432E+03  0.65107430201E+03  0.00000000000E+00 0. -1.
         -4    1    5    5    0  503  0.36155904637E+03 -0.76726940105E+02  0.36975801060E+03  0.52281254170E+03  0.00000000000E+00 0.  1.
         -3    1    6    6    0  502 -0.98730904927E+02 -0.12817326422E+03  0.34542754933E+03  0.38143986300E+03  0.00000000000E+00 0.  1.
<mgrwt>
<rscale>  0 0.20121003E+04</rscale>
<asrwt>0</asrwt>
<pdfrwt beam="1">  1        2 0.48621468E+00 0.20121003E+04</pdfrwt>
<pdfrwt beam="2">  1       -2 0.49270217E-01 0.20121003E+04</pdfrwt>
<totfact> 0.49960628E+00</totfact>
</mgrwt>
</event>
<event>
12    1  0.2433511E-007  0.1892307E+04  0.7818608E-02  0.8658695E-01
         -1   -1    0    0    0  501 -0.00000000000E+00  0.00000000000E+00  0.80554700197E+03  0.80554700197E+03  0.00000000000E+00 0.  1.
          1   -1    0    0  501    0  0.00000000000E+00 -0.00000000000E+00 -0.11113024183E+04  0.11113024183E+04  0.00000000000E+00 0. -1.
         23    2    1    2    0    0 -0.53759948159E+03  0.44920203969E+03  0.85559260178E+02  0.71147129205E+03  0.89862880796E+02 0.  0.
        254    2    1    2    0    0  0.53759948159E+03 -0.44920203969E+03 -0.39131467646E+03  0.12053781282E+04  0.89945182240E+03 0.  0.
        -24    2    4    4    0    0  0.35096039655E+03  0.23239779842E+03 -0.15822207750E+03  0.45681419195E+03  0.80393056298E+02 0.  0.
         24    2    4    4    0    0  0.18663908504E+03 -0.68159983812E+03 -0.23309259896E+03  0.74856393623E+03  0.81260811905E+02 0.  0.
         11    1    3    3    0    0 -0.38730027021E+03  0.34389678083E+03  0.99533552544E+02  0.52742148539E+03  0.00000000000E+00 0.  1.
        -11    1    3    3    0    0 -0.15029921138E+03  0.10530525886E+03 -0.13974292367E+02  0.18404980666E+03  0.00000000000E+00 0. -1.
          4    1    6    6  502    0  0.91453129245E+02 -0.46904613671E+03 -0.17078536508E+03  0.50747964899E+03  0.00000000000E+00 0. -1.
          1    1    5    5  503    0  0.10164430314E+03  0.35402414259E+02 -0.16499783169E+02  0.10889048691E+03  0.00000000000E+00 0. -1.
         -4    1    5    5    0  503  0.24931609341E+03  0.19699538417E+03 -0.14172229433E+03  0.34792370504E+03  0.00000000000E+00 0.  1.
         -3    1    6    6    0  502  0.95185955792E+02 -0.21255370140E+03 -0.62307233882E+02  0.24108428724E+03  0.00000000000E+00 0.  1.
<mgrwt>
<rscale>  0 0.18923069E+04</rscale>
<asrwt>0</asrwt>
<pdfrwt beam="1">  1        1 0.17096960E+00 0.18923069E+04</pdfrwt>
<pdfrwt beam="2">  1       -1 0.12393031E+00 0.18923069E+04</pdfrwt>
<totfact> 0.66556872E+00</totfact>
</mgrwt>
</event>
<event>
12    1  0.2433511E-007  0.3787348E+04  0.7818608E-02  0.8048875E-01
         -1   -1    0    0    0  501 -0.00000000000E+00  0.00000000000E+00  0.11260033193E+04  0.11260033193E+04  0.00000000000E+00 0.  1.
          1   -1    0    0  501    0  0.00000000000E+00 -0.00000000000E+00 -0.31847158371E+04  0.31847158371E+04  0.00000000000E+00 0. -1.
         23    2    1    2    0    0 -0.35779806130E+03  0.75345645928E+03  0.82515135370E+03  0.11765943493E+04  0.88223678880E+02 0.  0.
        254    2    1    2    0    0  0.35779806130E+03 -0.75345645928E+03 -0.28838638715E+04  0.31341248072E+04  0.90019519496E+03 0.  0.
        -24    2    4    4    0    0 -0.98816949173E+01  0.19251229525E+03 -0.45378021622E+03  0.49939843573E+03  0.79521577327E+02 0.  0.
         24    2    4    4    0    0  0.36767975621E+03 -0.94596875453E+03 -0.24300836552E+04  0.26347263714E+04  0.80194720285E+02 0.  0.
         11    1    3    3    0    0 -0.22504367557E+03  0.38539731416E+03  0.47084716925E+03  0.64874710209E+03  0.00000000000E+00 0. -1.
        -11    1    3    3    0    0 -0.13275438572E+03  0.36805914512E+03  0.35430418445E+03  0.52784724718E+03  0.00000000000E+00 0.  1.
          4    1    6    6  502    0  0.35904121050E+03 -0.93737848099E+03 -0.23768638760E+04  0.25801300147E+04  0.00000000000E+00 0. -1.
          3    1    5    5  503    0 -0.93137393199E+01  0.18776387777E+03 -0.45664164140E+03  0.49382548354E+03  0.00000000000E+00 0. -1.
         -4    1    5    5    0  503 -0.56795559743E+00  0.47484174779E+01  0.28614251748E+01  0.55729521922E+01  0.00000000000E+00 0.  1.
         -3    1    6    6    0  502  0.86385457154E+01 -0.85902735396E+01 -0.53219779188E+02  0.54596356731E+02  0.00000000000E+00 0.  1.
<mgrwt>
<rscale>  0 0.37873477E+04</rscale>
<asrwt>0</asrwt>
<pdfrwt beam="1">  1        1 0.48995628E+00 0.37873477E+04</pdfrwt>
<pdfrwt beam="2">  1       -1 0.17323128E+00 0.37873477E+04</pdfrwt>
<totfact> 0.80924817E-02</totfact>
</mgrwt>
</event>
<event>
12    1  0.2433511E-007  0.1723026E+04  0.7818608E-02  0.8748339E-01
         -1   -1    0    0    0  501 -0.00000000000E+00  0.00000000000E+00  0.59860821136E+03  0.59860821136E+03  0.00000000000E+00 0.  1.
          1   -1    0    0  501    0  0.00000000000E+00 -0.00000000000E+00 -0.12398843135E+04  0.12398843135E+04  0.00000000000E+00 0. -1.
         23    2    1    2    0    0  0.23632804385E+03 -0.38863910654E+03  0.21694179263E+03  0.51369095112E+03  0.99616024991E+02 0.  0.
        254    2    1    2    0    0 -0.23632804385E+03  0.38863910654E+03 -0.85821789475E+03  0.13248015737E+04  0.90092727533E+03 0.  0.
        -24    2    4    4    0    0 -0.54742943847E+03  0.11541900625E+03 -0.35206444215E+03  0.66588089737E+03  0.80296083000E+02 0.  0.
         24    2    4    4    0    0  0.31110139463E+03  0.27322010028E+03 -0.50615345260E+03  0.65892067635E+03  0.80943432145E+02 0.  0.
         11    1    3    3    0    0  0.22746313361E+03 -0.34777632263E+03  0.16525873980E+03  0.44721169351E+03  0.00000000000E+00 0.  1.
        -11    1    3    3    0    0  0.88649102331E+01 -0.40862783909E+02  0.51683052831E+02  0.66479257608E+02  0.00000000000E+00 0. -1.
          4    1    6    6  502    0  0.65508846781E+01 -0.86014683338E+00 -0.30161187570E+02  0.30876385447E+02  0.00000000000E+00 0. -1.
          3    1    5    5  503    0 -0.76537142125E+02  0.28091455389E+02 -0.22684987222E+02  0.84626666222E+02  0.00000000000E+00 0. -1.
         -4    1    5    5    0  503 -0.47089229635E+03  0.87327550863E+02 -0.32937945492E+03  0.58125423115E+03  0.00000000000E+00 0.  1.
         -3    1    6    6    0  502  0.30455050995E+03  0.27408024712E+03 -0.47599226503E+03  0.62804429090E+03  0.00000000000E+00 0.  1.
<mgrwt>
<rscale>  0 0.17230263E+04</rscale>
<asrwt>0</asrwt>
<pdfrwt beam="1">  1        1 0.19075143E+00 0.17230263E+04</pdfrwt>
<pdfrwt beam="2">  1       -1 0.92093572E-01 0.17230263E+04</pdfrwt>
<totfact> 0.10896534E+01</totfact>
</mgrwt>
</event>
<event>
12    1  0.2433511E-007  0.3396819E+04  0.7818608E-02  0.8138687E-01
         -2   -1    0    0    0  501 -0.00000000000E+00  0.00000000000E+00  0.20816400522E+04  0.20816400522E+04  0.00000000000E+00 0. -1.
          2   -1    0    0  501    0  0.00000000000E+00 -0.00000000000E+00 -0.13857321612E+04  0.13857321612E+04  0.00000000000E+00 0.  1.
         23    2    1    2    0    0  0.15519967496E+04 -0.14529672883E+03  0.73529575336E+02  0.15633515818E+04  0.94109083650E+02 0.  0.
        254    2    1    2    0    0 -0.15519967496E+04  0.14529672883E+03  0.62237831569E+03  0.19040206317E+04  0.89896315156E+03 0.  0.
        -24    2    4    4    0    0 -0.11523692245E+04 -0.25398522300E+03  0.61601765574E+03  0.13335048105E+04  0.79334760465E+02 0.  0.
         24    2    4    4    0    0 -0.39962752505E+03  0.39928195183E+03  0.63606599476E+01  0.57051582119E+03  0.79495964720E+02 0.  0.
         11    1    3    3    0    0  0.58359924264E+03 -0.12017174692E+02  0.10976324003E+02  0.58382614552E+03  0.00000000000E+00 0.  1.
        -11    1    3    3    0    0  0.96839750693E+03 -0.13327955414E+03  0.62553251333E+02  0.97952543624E+03  0.00000000000E+00 0. -1.
          4    1    6    6  502    0 -0.57168590827E+02  0.28737561877E+02 -0.14179579525E+02  0.65537437509E+02  0.00000000000E+00 0. -1.
          3    1    5    5  503    0 -0.84433381412E+02 -0.30389858715E+02  0.67540143410E+02  0.11231300184E+03  0.00000000000E+00 0. -1.
         -4    1    5    5    0  503 -0.10679358431E+04 -0.22359536428E+03  0.54847751233E+03  0.12211918086E+04  0.00000000000E+00 0.  1.
         -3    1    6    6    0  502 -0.34245893422E+03  0.37054438995E+03  0.20540239472E+02  0.50497838369E+03  0.00000000000E+00 0.  1.
<mgrwt>
<rscale>  0 0.33968194E+04</rscale>
<asrwt>0</asrwt>
<pdfrwt beam="1">  1        2 0.21318956E+00 0.33968194E+04</pdfrwt>
<pdfrwt beam="2">  1       -2 0.32025232E+00 0.33968194E+04</pdfrwt>
<totfact> 0.29146904E-01</totfact>
</mgrwt>
</event>
<event>
12    1  0.2433511E-007  0.1720117E+04  0.7818608E-02  0.8749973E-01
         -1   -1    0    0    0  501 -0.00000000000E+00  0.00000000000E+00  0.46093091833E+03  0.46093091833E+03  0.00000000000E+00 0.  1.
          1   -1    0    0  501    0  0.00000000000E+00 -0.00000000000E+00 -0.16047970967E+04  0.16047970967E+04  0.00000000000E+00 0. -1.
         23    2    1    2    0    0 -0.54748294574E+03 -0.29288836756E+03 -0.40155949035E+03  0.74517665507E+03  0.92287871566E+02 0.  0.
        254    2    1    2    0    0  0.54748294574E+03  0.29288836756E+03 -0.74230668804E+03  0.13205513600E+04  0.89850737531E+03 0.  0.
        -24    2    4    4    0    0  0.52594800612E+03  0.50764885450E+03 -0.79673895964E+03  0.10842142804E+04  0.79993570628E+02 0.  0.
         24    2    4    4    0    0  0.21534939621E+02 -0.21476048695E+03  0.54432271598E+02  0.23633707960E+03  0.79413617370E+02 0.  0.
         11    1    3    3    0    0 -0.42087963120E+03 -0.18965973476E+03 -0.32632306828E+03  0.56532930566E+03  0.00000000000E+00 0. -1.
        -11    1    3    3    0    0 -0.12660331454E+03 -0.10322863280E+03 -0.75236422069E+02  0.17984734940E+03  0.00000000000E+00 0.  1.
          2    1    6    6  502    0  0.27401594944E+01 -0.19001108013E+03  0.68796968035E+02  0.20210082102E+03  0.00000000000E+00 0. -1.
          1    1    5    5  503    0  0.34409663297E+03  0.28613101909E+03 -0.51588116207E+03  0.68293984090E+03  0.00000000000E+00 0. -1.
         -2    1    5    5    0  503  0.18185137315E+03  0.22151783541E+03 -0.28085779757E+03  0.40127443948E+03  0.00000000000E+00 0.  1.
         -1    1    6    6    0  502  0.18794780127E+02 -0.24749406821E+02 -0.14364696437E+02  0.34236258582E+02  0.00000000000E+00 0.  1.
<mgrwt>
<rscale>  0 0.17201170E+04</rscale>
<asrwt>0</asrwt>
<pdfrwt beam="1">  1        1 0.24689186E+00 0.17201170E+04</pdfrwt>
<pdfrwt beam="2">  1       -1 0.70912449E-01 0.17201170E+04</pdfrwt>
<totfact> 0.10568384E+01</totfact>
</mgrwt>
</event>
<event>
12    1  0.2433511E-007  0.1727489E+04  0.7818608E-02  0.8745840E-01
         -2   -1    0    0    0  501 -0.00000000000E+00  0.00000000000E+00  0.10469646393E+04  0.10469646393E+04  0.00000000000E+00 0.  1.
          2   -1    0    0  501    0  0.00000000000E+00 -0.00000000000E+00 -0.71258852223E+03  0.71258852223E+03  0.00000000000E+00 0. -1.
         23    2    1    2    0    0 -0.10690904360E+03 -0.61478094486E+03  0.10727931993E+03  0.63988678064E+03  0.92526135729E+02 0.  0.
        254    2    1    2    0    0  0.10690904360E+03  0.61478094486E+03  0.22709679712E+03  0.11196663809E+04  0.90149580997E+03 0.  0.
        -24    2    4    4    0    0 -0.14909648228E+03  0.20903074717E+03 -0.30028533083E+03  0.40219794640E+03  0.75288072677E+02 0.  0.
         24    2    4    4    0    0  0.25600552588E+03  0.40575019769E+03  0.52738212795E+03  0.71746843445E+03  0.80355418920E+02 0.  0.
         13    1    3    3    0    0  0.58393544768E+01 -0.16300862145E+03  0.51802279909E+01  0.16319541504E+03  0.00000000000E+00 0.  1.
        -13    1    3    3    0    0 -0.11274839808E+03 -0.45177232341E+03  0.10209909194E+03  0.47669136560E+03  0.00000000000E+00 0. -1.
          2    1    6    6  502    0  0.13393470143E+03  0.23783330723E+03  0.35385622301E+03  0.44689754177E+03  0.00000000000E+00 0. -1.
          3    1    5    5  503    0  0.86924806957E+01  0.14135440645E+02 -0.14986792896E+02  0.22360095353E+02  0.00000000000E+00 0. -1.
         -4    1    5    5    0  503 -0.15778896297E+03  0.19489530653E+03 -0.28529853794E+03  0.37983785105E+03  0.00000000000E+00 0.  1.
         -1    1    6    6    0  502  0.12207082445E+03  0.16791689046E+03  0.17352590494E+03  0.27057089268E+03  0.00000000000E+00 0.  1.
<mgrwt>
<rscale>  0 0.17274895E+04</rscale>
<asrwt>0</asrwt>
<pdfrwt beam="1">  1        2 0.10962900E+00 0.17274895E+04</pdfrwt>
<pdfrwt beam="2">  1       -2 0.16107148E+00 0.17274895E+04</pdfrwt>
<totfact> 0.94010355E+00</totfact>
</mgrwt>
</event>
<event>
12    1  0.2433511E-007  0.1356761E+04  0.7818608E-02  0.8985726E-01
          1   -1    0    0  501    0  0.00000000000E+00  0.00000000000E+00  0.13094025245E+04  0.13094025245E+04  0.00000000000E+00 0. -1.
         -1   -1    0    0    0  501 -0.00000000000E+00 -0.00000000000E+00 -0.35145810381E+03  0.35145810381E+03  0.00000000000E+00 0.  1.
         23    2    1    2    0    0 -0.33208501421E+03 -0.11267132458E+03  0.11473844405E+03  0.38026225219E+03  0.91973832448E+02 0.  0.
        254    2    1    2    0    0  0.33208501421E+03  0.11267132458E+03  0.84320597664E+03  0.12805983761E+04  0.89775308288E+03 0.  0.
        -24    2    4    4    0    0 -0.92062585298E+02 -0.30832770602E+03  0.15386484594E+03  0.36427108383E+03  0.74010389723E+02 0.  0.
         24    2    4    4    0    0  0.42414759951E+03  0.42099903060E+03  0.68934113070E+03  0.91632729228E+03  0.85575359609E+02 0.  0.
         11    1    3    3    0    0 -0.20032343782E+03 -0.11449600207E+03  0.70701062880E+02  0.24132437614E+03  0.00000000000E+00 0. -1.
        -11    1    3    3    0    0 -0.13176157639E+03  0.18246774857E+01  0.44037381174E+02  0.13893787605E+03  0.00000000000E+00 0.  1.
          2    1    6    6  502    0  0.10930912040E+03  0.12268956330E+03  0.13624768227E+03  0.21345876340E+03  0.00000000000E+00 0. -1.
          3    1    5    5  503    0 -0.53335740681E+01 -0.54586051156E+01 -0.71579844710E+01  0.10463275005E+02  0.00000000000E+00 0. -1.
         -4    1    5    5    0  503 -0.86729011230E+02 -0.30286910090E+03  0.16102283041E+03  0.35380780882E+03  0.00000000000E+00 0.  1.
         -3    1    6    6    0  502  0.31483847910E+03  0.29830946730E+03  0.55309344842E+03  0.70286852888E+03  0.00000000000E+00 0.  1.
<mgrwt>
<rscale>  0 0.13567610E+04</rscale>
<asrwt>0</asrwt>
<pdfrwt beam="1">  1        1 0.20144654E+00 0.13567610E+04</pdfrwt>
<pdfrwt beam="2">  1       -1 0.54070478E-01 0.13567610E+04</pdfrwt>
<totfact> 0.30087856E+01</totfact>
</mgrwt>
</event>
<event>
12    1  0.2433511E-007  0.1152566E+04  0.7818608E-02  0.9155420E-01
         -1   -1    0    0    0  501 -0.00000000000E+00  0.00000000000E+00  0.20243995680E+04  0.20243995680E+04  0.00000000000E+00 0.  1.
          1   -1    0    0  501    0  0.00000000000E+00 -0.00000000000E+00 -0.16404964102E+03  0.16404964102E+03  0.00000000000E+00 0. -1.
         23    2    1    2    0    0 -0.20215703790E+03 -0.17265927692E+02  0.46316600299E+03  0.51405105514E+03  0.92521136697E+02 0.  0.
        254    2    1    2    0    0  0.20215703790E+03  0.17265927692E+02  0.13971839240E+04  0.16743981539E+04  0.90017813796E+03 0.  0.
        -24    2    4    4    0    0  0.40448197291E+03 -0.51556377322E+02  0.20986936344E+03  0.46533524004E+03  0.78917738603E+02 0.  0.
         24    2    4    4    0    0 -0.20232493501E+03  0.68822305014E+02  0.11873145606E+04  0.12090629139E+04  0.80283092503E+02 0.  0.
         11    1    3    3    0    0 -0.20811595772E+03 -0.91429917709E+01  0.40942801912E+03  0.45937691387E+03  0.00000000000E+00 0. -1.
        -11    1    3    3    0    0  0.59589198211E+01 -0.81229359213E+01  0.53737983870E+02  0.54674141272E+02  0.00000000000E+00 0.  1.
          4    1    6    6  502    0 -0.71093747015E+02  0.15903689025E+02  0.62444265936E+03  0.62867788495E+03  0.00000000000E+00 0. -1.
          1    1    5    5  503    0  0.15496868401E+02 -0.13389498732E+02 -0.22993655124E+01  0.20608704188E+02  0.00000000000E+00 0. -1.
         -2    1    5    5    0  503  0.38898510451E+03 -0.38166878590E+02  0.21216872895E+03  0.44472653586E+03  0.00000000000E+00 0.  1.
         -3    1    6    6    0  502 -0.13123118800E+03  0.52918615989E+02  0.56287190121E+03  0.58038502892E+03  0.00000000000E+00 0.  1.
<mgrwt>
<rscale>  0 0.11525659E+04</rscale>
<asrwt>0</asrwt>
<pdfrwt beam="1">  1        1 0.25238408E-01 0.11525659E+04</pdfrwt>
<pdfrwt beam="2">  1       -1 0.31144607E+00 0.11525659E+04</pdfrwt>
<totfact> 0.53776596E+00</totfact>
</mgrwt>
</event>
<event>
12    1  0.2699615E-007  0.2358016E+04  0.7818608E-02  0.8455391E-01
         -1   -1    0    0    0  501 -0.00000000000E+00  0.00000000000E+00  0.14330044097E+04  0.14330044097E+04  0.00000000000E+00 0.  1.
          1   -1    0    0  501    0  0.00000000000E+00 -0.00000000000E+00 -0.97003157670E+03  0.97003157670E+03  0.00000000000E+00 0. -1.
         23    2    1    2    0    0  0.65704871342E+03  0.73505380291E+03 -0.50914652202E+01  0.99010476421E+03  0.90908834046E+02 0.  0.
        254    2    1    2    0    0 -0.65704871342E+03 -0.73505380291E+03  0.46806429824E+03  0.14129312222E+04  0.89737023930E+03 0.  0.
        -24    2    4    4    0    0  0.10371105267E+03 -0.49078006920E+03  0.30629497323E+03  0.59376846375E+03  0.84399757981E+02 0.  0.
         24    2    4    4    0    0 -0.76075976609E+03 -0.24427373372E+03  0.16176932500E+03  0.81916275845E+03  0.80207428802E+02 0.  0.
         11    1    3    3    0    0  0.46097691722E+03  0.45079847112E+03 -0.54254490401E+01  0.64478555758E+03  0.00000000000E+00 0. -1.
        -11    1    3    3    0    0  0.19607179620E+03  0.28425533180E+03  0.33398381989E+00  0.34531920663E+03  0.00000000000E+00 0.  1.
          4    1    6    6  502    0 -0.75204846075E+03 -0.23256565116E+03  0.15235231891E+03  0.80179479824E+03  0.00000000000E+00 0. -1.
          3    1    5    5  503    0  0.11466996123E+03 -0.40107604504E+03  0.26661083110E+03  0.49506820659E+03  0.00000000000E+00 0. -1.
         -4    1    5    5    0  503 -0.10958908563E+02 -0.89704024155E+02  0.39684142133E+02  0.98700257160E+02  0.00000000000E+00 0.  1.
         -3    1    6    6    0  502 -0.87113053411E+01 -0.11708082558E+02  0.94170060976E+01  0.17367960207E+02  0.00000000000E+00 0.  1.
<mgrwt>
<rscale>  0 0.23580157E+04</rscale>
<asrwt>0</asrwt>
<pdfrwt beam="1">  1        1 0.14923563E+00 0.23580157E+04</pdfrwt>
<pdfrwt beam="2">  1       -1 0.22046222E+00 0.23580157E+04</pdfrwt>
<totfact> 0.15699814E+00</totfact>
</mgrwt>
</event>
<event>
12    1  0.2433511E-007  0.1786223E+04  0.7818608E-02  0.8713661E-01
         -2   -1    0    0    0  501 -0.00000000000E+00  0.00000000000E+00  0.62413217226E+03  0.62413217226E+03  0.00000000000E+00 0.  1.
          2   -1    0    0  501    0  0.00000000000E+00 -0.00000000000E+00 -0.12780109010E+04  0.12780109010E+04  0.00000000000E+00 0. -1.
         23    2    1    2    0    0 -0.63241100874E+03  0.11997429217E+03 -0.73663686664E+02  0.65298965257E+03  0.81434838203E+02 0.  0.
        254    2    1    2    0    0  0.63241100874E+03 -0.11997429217E+03 -0.58021504209E+03  0.12491534207E+04  0.89966508137E+03 0.  0.
        -24    2    4    4    0    0  0.77349140921E+03 -0.32778314110E+03 -0.43901850014E+03  0.95117635089E+03  0.79173602304E+02 0.  0.
         24    2    4    4    0    0 -0.14108040048E+03  0.20780884893E+03 -0.14119654194E+03  0.29797706982E+03  0.75932032692E+02 0.  0.
         13    1    3    3    0    0 -0.32254127632E+03  0.10205593290E+03 -0.44993574158E+02  0.34128098407E+03  0.00000000000E+00 0. -1.
        -13    1    3    3    0    0 -0.30986973241E+03  0.17918359272E+02 -0.28670112505E+02  0.31170866850E+03  0.00000000000E+00 0.  1.
          4    1    6    6  502    0 -0.91902378912E+01  0.31861649896E+02 -0.49838007759E+02  0.59861943036E+02  0.00000000000E+00 0. -1.
          1    1    5    5  503    0  0.66115392219E+02 -0.53495569076E+02 -0.40843293781E+02  0.94346148018E+02  0.00000000000E+00 0. -1.
         -2    1    5    5    0  503  0.70737601699E+03 -0.27428757203E+03 -0.39817520636E+03  0.85683020287E+03  0.00000000000E+00 0.  1.
         -3    1    6    6    0  502 -0.13189016258E+03  0.17594719903E+03 -0.91358534182E+02  0.23811512678E+03  0.00000000000E+00 0.  1.
<mgrwt>
<rscale>  0 0.17862225E+04</rscale>
<asrwt>0</asrwt>
<pdfrwt beam="1">  1        2 0.19661706E+00 0.17862225E+04</pdfrwt>
<pdfrwt beam="2">  1       -2 0.96020335E-01 0.17862225E+04</pdfrwt>
<totfact> 0.14631182E+01</totfact>
</mgrwt>
</event>
<event>
12    1  0.2433511E-007  0.1707419E+04  0.7818608E-02  0.8757144E-01
         -1   -1    0    0    0  501 -0.00000000000E+00  0.00000000000E+00  0.83680452935E+03  0.83680452935E+03  0.00000000000E+00 0.  1.
          1   -1    0    0  501    0  0.00000000000E+00 -0.00000000000E+00 -0.87095610337E+03  0.87095610337E+03  0.00000000000E+00 0. -1.
         23    2    1    2    0    0  0.47432076066E+03  0.35161606052E+03  0.14937305704E+03  0.61569103720E+03  0.90272393948E+02 0.  0.
        254    2    1    2    0    0 -0.47432076066E+03 -0.35161606052E+03 -0.18352463105E+03  0.10920695955E+04  0.90017813417E+03 0.  0.
        -24    2    4    4    0    0  0.11112066720E+03 -0.31042676868E+03 -0.33995117294E+03  0.48003541348E+03  0.78451365941E+02 0.  0.
         24    2    4    4    0    0 -0.58544142786E+03 -0.41189291839E+02  0.15642654189E+03  0.61203418204E+03  0.75354852253E+02 0.  0.
         11    1    3    3    0    0  0.43430403165E+03  0.29702874809E+03  0.11050433734E+03  0.53764047250E+03  0.00000000000E+00 0.  1.
        -11    1    3    3    0    0  0.40016729017E+02  0.54587312433E+02  0.38868719698E+02  0.78050564705E+02  0.00000000000E+00 0. -1.
          2    1    6    6  502    0 -0.25644293314E+03 -0.53496265063E+02  0.82005507839E+02  0.27449905583E+03  0.00000000000E+00 0. -1.
          1    1    5    5  503    0  0.35492130175E+02 -0.71848437705E+02 -0.13300044668E+03  0.15527719769E+03  0.00000000000E+00 0. -1.
         -2    1    5    5    0  503  0.75628537020E+02 -0.23857833098E+03 -0.20695072626E+03  0.32475821579E+03  0.00000000000E+00 0.  1.
         -1    1    6    6    0  502 -0.32899849472E+03  0.12306973224E+02  0.74421034050E+02  0.33753512621E+03  0.00000000000E+00 0.  1.
<mgrwt>
<rscale>  0 0.17074191E+04</rscale>
<asrwt>0</asrwt>
<pdfrwt beam="1">  1        1 0.13399325E+00 0.17074191E+04</pdfrwt>
<pdfrwt beam="2">  1       -1 0.12873916E+00 0.17074191E+04</pdfrwt>
<totfact> 0.95088121E+00</totfact>
</mgrwt>
</event>
<event>
12    1  0.2433511E-007  0.2183080E+04  0.7818608E-02  0.8525504E-01
          2   -1    0    0  501    0  0.00000000000E+00  0.00000000000E+00  0.11506971954E+04  0.11506971954E+04  0.00000000000E+00 0. -1.
         -2   -1    0    0    0  501 -0.00000000000E+00 -0.00000000000E+00 -0.10354243455E+04  0.10354243455E+04  0.00000000000E+00 0.  1.
         23    2    1    2    0    0  0.84664591118E+03 -0.22136069064E+03  0.27046625301E+03  0.92048965302E+03  0.91320058094E+02 0.  0.
        254    2    1    2    0    0 -0.84664591118E+03  0.22136069064E+03 -0.15519340314E+03  0.12656318879E+04  0.90107115641E+03 0.  0.
        -24    2    4    4    0    0 -0.58443724487E+03  0.11418273447E+03 -0.52170649615E+03  0.79554874108E+03  0.78201926207E+02 0.  0.
         24    2    4    4    0    0 -0.26220866632E+03  0.10717795617E+03  0.36651309301E+03  0.47008314679E+03  0.80036357754E+02 0.  0.
         11    1    3    3    0    0  0.40851051444E+03 -0.80698695315E+02  0.88811047464E+02  0.42577050390E+03  0.00000000000E+00 0.  1.
        -11    1    3    3    0    0  0.43813539674E+03 -0.14066199533E+03  0.18165520554E+03  0.49471914912E+03  0.00000000000E+00 0. -1.
          2    1    6    6  502    0 -0.24106773789E+03  0.85044206553E+02  0.28413532591E+03  0.38220289736E+03  0.00000000000E+00 0. -1.
          3    1    5    5  503    0 -0.14469567841E+03 -0.50258361239E+01 -0.11703421408E+03  0.18616956154E+03  0.00000000000E+00 0. -1.
         -4    1    5    5    0  503 -0.43974156646E+03  0.11920857060E+03 -0.40467228208E+03  0.60937917954E+03  0.00000000000E+00 0.  1.
         -1    1    6    6    0  502 -0.21140928430E+02  0.22133749616E+02  0.82377767103E+02  0.87880249429E+02  0.00000000000E+00 0.  1.
<mgrwt>
<rscale>  0 0.21830803E+04</rscale>
<asrwt>0</asrwt>
<pdfrwt beam="1">  1        2 0.17703034E+00 0.21830803E+04</pdfrwt>
<pdfrwt beam="2">  1       -2 0.15929605E+00 0.21830803E+04</pdfrwt>
<totfact> 0.47329262E+00</totfact>
</mgrwt>
</event>
<event>
12    1  0.2433511E-007  0.1276353E+04  0.7818608E-02  0.9048530E-01
         -1   -1    0    0    0  501 -0.00000000000E+00  0.00000000000E+00  0.96414369965E+03  0.96414369965E+03  0.00000000000E+00 0.  1.
          1   -1    0    0  501    0  0.00000000000E+00 -0.00000000000E+00 -0.42241578082E+03  0.42241578082E+03  0.00000000000E+00 0. -1.
         23    2    1    2    0    0 -0.82303868058E+02 -0.29000406436E+03  0.57999452115E+02  0.32042991337E+03  0.91842848879E+02 0.  0.
        254    2    1    2    0    0  0.82303868058E+02  0.29000406436E+03  0.48372846671E+03  0.10661295671E+04  0.90097876796E+03 0.  0.
        -24    2    4    4    0    0  0.72018248811E+02  0.15921922598E+03 -0.24999038397E+03  0.31647162446E+03  0.84390206353E+02 0.  0.
         24    2    4    4    0    0  0.10285619246E+02  0.13078483839E+03  0.73371885068E+03  0.74965794265E+03  0.80207301525E+02 0.  0.
         13    1    3    3    0    0 -0.25400550811E+02 -0.10993939518E+03 -0.22651440745E+02  0.11508669064E+03  0.00000000000E+00 0. -1.
        -13    1    3    3    0    0 -0.56903317247E+02 -0.18006466918E+03  0.80650892860E+02  0.20534322273E+03  0.00000000000E+00 0.  1.
          4    1    6    6  502    0  0.26627150209E+02  0.12762819373E+03  0.70019842991E+03  0.71223296906E+03  0.00000000000E+00 0. -1.
          3    1    5    5  503    0  0.84244148164E+02  0.16081760434E+03 -0.23724453758E+03  0.29873792691E+03  0.00000000000E+00 0. -1.
         -4    1    5    5    0  503 -0.12225899353E+02 -0.15983783657E+01 -0.12745846391E+02  0.17733697545E+02  0.00000000000E+00 0.  1.
         -3    1    6    6    0  502 -0.16341530963E+02  0.31566446535E+01  0.33520420767E+02  0.37424973588E+02  0.00000000000E+00 0.  1.
<mgrwt>
<rscale>  0 0.12763534E+04</rscale>
<asrwt>0</asrwt>
<pdfrwt beam="1">  1        1 0.64987043E-01 0.12763534E+04</pdfrwt>
<pdfrwt beam="2">  1       -1 0.14832980E+00 0.12763534E+04</pdfrwt>
<totfact> 0.19740006E+01</totfact>
</mgrwt>
</event>
<event>
12    1  0.2433511E-007  0.1741950E+04  0.7818608E-02  0.8737794E-01
         -2   -1    0    0    0  501 -0.00000000000E+00  0.00000000000E+00  0.41567177386E+03  0.41567177386E+03  0.00000000000E+00 0.  1.
          2   -1    0    0  501    0  0.00000000000E+00 -0.00000000000E+00 -0.18249922345E+04  0.18249922345E+04  0.00000000000E+00 0. -1.
         23    2    1    2    0    0 -0.36229624002E+03  0.47216470093E+03 -0.80067011742E+03  0.10021377565E+04  0.94917731771E+02 0.  0.
        254    2    1    2    0    0  0.36229624002E+03 -0.47216470093E+03 -0.60865034324E+03  0.12385262519E+04  0.89960767331E+03 0.  0.
        -24    2    4    4    0    0  0.13498161768E+03 -0.46286371780E+03  0.91434670741E+02  0.49808729713E+03  0.85251382309E+02 0.  0.
         24    2    4    4    0    0  0.22731462234E+03 -0.93009831325E+01 -0.70008501398E+03  0.74043895472E+03  0.79827144856E+02 0.  0.
         13    1    3    3    0    0 -0.27616577052E+03  0.32654236177E+03 -0.50765294876E+03  0.66378382266E+03  0.00000000000E+00 0.  1.
        -13    1    3    3    0    0 -0.86130469491E+02  0.14562233916E+03 -0.29301716867E+03  0.33835393388E+03  0.00000000000E+00 0. -1.
          2    1    6    6  502    0  0.18516784167E+03 -0.38503006592E+02 -0.57272968361E+03  0.60314915369E+03  0.00000000000E+00 0. -1.
          3    1    5    5  503    0  0.35595908922E+02 -0.22132208766E+03  0.75005244663E+02  0.23638172929E+03  0.00000000000E+00 0. -1.
         -4    1    5    5    0  503  0.99385708756E+02 -0.24154163014E+03  0.16429426078E+02  0.26170556784E+03  0.00000000000E+00 0.  1.
         -1    1    6    6    0  502  0.42146780671E+02  0.29202023460E+02 -0.12735533037E+03  0.13728980104E+03  0.00000000000E+00 0.  1.
<mgrwt>
<rscale>  0 0.17419504E+04</rscale>
<asrwt>0</asrwt>
<pdfrwt beam="1">  1        2 0.28076804E+00 0.17419504E+04</pdfrwt>
<pdfrwt beam="2">  1       -2 0.63949504E-01 0.17419504E+04</pdfrwt>
<totfact> 0.17919590E+01</totfact>
</mgrwt>
</event>
<event>
12    1  0.2433511E-007  0.3453404E+04  0.7818608E-02  0.8124922E-01
          2   -1    0    0  501    0  0.00000000000E+00  0.00000000000E+00  0.27384209381E+04  0.27384209381E+04  0.00000000000E+00 0. -1.
         -2   -1    0    0    0  501 -0.00000000000E+00 -0.00000000000E+00 -0.10887663388E+04  0.10887663388E+04  0.00000000000E+00 0.  1.
         23    2    1    2    0    0 -0.11549220913E+04 -0.79503069928E+03 -0.10334853893E+03  0.14088254438E+04  0.90495087806E+02 0.  0.
        254    2    1    2    0    0  0.11549220913E+04  0.79503069928E+03  0.17530031382E+04  0.24183618330E+04  0.89974168697E+03 0.  0.
        -24    2    4    4    0    0  0.31143343487E+03  0.82612325859E+02 -0.15725087598E+02  0.33173989541E+03  0.77385393239E+02 0.  0.
         24    2    4    4    0    0  0.84348865645E+03  0.71241837342E+03  0.17687282258E+04  0.20866219376E+04  0.81108086191E+02 0.  0.
         11    1    3    3    0    0 -0.50954220417E+03 -0.39550789104E+03 -0.73541066509E+02  0.64920569789E+03  0.00000000000E+00 0.  1.
        -11    1    3    3    0    0 -0.64537988714E+03 -0.39952280824E+03 -0.29807472420E+02  0.75961974596E+03  0.00000000000E+00 0. -1.
          2    1    6    6  502    0  0.12507363691E+03  0.70178851128E+02  0.23249023510E+03  0.27316697314E+03  0.00000000000E+00 0. -1.
          3    1    5    5  503    0  0.15167137480E+03  0.20062025924E+02  0.25956802593E+02  0.15517875634E+03  0.00000000000E+00 0. -1.
         -4    1    5    5    0  503  0.15976206007E+03  0.62550299935E+02 -0.41681890191E+02  0.17656113907E+03  0.00000000000E+00 0.  1.
         -1    1    6    6    0  502  0.71841501954E+03  0.64223952229E+03  0.15362379907E+04  0.18134549645E+04  0.00000000000E+00 0.  1.
<mgrwt>
<rscale>  0 0.34534044E+04</rscale>
<asrwt>0</asrwt>
<pdfrwt beam="1">  1        2 0.42129553E+00 0.34534044E+04</pdfrwt>
<pdfrwt beam="2">  1       -2 0.16750251E+00 0.34534044E+04</pdfrwt>
<totfact> 0.46121432E-01</totfact>
</mgrwt>
</event>
<event>
12    1  0.2433511E-007  0.2184300E+04  0.7818608E-02  0.8524991E-01
         -2   -1    0    0    0  501 -0.00000000000E+00  0.00000000000E+00  0.45400441857E+03  0.45400441857E+03  0.00000000000E+00 0.  1.
          2   -1    0    0  501    0  0.00000000000E+00 -0.00000000000E+00 -0.26272687096E+04  0.26272687096E+04  0.00000000000E+00 0. -1.
         23    2    1    2    0    0  0.43653374087E+03 -0.62702371522E+03 -0.22234080389E+03  0.80093715963E+03  0.91347984309E+02 0.  0.
        254    2    1    2    0    0 -0.43653374087E+03  0.62702371522E+03 -0.19509234871E+04  0.22803359685E+04  0.90006068146E+03 0.  0.
        -24    2    4    4    0    0  0.25130818169E+03  0.32764739448E+02 -0.44611234158E+03  0.52052182005E+03  0.87734904714E+02 0.  0.
         24    2    4    4    0    0 -0.68784192256E+03  0.59425897577E+03 -0.15048111455E+04  0.17598141485E+04  0.78860716867E+02 0.  0.
         11    1    3    3    0    0  0.15861108710E+03 -0.28750737014E+03 -0.12614481458E+03  0.35175343507E+03  0.00000000000E+00 0. -1.
        -11    1    3    3    0    0  0.27792265377E+03 -0.33951634508E+03 -0.96195989312E+02  0.44918372457E+03  0.00000000000E+00 0.  1.
          4    1    6    6  502    0 -0.65896747238E+03  0.56544474326E+03 -0.14638517662E+04  0.17020070154E+04  0.00000000000E+00 0. -1.
          3    1    5    5  503    0  0.19309294712E+03  0.45931004910E+02 -0.39449767759E+03  0.44161404084E+03  0.00000000000E+00 0. -1.
         -4    1    5    5    0  503  0.58215234565E+02 -0.13166265462E+02 -0.51614663991E+02  0.78907779215E+02  0.00000000000E+00 0.  1.
         -3    1    6    6    0  502 -0.28874450178E+02  0.28814232514E+02 -0.40959379391E+02  0.57807133024E+02  0.00000000000E+00 0.  1.
<mgrwt>
<rscale>  0 0.21843000E+04</rscale>
<asrwt>0</asrwt>
<pdfrwt beam="1">  1        2 0.40419520E+00 0.21843000E+04</pdfrwt>
<pdfrwt beam="2">  1       -2 0.69846832E-01 0.21843000E+04</pdfrwt>
<totfact> 0.50152135E+00</totfact>
</mgrwt>
</event>
<event>
12    1  0.2433511E-007  0.2484279E+04  0.7818608E-02  0.8408608E-01
         -2   -1    0    0    0  501 -0.00000000000E+00  0.00000000000E+00  0.79780206452E+03  0.79780206452E+03  0.00000000000E+00 0.  1.
          2   -1    0    0  501    0  0.00000000000E+00 -0.00000000000E+00 -0.19339516925E+04  0.19339516925E+04  0.00000000000E+00 0. -1.
         23    2    1    2    0    0 -0.22247347822E+03 -0.92510773404E+03 -0.10478478076E+04  0.14189137982E+04  0.10006283434E+03 0.  0.
        254    2    1    2    0    0  0.22247347822E+03  0.92510773404E+03 -0.88301820347E+02  0.13128399588E+04  0.90024039999E+03 0.  0.
        -24    2    4    4    0    0 -0.50670227120E+02 -0.16254878347E+02  0.25391322910E+03  0.27157745554E+03  0.80316209167E+02 0.  0.
         24    2    4    4    0    0  0.27314370534E+03  0.94136261238E+03 -0.34221504945E+03  0.10412625032E+04  0.79658074337E+02 0.  0.
         11    1    3    3    0    0 -0.20833561338E+03 -0.69808913727E+03 -0.82213896653E+03  0.10984737829E+04  0.00000000000E+00 0. -1.
        -11    1    3    3    0    0 -0.14137864838E+02 -0.22701859677E+03 -0.22570884107E+03  0.32044001536E+03  0.00000000000E+00 0.  1.
          4    1    6    6  502    0  0.15870300571E+02  0.13849475644E+03 -0.64672421742E+02  0.15367233367E+03  0.00000000000E+00 0. -1.
          1    1    5    5  503    0 -0.14120551049E+02  0.25328941207E+01  0.21335964223E+03  0.21384139555E+03  0.00000000000E+00 0. -1.
         -2    1    5    5    0  503 -0.36549676072E+02 -0.18787772468E+02  0.40553586869E+02  0.57736059990E+02  0.00000000000E+00 0.  1.
         -3    1    6    6    0  502  0.25727340477E+03  0.80286785594E+03 -0.27754262771E+03  0.88759016956E+03  0.00000000000E+00 0.  1.
<mgrwt>
<rscale>  0 0.24842791E+04</rscale>
<asrwt>0</asrwt>
<pdfrwt beam="1">  1        2 0.29753103E+00 0.24842791E+04</pdfrwt>
<pdfrwt beam="2">  1       -2 0.12273878E+00 0.24842791E+04</pdfrwt>
<totfact> 0.32592083E+00</totfact>
</mgrwt>
</event>
<event>
12    1  0.2433511E-007  0.1525068E+04  0.7818608E-02  0.8867952E-01
          1   -1    0    0  501    0  0.00000000000E+00  0.00000000000E+00  0.71267078536E+03  0.71267078536E+03  0.00000000000E+00 0. -1.
         -1   -1    0    0    0  501 -0.00000000000E+00 -0.00000000000E+00 -0.81588584113E+03  0.81588584113E+03  0.00000000000E+00 0.  1.
         23    2    1    2    0    0  0.47204299435E+03 -0.10443950723E+03 -0.11525145869E+03  0.50497813231E+03  0.89374583565E+02 0.  0.
        254    2    1    2    0    0 -0.47204299435E+03  0.10443950723E+03  0.12036402930E+02  0.10235784942E+04  0.90212851611E+03 0.  0.
        -24    2    4    4    0    0 -0.58225165370E+03  0.11017273490E+03  0.32633922402E+03  0.68113036423E+03  0.79285964673E+02 0.  0.
         24    2    4    4    0    0  0.11020865935E+03 -0.57332276715E+01 -0.31430282109E+03  0.34244812995E+03  0.79408059200E+02 0.  0.
         11    1    3    3    0    0  0.17218235409E+03 -0.51825729749E+02 -0.10327921965E+01  0.17981583908E+03  0.00000000000E+00 0.  1.
        -11    1    3    3    0    0  0.29986064026E+03 -0.52613777480E+02 -0.11421866650E+03  0.32516229322E+03  0.00000000000E+00 0. -1.
          4    1    6    6  502    0  0.75035685185E+02  0.18358211981E+02 -0.27053823664E+03  0.28135087610E+03  0.00000000000E+00 0. -1.
          3    1    5    5  503    0 -0.23325232934E+03  0.12406768754E+02  0.15423559474E+03  0.27990926341E+03  0.00000000000E+00 0. -1.
         -4    1    5    5    0  503 -0.34899932436E+03  0.97765966146E+02  0.17210362928E+03  0.40122110083E+03  0.00000000000E+00 0.  1.
         -3    1    6    6    0  502  0.35172974162E+02 -0.24091439652E+02 -0.43764584455E+02  0.61097253854E+02  0.00000000000E+00 0.  1.
<mgrwt>
<rscale>  0 0.15250679E+04</rscale>
<asrwt>0</asrwt>
<pdfrwt beam="1">  1        1 0.10964166E+00 0.15250679E+04</pdfrwt>
<pdfrwt beam="2">  1       -1 0.12552090E+00 0.15250679E+04</pdfrwt>
<totfact> 0.14176881E+01</totfact>
</mgrwt>
</event>
<event>
12    1  0.2433511E-007  0.2352105E+04  0.7818608E-02  0.8457656E-01
         -2   -1    0    0    0  501 -0.00000000000E+00  0.00000000000E+00  0.20793129110E+04  0.20793129110E+04  0.00000000000E+00 0.  1.
          2   -1    0    0  501    0  0.00000000000E+00 -0.00000000000E+00 -0.66517120431E+03  0.66517120431E+03  0.00000000000E+00 0. -1.
         23    2    1    2    0    0  0.39277446615E+03  0.80311091139E+03  0.83220124838E+02  0.90242627953E+03  0.90491345185E+02 0.  0.
        254    2    1    2    0    0 -0.39277446615E+03 -0.80311091139E+03  0.13309215819E+04  0.18420578358E+04  0.90695418631E+03 0.  0.
        -24    2    4    4    0    0 -0.43416992034E+03 -0.97884172791E+03  0.11664977471E+04  0.15855434347E+04  0.81217861980E+02 0.  0.
         24    2    4    4    0    0  0.41395454186E+02  0.17573081652E+03  0.16442383478E+03  0.25651440117E+03  0.78546400697E+02 0.  0.
         13    1    3    3    0    0  0.20118869337E+03  0.48460414581E+03  0.17686076133E+02  0.52500558641E+03  0.00000000000E+00 0.  1.
        -13    1    3    3    0    0  0.19158577279E+03  0.31850676559E+03  0.65534048705E+02  0.37742069312E+03  0.00000000000E+00 0. -1.
          4    1    6    6  502    0  0.27983118498E+00  0.32369598690E+02  0.77267344774E+02  0.83774171397E+02  0.00000000000E+00 0. -1.
          1    1    5    5  503    0 -0.19971590546E+03 -0.43573869359E+03  0.46347849606E+03  0.66675855322E+03  0.00000000000E+00 0. -1.
         -2    1    5    5    0  503 -0.23445401488E+03 -0.54310303432E+03  0.70301925106E+03  0.91878488143E+03  0.00000000000E+00 0.  1.
         -3    1    6    6    0  502  0.41115623001E+02  0.14336121783E+03  0.87156490006E+02  0.17274022977E+03  0.00000000000E+00 0.  1.
<mgrwt>
<rscale>  0 0.23521047E+04</rscale>
<asrwt>0</asrwt>
<pdfrwt beam="1">  1        2 0.10233403E+00 0.23521047E+04</pdfrwt>
<pdfrwt beam="2">  1       -2 0.31989429E+00 0.23521047E+04</pdfrwt>
<totfact> 0.94638268E-01</totfact>
</mgrwt>
</event>
<event>
12    1  0.2433511E-007  0.1396209E+04  0.7818608E-02  0.8956567E-01
         -1   -1    0    0    0  501 -0.00000000000E+00  0.00000000000E+00  0.70728066091E+03  0.70728066091E+03  0.00000000000E+00 0.  1.
          1   -1    0    0  501    0  0.00000000000E+00 -0.00000000000E+00 -0.68904726144E+03  0.68904726144E+03  0.00000000000E+00 0. -1.
         23    2    1    2    0    0  0.39753686484E+03 -0.49092164537E+02  0.18908941394E+02  0.41137551122E+03  0.91796860734E+02 0.  0.
        254    2    1    2    0    0 -0.39753686484E+03  0.49092164537E+02 -0.67554192023E+00  0.98495241112E+03  0.89982509205E+03 0.  0.
        -24    2    4    4    0    0  0.88812855060E+02 -0.64720788264E+02 -0.34671230496E+03  0.37240169047E+03  0.79981829155E+02 0.  0.
         24    2    4    4    0    0 -0.48634971990E+03  0.11381295280E+03  0.34603676304E+03  0.61255072065E+03  0.77378974653E+02 0.  0.
         11    1    3    3    0    0  0.25255776469E+03 -0.39918906626E+02  0.55328574628E+02  0.26161076962E+03  0.00000000000E+00 0.  1.
        -11    1    3    3    0    0  0.14497910015E+03 -0.91732579113E+01 -0.36419633235E+02  0.14976474160E+03  0.00000000000E+00 0. -1.
          4    1    6    6  502    0 -0.45626854447E+03  0.90536900505E+02  0.30315006329E+03  0.55522776939E+03  0.00000000000E+00 0. -1.
          3    1    5    5  503    0  0.55940866543E+02  0.58245018663E+01 -0.11600153696E+03  0.12891726785E+03  0.00000000000E+00 0. -1.
         -4    1    5    5    0  503  0.32871988517E+02 -0.70545290131E+02 -0.23071076800E+03  0.24348442262E+03  0.00000000000E+00 0.  1.
         -3    1    6    6    0  502 -0.30081175431E+02  0.23276052296E+02  0.42886699751E+02  0.57322951262E+02  0.00000000000E+00 0.  1.
<mgrwt>
<rscale>  0 0.13962089E+04</rscale>
<asrwt>0</asrwt>
<pdfrwt beam="1">  1        1 0.10600727E+00 0.13962089E+04</pdfrwt>
<pdfrwt beam="2">  1       -1 0.10881241E+00 0.13962089E+04</pdfrwt>
<totfact> 0.21320388E+01</totfact>
</mgrwt>
</event>
<event>
12    1  0.2433511E-007  0.1511566E+04  0.7818608E-02  0.8876798E-01
          1   -1    0    0  501    0  0.00000000000E+00  0.00000000000E+00  0.67215488463E+03  0.67215488463E+03  0.00000000000E+00 0. -1.
         -1   -1    0    0    0  501 -0.00000000000E+00 -0.00000000000E+00 -0.84981560532E+03  0.84981560532E+03  0.00000000000E+00 0.  1.
         23    2    1    2    0    0  0.39711598391E+03 -0.27219250219E+03 -0.72130433252E+02  0.49548783429E+03  0.92279638080E+02 0.  0.
        254    2    1    2    0    0 -0.39711598391E+03  0.27219250219E+03 -0.10553028744E+03  0.10264826557E+04  0.90041109381E+03 0.  0.
        -24    2    4    4    0    0  0.13931143536E+03  0.37413974287E+03 -0.21858561213E+03  0.46281335900E+03  0.83835029776E+02 0.  0.
         24    2    4    4    0    0 -0.53642741927E+03 -0.10194724068E+03  0.11305532469E+03  0.56366929666E+03  0.82425442196E+02 0.  0.
         11    1    3    3    0    0  0.29171438037E+03 -0.18169732440E+03 -0.11370421205E+02  0.34386114042E+03  0.00000000000E+00 0. -1.
        -11    1    3    3    0    0  0.10540160354E+03 -0.90495177789E+02 -0.60760012048E+02  0.15162669388E+03  0.00000000000E+00 0.  1.
          2    1    6    6  502    0 -0.36345573431E+03 -0.68066360915E+02  0.36728266113E+02  0.37159395289E+03  0.00000000000E+00 0. -1.
          3    1    5    5  503    0  0.11246834458E+03  0.26211660663E+03 -0.11380218205E+03  0.30709148579E+03  0.00000000000E+00 0. -1.
         -4    1    5    5    0  503  0.26843090779E+02  0.11202313624E+03 -0.10478343009E+03  0.15572187321E+03  0.00000000000E+00 0.  1.
         -3    1    6    6    0  502 -0.17297168496E+03 -0.33880879766E+02  0.76327058576E+02  0.19207534377E+03  0.00000000000E+00 0.  1.
<mgrwt>
<rscale>  0 0.15115657E+04</rscale>
<asrwt>0</asrwt>
<pdfrwt beam="1">  1        1 0.10340844E+00 0.15115657E+04</pdfrwt>
<pdfrwt beam="2">  1       -1 0.13074086E+00 0.15115657E+04</pdfrwt>
<totfact> 0.13999186E+01</totfact>
</mgrwt>
</event>
<event>
12    1  0.2433511E-007  0.1868130E+04  0.7818608E-02  0.8670885E-01
         -2   -1    0    0    0  501 -0.00000000000E+00  0.00000000000E+00  0.61280468958E+03  0.61280468958E+03  0.00000000000E+00 0.  1.
          2   -1    0    0  501    0  0.00000000000E+00 -0.00000000000E+00 -0.14237447171E+04  0.14237447171E+04  0.00000000000E+00 0. -1.
         23    2    1    2    0    0 -0.65860901778E+03 -0.26218244625E+03 -0.42177367683E+03  0.82998469395E+03  0.92065652130E+02 0.  0.
        254    2    1    2    0    0  0.65860901778E+03  0.26218244625E+03 -0.38916635072E+03  0.12065647128E+04  0.89545657859E+03 0.  0.
        -24    2    4    4    0    0  0.62018221942E+03  0.54912865986E+03 -0.35852115794E+03  0.90603666508E+03  0.78719421987E+02 0.  0.
         24    2    4    4    0    0  0.38426798354E+02 -0.28694621361E+03 -0.30645192786E+02  0.30052804769E+03  0.74587071746E+02 0.  0.
         11    1    3    3    0    0 -0.33338998544E+03 -0.12634652258E+03 -0.15907717247E+03  0.39040731674E+03  0.00000000000E+00 0.  1.
        -11    1    3    3    0    0 -0.32521903234E+03 -0.13583592367E+03 -0.26269650436E+03  0.43957737721E+03  0.00000000000E+00 0. -1.
          2    1    6    6  502    0  0.39660052963E+02 -0.18661973675E+03 -0.52421205870E+02  0.19785810261E+03  0.00000000000E+00 0. -1.
          3    1    5    5  503    0  0.43764851779E+03  0.43293201416E+03 -0.25901745057E+03  0.66787453441E+03  0.00000000000E+00 0. -1.
         -4    1    5    5    0  503  0.18253370163E+03  0.11619664571E+03 -0.99503707367E+02  0.23816213067E+03  0.00000000000E+00 0.  1.
         -1    1    6    6    0  502 -0.12332546095E+01 -0.10032647686E+03  0.21776013084E+02  0.10266994508E+03  0.00000000000E+00 0.  1.
<mgrwt>
<rscale>  0 0.18681300E+04</rscale>
<asrwt>0</asrwt>
<pdfrwt beam="1">  1        2 0.21903765E+00 0.18681300E+04</pdfrwt>
<pdfrwt beam="2">  1       -2 0.94277645E-01 0.18681300E+04</pdfrwt>
<totfact> 0.12495643E+01</totfact>
</mgrwt>
</event>
<event>
12    1  0.2433511E-007  0.3138995E+04  0.7818608E-02  0.8205117E-01
          1   -1    0    0  501    0  0.00000000000E+00  0.00000000000E+00  0.24134336376E+04  0.24134336376E+04  0.00000000000E+00 0. -1.
         -1   -1    0    0    0  501 -0.00000000000E+00 -0.00000000000E+00 -0.10206710117E+04  0.10206710117E+04  0.00000000000E+00 0.  1.
         23    2    1    2    0    0 -0.12618931541E+04 -0.66906890993E+03  0.44772622570E+03  0.14998134897E+04  0.94626592464E+02 0.  0.
        254    2    1    2    0    0  0.12618931541E+04  0.66906890993E+03  0.94503640020E+03  0.19342911596E+04  0.89908895769E+03 0.  0.
        -24    2    4    4    0    0  0.11308704025E+04  0.53496504241E+03  0.11083448050E+04  0.16732502882E+04  0.79264470376E+02 0.  0.
         24    2    4    4    0    0  0.13102275157E+03  0.13410386752E+03 -0.16330840482E+03  0.26104087140E+03  0.79510331061E+02 0.  0.
         13    1    3    3    0    0 -0.12424051516E+04 -0.65517708430E+03  0.42670382812E+03  0.14679590353E+04  0.00000000000E+00 0.  1.
        -13    1    3    3    0    0 -0.19488002539E+02 -0.13891825630E+02  0.21022397576E+02  0.31854454353E+02  0.00000000000E+00 0. -1.
          2    1    6    6  502    0  0.97262700120E+02  0.92496724912E+02 -0.15782229958E+03  0.20718000675E+03  0.00000000000E+00 0. -1.
          3    1    5    5  503    0  0.97274349833E+03  0.46573276013E+03  0.98981415610E+03  0.14638541529E+04  0.00000000000E+00 0. -1.
         -4    1    5    5    0  503  0.15812690421E+03  0.69232282283E+02  0.11853064892E+03  0.20939613530E+03  0.00000000000E+00 0.  1.
         -1    1    6    6    0  502  0.33760051450E+02  0.41607142610E+02 -0.54861052386E+01  0.53860864650E+02  0.00000000000E+00 0.  1.
<mgrwt>
<rscale>  0 0.31389946E+04</rscale>
<asrwt>0</asrwt>
<pdfrwt beam="1">  1        1 0.37129748E+00 0.31389946E+04</pdfrwt>
<pdfrwt beam="2">  1       -1 0.15702631E+00 0.31389946E+04</pdfrwt>
<totfact> 0.40259134E-01</totfact>
</mgrwt>
</event>
<event>
12    1  0.2433511E-007  0.1543296E+04  0.7818608E-02  0.8856161E-01
         -2   -1    0    0    0  501 -0.00000000000E+00  0.00000000000E+00  0.76816162953E+03  0.76816162953E+03  0.00000000000E+00 0.  1.
          2   -1    0    0  501    0  0.00000000000E+00 -0.00000000000E+00 -0.77515041289E+03  0.77515041289E+03  0.00000000000E+00 0. -1.
         23    2    1    2    0    0  0.17530579847E+03 -0.46127879360E+03  0.99217495385E+02  0.51085960784E+03  0.87310819138E+02 0.  0.
        254    2    1    2    0    0 -0.17530579847E+03  0.46127879360E+03 -0.10620627875E+03  0.10324524346E+04  0.90064865936E+03 0.  0.
        -24    2    4    4    0    0 -0.27116595949E+03  0.15621395518E+02  0.30304800053E+03  0.41468151675E+03  0.79672229302E+02 0.  0.
         24    2    4    4    0    0  0.95860161023E+02  0.44565739808E+03 -0.40925427928E+03  0.61777091782E+03  0.79700406929E+02 0.  0.
         13    1    3    3    0    0  0.21858534751E+02 -0.95257087383E+02 -0.12554221362E+02  0.98535865106E+02  0.00000000000E+00 0. -1.
        -13    1    3    3    0    0  0.15344726372E+03 -0.36602170621E+03  0.11177171675E+03  0.41232374274E+03  0.00000000000E+00 0.  1.
          2    1    6    6  502    0  0.33975358984E+02  0.71726896410E+02 -0.41065649542E+02  0.89361402513E+02  0.00000000000E+00 0. -1.
          3    1    5    5  503    0 -0.17935429882E+02 -0.48325670661E+01  0.61057553952E+02  0.63820515856E+02  0.00000000000E+00 0. -1.
         -4    1    5    5    0  503 -0.25323052961E+03  0.20453962585E+02  0.24199044658E+03  0.35086100090E+03  0.00000000000E+00 0.  1.
         -1    1    6    6    0  502  0.61884802039E+02  0.37393050167E+03 -0.36818862974E+03  0.52840951531E+03  0.00000000000E+00 0.  1.
<mgrwt>
<rscale>  0 0.15432962E+04</rscale>
<asrwt>0</asrwt>
<pdfrwt beam="1">  1        2 0.11925391E+00 0.15432962E+04</pdfrwt>
<pdfrwt beam="2">  1       -2 0.11817871E+00 0.15432962E+04</pdfrwt>
<totfact> 0.19076692E+01</totfact>
</mgrwt>
</event>
<event>
12    1  0.2433511E-007  0.1922424E+04  0.7818608E-02  0.8643774E-01
         -2   -1    0    0    0  501 -0.00000000000E+00  0.00000000000E+00  0.27660663257E+03  0.27660663257E+03  0.00000000000E+00 0.  1.
          2   -1    0    0  501    0  0.00000000000E+00 -0.00000000000E+00 -0.33402261953E+04  0.33402261953E+04  0.00000000000E+00 0. -1.
         23    2    1    2    0    0  0.47064369365E+03  0.55057092597E+03 -0.85158887716E+03  0.11217434275E+04  0.92037332335E+02 0.  0.
        254    2    1    2    0    0 -0.47064369365E+03 -0.55057092597E+03 -0.22120306856E+04  0.24950894004E+04  0.89875332047E+03 0.  0.
        -24    2    4    4    0    0  0.10416634501E+02  0.17375105276E+03 -0.11796467345E+03  0.22619377470E+03  0.83366809469E+02 0.  0.
         24    2    4    4    0    0 -0.48106032815E+03 -0.72432197873E+03 -0.20940660121E+04  0.22688956257E+04  0.81936126849E+02 0.  0.
         13    1    3    3    0    0  0.31620194844E+03  0.41074757728E+03 -0.65502047158E+03  0.83531375101E+03  0.00000000000E+00 0. -1.
        -13    1    3    3    0    0  0.15444174521E+03  0.13982334869E+03 -0.19656840559E+03  0.28642967649E+03  0.00000000000E+00 0.  1.
          4    1    6    6  502    0 -0.25759317159E+03 -0.32985904151E+03 -0.93929302052E+03  0.10283154223E+04  0.00000000000E+00 0. -1.
          1    1    5    5  503    0  0.20217064599E+02  0.12623964099E+03 -0.12301486801E+03  0.17741993802E+03  0.00000000000E+00 0. -1.
         -2    1    5    5    0  503 -0.98004300986E+01  0.47511411777E+02  0.50501945587E+01  0.48773836678E+02  0.00000000000E+00 0.  1.
         -3    1    6    6    0  502 -0.22346715657E+03 -0.39446293722E+03 -0.11547729916E+04  0.12405802034E+04  0.00000000000E+00 0.  1.
<mgrwt>
<rscale>  0 0.19224242E+04</rscale>
<asrwt>0</asrwt>
<pdfrwt beam="1">  1        2 0.51388099E+00 0.19224242E+04</pdfrwt>
<pdfrwt beam="2">  1       -2 0.42554863E-01 0.19224242E+04</pdfrwt>
<totfact> 0.51493965E+00</totfact>
</mgrwt>
</event>
<event>
12    1  0.2433511E-007  0.3168520E+04  0.7818608E-02  0.8197181E-01
          2   -1    0    0  501    0  0.00000000000E+00  0.00000000000E+00  0.10200985198E+04  0.10200985198E+04  0.00000000000E+00 0. -1.
         -2   -1    0    0    0  501 -0.00000000000E+00 -0.00000000000E+00 -0.24604287604E+04  0.24604287604E+04  0.00000000000E+00 0.  1.
         23    2    1    2    0    0  0.13631763537E+04  0.16218899925E+03 -0.11934520589E+04  0.18213097638E+04  0.91029643952E+02 0.  0.
        254    2    1    2    0    0 -0.13631763537E+04 -0.16218899925E+03 -0.24687818161E+03  0.16592175164E+04  0.89860941884E+03 0.  0.
        -24    2    4    4    0    0 -0.70813301055E+03 -0.48783219654E+03  0.51379227741E+02  0.86517667779E+03  0.80363213749E+02 0.  0.
         24    2    4    4    0    0 -0.65504334310E+03  0.32564319729E+03 -0.29825740935E+03  0.79404083864E+03  0.80113032090E+02 0.  0.
         11    1    3    3    0    0  0.25772185188E+03 -0.44847471901E+01 -0.21527049506E+03  0.33583039162E+03  0.00000000000E+00 0. -1.
        -11    1    3    3    0    0  0.11054545018E+04  0.16667374644E+03 -0.97818156387E+03  0.14854793722E+04  0.00000000000E+00 0.  1.
          4    1    6    6  502    0 -0.48572182202E+03  0.22233330144E+03 -0.18316903368E+03  0.56472000161E+03  0.00000000000E+00 0. -1.
          1    1    5    5  503    0 -0.17489782805E+03 -0.15761983518E+03 -0.45608744610E+01  0.23548686646E+03  0.00000000000E+00 0. -1.
         -2    1    5    5    0  503 -0.53323518250E+03 -0.33021236136E+03  0.55940102202E+02  0.62968981133E+03  0.00000000000E+00 0.  1.
         -3    1    6    6    0  502 -0.16932152108E+03  0.10330989586E+03 -0.11508837567E+03  0.22932083703E+03  0.00000000000E+00 0.  1.
<mgrwt>
<rscale>  0 0.31685200E+04</rscale>
<asrwt>0</asrwt>
<pdfrwt beam="1">  1        2 0.15693824E+00 0.31685200E+04</pdfrwt>
<pdfrwt beam="2">  1       -2 0.37852750E+00 0.31685200E+04</pdfrwt>
<totfact> 0.21112882E-01</totfact>
</mgrwt>
</event>
<event>
12    1  0.2433511E-007  0.1471357E+04  0.7818608E-02  0.8903727E-01
          1   -1    0    0  501    0  0.00000000000E+00  0.00000000000E+00  0.54674335666E+03  0.54674335666E+03  0.00000000000E+00 0. -1.
         -1   -1    0    0    0  501 -0.00000000000E+00 -0.00000000000E+00 -0.98990291059E+03  0.98990291059E+03  0.00000000000E+00 0.  1.
         23    2    1    2    0    0 -0.30224092454E+03  0.61519685861E+02  0.20897401469E+03  0.38344267999E+03  0.90685730985E+02 0.  0.
        254    2    1    2    0    0  0.30224092454E+03 -0.61519685861E+02 -0.65213356861E+03  0.11532035873E+04  0.89970332562E+03 0.  0.
        -24    2    4    4    0    0  0.37625649614E+03 -0.39677529262E+03 -0.21954407635E+03  0.59485176991E+03  0.81544116785E+02 0.  0.
         24    2    4    4    0    0 -0.74015571603E+02  0.33525560676E+03 -0.43258949226E+03  0.55835181735E+03  0.82148989117E+02 0.  0.
         11    1    3    3    0    0 -0.19103081966E+03  0.14999254433E+02  0.82204430761E+02  0.20850736229E+03  0.00000000000E+00 0.  1.
        -11    1    3    3    0    0 -0.11121010489E+03  0.46520431428E+02  0.12676958393E+03  0.17493531770E+03  0.00000000000E+00 0. -1.
          4    1    6    6  502    0 -0.68744161158E+01  0.20820908577E+03 -0.23512825803E+03  0.31413942560E+03  0.00000000000E+00 0. -1.
          3    1    5    5  503    0  0.29120686623E+03 -0.32636227084E+03 -0.14177305664E+03  0.45979709694E+03  0.00000000000E+00 0. -1.
         -4    1    5    5    0  503  0.85049629914E+02 -0.70413021785E+02 -0.77771019705E+02  0.13505467297E+03  0.00000000000E+00 0.  1.
         -3    1    6    6    0  502 -0.67141155487E+02  0.12704652099E+03 -0.19746123423E+03  0.24421239174E+03  0.00000000000E+00 0.  1.
<mgrwt>
<rscale>  0 0.14713570E+04</rscale>
<asrwt>0</asrwt>
<pdfrwt beam="1">  1        1 0.84114363E-01 0.14713570E+04</pdfrwt>
<pdfrwt beam="2">  1       -1 0.15229276E+00 0.14713570E+04</pdfrwt>
<totfact> 0.12700947E+01</totfact>
</mgrwt>
</event>
<event>
12    1  0.2433511E-007  0.3236196E+04  0.7818608E-02  0.8179323E-01
          2   -1    0    0  501    0  0.00000000000E+00  0.00000000000E+00  0.30185515324E+04  0.30185515324E+04  0.00000000000E+00 0. -1.
         -2   -1    0    0    0  501 -0.00000000000E+00 -0.00000000000E+00 -0.86738326285E+03  0.86738326285E+03  0.00000000000E+00 0.  1.
         23    2    1    2    0    0 -0.13330245302E+04 -0.57622067361E+03  0.13974098121E+04  0.20174133843E+04  0.90652729433E+02 0.  0.
        254    2    1    2    0    0  0.13330245302E+04  0.57622067361E+03  0.75375845740E+03  0.18685214109E+04  0.90235014715E+03 0.  0.
        -24    2    4    4    0    0  0.12000460934E+04  0.45501245247E+03  0.94374974079E+03  0.15950790436E+04  0.80415321061E+02 0.  0.
         24    2    4    4    0    0  0.13297843678E+03  0.12120822114E+03 -0.18999128339E+03  0.27344236729E+03  0.79368400164E+02 0.  0.
         13    1    3    3    0    0 -0.65521626865E+03 -0.23422519704E+03  0.66101735867E+03  0.95974671143E+03  0.00000000000E+00 0. -1.
        -13    1    3    3    0    0 -0.67780826156E+03 -0.34199547656E+03  0.73639245345E+03  0.10576666729E+04  0.00000000000E+00 0.  1.
          2    1    6    6  502    0  0.31654248103E+02  0.75249328337E+02 -0.10726657529E+03  0.13479826042E+03  0.00000000000E+00 0. -1.
          1    1    5    5  503    0  0.28416894645E+02  0.24868013520E+01  0.10782741349E+02  0.30495435613E+02  0.00000000000E+00 0. -1.
         -2    1    5    5    0  503  0.11716291988E+04  0.45252565112E+03  0.93296699945E+03  0.15645836080E+04  0.00000000000E+00 0.  1.
         -1    1    6    6    0  502  0.10132418868E+03  0.45958892802E+02 -0.82724708100E+02  0.13864410687E+03  0.00000000000E+00 0.  1.
<mgrwt>
<rscale>  0 0.32361960E+04</rscale>
<asrwt>0</asrwt>
<pdfrwt beam="1">  1        2 0.46439254E+00 0.32361960E+04</pdfrwt>
<pdfrwt beam="2">  1       -2 0.13344358E+00 0.32361960E+04</pdfrwt>
<totfact> 0.57786413E-01</totfact>
</mgrwt>
</event>
<event>
12    1  0.2433511E-007  0.1973344E+04  0.7818608E-02  0.8619185E-01
         -2   -1    0    0    0  501 -0.00000000000E+00  0.00000000000E+00  0.95054848934E+03  0.95054848934E+03  0.00000000000E+00 0.  1.
          2   -1    0    0  501    0  0.00000000000E+00 -0.00000000000E+00 -0.10241687282E+04  0.10241687282E+04  0.00000000000E+00 0. -1.
         23    2    1    2    0    0  0.73990386661E+03 -0.24296493402E+02  0.21915619265E+03  0.77617888959E+03  0.79850988975E+02 0.  0.
        254    2    1    2    0    0 -0.73990386661E+03  0.24296493402E+02 -0.29277643146E+03  0.11985383279E+04  0.89595091006E+03 0.  0.
        -24    2    4    4    0    0  0.15414744043E+03  0.17748141081E+03 -0.10453308004E+03  0.26932385884E+03  0.79668635894E+02 0.  0.
         24    2    4    4    0    0 -0.89405130704E+03 -0.15318491741E+03 -0.18824335142E+03  0.92921446907E+03  0.72184566398E+02 0.  0.
         13    1    3    3    0    0  0.19722200381E+03  0.14628299093E+02  0.88338725122E+02  0.21659694430E+03  0.00000000000E+00 0.  1.
        -13    1    3    3    0    0  0.54268186280E+03 -0.38924792495E+02  0.13081746753E+03  0.55958194529E+03  0.00000000000E+00 0. -1.
          2    1    6    6  502    0 -0.88924919705E+02  0.24566809125E+01 -0.59031267437E+01  0.89154492489E+02  0.00000000000E+00 0. -1.
          3    1    5    5  503    0  0.86579865831E+02  0.97761019288E+02 -0.14507635777E+02  0.13139163427E+03  0.00000000000E+00 0. -1.
         -4    1    5    5    0  503  0.67567574598E+02  0.79720391523E+02 -0.90025444265E+02  0.13793222458E+03  0.00000000000E+00 0.  1.
         -1    1    6    6    0  502 -0.80512638734E+03 -0.15564159832E+03 -0.18234022468E+03  0.84005997658E+03  0.00000000000E+00 0.  1.
<mgrwt>
<rscale>  0 0.19733444E+04</rscale>
<asrwt>0</asrwt>
<pdfrwt beam="1">  1        2 0.15756442E+00 0.19733444E+04</pdfrwt>
<pdfrwt beam="2">  1       -2 0.14623823E+00 0.19733444E+04</pdfrwt>
<totfact> 0.72512525E+00</totfact>
</mgrwt>
</event>
<event>
12    1  0.2433511E-007  0.2250585E+04  0.7818608E-02  0.8497664E-01
         -1   -1    0    0    0  501 -0.00000000000E+00  0.00000000000E+00  0.21235617474E+04  0.21235617474E+04  0.00000000000E+00 0.  1.
          1   -1    0    0  501    0  0.00000000000E+00 -0.00000000000E+00 -0.59630148756E+03  0.59630148756E+03  0.00000000000E+00 0. -1.
         23    2    1    2    0    0 -0.25076470840E+03 -0.90464076807E+03  0.76062885777E+03  0.12115993678E+04  0.90326688154E+02 0.  0.
        254    2    1    2    0    0  0.25076470840E+03  0.90464076807E+03  0.76663140203E+03  0.15082638671E+04  0.89770726185E+03 0.  0.
        -24    2    4    4    0    0  0.39058568667E+03  0.45897529841E+03  0.83164531714E+03  0.10300843409E+04  0.78894313168E+02 0.  0.
         24    2    4    4    0    0 -0.13982097827E+03  0.44566546966E+03 -0.65013915111E+02  0.47817952620E+03  0.79127955277E+02 0.  0.
         11    1    3    3    0    0 -0.11742032203E+03 -0.50846411398E+03  0.47181596621E+03  0.70351516913E+03  0.00000000000E+00 0.  1.
        -11    1    3    3    0    0 -0.13334438637E+03 -0.39617665409E+03  0.28881289157E+03  0.50808419869E+03  0.00000000000E+00 0. -1.
          2    1    6    6  502    0 -0.30969729313E+01  0.12534447674E+03 -0.21004534610E+02  0.12712993182E+03  0.00000000000E+00 0. -1.
          1    1    5    5  503    0  0.43956980095E+02  0.75655142389E+02  0.16297077075E+03  0.18497402192E+03  0.00000000000E+00 0. -1.
         -2    1    5    5    0  503  0.34662870658E+03  0.38332015602E+03  0.66867454639E+03  0.84511031897E+03  0.00000000000E+00 0.  1.
         -1    1    6    6    0  502 -0.13672400534E+03  0.32032099292E+03 -0.44009380501E+02  0.35104959438E+03  0.00000000000E+00 0.  1.
<mgrwt>
<rscale>  0 0.22505848E+04</rscale>
<asrwt>0</asrwt>
<pdfrwt beam="1">  1        1 0.91738691E-01 0.22505848E+04</pdfrwt>
<pdfrwt beam="2">  1       -1 0.32670180E+00 0.22505848E+04</pdfrwt>
<totfact> 0.69444421E-01</totfact>
</mgrwt>
</event>
<event>
12    1  0.2433511E-007  0.2946786E+04  0.7818608E-02  0.8259092E-01
         -2   -1    0    0    0  501 -0.00000000000E+00  0.00000000000E+00  0.11780094935E+04  0.11780094935E+04  0.00000000000E+00 0.  1.
          2   -1    0    0  501    0  0.00000000000E+00 -0.00000000000E+00 -0.18428431435E+04  0.18428431435E+04  0.00000000000E+00 0. -1.
         23    2    1    2    0    0  0.14622137520E+01 -0.13115635075E+04 -0.54517712719E+03  0.14232098799E+04  0.90040489526E+02 0.  0.
        254    2    1    2    0    0 -0.14622137520E+01  0.13115635075E+04 -0.11965652278E+03  0.15976427571E+04  0.90440241240E+03 0.  0.
        -24    2    4    4    0    0  0.30416885673E+03  0.89672608970E+02  0.21398056532E+02  0.32771473552E+03  0.79869899522E+02 0.  0.
         24    2    4    4    0    0 -0.30563107048E+03  0.12218908986E+04 -0.14105457932E+03  0.12699280216E+04  0.79956653542E+02 0.  0.
         13    1    3    3    0    0 -0.66793172466E+01 -0.12219832509E+04 -0.48365592726E+03  0.13142338965E+04  0.00000000000E+00 0.  1.
        -13    1    3    3    0    0  0.81415309986E+01 -0.89580256609E+02 -0.61521199934E+02  0.10897598333E+03  0.00000000000E+00 0. -1.
          4    1    6    6  502    0 -0.23832847085E+03  0.10651636530E+04 -0.12282015283E+03  0.10983892105E+04  0.00000000000E+00 0. -1.
          3    1    5    5  503    0  0.28124595488E+03  0.76867242064E+02  0.41695056337E+02  0.29452731242E+03  0.00000000000E+00 0. -1.
         -4    1    5    5    0  503  0.22922901847E+02  0.12805366905E+02 -0.20296999805E+02  0.33187423096E+02  0.00000000000E+00 0.  1.
         -3    1    6    6    0  502 -0.67302599634E+02  0.15672724556E+03 -0.18234426486E+02  0.17153881114E+03  0.00000000000E+00 0.  1.
<mgrwt>
<rscale>  0 0.29467859E+04</rscale>
<asrwt>0</asrwt>
<pdfrwt beam="1">  1        2 0.28351433E+00 0.29467859E+04</pdfrwt>
<pdfrwt beam="2">  1       -2 0.18123223E+00 0.29467859E+04</pdfrwt>
<totfact> 0.12489847E+00</totfact>
</mgrwt>
</event>
<event>
12    1  0.2433511E-007  0.2999729E+04  0.7818608E-02  0.8243808E-01
         -1   -1    0    0    0  501 -0.00000000000E+00  0.00000000000E+00  0.55932215635E+03  0.55932215635E+03  0.00000000000E+00 0.  1.
          1   -1    0    0  501    0  0.00000000000E+00 -0.00000000000E+00 -0.40219987591E+04  0.40219987591E+04  0.00000000000E+00 0. -1.
         23    2    1    2    0    0 -0.74853958917E+03 -0.11089480681E+04 -0.19795577152E+04  0.23910355774E+04  0.91241714372E+02 0.  0.
        254    2    1    2    0    0  0.74853958917E+03  0.11089480681E+04 -0.14831188876E+04  0.21902853381E+04  0.89868286573E+03 0.  0.
        -24    2    4    4    0    0 -0.64742690070E+02 -0.56420647311E+02 -0.35508897853E+03  0.37409527213E+03  0.80524434781E+02 0.  0.
         24    2    4    4    0    0  0.81328227924E+03  0.11653687154E+04 -0.11280299090E+04  0.18161900659E+04  0.81133047022E+02 0.  0.
         11    1    3    3    0    0 -0.32396705458E+03 -0.43181718105E+03 -0.73487019621E+03  0.91184150793E+03  0.00000000000E+00 0.  1.
        -11    1    3    3    0    0 -0.42457253459E+03 -0.67713088703E+03 -0.12446875190E+04  0.14791940695E+04  0.00000000000E+00 0. -1.
          2    1    6    6  502    0  0.11980343775E+03  0.12806070803E+03 -0.12733189516E+03  0.21671598963E+03  0.00000000000E+00 0. -1.
          3    1    5    5  503    0 -0.29591638194E+02  0.17927202519E+02 -0.85274148003E+02  0.92025702707E+02  0.00000000000E+00 0. -1.
         -4    1    5    5    0  503 -0.35151051877E+02 -0.74347849831E+02 -0.26981483053E+03  0.28206956942E+03  0.00000000000E+00 0.  1.
         -1    1    6    6    0  502  0.69347884150E+03  0.10373080074E+04 -0.10006980139E+04  0.15994740763E+04  0.00000000000E+00 0.  1.
<mgrwt>
<rscale>  0 0.29997287E+04</rscale>
<asrwt>0</asrwt>
<pdfrwt beam="1">  1        1 0.61876902E+00 0.29997287E+04</pdfrwt>
<pdfrwt beam="2">  1       -1 0.86049565E-01 0.29997287E+04</pdfrwt>
<totfact> 0.10401995E-01</totfact>
</mgrwt>
</event>
<event>
12    1  0.2433511E-007  0.2292975E+04  0.7818608E-02  0.8480696E-01
          2   -1    0    0  501    0  0.00000000000E+00  0.00000000000E+00  0.28644354178E+04  0.28644354178E+04  0.00000000000E+00 0. -1.
         -2   -1    0    0    0  501 -0.00000000000E+00 -0.00000000000E+00 -0.45888059078E+03  0.45888059078E+03  0.00000000000E+00 0.  1.
         23    2    1    2    0    0 -0.79322477958E+03  0.55029404091E+03  0.11121404002E+04  0.14754992881E+04  0.90624483064E+02 0.  0.
        254    2    1    2    0    0  0.79322477958E+03 -0.55029404091E+03  0.12934144268E+04  0.18478167205E+04  0.89970921454E+03 0.  0.
        -24    2    4    4    0    0  0.54940408245E+03 -0.55125759711E+03  0.32763834040E+03  0.84822527330E+03  0.80059028140E+02 0.  0.
         24    2    4    4    0    0  0.24382069714E+03  0.96355620130E+00  0.96577608642E+03  0.99959144722E+03  0.83726647190E+02 0.  0.
         11    1    3    3    0    0 -0.57154855392E+03  0.40648093272E+03  0.86595627073E+03  0.11143494788E+04  0.00000000000E+00 0.  1.
        -11    1    3    3    0    0 -0.22167622566E+03  0.14381310819E+03  0.24618412949E+03  0.36114980925E+03  0.00000000000E+00 0. -1.
          4    1    6    6  502    0  0.25270263594E+02  0.15576107626E+02  0.22988278652E+03  0.23179149442E+03  0.00000000000E+00 0. -1.
          1    1    5    5  503    0  0.25984275063E+02 -0.27348582313E+02  0.36464606550E+02  0.52467085262E+02  0.00000000000E+00 0. -1.
         -2    1    5    5    0  503  0.52341980738E+03 -0.52390901480E+03  0.29117373385E+03  0.79575818804E+03  0.00000000000E+00 0.  1.
         -3    1    6    6    0  502  0.21855043354E+03 -0.14612551425E+02  0.73589329991E+03  0.76779995279E+03  0.00000000000E+00 0.  1.
<mgrwt>
<rscale>  0 0.22929752E+04</rscale>
<asrwt>0</asrwt>
<pdfrwt beam="1">  1        2 0.44068236E+00 0.22929752E+04</pdfrwt>
<pdfrwt beam="2">  1       -2 0.70597016E-01 0.22929752E+04</pdfrwt>
<totfact> 0.34987661E+00</totfact>
</mgrwt>
</event>
<event>
12    1  0.2433511E-007  0.3895640E+04  0.7818608E-02  0.8025937E-01
          1   -1    0    0  501    0  0.00000000000E+00  0.00000000000E+00  0.20491922855E+04  0.20491922855E+04  0.00000000000E+00 0. -1.
         -1   -1    0    0    0  501 -0.00000000000E+00 -0.00000000000E+00 -0.18514629407E+04  0.18514629407E+04  0.00000000000E+00 0.  1.
         23    2    1    2    0    0 -0.70378387862E+03  0.16973453602E+04  0.23432623526E+03  0.18545200457E+04  0.89681635212E+02 0.  0.
        254    2    1    2    0    0  0.70378387862E+03 -0.16973453602E+04 -0.36596890450E+02  0.20461351804E+04  0.89946474338E+03 0.  0.
        -24    2    4    4    0    0  0.35682644963E+03 -0.56727164595E+03  0.39889271490E+03  0.78393776420E+03  0.79503362739E+02 0.  0.
         24    2    4    4    0    0  0.34695742900E+03 -0.11300737143E+04 -0.43548960535E+03  0.12621974162E+04  0.77750009472E+02 0.  0.
         11    1    3    3    0    0 -0.26505958766E+03  0.74742134137E+03  0.11716485201E+03  0.80163760459E+03  0.00000000000E+00 0. -1.
        -11    1    3    3    0    0 -0.43872429097E+03  0.94992401886E+03  0.11716138325E+03  0.10528824411E+04  0.00000000000E+00 0.  1.
          2    1    6    6  502    0  0.12967840254E+03 -0.31453383647E+03 -0.10884989526E+03  0.35720627384E+03  0.00000000000E+00 0. -1.
          3    1    5    5  503    0  0.86068898221E+02 -0.19506230095E+03  0.10320427477E+03  0.23687186161E+03  0.00000000000E+00 0. -1.
         -2    1    5    5    0  503  0.27075755141E+03 -0.37220934501E+03  0.29568844013E+03  0.54706590259E+03  0.00000000000E+00 0.  1.
         -1    1    6    6    0  502  0.21727902646E+03 -0.81553987780E+03 -0.32663971009E+03  0.90499114241E+03  0.00000000000E+00 0.  1.
<mgrwt>
<rscale>  0 0.38956404E+04</rscale>
<asrwt>0</asrwt>
<pdfrwt beam="1">  1        1 0.31526035E+00 0.38956404E+04</pdfrwt>
<pdfrwt beam="2">  1       -1 0.28484045E+00 0.38956404E+04</pdfrwt>
<totfact> 0.90195680E-02</totfact>
</mgrwt>
</event>
<event>
12    1  0.2433511E-007  0.2636306E+04  0.7818608E-02  0.8355972E-01
          2   -1    0    0  501    0  0.00000000000E+00  0.00000000000E+00  0.10718948217E+04  0.10718948217E+04  0.00000000000E+00 0. -1.
         -2   -1    0    0    0  501 -0.00000000000E+00 -0.00000000000E+00 -0.16209871169E+04  0.16209871169E+04  0.00000000000E+00 0.  1.
         23    2    1    2    0    0 -0.68182360751E+03  0.93698803972E+03 -0.14759805382E+03  0.11716911242E+04  0.90801358507E+02 0.  0.
        254    2    1    2    0    0  0.68182360751E+03 -0.93698803972E+03 -0.40149424134E+03  0.15211908144E+04  0.89999658307E+03 0.  0.
        -24    2    4    4    0    0  0.74637571850E+03 -0.10339769554E+04 -0.47452897547E+03  0.13629651787E+04  0.79443517404E+02 0.  0.
         24    2    4    4    0    0 -0.64552110992E+02  0.96988915672E+02  0.73034734134E+02  0.15822563562E+03  0.78278059381E+02 0.  0.
         13    1    3    3    0    0 -0.14731956709E+03  0.23047792882E+03 -0.70174574211E+02  0.28239617807E+03  0.00000000000E+00 0. -1.
        -13    1    3    3    0    0 -0.53450404041E+03  0.70651011089E+03 -0.77423479614E+02  0.88929494613E+03  0.00000000000E+00 0.  1.
          2    1    6    6  502    0 -0.13146832802E+02  0.69987687457E+02  0.70345811543E+02  0.10009819584E+03  0.00000000000E+00 0. -1.
          3    1    5    5  503    0  0.38693331482E+03 -0.60164062689E+03 -0.27525657427E+03  0.76645614077E+03  0.00000000000E+00 0. -1.
         -4    1    5    5    0  503  0.35944240368E+03 -0.43233632850E+03 -0.19927240121E+03  0.59650903798E+03  0.00000000000E+00 0.  1.
         -1    1    6    6    0  502 -0.51405278190E+02  0.27001228215E+02  0.26889225912E+01  0.58127439782E+02  0.00000000000E+00 0.  1.
<mgrwt>
<rscale>  0 0.26363063E+04</rscale>
<asrwt>0</asrwt>
<pdfrwt beam="1">  1        2 0.16490690E+00 0.26363063E+04</pdfrwt>
<pdfrwt beam="2">  1       -2 0.24938263E+00 0.26363063E+04</pdfrwt>
<totfact> 0.12965453E+00</totfact>
</mgrwt>
</event>
<event>
12    1  0.2433511E-007  0.3453064E+04  0.7818608E-02  0.8125004E-01
          1   -1    0    0  501    0  0.00000000000E+00  0.00000000000E+00  0.10907937370E+04  0.10907937370E+04  0.00000000000E+00 0. -1.
         -1   -1    0    0    0  501 -0.00000000000E+00 -0.00000000000E+00 -0.27327918256E+04  0.27327918256E+04  0.00000000000E+00 0.  1.
         23    2    1    2    0    0 -0.24414816887E+03  0.12071277828E+04  0.37898818549E+03  0.12916571815E+04  0.89333182693E+02 0.  0.
        254    2    1    2    0    0  0.24414816887E+03 -0.12071277828E+04 -0.20209862741E+04  0.25319283811E+04  0.89972773366E+03 0.  0.
        -24    2    4    4    0    0  0.40792504474E+03 -0.46020154303E+03 -0.40066867022E+03  0.73840228498E+03  0.80710896661E+02 0.  0.
         24    2    4    4    0    0 -0.16377687587E+03 -0.74692623974E+03 -0.16203176038E+04  0.17935260961E+04  0.81148305076E+02 0.  0.
         11    1    3    3    0    0 -0.48480042118E+02  0.45730160873E+03  0.13915194715E+03  0.48045638743E+03  0.00000000000E+00 0.  1.
        -11    1    3    3    0    0 -0.19566812675E+03  0.74982617404E+03  0.23983623833E+03  0.81120079408E+03  0.00000000000E+00 0. -1.
          2    1    6    6  502    0 -0.11409904070E+02 -0.88912126633E+01 -0.44309130520E+02  0.46610499042E+02  0.00000000000E+00 0. -1.
          1    1    5    5  503    0  0.19889108697E+03 -0.28435225444E+03 -0.22983213267E+03  0.41621710475E+03  0.00000000000E+00 0. -1.
         -2    1    5    5    0  503  0.20903395777E+03 -0.17584928859E+03 -0.17083653755E+03  0.32218518023E+03  0.00000000000E+00 0.  1.
         -1    1    6    6    0  502 -0.15236697180E+03 -0.73803502708E+03 -0.15760084733E+04  0.17469155971E+04  0.00000000000E+00 0.  1.
<mgrwt>
<rscale>  0 0.34530637E+04</rscale>
<asrwt>0</asrwt>
<pdfrwt beam="1">  1        1 0.16781442E+00 0.34530637E+04</pdfrwt>
<pdfrwt beam="2">  1       -1 0.42042951E+00 0.34530637E+04</pdfrwt>
<totfact> 0.54591259E-02</totfact>
</mgrwt>
</event>
<event>
12    1  0.2433511E-007  0.1807419E+04  0.7818608E-02  0.8702364E-01
          2   -1    0    0  501    0  0.00000000000E+00  0.00000000000E+00  0.43231544925E+03  0.43231544925E+03  0.00000000000E+00 0. -1.
         -2   -1    0    0    0  501 -0.00000000000E+00 -0.00000000000E+00 -0.18891096980E+04  0.18891096980E+04  0.00000000000E+00 0.  1.
         23    2    1    2    0    0 -0.59521068447E+03 -0.89160957194E+02 -0.15597214783E+03  0.62857011649E+03  0.92453476119E+02 0.  0.
        254    2    1    2    0    0  0.59521068447E+03  0.89160957194E+02 -0.13008221009E+04  0.16928550308E+04  0.90077443445E+03 0.  0.
        -24    2    4    4    0    0 -0.92447381773E+02  0.32188463187E+03 -0.52171565438E+03  0.62493016432E+03  0.78703568017E+02 0.  0.
         24    2    4    4    0    0  0.68765806624E+03 -0.23272367468E+03 -0.77910644652E+03  0.10679248664E+04  0.80142002179E+02 0.  0.
         11    1    3    3    0    0 -0.35066793067E+03 -0.84587822246E+02 -0.59274022912E+02  0.36556327368E+03  0.00000000000E+00 0. -1.
        -11    1    3    3    0    0 -0.24454275380E+03 -0.45731349482E+01 -0.96698124922E+02  0.26300684281E+03  0.00000000000E+00 0.  1.
          2    1    6    6  502    0  0.45343400343E+03 -0.14226506456E+03 -0.45487279664E+03  0.65783812992E+03  0.00000000000E+00 0. -1.
          1    1    5    5  503    0 -0.20222124555E+00  0.50130826348E+02 -0.13004927289E+03  0.13937702114E+03  0.00000000000E+00 0. -1.
         -2    1    5    5    0  503 -0.92245160528E+02  0.27175380552E+03 -0.39166638149E+03  0.48555314317E+03  0.00000000000E+00 0.  1.
         -1    1    6    6    0  502  0.23422406281E+03 -0.90458610115E+02 -0.32423364988E+03  0.41008673651E+03  0.00000000000E+00 0.  1.
<mgrwt>
<rscale>  0 0.18074195E+04</rscale>
<asrwt>0</asrwt>
<pdfrwt beam="1">  1        2 0.66510069E-01 0.18074195E+04</pdfrwt>
<pdfrwt beam="2">  1       -2 0.29063226E+00 0.18074195E+04</pdfrwt>
<totfact> 0.24945592E+00</totfact>
</mgrwt>
</event>
<event>
12    1  0.2433511E-007  0.1922562E+04  0.7818608E-02  0.8643707E-01
          1   -1    0    0  501    0  0.00000000000E+00  0.00000000000E+00  0.23996527433E+04  0.23996527433E+04  0.00000000000E+00 0.  1.
         -1   -1    0    0    0  501 -0.00000000000E+00 -0.00000000000E+00 -0.38508129623E+03  0.38508129623E+03  0.00000000000E+00 0. -1.
         23    2    1    2    0    0 -0.57330981079E+03 -0.47739935789E+03  0.84511671258E+03  0.11307107197E+04  0.87693715567E+02 0.  0.
        254    2    1    2    0    0  0.57330981079E+03  0.47739935789E+03  0.11694547345E+04  0.16540233198E+04  0.90087428665E+03 0.  0.
        -24    2    4    4    0    0  0.75274102505E+03  0.40289918243E+03  0.59934493199E+03  0.10463441559E+04  0.81700325368E+02 0.  0.
         24    2    4    4    0    0 -0.17943121426E+03  0.74500175462E+02  0.57010980247E+03  0.60767916384E+03  0.80640824009E+02 0.  0.
         11    1    3    3    0    0 -0.57980296111E+02 -0.85376036691E+02  0.10246587140E+03  0.14543052355E+03  0.00000000000E+00 0. -1.
        -11    1    3    3    0    0 -0.51532951468E+03 -0.39202332120E+03  0.74265084118E+03  0.98528019618E+03  0.00000000000E+00 0.  1.
          2    1    6    6  502    0 -0.49926787795E+02 -0.12529693770E+02  0.18852650604E+03  0.19542753349E+03  0.00000000000E+00 0. -1.
          3    1    5    5  503    0  0.33029070118E+03  0.22300139350E+03  0.27880113592E+03  0.48636574939E+03  0.00000000000E+00 0. -1.
         -4    1    5    5    0  503  0.42245032387E+03  0.17989778892E+03  0.32054379607E+03  0.55997840655E+03  0.00000000000E+00 0.  1.
         -1    1    6    6    0  502 -0.12950442646E+03  0.87029869232E+02  0.38158329643E+03  0.41225163035E+03  0.00000000000E+00 0.  1.
<mgrwt>
<rscale>  0 0.19225622E+04</rscale>
<asrwt>0</asrwt>
<pdfrwt beam="1">  1        1 0.36917733E+00 0.19225622E+04</pdfrwt>
<pdfrwt beam="2">  1       -1 0.59243278E-01 0.19225622E+04</pdfrwt>
<totfact> 0.42892416E+00</totfact>
</mgrwt>
</event>
<event>
12    1  0.2433511E-007  0.2231813E+04  0.7818608E-02  0.8505302E-01
          2   -1    0    0  501    0  0.00000000000E+00  0.00000000000E+00  0.17501286191E+04  0.17501286191E+04  0.00000000000E+00 0. -1.
         -2   -1    0    0    0  501 -0.00000000000E+00 -0.00000000000E+00 -0.71151789422E+03  0.71151789422E+03  0.00000000000E+00 0.  1.
         23    2    1    2    0    0 -0.19865895803E+03  0.71551477115E+03  0.10567697276E+04  0.12948838239E+04  0.92385556059E+02 0.  0.
        254    2    1    2    0    0  0.19865895803E+03 -0.71551477115E+03 -0.18159002712E+02  0.11667626894E+04  0.89976588877E+03 0.  0.
        -24    2    4    4    0    0 -0.30278203756E+03 -0.17292657950E+03  0.17489801422E+03  0.39812511077E+03  0.79584698760E+02 0.  0.
         24    2    4    4    0    0  0.50144099560E+03 -0.54258819165E+03 -0.19305701693E+03  0.76863757861E+03  0.87679516885E+02 0.  0.
         11    1    3    3    0    0 -0.10305643621E+03  0.37398883924E+03  0.47185671995E+03  0.61084944551E+03  0.00000000000E+00 0.  1.
        -11    1    3    3    0    0 -0.95602521825E+02  0.34152593192E+03  0.58491300760E+03  0.68403437838E+03  0.00000000000E+00 0. -1.
          2    1    6    6  502    0  0.23702645676E+03 -0.25524154416E+03 -0.13630634750E+03  0.37404439234E+03  0.00000000000E+00 0. -1.
          3    1    5    5  503    0 -0.26256196828E+03 -0.17684071310E+03  0.16263419571E+03  0.35589507810E+03  0.00000000000E+00 0. -1.
         -4    1    5    5    0  503 -0.40220069279E+02  0.39141336047E+01  0.12263818506E+02  0.42230032667E+02  0.00000000000E+00 0.  1.
         -1    1    6    6    0  502  0.26441453884E+03 -0.28734664749E+03 -0.56750669428E+02  0.39459318627E+03  0.00000000000E+00 0.  1.
<mgrwt>
<rscale>  0 0.22318135E+04</rscale>
<asrwt>0</asrwt>
<pdfrwt beam="1">  1        2 0.26925056E+00 0.22318135E+04</pdfrwt>
<pdfrwt beam="2">  1       -2 0.10946429E+00 0.22318135E+04</pdfrwt>
<totfact> 0.55747418E+00</totfact>
</mgrwt>
</event>
<event>
12    1  0.2433511E-007  0.1807000E+04  0.7818608E-02  0.8702586E-01
         -2   -1    0    0    0  501 -0.00000000000E+00  0.00000000000E+00  0.19487475227E+03  0.19487475227E+03  0.00000000000E+00 0.  1.
          2   -1    0    0  501    0  0.00000000000E+00 -0.00000000000E+00 -0.41889076572E+04  0.41889076572E+04  0.00000000000E+00 0. -1.
         23    2    1    2    0    0  0.54450412337E+03 -0.22971692106E+03 -0.23454467664E+04  0.24205370553E+04  0.92868173662E+02 0.  0.
        254    2    1    2    0    0 -0.54450412337E+03  0.22971692106E+03 -0.16485861385E+04  0.19632453542E+04  0.88726628499E+03 0.  0.
        -24    2    4    4    0    0 -0.21661561142E+03  0.35249157053E+03 -0.19201010992E+03  0.46304830903E+03  0.79832473208E+02 0.  0.
         24    2    4    4    0    0 -0.32788851195E+03 -0.12277464947E+03 -0.14565760286E+04  0.15001970452E+04  0.79955965495E+02 0.  0.
         13    1    3    3    0    0  0.47302763916E+03 -0.23170011035E+03 -0.20656845040E+04  0.21317815457E+04  0.00000000000E+00 0.  1.
        -13    1    3    3    0    0  0.71476484208E+02  0.19831892858E+01 -0.27976226242E+03  0.28875550958E+03  0.00000000000E+00 0. -1.
          4    1    6    6  502    0 -0.37576210922E+02 -0.39988836681E+02 -0.29321244379E+03  0.29830289284E+03  0.00000000000E+00 0. -1.
          3    1    5    5  503    0 -0.17277680976E+03  0.21063571771E+03 -0.13449244522E+03  0.30382141036E+03  0.00000000000E+00 0. -1.
         -4    1    5    5    0  503 -0.43838801656E+02  0.14185585282E+03 -0.57517664699E+02  0.15922689868E+03  0.00000000000E+00 0.  1.
         -3    1    6    6    0  502 -0.29031230103E+03 -0.82785812792E+02 -0.11633635848E+04  0.12018941523E+04  0.00000000000E+00 0.  1.
<mgrwt>
<rscale>  0 0.18070001E+04</rscale>
<asrwt>0</asrwt>
<pdfrwt beam="1">  1        2 0.64444729E+00 0.18070001E+04</pdfrwt>
<pdfrwt beam="2">  1       -2 0.29980733E-01 0.18070001E+04</pdfrwt>
<totfact> 0.23431212E+00</totfact>
</mgrwt>
</event>
<event>
12    1  0.2433511E-007  0.4823918E+04  0.7818608E-02  0.7856259E-01
         -2   -1    0    0    0  501 -0.00000000000E+00  0.00000000000E+00  0.18350173641E+04  0.18350173641E+04  0.00000000000E+00 0.  1.
          2   -1    0    0  501    0  0.00000000000E+00 -0.00000000000E+00 -0.31702946208E+04  0.31702946208E+04  0.00000000000E+00 0. -1.
         23    2    1    2    0    0 -0.53761019488E+03  0.20978914286E+04  0.23888017397E+03  0.21806235035E+04  0.88780393794E+02 0.  0.
        254    2    1    2    0    0  0.53761019488E+03 -0.20978914286E+04 -0.15741574307E+04  0.28246884814E+04  0.90040004029E+03 0.  0.
        -24    2    4    4    0    0  0.32597433473E+03 -0.12627541846E+03 -0.28878312549E+03  0.46023284998E+03  0.78827878470E+02 0.  0.
         24    2    4    4    0    0  0.21163586014E+03 -0.19716160102E+04 -0.12853743052E+04  0.23644556315E+04  0.80024369630E+02 0.  0.
         13    1    3    3    0    0 -0.78790955080E+02  0.41913552858E+03  0.69041368524E+02  0.43202930050E+03  0.00000000000E+00 0. -1.
        -13    1    3    3    0    0 -0.45881923980E+03  0.16787559001E+04  0.16983880545E+03  0.17485942030E+04  0.00000000000E+00 0.  1.
          4    1    6    6  502    0  0.19938346815E+03 -0.16736094441E+04 -0.10669317117E+04  0.19947595385E+04  0.00000000000E+00 0. -1.
          1    1    5    5  503    0  0.17705826873E+03 -0.10762228214E+03 -0.14975684302E+03  0.25565464629E+03  0.00000000000E+00 0. -1.
         -2    1    5    5    0  503  0.14891606600E+03 -0.18653136317E+02 -0.13902628247E+03  0.20457820369E+03  0.00000000000E+00 0.  1.
         -3    1    6    6    0  502  0.12252391992E+02 -0.29800656605E+03 -0.21844259345E+03  0.36969609296E+03  0.00000000000E+00 0.  1.
<mgrwt>
<rscale>  0 0.48239178E+04</rscale>
<asrwt>0</asrwt>
<pdfrwt beam="1">  1        2 0.48773763E+00 0.48239178E+04</pdfrwt>
<pdfrwt beam="2">  1       -2 0.28231037E+00 0.48239178E+04</pdfrwt>
<totfact> 0.40770239E-02</totfact>
</mgrwt>
</event>
<event>
12    1  0.2433511E-007  0.3676571E+04  0.7818608E-02  0.8073174E-01
          1   -1    0    0  501    0  0.00000000000E+00  0.00000000000E+00  0.14144861182E+04  0.14144861182E+04  0.00000000000E+00 0. -1.
         -1   -1    0    0    0  501 -0.00000000000E+00 -0.00000000000E+00 -0.23890606259E+04  0.23890606259E+04  0.00000000000E+00 0.  1.
         23    2    1    2    0    0  0.48347001915E+03 -0.16497170636E+04 -0.28297072099E+03  0.17443729131E+04  0.86341076188E+02 0.  0.
        254    2    1    2    0    0 -0.48347001915E+03  0.16497170636E+04 -0.69160378678E+03  0.20591738310E+04  0.89809321295E+03 0.  0.
        -24    2    4    4    0    0  0.57400728379E+02  0.21954744674E+03 -0.44812079969E+03  0.50884549368E+03  0.81336094911E+02 0.  0.
         24    2    4    4    0    0 -0.54087074753E+03  0.14301696169E+04 -0.24348298709E+03  0.15503283374E+04  0.79420967277E+02 0.  0.
         11    1    3    3    0    0  0.30260699039E+03 -0.88689900151E+03 -0.14083490152E+03  0.94762613883E+03  0.00000000000E+00 0. -1.
        -11    1    3    3    0    0  0.18086302876E+03 -0.76281806211E+03 -0.14213581946E+03  0.79674677422E+03  0.00000000000E+00 0.  1.
          2    1    6    6  502    0 -0.43112363371E+03  0.11956848031E+04 -0.22477033668E+03  0.12907561506E+04  0.00000000000E+00 0. -1.
          3    1    5    5  503    0  0.37368729065E+02  0.21746189333E+03 -0.40348694559E+03  0.45987804059E+03  0.00000000000E+00 0. -1.
         -4    1    5    5    0  503  0.20031999314E+02  0.20855534097E+01 -0.44633854103E+02  0.48967453085E+02  0.00000000000E+00 0.  1.
         -1    1    6    6    0  502 -0.10974711382E+03  0.23448481374E+03 -0.18712650413E+02  0.25957218679E+03  0.00000000000E+00 0.  1.
<mgrwt>
<rscale>  0 0.36765707E+04</rscale>
<asrwt>0</asrwt>
<pdfrwt beam="1">  1        1 0.21761325E+00 0.36765707E+04</pdfrwt>
<pdfrwt beam="2">  1       -1 0.36754779E+00 0.36765707E+04</pdfrwt>
<totfact> 0.71555571E-02</totfact>
</mgrwt>
</event>
<event>
12    1  0.2433511E-007  0.2443462E+04  0.7818608E-02  0.8423409E-01
          1   -1    0    0  501    0  0.00000000000E+00  0.00000000000E+00  0.91692968881E+03  0.91692968881E+03  0.00000000000E+00 0. -1.
         -1   -1    0    0    0  501 -0.00000000000E+00 -0.00000000000E+00 -0.16278530539E+04  0.16278530539E+04  0.00000000000E+00 0.  1.
         23    2    1    2    0    0  0.67393277003E+02 -0.10095861089E+04 -0.61362124774E+03  0.11868998012E+04  0.91619524763E+02 0.  0.
        254    2    1    2    0    0 -0.67393277003E+02  0.10095861089E+04 -0.97302117352E+02  0.13578829415E+04  0.90031795262E+03 0.  0.
        -24    2    4    4    0    0 -0.17851391323E+03  0.52518198000E+03 -0.47016531493E+03  0.73139326918E+03  0.78723322538E+02 0.  0.
         24    2    4    4    0    0  0.11112063622E+03  0.48440412889E+03  0.37286319758E+03  0.62648967235E+03  0.80418838372E+02 0.  0.
         11    1    3    3    0    0 -0.40771024273E+01 -0.18510564229E+03 -0.15016976517E+03  0.23839395954E+03  0.00000000000E+00 0.  1.
        -11    1    3    3    0    0  0.71470379430E+02 -0.82448046660E+03 -0.46345148257E+03  0.94850584164E+03  0.00000000000E+00 0. -1.
          4    1    6    6  502    0  0.58303377232E+02  0.11795302300E+03  0.76118408257E+02  0.15200727452E+03  0.00000000000E+00 0. -1.
          1    1    5    5  503    0 -0.10068152017E+03  0.20717867583E+03 -0.16046511249E+03  0.28072909459E+03  0.00000000000E+00 0. -1.
         -2    1    5    5    0  503 -0.77832393062E+02  0.31800330417E+03 -0.30970020244E+03  0.45066417460E+03  0.00000000000E+00 0.  1.
         -3    1    6    6    0  502  0.52817258993E+02  0.36645110589E+03  0.29674478932E+03  0.47448239783E+03  0.00000000000E+00 0.  1.
<mgrwt>
<rscale>  0 0.24434621E+04</rscale>
<asrwt>0</asrwt>
<pdfrwt beam="1">  1        1 0.14106611E+00 0.24434621E+04</pdfrwt>
<pdfrwt beam="2">  1       -1 0.25043893E+00 0.24434621E+04</pdfrwt>
<totfact> 0.10897880E+00</totfact>
</mgrwt>
</event>
<event>
12    1  0.2433511E-007  0.2657216E+04  0.7818608E-02  0.8349022E-01
         -2   -1    0    0    0  501 -0.00000000000E+00  0.00000000000E+00  0.91665291524E+03  0.91665291524E+03  0.00000000000E+00 0.  1.
          2   -1    0    0  501    0  0.00000000000E+00 -0.00000000000E+00 -0.19257003064E+04  0.19257003064E+04  0.00000000000E+00 0. -1.
         23    2    1    2    0    0 -0.91547621783E+03  0.28093968984E+03 -0.11736642150E+04  0.15176339113E+04  0.93280139390E+02 0.  0.
        254    2    1    2    0    0  0.91547621783E+03 -0.28093968984E+03  0.16461682389E+03  0.13247193103E+04  0.90042142223E+03 0.  0.
        -24    2    4    4    0    0  0.37870711388E+03  0.30030754173E+03  0.19953255498E+03  0.52827366808E+03  0.75207248147E+02 0.  0.
         24    2    4    4    0    0  0.53676910396E+03 -0.58124723156E+03 -0.34915731091E+02  0.79644564221E+03  0.84481581181E+02 0.  0.
         13    1    3    3    0    0 -0.63700226950E+03  0.15001917555E+03 -0.79660373379E+03  0.10309486666E+04  0.00000000000E+00 0.  1.
        -13    1    3    3    0    0 -0.27847394833E+03  0.13092051428E+03 -0.37706048122E+03  0.48668524475E+03  0.00000000000E+00 0. -1.
          2    1    6    6  502    0  0.16138518239E+03 -0.13040746783E+03 -0.30870936511E+02  0.20977201787E+03  0.00000000000E+00 0. -1.
          1    1    5    5  503    0  0.17193399841E+03  0.10814803926E+03  0.11594092840E+03  0.23387944990E+03  0.00000000000E+00 0. -1.
         -2    1    5    5    0  503  0.20677311547E+03  0.19215950247E+03  0.83591626583E+02  0.29439421819E+03  0.00000000000E+00 0.  1.
         -1    1    6    6    0  502  0.37538392157E+03 -0.45083976373E+03 -0.40447945798E+01  0.58667362434E+03  0.00000000000E+00 0.  1.
<mgrwt>
<rscale>  0 0.26572157E+04</rscale>
<asrwt>0</asrwt>
<pdfrwt beam="1">  1        2 0.29626158E+00 0.26572157E+04</pdfrwt>
<pdfrwt beam="2">  1       -2 0.14102353E+00 0.26572157E+04</pdfrwt>
<totfact> 0.22799810E+00</totfact>
</mgrwt>
</event>
<event>
12    1  0.2433511E-007  0.1564591E+04  0.7818608E-02  0.8842601E-01
         -2   -1    0    0    0  501 -0.00000000000E+00  0.00000000000E+00  0.24852634212E+03  0.24852634212E+03  0.00000000000E+00 0.  1.
          2   -1    0    0  501    0  0.00000000000E+00 -0.00000000000E+00 -0.24624615071E+04  0.24624615071E+04  0.00000000000E+00 0. -1.
         23    2    1    2    0    0 -0.45609005684E+03 -0.23138792008E+03 -0.89209681131E+03  0.10319819697E+04  0.87129532594E+02 0.  0.
        254    2    1    2    0    0  0.45609005684E+03  0.23138792008E+03 -0.13218383537E+04  0.16790058796E+04  0.90013643459E+03 0.  0.
        -24    2    4    4    0    0 -0.10676636306E+03  0.17509474639E+03  0.19938206042E+02  0.22071467188E+03  0.79121475140E+02 0.  0.
         24    2    4    4    0    0  0.56285641990E+03  0.56293173685E+02 -0.13417765598E+04  0.14582912077E+04  0.79199996132E+02 0.  0.
         13    1    3    3    0    0 -0.34858694455E+03 -0.14356698472E+03 -0.60051764744E+03  0.70904568393E+03  0.00000000000E+00 0.  1.
        -13    1    3    3    0    0 -0.10750311229E+03 -0.87820935355E+02 -0.29157916388E+03  0.32293628574E+03  0.00000000000E+00 0. -1.
          2    1    6    6  502    0  0.16535317399E+03  0.95811274269E+01 -0.48835435716E+03  0.51567765931E+03  0.00000000000E+00 0. -1.
          1    1    5    5  503    0 -0.44018284453E+02  0.14237139910E+03  0.12020091835E+02  0.14950487368E+03  0.00000000000E+00 0. -1.
         -2    1    5    5    0  503 -0.62748078603E+02  0.32723347293E+02  0.79181142065E+01  0.71209798196E+02  0.00000000000E+00 0.  1.
         -3    1    6    6    0  502  0.39750324591E+03  0.46712046258E+02 -0.85342220260E+03  0.94261354842E+03  0.00000000000E+00 0.  1.
<mgrwt>
<rscale>  0 0.15645914E+04</rscale>
<asrwt>0</asrwt>
<pdfrwt beam="1">  1        2 0.37884022E+00 0.15645914E+04</pdfrwt>
<pdfrwt beam="2">  1       -2 0.38234823E-01 0.15645914E+04</pdfrwt>
<totfact> 0.22777300E+01</totfact>
</mgrwt>
</event>
<event>
12    1  0.2433511E-007  0.1302877E+04  0.7818608E-02  0.9027287E-01
          1   -1    0    0  501    0  0.00000000000E+00  0.00000000000E+00  0.97199076675E+03  0.97199076675E+03  0.00000000000E+00 0. -1.
         -1   -1    0    0    0  501 -0.00000000000E+00 -0.00000000000E+00 -0.43660079364E+03  0.43660079364E+03  0.00000000000E+00 0.  1.
         23    2    1    2    0    0 -0.19832603111E+03  0.21585101834E+03  0.31216094952E+03  0.43838524209E+03  0.93873773470E+02 0.  0.
        254    2    1    2    0    0  0.19832603111E+03 -0.21585101834E+03  0.22322902359E+03  0.97020631829E+03  0.89752115649E+03 0.  0.
        -24    2    4    4    0    0  0.49968823671E+03 -0.23038952830E+03 -0.46446061407E+02  0.55785803438E+03  0.79250749183E+02 0.  0.
         24    2    4    4    0    0 -0.30136220560E+03  0.14538509953E+02  0.26967508500E+03  0.41234828391E+03  0.79220632027E+02 0.  0.
         11    1    3    3    0    0 -0.18953470230E+02  0.35383946100E+02  0.97664065357E+02  0.10559132226E+03  0.00000000000E+00 0. -1.
        -11    1    3    3    0    0 -0.17937256088E+03  0.18046707224E+03  0.21449688416E+03  0.33279391983E+03  0.00000000000E+00 0.  1.
          4    1    6    6  502    0 -0.13468090357E+03 -0.32872419465E+02  0.11803749411E+03  0.18207798265E+03  0.00000000000E+00 0. -1.
          1    1    5    5  503    0  0.43606396440E+02 -0.33470449064E+02 -0.25610431940E+02  0.60643903199E+02  0.00000000000E+00 0. -1.
         -2    1    5    5    0  503  0.45608184027E+03 -0.19691907923E+03 -0.20835629467E+02  0.49721413118E+03  0.00000000000E+00 0.  1.
         -3    1    6    6    0  502 -0.16668130203E+03  0.47410929418E+02  0.15163759089E+03  0.23027030127E+03  0.00000000000E+00 0.  1.
<mgrwt>
<rscale>  0 0.13028767E+04</rscale>
<asrwt>0</asrwt>
<pdfrwt beam="1">  1        1 0.14953704E+00 0.13028767E+04</pdfrwt>
<pdfrwt beam="2">  1       -1 0.67169353E-01 0.13028767E+04</pdfrwt>
<totfact> 0.35114408E+01</totfact>
</mgrwt>
</event>
<event>
12    1  0.2433511E-007  0.2645219E+04  0.7818608E-02  0.8353002E-01
         -1   -1    0    0    0  501 -0.00000000000E+00  0.00000000000E+00  0.14189771898E+04  0.14189771898E+04  0.00000000000E+00 0.  1.
          1   -1    0    0  501    0  0.00000000000E+00 -0.00000000000E+00 -0.12327864485E+04  0.12327864485E+04  0.00000000000E+00 0. -1.
         23    2    1    2    0    0 -0.21041645234E+03  0.10633354283E+04 -0.35214403142E+03  0.11435809929E+04  0.93886911512E+02 0.  0.
        254    2    1    2    0    0  0.21041645234E+03 -0.10633354283E+04  0.53833477273E+03  0.15081826453E+04  0.89991846723E+03 0.  0.
        -24    2    4    4    0    0 -0.15326834737E+03 -0.70772074232E+03  0.65541099304E+03  0.97999613900E+03  0.80430263155E+02 0.  0.
         24    2    4    4    0    0  0.36368479971E+03 -0.35561468593E+03 -0.11707622031E+03  0.52818650631E+03  0.80905535587E+02 0.  0.
         13    1    3    3    0    0 -0.11865836161E+03  0.79471752971E+03 -0.24305196020E+03  0.83948199157E+03  0.00000000000E+00 0.  1.
        -13    1    3    3    0    0 -0.91758090736E+02  0.26861789854E+03 -0.10909207121E+03  0.30409900137E+03  0.00000000000E+00 0. -1.
          4    1    6    6  502    0  0.15560208757E+03 -0.19839744703E+03 -0.33671712300E+02  0.25437637637E+03  0.00000000000E+00 0. -1.
          1    1    5    5  503    0 -0.11191849224E+03 -0.32708285728E+03  0.31215793529E+03  0.46578055026E+03  0.00000000000E+00 0. -1.
         -2    1    5    5    0  503 -0.41349855124E+02 -0.38063788504E+03  0.34325305776E+03  0.51421558874E+03  0.00000000000E+00 0.  1.
         -1    1    6    6    0  502  0.20808271214E+03 -0.15721723890E+03 -0.83404508012E+02  0.27381012994E+03  0.00000000000E+00 0.  1.
<mgrwt>
<rscale>  0 0.26452190E+04</rscale>
<asrwt>0</asrwt>
<pdfrwt beam="1">  1        1 0.18965945E+00 0.26452190E+04</pdfrwt>
<pdfrwt beam="2">  1       -1 0.21830418E+00 0.26452190E+04</pdfrwt>
<totfact> 0.10023395E+00</totfact>
</mgrwt>
</event>
<event>
12    1  0.2433511E-007  0.2594122E+04  0.7818608E-02  0.8370201E-01
         -1   -1    0    0    0  501 -0.00000000000E+00  0.00000000000E+00  0.46699576004E+03  0.46699576004E+03  0.00000000000E+00 0.  1.
          1   -1    0    0  501    0  0.00000000000E+00 -0.00000000000E+00 -0.36025316092E+04  0.36025316092E+04  0.00000000000E+00 0. -1.
         23    2    1    2    0    0  0.10342400816E+02 -0.80776241493E+03 -0.12116601126E+03  0.82183831707E+03  0.90276978757E+02 0.  0.
        254    2    1    2    0    0 -0.10342400816E+02  0.80776241493E+03 -0.30143698379E+04  0.32476890522E+04  0.89915047451E+03 0.  0.
        -24    2    4    4    0    0 -0.26388421023E+03 -0.58561559851E+02 -0.99222508664E+03  0.10317359906E+04  0.83091510336E+02 0.  0.
         24    2    4    4    0    0  0.25354180941E+03  0.86632397478E+03 -0.20221447513E+04  0.22159530616E+04  0.81104239105E+02 0.  0.
         11    1    3    3    0    0  0.48817574738E+02 -0.55794632216E+03 -0.86006808255E+02  0.56664311968E+03  0.00000000000E+00 0.  1.
        -11    1    3    3    0    0 -0.38475173923E+02 -0.24981609276E+03 -0.35159203009E+02  0.25519519738E+03  0.00000000000E+00 0. -1.
          2    1    6    6  502    0  0.20214515952E+03  0.78046121561E+03 -0.17949206811E+04  0.19676693385E+04  0.00000000000E+00 0. -1.
          3    1    5    5  503    0 -0.10950099851E+03 -0.66608142452E+02 -0.45672464480E+03  0.47436748885E+03  0.00000000000E+00 0. -1.
         -4    1    5    5    0  503 -0.15438321172E+03  0.80465826013E+01 -0.53550044184E+03  0.55736850177E+03  0.00000000000E+00 0.  1.
         -1    1    6    6    0  502  0.51396649895E+02  0.85862759170E+02 -0.22722407024E+03  0.24828372304E+03  0.00000000000E+00 0.  1.
<mgrwt>
<rscale>  0 0.25941218E+04</rscale>
<asrwt>0</asrwt>
<pdfrwt beam="1">  1        1 0.55423563E+00 0.25941218E+04</pdfrwt>
<pdfrwt beam="2">  1       -1 0.71845502E-01 0.25941218E+04</pdfrwt>
<totfact> 0.35698578E-01</totfact>
</mgrwt>
</event>
<event>
12    1  0.2433511E-007  0.2897356E+04  0.7818608E-02  0.8273665E-01
          2   -1    0    0  501    0  0.00000000000E+00  0.00000000000E+00  0.17036801594E+04  0.17036801594E+04  0.00000000000E+00 0. -1.
         -2   -1    0    0    0  501 -0.00000000000E+00 -0.00000000000E+00 -0.12318439205E+04  0.12318439205E+04  0.00000000000E+00 0.  1.
         23    2    1    2    0    0  0.83681033071E+03 -0.10039248602E+04  0.26232620023E+03  0.13360891558E+04  0.90567888916E+02 0.  0.
        254    2    1    2    0    0 -0.83681033071E+03  0.10039248602E+04  0.20951003867E+03  0.15994349241E+04  0.89787580755E+03 0.  0.
        -24    2    4    4    0    0 -0.31954340751E+03  0.17284070232E+03 -0.31410873598E+03  0.48673996162E+03  0.79180771390E+02 0.  0.
         24    2    4    4    0    0 -0.51726692320E+03  0.83108415785E+03  0.52361877464E+03  0.11126949625E+04  0.75149924704E+02 0.  0.
         11    1    3    3    0    0  0.37567595864E+03 -0.42387412937E+03  0.15600181926E+03  0.58748469858E+03  0.00000000000E+00 0. -1.
        -11    1    3    3    0    0  0.46113437207E+03 -0.58005073079E+03  0.10632438098E+03  0.74860445723E+03  0.00000000000E+00 0.  1.
          4    1    6    6  502    0 -0.37063122299E+03  0.57727456903E+03  0.32882635339E+03  0.76074976318E+03  0.00000000000E+00 0. -1.
          1    1    5    5  503    0 -0.67749022737E+02  0.46948655870E+02 -0.11684561847E+03  0.14299302405E+03  0.00000000000E+00 0. -1.
         -2    1    5    5    0  503 -0.25179438477E+03  0.12589204645E+03 -0.19726311750E+03  0.34374693757E+03  0.00000000000E+00 0.  1.
         -1    1    6    6    0  502 -0.14663570021E+03  0.25380958882E+03  0.19479242126E+03  0.35194519933E+03  0.00000000000E+00 0.  1.
<mgrwt>
<rscale>  0 0.28973561E+04</rscale>
<asrwt>0</asrwt>
<pdfrwt beam="1">  1        2 0.26210464E+00 0.28973561E+04</pdfrwt>
<pdfrwt beam="2">  1       -2 0.18951445E+00 0.28973561E+04</pdfrwt>
<totfact> 0.13160578E+00</totfact>
</mgrwt>
</event>
<event>
12    1  0.3131905E-007  0.1831664E+04  0.7818608E-02  0.8689640E-01
         -2   -1    0    0    0  501 -0.00000000000E+00  0.00000000000E+00  0.67960320526E+03  0.67960320526E+03  0.00000000000E+00 0.  1.
          2   -1    0    0  501    0  0.00000000000E+00 -0.00000000000E+00 -0.12341729001E+04  0.12341729001E+04  0.00000000000E+00 0. -1.
         23    2    1    2    0    0 -0.58913708714E+03 -0.68425114829E+02 -0.57783308228E+03  0.83281014955E+03  0.88978482954E+02 0.  0.
        254    2    1    2    0    0  0.58913708714E+03  0.68425114829E+02  0.23263387402E+02  0.10809659559E+04  0.90342775512E+03 0.  0.
        -24    2    4    4    0    0 -0.11260639436E+03 -0.21252940246E+03 -0.15886760222E+03  0.29904733493E+03  0.79633199941E+02 0.  0.
         24    2    4    4    0    0  0.70174348151E+03  0.28095451729E+03  0.18213098963E+03  0.78191862092E+03  0.82738610913E+02 0.  0.
         13    1    3    3    0    0 -0.28245482220E+03  0.10744922436E+02 -0.28648994732E+03  0.40245828337E+03  0.00000000000E+00 0. -1.
        -13    1    3    3    0    0 -0.30668226495E+03 -0.79170037265E+02 -0.29134313496E+03  0.43035186618E+03  0.00000000000E+00 0.  1.
          2    1    6    6  502    0  0.73097780405E+02  0.10132073225E+02  0.35491418613E+02  0.81887637669E+02  0.00000000000E+00 0. -1.
          3    1    5    5  503    0 -0.13223630428E+02 -0.60118200616E+01 -0.36401447179E+02  0.39192751102E+02  0.00000000000E+00 0. -1.
         -4    1    5    5    0  503 -0.99382763935E+02 -0.20651758240E+03 -0.12246615504E+03  0.25985458383E+03  0.00000000000E+00 0.  1.
         -1    1    6    6    0  502  0.62864570110E+03  0.27082244406E+03  0.14663957101E+03  0.70003098325E+03  0.00000000000E+00 0.  1.
<mgrwt>
<rscale>  0 0.18316636E+04</rscale>
<asrwt>0</asrwt>
<pdfrwt beam="1">  1        2 0.18987275E+00 0.18316636E+04</pdfrwt>
<pdfrwt beam="2">  1       -2 0.10455434E+00 0.18316636E+04</pdfrwt>
<totfact> 0.12641373E+01</totfact>
</mgrwt>
</event>
<event>
12    1  0.2433511E-007  0.2240266E+04  0.7818608E-02  0.8501853E-01
         -1   -1    0    0    0  501 -0.00000000000E+00  0.00000000000E+00  0.97077109662E+03  0.97077109662E+03  0.00000000000E+00 0.  1.
          1   -1    0    0  501    0  0.00000000000E+00 -0.00000000000E+00 -0.12924751302E+04  0.12924751302E+04  0.00000000000E+00 0. -1.
         23    2    1    2    0    0 -0.50431469869E+02  0.87586722809E+03 -0.46440212044E+03  0.99679354830E+03  0.90781683587E+02 0.  0.
        254    2    1    2    0    0  0.50431469869E+02 -0.87586722809E+03  0.14269808690E+03  0.12664526785E+04  0.90213796529E+03 0.  0.
        -24    2    4    4    0    0 -0.30395058058E+03 -0.14409663985E+02 -0.27990209276E+02  0.31604266405E+03  0.80659282374E+02 0.  0.
         24    2    4    4    0    0  0.35438205045E+03 -0.86145756410E+03  0.17068829618E+03  0.95041001442E+03  0.80305221742E+02 0.  0.
         11    1    3    3    0    0 -0.26162347213E+02  0.83807614846E+02 -0.66074571964E+02  0.10988190833E+03  0.00000000000E+00 0. -1.
        -11    1    3    3    0    0 -0.24269122656E+02  0.79205961324E+03 -0.39832754848E+03  0.88691163997E+03  0.00000000000E+00 0.  1.
          4    1    6    6  502    0  0.68818532681E+01 -0.10045980036E+01  0.63883656717E+00  0.69840699962E+01  0.00000000000E+00 0. -1.
          1    1    5    5  503    0 -0.28699456122E+02 -0.25095169217E+02 -0.12609944128E+02  0.40155161444E+02  0.00000000000E+00 0. -1.
         -2    1    5    5    0  503 -0.27525112446E+03  0.10685505232E+02 -0.15380265147E+02  0.27588750260E+03  0.00000000000E+00 0.  1.
         -3    1    6    6    0  502  0.34750019718E+03 -0.86045296610E+03  0.17004945961E+03  0.94342594443E+03  0.00000000000E+00 0.  1.
<mgrwt>
<rscale>  0 0.22402656E+04</rscale>
<asrwt>0</asrwt>
<pdfrwt beam="1">  1        1 0.19884233E+00 0.22402656E+04</pdfrwt>
<pdfrwt beam="2">  1       -1 0.14934940E+00 0.22402656E+04</pdfrwt>
<totfact> 0.29376649E+00</totfact>
</mgrwt>
</event>
<event>
12    1  0.2433511E-007  0.3907681E+04  0.7818608E-02  0.8023434E-01
          2   -1    0    0  501    0  0.00000000000E+00  0.00000000000E+00  0.24359819293E+04  0.24359819293E+04  0.00000000000E+00 0.  1.
         -2   -1    0    0    0  501 -0.00000000000E+00 -0.00000000000E+00 -0.15671265171E+04  0.15671265171E+04  0.00000000000E+00 0. -1.
         23    2    1    2    0    0  0.15302322048E+03  0.17050833254E+04  0.11277270967E+04  0.20519146877E+04  0.88657929015E+02 0.  0.
        254    2    1    2    0    0 -0.15302322048E+03 -0.17050833254E+04 -0.25887168456E+03  0.19511937586E+04  0.89967620956E+03 0.  0.
        -24    2    4    4    0    0 -0.50546226614E+03 -0.75427063673E+03 -0.19299610872E+03  0.93173217696E+03  0.80380692212E+02 0.  0.
         24    2    4    4    0    0  0.35243904567E+03 -0.95081268870E+03 -0.65875575836E+02  0.10194615817E+04  0.81879638064E+02 0.  0.
         11    1    3    3    0    0  0.75906010400E+02  0.11223421669E+04  0.78115666394E+03  0.13695325464E+04  0.00000000000E+00 0.  1.
        -11    1    3    3    0    0  0.77117210075E+02  0.58274115853E+03  0.34657043278E+03  0.68238214133E+03  0.00000000000E+00 0. -1.
          4    1    6    6  502    0  0.21935251149E+03 -0.66477091493E+03 -0.17161385056E+02  0.70023596506E+03  0.00000000000E+00 0. -1.
          3    1    5    5  503    0 -0.55527671318E+02 -0.12797707989E+03 -0.15084981240E+02  0.14031753959E+03  0.00000000000E+00 0. -1.
         -4    1    5    5    0  503 -0.44993459482E+03 -0.62629355684E+03 -0.17791112748E+03  0.79141463737E+03  0.00000000000E+00 0.  1.
         -3    1    6    6    0  502  0.13308653418E+03 -0.28604177377E+03 -0.48714190780E+02  0.31922561662E+03  0.00000000000E+00 0.  1.
<mgrwt>
<rscale>  0 0.39076806E+04</rscale>
<asrwt>0</asrwt>
<pdfrwt beam="1">  1        2 0.37476645E+00 0.39076806E+04</pdfrwt>
<pdfrwt beam="2">  1       -2 0.24109639E+00 0.39076806E+04</pdfrwt>
<totfact> 0.21971257E-01</totfact>
</mgrwt>
</event>
<event>
12    1  0.2433511E-007  0.2121856E+04  0.7818608E-02  0.8551676E-01
          1   -1    0    0  501    0  0.00000000000E+00  0.00000000000E+00  0.26750655781E+04  0.26750655781E+04  0.00000000000E+00 0. -1.
         -1   -1    0    0    0  501 -0.00000000000E+00 -0.00000000000E+00 -0.42076297741E+03  0.42076297741E+03  0.00000000000E+00 0.  1.
         23    2    1    2    0    0 -0.31354536952E+03  0.78620272901E+02 -0.24785070417E+03  0.41751801289E+03  0.91648641422E+02 0.  0.
        254    2    1    2    0    0  0.31354536952E+03 -0.78620272901E+02  0.25021533048E+04  0.26783105426E+04  0.89893512316E+03 0.  0.
        -24    2    4    4    0    0  0.55368614382E+03 -0.17489781862E+02  0.93514868077E+03  0.10898866703E+04  0.80471489157E+02 0.  0.
         24    2    4    4    0    0 -0.24014077430E+03 -0.61130491040E+02  0.15670046241E+04  0.15884238723E+04  0.78628098768E+02 0.  0.
         13    1    3    3    0    0 -0.25522942214E+03  0.77646331302E+02 -0.23966404384E+03  0.35862217528E+03  0.00000000000E+00 0.  1.
        -13    1    3    3    0    0 -0.58315947373E+02  0.97394159891E+00 -0.81866603242E+01  0.58895837608E+02  0.00000000000E+00 0. -1.
          2    1    6    6  502    0 -0.21236086426E+03 -0.50161871133E+02  0.11613577369E+04  0.11816789510E+04  0.00000000000E+00 0. -1.
          1    1    5    5  503    0  0.53768510426E+03 -0.56504433148E+01  0.91658416298E+03  0.10626682110E+04  0.00000000000E+00 0. -1.
         -2    1    5    5    0  503  0.16001039564E+02 -0.11839338547E+02  0.18564517789E+02  0.27218459272E+02  0.00000000000E+00 0.  1.
         -1    1    6    6    0  502 -0.27779910041E+02 -0.10968619906E+02  0.40564688713E+03  0.40674492138E+03  0.00000000000E+00 0.  1.
<mgrwt>
<rscale>  0 0.21218563E+04</rscale>
<asrwt>0</asrwt>
<pdfrwt beam="1">  1        1 0.41154854E+00 0.21218563E+04</pdfrwt>
<pdfrwt beam="2">  1       -1 0.64732767E-01 0.21218563E+04</pdfrwt>
<totfact> 0.22710010E+00</totfact>
</mgrwt>
</event>
<event>
12    1  0.2433511E-007  0.2188093E+04  0.7818608E-02  0.8523401E-01
         -2   -1    0    0    0  501 -0.00000000000E+00  0.00000000000E+00  0.22932780305E+04  0.22932780305E+04  0.00000000000E+00 0.  1.
          2   -1    0    0  501    0  0.00000000000E+00 -0.00000000000E+00 -0.52193300759E+03  0.52193300759E+03  0.00000000000E+00 0. -1.
         23    2    1    2    0    0  0.75264843624E+03  0.40605438193E+03  0.11294226790E+04  0.14195691215E+04  0.90670134299E+02 0.  0.
        254    2    1    2    0    0 -0.75264843624E+03 -0.40605438193E+03  0.64192234393E+03  0.13956419166E+04  0.89687916359E+03 0.  0.
        -24    2    4    4    0    0 -0.44571909462E+03  0.14317117787E+02 -0.12108295078E+03  0.46910096364E+03  0.80772160719E+02 0.  0.
         24    2    4    4    0    0 -0.30692934162E+03 -0.42037149972E+03  0.76300529472E+03  0.92654095297E+03  0.73370561055E+02 0.  0.
         11    1    3    3    0    0  0.38799941045E+03  0.16488033386E+03  0.51667161693E+03  0.66684228026E+03  0.00000000000E+00 0. -1.
        -11    1    3    3    0    0  0.36464902579E+03  0.24117404807E+03  0.61275106209E+03  0.75272684126E+03  0.00000000000E+00 0.  1.
          4    1    6    6  502    0 -0.10949254131E+03 -0.94532590829E+02  0.21015980851E+03  0.25513167668E+03  0.00000000000E+00 0. -1.
          3    1    5    5  503    0 -0.34740406903E+03  0.29438866522E+02 -0.12271923196E+03  0.36961634695E+03  0.00000000000E+00 0. -1.
         -4    1    5    5    0  503 -0.98315025590E+02 -0.15121748735E+02  0.16362811783E+01  0.99484616689E+02  0.00000000000E+00 0.  1.
         -3    1    6    6    0  502 -0.19743680031E+03 -0.32583890889E+03  0.55284548621E+03  0.67140927629E+03  0.00000000000E+00 0.  1.
<mgrwt>
<rscale>  0 0.21880928E+04</rscale>
<asrwt>0</asrwt>
<pdfrwt beam="1">  1        2 0.80297387E-01 0.21880928E+04</pdfrwt>
<pdfrwt beam="2">  1       -2 0.35281200E+00 0.21880928E+04</pdfrwt>
<totfact> 0.80144951E-01</totfact>
</mgrwt>
</event>
<event>
12    1  0.2433511E-007  0.1981776E+04  0.7818608E-02  0.8615189E-01
         -1   -1    0    0    0  501 -0.00000000000E+00  0.00000000000E+00  0.19516123161E+04  0.19516123161E+04  0.00000000000E+00 0.  1.
          1   -1    0    0  501    0  0.00000000000E+00 -0.00000000000E+00 -0.50310164723E+03  0.50310164723E+03  0.00000000000E+00 0. -1.
         23    2    1    2    0    0  0.64831215795E+03 -0.12055959698E+03  0.52148698779E+02  0.66684642599E+03  0.84388378902E+02 0.  0.
        254    2    1    2    0    0 -0.64831215795E+03  0.12055959698E+03  0.13963619700E+04  0.17878675373E+04  0.90099961653E+03 0.  0.
        -24    2    4    4    0    0  0.71381518187E+02  0.36060649480E+02  0.89719997890E+03  0.90430636236E+03  0.80040635222E+02 0.  0.
         24    2    4    4    0    0 -0.71969367614E+03  0.84498947505E+02  0.49916199114E+03  0.88356117494E+03  0.80116146044E+02 0.  0.
         11    1    3    3    0    0  0.13138589561E+03 -0.90629643814E+01 -0.19736840615E+02  0.13316881679E+03  0.00000000000E+00 0. -1.
        -11    1    3    3    0    0  0.51692626234E+03 -0.11149663260E+03  0.71885539394E+02  0.53367760919E+03  0.00000000000E+00 0.  1.
          4    1    6    6  502    0 -0.69193980382E+03  0.91182302105E+02  0.46319594479E+03  0.83764275655E+03  0.00000000000E+00 0. -1.
          1    1    5    5  503    0  0.47391567958E+02  0.58247354106E+02  0.73647596788E+03  0.74029424301E+03  0.00000000000E+00 0. -1.
         -2    1    5    5    0  503  0.23989950230E+02 -0.22186704627E+02  0.16072401102E+03  0.16401211935E+03  0.00000000000E+00 0.  1.
         -3    1    6    6    0  502 -0.27753872315E+02 -0.66833546003E+01  0.35966046349E+02  0.45918418387E+02  0.00000000000E+00 0.  1.
<mgrwt>
<rscale>  0 0.19817763E+04</rscale>
<asrwt>0</asrwt>
<pdfrwt beam="1">  1        1 0.77400254E-01 0.19817763E+04</pdfrwt>
<pdfrwt beam="2">  1       -1 0.30024804E+00 0.19817763E+04</pdfrwt>
<totfact> 0.13443644E+00</totfact>
</mgrwt>
</event>
<event>
12    1  0.2433511E-007  0.2646167E+04  0.7818608E-02  0.8352686E-01
          2   -1    0    0  501    0  0.00000000000E+00  0.00000000000E+00  0.14319695002E+04  0.14319695002E+04  0.00000000000E+00 0. -1.
         -2   -1    0    0    0  501 -0.00000000000E+00 -0.00000000000E+00 -0.12224772397E+04  0.12224772397E+04  0.00000000000E+00 0.  1.
         23    2    1    2    0    0 -0.13819236725E+03 -0.80023456501E+03  0.93460063837E+03  0.12414207997E+04  0.90414375981E+02 0.  0.
        254    2    1    2    0    0  0.13819236725E+03  0.80023456501E+03 -0.72510837788E+03  0.14130259402E+04  0.90077059148E+03 0.  0.
        -24    2    4    4    0    0 -0.30311867695E+03  0.66600607559E+03 -0.36353174576E+03  0.82144663616E+03  0.84700772360E+02 0.  0.
         24    2    4    4    0    0  0.44131104421E+03  0.13422848941E+03 -0.36157663212E+03  0.59157930400E+03  0.80347289371E+02 0.  0.
         13    1    3    3    0    0 -0.12390581669E+03 -0.60897084479E+03  0.76306617929E+03  0.98410778637E+03  0.00000000000E+00 0. -1.
        -13    1    3    3    0    0 -0.14286550561E+02 -0.19126372021E+03  0.17153445908E+03  0.25731301337E+03  0.00000000000E+00 0.  1.
          2    1    6    6  502    0  0.35902873367E+03  0.12939822876E+03 -0.32555053448E+03  0.50162603970E+03  0.00000000000E+00 0. -1.
          3    1    5    5  503    0 -0.10246614304E+03  0.22145636424E+03 -0.77490050940E+02  0.25602136576E+03  0.00000000000E+00 0. -1.
         -4    1    5    5    0  503 -0.20065253392E+03  0.44454971136E+03 -0.28604169482E+03  0.56542527040E+03  0.00000000000E+00 0.  1.
         -1    1    6    6    0  502  0.82282310541E+02  0.48302606520E+01 -0.36026097638E+02  0.89953264293E+02  0.00000000000E+00 0.  1.
<mgrwt>
<rscale>  0 0.26461671E+04</rscale>
<asrwt>0</asrwt>
<pdfrwt beam="1">  1        2 0.22030300E+00 0.26461671E+04</pdfrwt>
<pdfrwt beam="2">  1       -2 0.18807342E+00 0.26461671E+04</pdfrwt>
<totfact> 0.19527228E+00</totfact>
</mgrwt>
</event>
<event>
12    1  0.2433511E-007  0.1585052E+04  0.7818608E-02  0.8829784E-01
          2   -1    0    0  501    0  0.00000000000E+00  0.00000000000E+00  0.12517309290E+04  0.12517309290E+04  0.00000000000E+00 0.  1.
         -2   -1    0    0    0  501 -0.00000000000E+00 -0.00000000000E+00 -0.50178311047E+03  0.50178311047E+03  0.00000000000E+00 0. -1.
         23    2    1    2    0    0 -0.52287115331E+01  0.28863324174E+03  0.74731785553E+03  0.80630724505E+03  0.91164184659E+02 0.  0.
        254    2    1    2    0    0  0.52287115331E+01 -0.28863324174E+03  0.26299629525E+01  0.94720679438E+03  0.90214040313E+03 0.  0.
        -24    2    4    4    0    0  0.22313332900E+03  0.73085123488E+02 -0.32412297822E+03  0.40794989710E+03  0.78977818058E+02 0.  0.
         24    2    4    4    0    0 -0.21790461747E+03 -0.36171836523E+03  0.32675294117E+03  0.53925689728E+03  0.75550768652E+02 0.  0.
         11    1    3    3    0    0 -0.12100428018E+02  0.19278656286E+03  0.60080088425E+03  0.63109015338E+03  0.00000000000E+00 0.  1.
        -11    1    3    3    0    0  0.68717164851E+01  0.95846678884E+02  0.14651697128E+03  0.17521709167E+03  0.00000000000E+00 0. -1.
          4    1    6    6  502    0 -0.18105364072E+03 -0.25244802533E+03  0.20886504922E+03  0.37434614343E+03  0.00000000000E+00 0. -1.
          3    1    5    5  503    0  0.22471716533E+03  0.70724126047E+02 -0.32756661000E+03  0.40348431245E+03  0.00000000000E+00 0. -1.
         -4    1    5    5    0  503 -0.15838363307E+01  0.23609974407E+01  0.34436317829E+01  0.44655846531E+01  0.00000000000E+00 0.  1.
         -3    1    6    6    0  502 -0.36850976749E+02 -0.10927033989E+03  0.11788789196E+03  0.16491075386E+03  0.00000000000E+00 0.  1.
<mgrwt>
<rscale>  0 0.15850520E+04</rscale>
<asrwt>0</asrwt>
<pdfrwt beam="1">  1        2 0.19257399E+00 0.15850520E+04</pdfrwt>
<pdfrwt beam="2">  1       -2 0.77197402E-01 0.15850520E+04</pdfrwt>
<totfact> 0.25368824E+01</totfact>
</mgrwt>
</event>
<event>
12    1  0.2433511E-007  0.1647548E+04  0.7818608E-02  0.8791859E-01
          1   -1    0    0  501    0  0.00000000000E+00  0.00000000000E+00  0.39561864024E+03  0.39561864024E+03  0.00000000000E+00 0. -1.
         -1   -1    0    0    0  501 -0.00000000000E+00 -0.00000000000E+00 -0.17152966393E+04  0.17152966393E+04  0.00000000000E+00 0.  1.
         23    2    1    2    0    0 -0.38718110212E+03 -0.38986680075E+03 -0.72666630162E+03  0.91531952210E+03  0.88659942850E+02 0.  0.
        254    2    1    2    0    0  0.38718110212E+03  0.38986680075E+03 -0.59301169744E+03  0.11955957574E+04  0.88084108313E+03 0.  0.
        -24    2    4    4    0    0  0.69057938662E+02 -0.17563602154E+03 -0.49314430405E+03  0.53413717959E+03  0.80586667918E+02 0.  0.
         24    2    4    4    0    0  0.31812316345E+03  0.56550282228E+03 -0.99867393391E+02  0.66145857785E+03  0.80982496949E+02 0.  0.
         13    1    3    3    0    0 -0.18245772539E+03 -0.23343293234E+03 -0.34404224187E+03  0.45403394107E+03  0.00000000000E+00 0. -1.
        -13    1    3    3    0    0 -0.20472337673E+03 -0.15643386840E+03 -0.38262405975E+03  0.46128558102E+03  0.00000000000E+00 0.  1.
          4    1    6    6  502    0  0.25223577874E+03  0.46796601139E+03 -0.11149045922E+03  0.54318063145E+03  0.00000000000E+00 0. -1.
          3    1    5    5  503    0  0.17862432733E+02 -0.14091525940E+03 -0.31458586795E+03  0.34516727125E+03  0.00000000000E+00 0. -1.
         -4    1    5    5    0  503  0.51195505929E+02 -0.34720762139E+02 -0.17855843611E+03  0.18896990833E+03  0.00000000000E+00 0.  1.
         -3    1    6    6    0  502  0.65887384717E+02  0.97536810893E+02  0.11623065828E+02  0.11827794639E+03  0.00000000000E+00 0.  1.
<mgrwt>
<rscale>  0 0.16475477E+04</rscale>
<asrwt>0</asrwt>
<pdfrwt beam="1">  1        1 0.60864406E-01 0.16475477E+04</pdfrwt>
<pdfrwt beam="2">  1       -1 0.26389179E+00 0.16475477E+04</pdfrwt>
<totfact> 0.32962333E+00</totfact>
</mgrwt>
</event>
<event>
12    1  0.2433511E-007  0.1638425E+04  0.7818608E-02  0.8797283E-01
          2   -1    0    0  501    0  0.00000000000E+00  0.00000000000E+00  0.60500577089E+03  0.60500577089E+03  0.00000000000E+00 0. -1.
         -2   -1    0    0    0  501 -0.00000000000E+00 -0.00000000000E+00 -0.11092611723E+04  0.11092611723E+04  0.00000000000E+00 0.  1.
         23    2    1    2    0    0  0.41854068582E+03  0.27174076902E+03 -0.45845974188E+03  0.68391614866E+03  0.92393788938E+02 0.  0.
        254    2    1    2    0    0 -0.41854068582E+03 -0.27174076902E+03 -0.45795659500E+02  0.10303507945E+04  0.90028115944E+03 0.  0.
        -24    2    4    4    0    0  0.32939896282E+01  0.61624710964E+02 -0.37912544269E+03  0.39265929930E+03  0.81466365208E+02 0.  0.
         24    2    4    4    0    0 -0.42183467545E+03 -0.33336547999E+03  0.33332978319E+03  0.63769149519E+03  0.80403121926E+02 0.  0.
         11    1    3    3    0    0  0.19053780571E+03  0.90784304883E+02 -0.14454312290E+03  0.25581078905E+03  0.00000000000E+00 0. -1.
        -11    1    3    3    0    0  0.22800288012E+03  0.18095646414E+03 -0.31391661898E+03  0.42810535961E+03  0.00000000000E+00 0.  1.
          4    1    6    6  502    0 -0.34859913026E+03 -0.23480774638E+03  0.26972005935E+03  0.49940458728E+03  0.00000000000E+00 0. -1.
          3    1    5    5  503    0  0.41292106783E+02  0.24345260622E+02 -0.20767717607E+03  0.21313737180E+03  0.00000000000E+00 0. -1.
         -4    1    5    5    0  503 -0.37998117155E+02  0.37279450342E+02 -0.17144826663E+03  0.17952192750E+03  0.00000000000E+00 0.  1.
         -3    1    6    6    0  502 -0.73235545194E+02 -0.98557733605E+02  0.63609723846E+02  0.13828690792E+03  0.00000000000E+00 0.  1.
<mgrwt>
<rscale>  0 0.16384254E+04</rscale>
<asrwt>0</asrwt>
<pdfrwt beam="1">  1        2 0.93077811E-01 0.16384254E+04</pdfrwt>
<pdfrwt beam="2">  1       -2 0.17065557E+00 0.16384254E+04</pdfrwt>
<totfact> 0.98896650E+00</totfact>
</mgrwt>
</event>
<event>
12    1  0.2433511E-007  0.1949245E+04  0.7818608E-02  0.8630725E-01
          2   -1    0    0  501    0  0.00000000000E+00  0.00000000000E+00  0.66370388385E+03  0.66370388385E+03  0.00000000000E+00 0. -1.
         -2   -1    0    0    0  501 -0.00000000000E+00 -0.00000000000E+00 -0.14311937272E+04  0.14311937272E+04  0.00000000000E+00 0.  1.
         23    2    1    2    0    0 -0.64789423392E+03 -0.30721685108E+03 -0.21035420646E+02  0.72304755977E+03  0.90587818275E+02 0.  0.
        254    2    1    2    0    0  0.64789423392E+03  0.30721685108E+03 -0.74645442268E+03  0.13718500513E+04  0.90034950216E+03 0.  0.
        -24    2    4    4    0    0  0.59693310164E+03 -0.20035181602E+03 -0.40811938279E+03  0.75447174148E+03  0.78715945387E+02 0.  0.
         24    2    4    4    0    0  0.50961132286E+02  0.50756866711E+03 -0.33833503989E+03  0.61737830978E+03  0.80388987674E+02 0.  0.
         13    1    3    3    0    0 -0.19477583870E+03 -0.12926532672E+03  0.19346680307E+02  0.23456650672E+03  0.00000000000E+00 0. -1.
        -13    1    3    3    0    0 -0.45311839522E+03 -0.17795152437E+03 -0.40382100953E+02  0.48848105305E+03  0.00000000000E+00 0.  1.
          4    1    6    6  502    0  0.46180660300E+02  0.50717276055E+03 -0.33995852517E+03  0.61231418509E+03  0.00000000000E+00 0. -1.
          1    1    5    5  503    0  0.43921980757E+03 -0.11776655252E+03 -0.31832961636E+03  0.55508264692E+03  0.00000000000E+00 0. -1.
         -2    1    5    5    0  503  0.15771329406E+03 -0.82585263499E+02 -0.89789766432E+02  0.19938909456E+03  0.00000000000E+00 0.  1.
         -3    1    6    6    0  502  0.47804719862E+01  0.39590655657E+00  0.16234852801E+01  0.50641246891E+01  0.00000000000E+00 0.  1.
<mgrwt>
<rscale>  0 0.19492448E+04</rscale>
<asrwt>0</asrwt>
<pdfrwt beam="1">  1        2 0.10210829E+00 0.19492448E+04</pdfrwt>
<pdfrwt beam="2">  1       -2 0.22018365E+00 0.19492448E+04</pdfrwt>
<totfact> 0.40262603E+00</totfact>
</mgrwt>
</event>
<event>
12    1  0.2433511E-007  0.3235440E+04  0.7818608E-02  0.8179520E-01
          2   -1    0    0  501    0  0.00000000000E+00  0.00000000000E+00  0.32645170587E+04  0.32645170587E+04  0.00000000000E+00 0. -1.
         -2   -1    0    0    0  501 -0.00000000000E+00 -0.00000000000E+00 -0.80165564614E+03  0.80165564614E+03  0.00000000000E+00 0.  1.
         23    2    1    2    0    0  0.60197386888E+03 -0.13263993210E+04  0.15396155961E+04  0.21214553694E+04  0.91918458802E+02 0.  0.
        254    2    1    2    0    0 -0.60197386888E+03  0.13263993210E+04  0.92324581648E+03  0.19447173354E+04  0.89879640602E+03 0.  0.
        -24    2    4    4    0    0 -0.59548610603E+02  0.40150314647E+02  0.45952693272E+03  0.47169184607E+03  0.78550053896E+02 0.  0.
         24    2    4    4    0    0 -0.54242525828E+03  0.12862490064E+04  0.46371888376E+03  0.14730254894E+04  0.78148716807E+02 0.  0.
         11    1    3    3    0    0  0.24875892911E+03 -0.64450685647E+03  0.69603073299E+03  0.98067776263E+03  0.00000000000E+00 0. -1.
        -11    1    3    3    0    0  0.35321493977E+03 -0.68189246456E+03  0.84358486313E+03  0.11407776068E+04  0.00000000000E+00 0.  1.
          4    1    6    6  502    0 -0.78666859307E+02  0.13859247594E+03  0.35835844226E+02  0.16334184054E+03  0.00000000000E+00 0. -1.
          3    1    5    5  503    0 -0.52555192328E+01  0.38926555006E+02  0.31244346226E+03  0.31490286482E+03  0.00000000000E+00 0. -1.
         -4    1    5    5    0  503 -0.54293091370E+02  0.12237596405E+01  0.14708347046E+03  0.15678898125E+03  0.00000000000E+00 0.  1.
         -3    1    6    6    0  502 -0.46375839897E+03  0.11476565304E+04  0.42788303954E+03  0.13096836488E+04  0.00000000000E+00 0.  1.
<mgrwt>
<rscale>  0 0.32354403E+04</rscale>
<asrwt>0</asrwt>
<pdfrwt beam="1">  1        2 0.50223339E+00 0.32354403E+04</pdfrwt>
<pdfrwt beam="2">  1       -2 0.12333164E+00 0.32354403E+04</pdfrwt>
<totfact> 0.48916030E-01</totfact>
</mgrwt>
</event>
<event>
12    1  0.2433511E-007  0.1782375E+04  0.7818608E-02  0.8715729E-01
         -2   -1    0    0    0  501 -0.00000000000E+00  0.00000000000E+00  0.89863714130E+03  0.89863714130E+03  0.00000000000E+00 0. -1.
          2   -1    0    0  501    0  0.00000000000E+00 -0.00000000000E+00 -0.88379945595E+03  0.88379945595E+03  0.00000000000E+00 0.  1.
         23    2    1    2    0    0 -0.42636765939E+03 -0.10877528105E+03 -0.48727650329E+03  0.66284285057E+03  0.91108787491E+02 0.  0.
        254    2    1    2    0    0  0.42636765939E+03  0.10877528105E+03  0.50211418864E+03  0.11195937467E+04  0.89874916214E+03 0.  0.
        -24    2    4    4    0    0  0.49833112408E+03  0.39952958826E+03  0.49182165222E+03  0.80984530396E+03  0.77479530378E+02 0.  0.
         24    2    4    4    0    0 -0.71963464692E+02 -0.29075430720E+03  0.10292536418E+02  0.30974844273E+03  0.78239082682E+02 0.  0.
         13    1    3    3    0    0 -0.25152391249E+03 -0.90393565364E+02 -0.23849404334E+03  0.35821039059E+03  0.00000000000E+00 0. -1.
        -13    1    3    3    0    0 -0.17484374690E+03 -0.18381715689E+02 -0.24878245994E+03  0.30463245998E+03  0.00000000000E+00 0.  1.
          2    1    6    6  502    0 -0.79806124566E+02 -0.19955419643E+03 -0.12938728558E+02  0.21530978967E+03  0.00000000000E+00 0. -1.
          1    1    5    5  503    0  0.47198970419E+03  0.37551989947E+03  0.43847413805E+03  0.74568696214E+03  0.00000000000E+00 0. -1.
         -2    1    5    5    0  503  0.26341419894E+02  0.24009688789E+02  0.53347514163E+02  0.64158341820E+02  0.00000000000E+00 0.  1.
         -1    1    6    6    0  502  0.78426598749E+01 -0.91200110770E+02  0.23231264977E+02  0.94438653054E+02  0.00000000000E+00 0.  1.
<mgrwt>
<rscale>  0 0.17823748E+04</rscale>
<asrwt>0</asrwt>
<pdfrwt beam="1">  1        2 0.13596915E+00 0.17823748E+04</pdfrwt>
<pdfrwt beam="2">  1       -2 0.13825187E+00 0.17823748E+04</pdfrwt>
<totfact> 0.10549009E+01</totfact>
</mgrwt>
</event>
<event>
12    1  0.2433511E-007  0.1601527E+04  0.7818608E-02  0.8819611E-01
          1   -1    0    0  501    0  0.00000000000E+00  0.00000000000E+00  0.38001617164E+03  0.38001617164E+03  0.00000000000E+00 0. -1.
         -1   -1    0    0    0  501 -0.00000000000E+00 -0.00000000000E+00 -0.16873541083E+04  0.16873541083E+04  0.00000000000E+00 0.  1.
         23    2    1    2    0    0  0.59851730733E+02  0.19955832231E+03 -0.10974388978E+04  0.11208004374E+04  0.91737301758E+02 0.  0.
        254    2    1    2    0    0 -0.59851730733E+02 -0.19955832231E+03 -0.20989903891E+03  0.94656984251E+03  0.89918357778E+03 0.  0.
        -24    2    4    4    0    0  0.15583619664E+03  0.15177210306E+03  0.23831768379E+03  0.33245574762E+03  0.80073805113E+02 0.  0.
         24    2    4    4    0    0 -0.21568792737E+03 -0.35133042538E+03 -0.44821672270E+03  0.61411409490E+03  0.79268791038E+02 0.  0.
         11    1    3    3    0    0  0.22390577609E+02  0.53355749768E+02 -0.13918118302E+03  0.15073014200E+03  0.00000000000E+00 0. -1.
        -11    1    3    3    0    0  0.37461153125E+02  0.14620257255E+03 -0.95825771476E+03  0.97007029544E+03  0.00000000000E+00 0.  1.
          4    1    6    6  502    0 -0.15900744612E+03 -0.29882987566E+03 -0.32892916319E+03  0.47199264496E+03  0.00000000000E+00 0. -1.
          1    1    5    5  503    0  0.15874774241E+03  0.15648127077E+03  0.23907211977E+03  0.32686803495E+03  0.00000000000E+00 0. -1.
         -2    1    5    5    0  503 -0.29115457699E+01 -0.47091677059E+01 -0.75443597333E+00  0.55877126707E+01  0.00000000000E+00 0.  1.
         -3    1    6    6    0  502 -0.56680481256E+02 -0.52500549722E+02 -0.11928755951E+03  0.14212144993E+03  0.00000000000E+00 0.  1.
<mgrwt>
<rscale>  0 0.16015266E+04</rscale>
<asrwt>0</asrwt>
<pdfrwt beam="1">  1        1 0.58464026E-01 0.16015266E+04</pdfrwt>
<pdfrwt beam="2">  1       -1 0.25959294E+00 0.16015266E+04</pdfrwt>
<totfact> 0.37225693E+00</totfact>
</mgrwt>
</event>
<event>
12    1  0.2433511E-007  0.1524154E+04  0.7818608E-02  0.8868548E-01
         -1   -1    0    0    0  501 -0.00000000000E+00  0.00000000000E+00  0.18181372170E+03  0.18181372170E+03  0.00000000000E+00 0.  1.
          1   -1    0    0  501    0  0.00000000000E+00 -0.00000000000E+00 -0.31942638299E+04  0.31942638299E+04  0.00000000000E+00 0. -1.
         23    2    1    2    0    0  0.36927908965E+02  0.38995277268E+03 -0.16459220987E+04  0.16944173185E+04  0.92540038385E+02 0.  0.
        254    2    1    2    0    0 -0.36927908965E+02 -0.38995277268E+03 -0.13665280095E+04  0.16816602331E+04  0.89841833442E+03 0.  0.
        -24    2    4    4    0    0 -0.38644282102E+03 -0.27085959915E+03 -0.11528799328E+04  0.12482253419E+04  0.78939141989E+02 0.  0.
         24    2    4    4    0    0  0.34951491206E+03 -0.11909317353E+03 -0.21364807662E+03  0.43343489125E+03  0.76657984476E+02 0.  0.
         11    1    3    3    0    0  0.32359302376E+02  0.85495981602E+02 -0.52377567443E+03  0.53169318638E+03  0.00000000000E+00 0. -1.
        -11    1    3    3    0    0  0.45686065887E+01  0.30445679108E+03 -0.11221464243E+04  0.11627241321E+04  0.00000000000E+00 0.  1.
          2    1    6    6  502    0  0.29781612462E+02 -0.12795923960E+02  0.34706584500E+01  0.32599472096E+02  0.00000000000E+00 0. -1.
          1    1    5    5  503    0 -0.48983674818E+01 -0.16328789936E+02 -0.73311103711E+02  0.75267133013E+02  0.00000000000E+00 0. -1.
         -2    1    5    5    0  503 -0.38154445354E+03 -0.25453080922E+03 -0.10795688291E+04  0.11729582088E+04  0.00000000000E+00 0.  1.
         -1    1    6    6    0  502  0.31973329959E+03 -0.10629724956E+03 -0.21711873507E+03  0.40083541916E+03  0.00000000000E+00 0.  1.
<mgrwt>
<rscale>  0 0.15241535E+04</rscale>
<asrwt>0</asrwt>
<pdfrwt beam="1">  1        1 0.49142515E+00 0.15241535E+04</pdfrwt>
<pdfrwt beam="2">  1       -1 0.27971345E-01 0.15241535E+04</pdfrwt>
<totfact> 0.48175541E+00</totfact>
</mgrwt>
</event>
<event>
12    1  0.2433511E-007  0.2329486E+04  0.7818608E-02  0.8466385E-01
         -2   -1    0    0    0  501 -0.00000000000E+00  0.00000000000E+00  0.74943809220E+03  0.74943809220E+03  0.00000000000E+00 0.  1.
          2   -1    0    0  501    0  0.00000000000E+00 -0.00000000000E+00 -0.18101907734E+04  0.18101907734E+04  0.00000000000E+00 0. -1.
         23    2    1    2    0    0 -0.16429918483E+03  0.87728453600E+03  0.15704175008E+02  0.89743045861E+03  0.92262818619E+02 0.  0.
        254    2    1    2    0    0  0.16429918483E+03 -0.87728453600E+03 -0.10764568563E+04  0.16621984070E+04  0.89862216850E+03 0.  0.
        -24    2    4    4    0    0 -0.33712774553E+03 -0.58271713840E+03 -0.62304267895E+03  0.92061145090E+03  0.78287186387E+02 0.  0.
         24    2    4    4    0    0  0.50142693035E+03 -0.29456739760E+03 -0.45341417730E+03  0.74158695613E+03  0.78535845998E+02 0.  0.
         13    1    3    3    0    0  0.68084563734E+01  0.43519043312E+02 -0.12609316406E+02  0.45817650193E+02  0.00000000000E+00 0. -1.
        -13    1    3    3    0    0 -0.17110764120E+03  0.83376549269E+03  0.28313491413E+02  0.85161280842E+03  0.00000000000E+00 0.  1.
          4    1    6    6  502    0  0.16677211496E+03 -0.60135506284E+02 -0.11813561855E+03  0.21303812291E+03  0.00000000000E+00 0. -1.
          1    1    5    5  503    0 -0.19663841908E+03 -0.41250171492E+03 -0.41386335433E+03  0.61652835193E+03  0.00000000000E+00 0. -1.
         -2    1    5    5    0  503 -0.14048932644E+03 -0.17021542348E+03 -0.20917932463E+03  0.30408309898E+03  0.00000000000E+00 0.  1.
         -3    1    6    6    0  502  0.33465481539E+03 -0.23443189132E+03 -0.33527855876E+03  0.52854883322E+03  0.00000000000E+00 0.  1.
<mgrwt>
<rscale>  0 0.23294857E+04</rscale>
<asrwt>0</asrwt>
<pdfrwt beam="1">  1        2 0.27849088E+00 0.23294857E+04</pdfrwt>
<pdfrwt beam="2">  1       -2 0.11529817E+00 0.23294857E+04</pdfrwt>
<totfact> 0.45137738E+00</totfact>
</mgrwt>
</event>
<event>
12    1  0.2433511E-007  0.2841115E+04  0.7818608E-02  0.8290616E-01
         -1   -1    0    0    0  501 -0.00000000000E+00  0.00000000000E+00  0.18271119008E+04  0.18271119008E+04  0.00000000000E+00 0.  1.
          1   -1    0    0  501    0  0.00000000000E+00 -0.00000000000E+00 -0.11044661416E+04  0.11044661416E+04  0.00000000000E+00 0. -1.
         23    2    1    2    0    0 -0.89285078110E+03  0.90285695965E+03  0.45628162025E+03  0.13523949440E+04  0.91901908023E+02 0.  0.
        254    2    1    2    0    0  0.89285078110E+03 -0.90285695965E+03  0.26636413892E+03  0.15791830984E+04  0.90029783784E+03 0.  0.
        -24    2    4    4    0    0 -0.76926408762E+02 -0.35760920106E+03  0.27314730982E+03  0.46366589302E+03  0.81083872875E+02 0.  0.
         24    2    4    4    0    0  0.96977718987E+03 -0.54524775859E+03 -0.67831709006E+01  0.11155172054E+04  0.81053734170E+02 0.  0.
         11    1    3    3    0    0 -0.33884964857E+03  0.38736154897E+03  0.15045411285E+03  0.53619445543E+03  0.00000000000E+00 0. -1.
        -11    1    3    3    0    0 -0.55400113254E+03  0.51549541068E+03  0.30582750739E+03  0.81620048859E+03  0.00000000000E+00 0.  1.
          4    1    6    6  502    0  0.74948186447E+03 -0.41186081648E+03  0.27990159901E+02  0.85564937116E+03  0.00000000000E+00 0. -1.
          3    1    5    5  503    0 -0.41195233630E+02 -0.10704837693E+03  0.12812308138E+03  0.17196489833E+03  0.00000000000E+00 0. -1.
         -4    1    5    5    0  503 -0.35731175132E+02 -0.25056082413E+03  0.14502422844E+03  0.29170099469E+03  0.00000000000E+00 0.  1.
         -3    1    6    6    0  502  0.22029532540E+03 -0.13338694212E+03 -0.34773330801E+02  0.25986783421E+03  0.00000000000E+00 0.  1.
<mgrwt>
<rscale>  0 0.28411147E+04</rscale>
<asrwt>0</asrwt>
<pdfrwt beam="1">  1        1 0.16991787E+00 0.28411147E+04</pdfrwt>
<pdfrwt beam="2">  1       -1 0.28109414E+00 0.28411147E+04</pdfrwt>
<totfact> 0.47520152E-01</totfact>
</mgrwt>
</event>
<event>
12    1  0.2433511E-007  0.1406126E+04  0.7818608E-02  0.8949396E-01
         -2   -1    0    0    0  501 -0.00000000000E+00  0.00000000000E+00  0.57663523015E+03  0.57663523015E+03  0.00000000000E+00 0.  1.
          2   -1    0    0  501    0  0.00000000000E+00 -0.00000000000E+00 -0.85721067372E+03  0.85721067372E+03  0.00000000000E+00 0. -1.
         23    2    1    2    0    0  0.27874194061E+03 -0.24514496378E+03 -0.25479814922E+03  0.45939526646E+03  0.91262211679E+02 0.  0.
        254    2    1    2    0    0 -0.27874194061E+03  0.24514496378E+03 -0.25777294357E+02  0.97445063741E+03  0.90060893463E+03 0.  0.
        -24    2    4    4    0    0  0.21098436828E+02 -0.31231459850E+03  0.65765789829E+02  0.32958415665E+03  0.79467129848E+02 0.  0.
         24    2    4    4    0    0 -0.29984037743E+03  0.55745956228E+03 -0.91543084186E+02  0.64486648077E+03  0.82505916342E+02 0.  0.
         11    1    3    3    0    0  0.21933994920E+03 -0.14050788367E+03 -0.19253919712E+03  0.32391946702E+03  0.00000000000E+00 0. -1.
        -11    1    3    3    0    0  0.59401991410E+02 -0.10463708011E+03 -0.62258952098E+02  0.13547579944E+03  0.00000000000E+00 0.  1.
          4    1    6    6  502    0 -0.12183726335E+03  0.16023740688E+03 -0.67971640942E+01  0.20141138683E+03  0.00000000000E+00 0. -1.
          1    1    5    5  503    0 -0.90797846591E+00 -0.27453280046E+02 -0.16780713383E+02  0.32188497197E+02  0.00000000000E+00 0. -1.
         -2    1    5    5    0  503  0.22006415294E+02 -0.28486131846E+03  0.82546503212E+02  0.29739565945E+03  0.00000000000E+00 0.  1.
         -3    1    6    6    0  502 -0.17800311409E+03  0.39722215541E+03 -0.84745920092E+02  0.44345509394E+03  0.00000000000E+00 0.  1.
<mgrwt>
<rscale>  0 0.14061264E+04</rscale>
<asrwt>0</asrwt>
<pdfrwt beam="1">  1        2 0.13187856E+00 0.14061264E+04</pdfrwt>
<pdfrwt beam="2">  1       -2 0.88713113E-01 0.14061264E+04</pdfrwt>
<totfact> 0.33356181E+01</totfact>
</mgrwt>
</event>
<event>
12    1  0.2433511E-007  0.1825608E+04  0.7818608E-02  0.8692799E-01
         -2   -1    0    0    0  501 -0.00000000000E+00  0.00000000000E+00  0.33628508694E+03  0.33628508694E+03  0.00000000000E+00 0.  1.
          2   -1    0    0  501    0  0.00000000000E+00 -0.00000000000E+00 -0.24776934214E+04  0.24776934214E+04  0.00000000000E+00 0. -1.
         23    2    1    2    0    0 -0.28868925007E+03 -0.50928219374E+03 -0.13584407013E+04  0.14820857902E+04  0.92235105612E+02 0.  0.
        254    2    1    2    0    0  0.28868925007E+03  0.50928219374E+03 -0.78296763314E+03  0.13318927181E+04  0.90453859064E+03 0.  0.
        -24    2    4    4    0    0 -0.14677338644E+03  0.45116966718E+03 -0.63438825845E+02  0.48505402616E+03  0.78462909195E+02 0.  0.
         24    2    4    4    0    0  0.43546263651E+03  0.58112526561E+02 -0.71952880730E+03  0.84683869191E+03  0.80058054255E+02 0.  0.
         11    1    3    3    0    0 -0.18085945382E+03 -0.24405708687E+03 -0.76795245940E+03  0.82584803904E+03  0.00000000000E+00 0. -1.
        -11    1    3    3    0    0 -0.10782979625E+03 -0.26522510687E+03 -0.59048824188E+03  0.65623775118E+03  0.00000000000E+00 0.  1.
          2    1    6    6  502    0  0.25028703859E+03  0.31360441921E+02 -0.48640010090E+03  0.54791617713E+03  0.00000000000E+00 0. -1.
          3    1    5    5  503    0 -0.13317782443E+03  0.44416654702E+03 -0.68944020314E+02  0.46880009849E+03  0.00000000000E+00 0. -1.
         -4    1    5    5    0  503 -0.13595562017E+02  0.70031201621E+01  0.55051944686E+01  0.16253927670E+02  0.00000000000E+00 0.  1.
         -1    1    6    6    0  502  0.18517559793E+03  0.26752084640E+02 -0.23312870639E+03  0.29892251478E+03  0.00000000000E+00 0.  1.
<mgrwt>
<rscale>  0 0.18256082E+04</rscale>
<asrwt>0</asrwt>
<pdfrwt beam="1">  1        2 0.38118360E+00 0.18256082E+04</pdfrwt>
<pdfrwt beam="2">  1       -2 0.51736167E-01 0.18256082E+04</pdfrwt>
<totfact> 0.11933846E+01</totfact>
</mgrwt>
</event>
<event>
12    1  0.2433511E-007  0.1539198E+04  0.7818608E-02  0.8858797E-01
         -2   -1    0    0    0  501 -0.00000000000E+00  0.00000000000E+00  0.18903958831E+03  0.18903958831E+03  0.00000000000E+00 0. -1.
          2   -1    0    0  501    0  0.00000000000E+00 -0.00000000000E+00 -0.31331126580E+04  0.31331126580E+04  0.00000000000E+00 0.  1.
         23    2    1    2    0    0  0.33061007311E+03 -0.29018492410E+03 -0.15041474722E+04  0.15698341068E+04  0.91701658528E+02 0.  0.
        254    2    1    2    0    0 -0.33061007311E+03  0.29018492410E+03 -0.14399255975E+04  0.17523181395E+04  0.89650589795E+03 0.  0.
        -24    2    4    4    0    0  0.14385751635E+03  0.14442206819E+03 -0.11529412541E+04  0.11735498934E+04  0.79956852171E+02 0.  0.
         24    2    4    4    0    0 -0.47446758946E+03  0.14576285591E+03 -0.28698434340E+03  0.57876824606E+03  0.79033952681E+02 0.  0.
         13    1    3    3    0    0  0.11432661209E+03 -0.52804221895E+02 -0.49826490611E+03  0.51393265779E+03  0.00000000000E+00 0. -1.
        -13    1    3    3    0    0  0.21628346102E+03 -0.23738070220E+03 -0.10058825661E+04  0.10559014490E+04  0.00000000000E+00 0.  1.
          2    1    6    6  502    0 -0.16595605933E+03  0.85530638722E+02 -0.85063206042E+02  0.20516494050E+03  0.00000000000E+00 0. -1.
          1    1    5    5  503    0 -0.10277424697E+02  0.85323434042E+01 -0.61478312646E+02  0.62912711499E+02  0.00000000000E+00 0. -1.
         -2    1    5    5    0  503  0.15413494105E+03  0.13588972479E+03 -0.10914629414E+04  0.11106371819E+04  0.00000000000E+00 0.  1.
         -1    1    6    6    0  502 -0.30851153013E+03  0.60232217184E+02 -0.20192113736E+03  0.37360330556E+03  0.00000000000E+00 0.  1.
<mgrwt>
<rscale>  0 0.15391976E+04</rscale>
<asrwt>0</asrwt>
<pdfrwt beam="1">  1        2 0.48201728E+00 0.15391976E+04</pdfrwt>
<pdfrwt beam="2">  1       -2 0.29083017E-01 0.15391976E+04</pdfrwt>
<totfact> 0.15123217E+01</totfact>
</mgrwt>
</event>
<event>
12    1  0.2433511E-007  0.3367953E+04  0.7818608E-02  0.8145817E-01
         -2   -1    0    0    0  501 -0.00000000000E+00  0.00000000000E+00  0.66057172709E+03  0.66057172709E+03  0.00000000000E+00 0.  1.
          2   -1    0    0  501    0  0.00000000000E+00 -0.00000000000E+00 -0.42929138426E+04  0.42929138426E+04  0.00000000000E+00 0. -1.
         23    2    1    2    0    0 -0.11739187644E+04  0.57990009795E+03 -0.43417982106E+03  0.13823328633E+04  0.89233619092E+02 0.  0.
        254    2    1    2    0    0  0.11739187644E+04 -0.57990009795E+03 -0.31981622944E+04  0.35711527064E+04  0.90028895458E+03 0.  0.
        -24    2    4    4    0    0 -0.56157172628E+02 -0.14806411929E+03 -0.98467080868E+03  0.10010162826E+04  0.85909168153E+02 0.  0.
         24    2    4    4    0    0  0.12300759371E+04 -0.43183597866E+03 -0.22134914857E+04  0.25701364237E+04  0.80545364937E+02 0.  0.
         13    1    3    3    0    0 -0.64613660095E+03  0.28499314466E+03 -0.19992493761E+03  0.73395066610E+03  0.00000000000E+00 0.  1.
        -13    1    3    3    0    0 -0.52778216348E+03  0.29490695329E+03 -0.23425488345E+03  0.64838219717E+03  0.00000000000E+00 0. -1.
          2    1    6    6  502    0  0.80925084533E+03 -0.24718462127E+03 -0.14021123338E+04  0.16376526384E+04  0.00000000000E+00 0. -1.
          3    1    5    5  503    0 -0.48299740487E+02 -0.15914968969E+03 -0.92319144283E+03  0.93805326542E+03  0.00000000000E+00 0. -1.
         -4    1    5    5    0  503 -0.78574321411E+01  0.11085570395E+02 -0.61479365853E+02  0.62963017213E+02  0.00000000000E+00 0.  1.
         -1    1    6    6    0  502  0.42082509174E+03 -0.18465135739E+03 -0.81137915196E+03  0.93248378531E+03  0.00000000000E+00 0.  1.
<mgrwt>
<rscale>  0 0.33679534E+04</rscale>
<asrwt>0</asrwt>
<pdfrwt beam="1">  1        2 0.66044826E+00 0.33679534E+04</pdfrwt>
<pdfrwt beam="2">  1       -2 0.10162642E+00 0.33679534E+04</pdfrwt>
<totfact> 0.12668304E-01</totfact>
</mgrwt>
</event>
<event>
12    1  0.2433511E-007  0.2890748E+04  0.7818608E-02  0.8275635E-01
         -2   -1    0    0    0  501 -0.00000000000E+00  0.00000000000E+00  0.11339931273E+04  0.11339931273E+04  0.00000000000E+00 0.  1.
          2   -1    0    0  501    0  0.00000000000E+00 -0.00000000000E+00 -0.18422569234E+04  0.18422569234E+04  0.00000000000E+00 0. -1.
         23    2    1    2    0    0 -0.19278017296E+03 -0.12267659906E+04 -0.72652782167E+03  0.14414744226E+04  0.88807908417E+02 0.  0.
        254    2    1    2    0    0  0.19278017296E+03  0.12267659906E+04  0.18264025635E+02  0.15347756281E+04  0.90171151875E+03 0.  0.
        -24    2    4    4    0    0  0.14658218860E+03  0.89911738037E+03 -0.39768698668E+03  0.99725877154E+03  0.80446978477E+02 0.  0.
         24    2    4    4    0    0  0.46197984355E+02  0.32764861027E+03  0.41595101231E+03  0.53751685654E+03  0.80132770127E+02 0.  0.
         11    1    3    3    0    0 -0.10328238921E+03 -0.83169565800E+03 -0.45282045571E+03  0.95259187723E+03  0.00000000000E+00 0.  1.
        -11    1    3    3    0    0 -0.89497783752E+02 -0.39507033264E+03 -0.27370736595E+03  0.48888254541E+03  0.00000000000E+00 0. -1.
          2    1    6    6  502    0  0.94252914798E+01  0.16028333566E+02  0.60925975825E+02  0.63700220774E+02  0.00000000000E+00 0. -1.
          1    1    5    5  503    0  0.58526469969E+02  0.59609047118E+03 -0.26311905289E+03  0.65420244078E+03  0.00000000000E+00 0. -1.
         -2    1    5    5    0  503  0.88055718633E+02  0.30302690918E+03 -0.13456793379E+03  0.34305633077E+03  0.00000000000E+00 0.  1.
         -3    1    6    6    0  502  0.36772692875E+02  0.31162027670E+03  0.35502503649E+03  0.47381663576E+03  0.00000000000E+00 0.  1.
<mgrwt>
<rscale>  0 0.28907485E+04</rscale>
<asrwt>0</asrwt>
<pdfrwt beam="1">  1        2 0.28342414E+00 0.28907485E+04</pdfrwt>
<pdfrwt beam="2">  1       -2 0.17446048E+00 0.28907485E+04</pdfrwt>
<totfact> 0.13996844E+00</totfact>
</mgrwt>
</event>
<event>
12    1  0.2433511E-007  0.1225734E+04  0.7818608E-02  0.9090625E-01
         -2   -1    0    0    0  501 -0.00000000000E+00  0.00000000000E+00  0.33234615121E+03  0.33234615121E+03  0.00000000000E+00 0.  1.
          2   -1    0    0  501    0  0.00000000000E+00 -0.00000000000E+00 -0.11301647392E+04  0.11301647392E+04  0.00000000000E+00 0. -1.
         23    2    1    2    0    0 -0.20858299716E+03  0.16445523883E+02 -0.38348933451E+03  0.44659599285E+03  0.92771704635E+02 0.  0.
        254    2    1    2    0    0  0.20858299716E+03 -0.16445523883E+02 -0.41432925348E+03  0.10159148976E+04  0.90367971473E+03 0.  0.
        -24    2    4    4    0    0 -0.24045233128E+03 -0.25487150856E+03 -0.79462009554E+01  0.35998841499E+03  0.82168773419E+02 0.  0.
         24    2    4    4    0    0  0.44903532845E+03  0.23842598467E+03 -0.40638305252E+03  0.65592648256E+03  0.81318440639E+02 0.  0.
         13    1    3    3    0    0 -0.18749813423E+03 -0.18133223007E+02 -0.31487251001E+03  0.36691833107E+03  0.00000000000E+00 0. -1.
        -13    1    3    3    0    0 -0.21084862938E+02  0.34578746890E+02 -0.68616824503E+02  0.79677661779E+02  0.00000000000E+00 0.  1.
          4    1    6    6  502    0  0.18169616663E+03  0.52171836866E+02 -0.14725926351E+03  0.23962614260E+03  0.00000000000E+00 0. -1.
          1    1    5    5  503    0 -0.31139812717E+02 -0.10094040456E+02 -0.18777913806E+02  0.37738410614E+02  0.00000000000E+00 0. -1.
         -2    1    5    5    0  503 -0.20931251856E+03 -0.24477746810E+03  0.10831712850E+02  0.32225000438E+03  0.00000000000E+00 0.  1.
         -3    1    6    6    0  502  0.26733916182E+03  0.18625414781E+03 -0.25912378901E+03  0.41630033996E+03  0.00000000000E+00 0.  1.
<mgrwt>
<rscale>  0 0.12257339E+04</rscale>
<asrwt>0</asrwt>
<pdfrwt beam="1">  1        2 0.17387150E+00 0.12257339E+04</pdfrwt>
<pdfrwt beam="2">  1       -2 0.51130177E-01 0.12257339E+04</pdfrwt>
<totfact> 0.74323600E+01</totfact>
</mgrwt>
</event>
<event>
12    1  0.2433511E-007  0.2932109E+04  0.7818608E-02  0.8263388E-01
         -2   -1    0    0    0  501 -0.00000000000E+00  0.00000000000E+00  0.53338755211E+03  0.53338755211E+03  0.00000000000E+00 0.  1.
          2   -1    0    0  501    0  0.00000000000E+00 -0.00000000000E+00 -0.40295574479E+04  0.40295574479E+04  0.00000000000E+00 0. -1.
         23    2    1    2    0    0  0.11938160068E+04  0.52848491236E+03 -0.12245822082E+04  0.17923176114E+04  0.91147543249E+02 0.  0.
        254    2    1    2    0    0 -0.11938160068E+04 -0.52848491236E+03 -0.22715876876E+04  0.27706273887E+04  0.90098420824E+03 0.  0.
        -24    2    4    4    0    0 -0.44024008168E+02  0.11181447833E+03 -0.72031400492E+03  0.73472704783E+03  0.80814468227E+02 0.  0.
         24    2    4    4    0    0 -0.11497919987E+04 -0.64029939069E+03 -0.15512736827E+04  0.20359003408E+04  0.80219755880E+02 0.  0.
         11    1    3    3    0    0  0.54093302441E+03  0.23718189386E+03 -0.49222464950E+03  0.76886207687E+03  0.00000000000E+00 0. -1.
        -11    1    3    3    0    0  0.65288298242E+03  0.29130301850E+03 -0.73235755869E+03  0.10234555345E+04  0.00000000000E+00 0.  1.
          2    1    6    6  502    0 -0.92159130747E+01 -0.49696821586E+01 -0.26776133140E+02  0.28750514787E+02  0.00000000000E+00 0. -1.
          1    1    5    5  503    0 -0.11966665582E+01  0.79601445098E+02 -0.27786991246E+03  0.28904932161E+03  0.00000000000E+00 0. -1.
         -2    1    5    5    0  503 -0.42827341610E+02  0.32213033234E+02 -0.44244409245E+03  0.44567772622E+03  0.00000000000E+00 0.  1.
         -1    1    6    6    0  502 -0.11405760856E+04 -0.63532970853E+03 -0.15244975496E+04  0.20071498260E+04  0.00000000000E+00 0.  1.
<mgrwt>
<rscale>  0 0.29321090E+04</rscale>
<asrwt>0</asrwt>
<pdfrwt beam="1">  1        2 0.61993192E+00 0.29321090E+04</pdfrwt>
<pdfrwt beam="2">  1       -2 0.82059623E-01 0.29321090E+04</pdfrwt>
<totfact> 0.36360353E-01</totfact>
</mgrwt>
</event>
<event>
12    1  0.2433511E-007  0.2228195E+04  0.7818608E-02  0.8506784E-01
          2   -1    0    0  501    0  0.00000000000E+00  0.00000000000E+00  0.14634499385E+04  0.14634499385E+04  0.00000000000E+00 0. -1.
         -2   -1    0    0    0  501 -0.00000000000E+00 -0.00000000000E+00 -0.84814180802E+03  0.84814180802E+03  0.00000000000E+00 0.  1.
         23    2    1    2    0    0  0.72446220469E+03 -0.52940827081E+03  0.48994833815E+03  0.10294749798E+04  0.12104031007E+03 0.  0.
        254    2    1    2    0    0 -0.72446220469E+03  0.52940827081E+03  0.12535979231E+03  0.12821167668E+04  0.90718781013E+03 0.  0.
        -24    2    4    4    0    0 -0.63239547660E+03  0.39234245857E+03  0.47505670214E+03  0.88666736173E+03  0.81507646804E+02 0.  0.
         24    2    4    4    0    0 -0.92066728087E+02  0.13706581224E+03 -0.34969690982E+03  0.39544940502E+03  0.82637666285E+02 0.  0.
         11    1    3    3    0    0  0.10436382099E+03 -0.11247505084E+03  0.12488004342E+03  0.19783192219E+03  0.00000000000E+00 0. -1.
        -11    1    3    3    0    0  0.62009838370E+03 -0.41693321997E+03  0.36506829473E+03  0.83164305757E+03  0.00000000000E+00 0.  1.
          2    1    6    6  502    0 -0.42025457126E+01  0.53418996935E+02 -0.55131815255E+02  0.76881517137E+02  0.00000000000E+00 0. -1.
          1    1    5    5  503    0 -0.98774244139E+02  0.87521776227E+02  0.59204977716E+02  0.14464315402E+03  0.00000000000E+00 0. -1.
         -2    1    5    5    0  503 -0.53362123246E+03  0.30482068234E+03  0.41585172442E+03  0.74202420771E+03  0.00000000000E+00 0.  1.
         -1    1    6    6    0  502 -0.87864182374E+02  0.83646815300E+02 -0.29456509457E+03  0.31856788789E+03  0.00000000000E+00 0.  1.
<mgrwt>
<rscale>  0 0.22281949E+04</rscale>
<asrwt>0</asrwt>
<pdfrwt beam="1">  1        2 0.22514614E+00 0.22281949E+04</pdfrwt>
<pdfrwt beam="2">  1       -2 0.13048336E+00 0.22281949E+04</pdfrwt>
<totfact> 0.52244837E+00</totfact>
</mgrwt>
</event>
<event>
12    1  0.3914744E-007  0.2008347E+04  0.7818608E-02  0.8602728E-01
         -2   -1    0    0    0  501 -0.00000000000E+00  0.00000000000E+00  0.83402391280E+03  0.83402391280E+03  0.00000000000E+00 0.  1.
          2   -1    0    0  501    0  0.00000000000E+00 -0.00000000000E+00 -0.12090356234E+04  0.12090356234E+04  0.00000000000E+00 0. -1.
         23    2    1    2    0    0 -0.85408943442E+02  0.66613446589E+03 -0.58839103393E+03  0.89571533036E+03  0.71218887657E+02 0.  0.
        254    2    1    2    0    0  0.85408943442E+02 -0.66613446589E+03  0.21337932330E+03  0.11473442059E+04  0.90544915752E+03 0.  0.
        -24    2    4    4    0    0 -0.20893564976E+03 -0.46981558337E+03  0.47136120697E+03  0.70214094820E+03  0.80247963098E+02 0.  0.
         24    2    4    4    0    0  0.29434459320E+03 -0.19631888252E+03 -0.25798188367E+03  0.44520325767E+03  0.80445292938E+02 0.  0.
         13    1    3    3    0    0 -0.29213976422E+02  0.43951286612E+03 -0.35688918941E+03  0.56691702164E+03  0.00000000000E+00 0. -1.
        -13    1    3    3    0    0 -0.56194967020E+02  0.22662159977E+03 -0.23150184452E+03  0.32879830872E+03  0.00000000000E+00 0.  1.
          2    1    6    6  502    0  0.16220907671E+03 -0.15379277118E+03 -0.17044112113E+03  0.28109460473E+03  0.00000000000E+00 0. -1.
          3    1    5    5  503    0 -0.11398695776E+03 -0.23546093915E+03  0.29250208494E+03  0.39241859041E+03  0.00000000000E+00 0. -1.
         -4    1    5    5    0  503 -0.94948692003E+02 -0.23435464422E+03  0.17885912203E+03  0.30972235779E+03  0.00000000000E+00 0.  1.
         -1    1    6    6    0  502  0.13213551649E+03 -0.42526111340E+02 -0.87540762534E+02  0.16410865294E+03  0.00000000000E+00 0.  1.
<mgrwt>
<rscale>  0 0.20083472E+04</rscale>
<asrwt>0</asrwt>
<pdfrwt beam="1">  1        2 0.18600548E+00 0.20083472E+04</pdfrwt>
<pdfrwt beam="2">  1       -2 0.12831137E+00 0.20083472E+04</pdfrwt>
<totfact> 0.77978291E+00</totfact>
</mgrwt>
</event>
<event>
12    1  0.2433511E-007  0.1656508E+04  0.7818608E-02  0.8786566E-01
          1   -1    0    0  501    0  0.00000000000E+00  0.00000000000E+00  0.58873624519E+03  0.58873624519E+03  0.00000000000E+00 0. -1.
         -1   -1    0    0    0  501 -0.00000000000E+00 -0.00000000000E+00 -0.11652153622E+04  0.11652153622E+04  0.00000000000E+00 0.  1.
         23    2    1    2    0    0 -0.41486331264E+03 -0.15811262916E+03 -0.59770979472E+03  0.74993728015E+03  0.89653520682E+02 0.  0.
        254    2    1    2    0    0  0.41486331264E+03  0.15811262916E+03  0.21230677691E+02  0.10040143273E+04  0.90026821338E+03 0.  0.
        -24    2    4    4    0    0  0.23578434765E+03 -0.36122864209E+03 -0.60743231171E+02  0.44290873290E+03  0.79987593311E+02 0.  0.
         24    2    4    4    0    0  0.17907896499E+03  0.51934127125E+03  0.81973908862E+02  0.56110559437E+03  0.79593558656E+02 0.  0.
         11    1    3    3    0    0 -0.18508437436E+03 -0.91568517057E+02 -0.21111500964E+03  0.29531435157E+03  0.00000000000E+00 0. -1.
        -11    1    3    3    0    0 -0.22977893828E+03 -0.66544112098E+02 -0.38659478509E+03  0.45462292858E+03  0.00000000000E+00 0.  1.
          4    1    6    6  502    0  0.57303813338E+02  0.14399784421E+03  0.59008015217E+02  0.16583441144E+03  0.00000000000E+00 0. -1.
          1    1    5    5  503    0  0.11037981031E+03 -0.16348729533E+03 -0.67972836115E+02  0.20864348709E+03  0.00000000000E+00 0. -1.
         -2    1    5    5    0  503  0.12540453735E+03 -0.19774134676E+03  0.72296049439E+01  0.23426524581E+03  0.00000000000E+00 0.  1.
         -3    1    6    6    0  502  0.12177515165E+03  0.37534342704E+03  0.22965893645E+02  0.39527118293E+03  0.00000000000E+00 0.  1.
<mgrwt>
<rscale>  0 0.16565078E+04</rscale>
<asrwt>0</asrwt>
<pdfrwt beam="1">  1        1 0.90574808E-01 0.16565078E+04</pdfrwt>
<pdfrwt beam="2">  1       -1 0.17926390E+00 0.16565078E+04</pdfrwt>
<totfact> 0.70811010E+00</totfact>
</mgrwt>
</event>
<event>
12    1  0.2433511E-007  0.2384103E+04  0.7818608E-02  0.8445479E-01
         -2   -1    0    0    0  501 -0.00000000000E+00  0.00000000000E+00  0.91754561359E+03  0.91754561359E+03  0.00000000000E+00 0.  1.
          2   -1    0    0  501    0  0.00000000000E+00 -0.00000000000E+00 -0.15486828373E+04  0.15486828373E+04  0.00000000000E+00 0. -1.
         23    2    1    2    0    0 -0.17303107213E+03 -0.92852523809E+03  0.12814345442E+03  0.95739848713E+03  0.89956926121E+02 0.  0.
        254    2    1    2    0    0  0.17303107213E+03  0.92852523809E+03 -0.75928067810E+03  0.15088299637E+04  0.89886697660E+03 0.  0.
        -24    2    4    4    0    0 -0.32612408769E+03  0.63589507231E+03 -0.43630717367E+03  0.84121708347E+03  0.81010913911E+02 0.  0.
         24    2    4    4    0    0  0.49915515982E+03  0.29263016578E+03 -0.32297350443E+03  0.66761288026E+03  0.81282137152E+02 0.  0.
         13    1    3    3    0    0 -0.13392033989E+03 -0.73513578830E+03  0.64183619109E+02  0.74998588095E+03  0.00000000000E+00 0. -1.
        -13    1    3    3    0    0 -0.39110732237E+02 -0.19338944979E+03  0.63959835307E+02  0.20741260617E+03  0.00000000000E+00 0.  1.
          4    1    6    6  502    0  0.19563614782E+03  0.12597394723E+03 -0.17455471621E+03  0.29088191189E+03  0.00000000000E+00 0. -1.
          3    1    5    5  503    0 -0.26831444219E+03  0.49716763978E+03 -0.30711296505E+03  0.64302929578E+03  0.00000000000E+00 0. -1.
         -4    1    5    5    0  503 -0.57809645503E+02  0.13872743252E+03 -0.12919420862E+03  0.19818778769E+03  0.00000000000E+00 0.  1.
         -3    1    6    6    0  502  0.30351901201E+03  0.16665621855E+03 -0.14841878822E+03  0.37673096837E+03  0.00000000000E+00 0.  1.
<mgrwt>
<rscale>  0 0.23841033E+04</rscale>
<asrwt>0</asrwt>
<pdfrwt beam="1">  1        2 0.23825890E+00 0.23841033E+04</pdfrwt>
<pdfrwt beam="2">  1       -2 0.14116086E+00 0.23841033E+04</pdfrwt>
<totfact> 0.37723039E+00</totfact>
</mgrwt>
</event>
<event>
12    1  0.2433511E-007  0.2240712E+04  0.7818608E-02  0.8501672E-01
         -1   -1    0    0    0  501 -0.00000000000E+00  0.00000000000E+00  0.11059533828E+04  0.11059533828E+04  0.00000000000E+00 0.  1.
          1   -1    0    0  501    0  0.00000000000E+00 -0.00000000000E+00 -0.11349458546E+04  0.11349458546E+04  0.00000000000E+00 0. -1.
         23    2    1    2    0    0  0.14371736043E+03  0.81224276101E+03  0.43298507858E+03  0.93582992612E+03  0.88930252774E+02 0.  0.
        254    2    1    2    0    0 -0.14371736043E+03 -0.81224276101E+03 -0.46197755038E+03  0.13050693113E+04  0.89966086256E+03 0.  0.
        -24    2    4    4    0    0  0.35212879312E+03 -0.23075171909E+03 -0.45271153256E+02  0.43085953453E+03  0.79683237691E+02 0.  0.
         24    2    4    4    0    0 -0.49584615355E+03 -0.58149104192E+03 -0.41670639713E+03  0.87420977673E+03  0.81260522363E+02 0.  0.
         13    1    3    3    0    0  0.11939700458E+03  0.71257589152E+03  0.40985671380E+03  0.83066393429E+03  0.00000000000E+00 0.  1.
        -13    1    3    3    0    0  0.24320355852E+02  0.99666869481E+02  0.23128364786E+02  0.10516599183E+03  0.00000000000E+00 0. -1.
          4    1    6    6  502    0 -0.15530138131E+03 -0.12764691106E+03 -0.10370461523E+03  0.22620101715E+03  0.00000000000E+00 0. -1.
          1    1    5    5  503    0  0.13103653467E+03 -0.12173001105E+03  0.64958855603E+01  0.17897196859E+03  0.00000000000E+00 0. -1.
         -2    1    5    5    0  503  0.22109225845E+03 -0.10902170803E+03 -0.51767038816E+02  0.25188756594E+03  0.00000000000E+00 0.  1.
         -3    1    6    6    0  502 -0.34054477224E+03 -0.45384413086E+03 -0.31300178190E+03  0.64800875958E+03  0.00000000000E+00 0.  1.
<mgrwt>
<rscale>  0 0.22407117E+04</rscale>
<asrwt>0</asrwt>
<pdfrwt beam="1">  1        1 0.17460705E+00 0.22407117E+04</pdfrwt>
<pdfrwt beam="2">  1       -1 0.17014667E+00 0.22407117E+04</pdfrwt>
<totfact> 0.26619088E+00</totfact>
</mgrwt>
</event>
<event>
12    1  0.2433511E-007  0.1417347E+04  0.7818608E-02  0.8941357E-01
         -1   -1    0    0    0  501 -0.00000000000E+00  0.00000000000E+00  0.14593479638E+04  0.14593479638E+04  0.00000000000E+00 0.  1.
          1   -1    0    0  501    0  0.00000000000E+00 -0.00000000000E+00 -0.34413873850E+03  0.34413873850E+03  0.00000000000E+00 0. -1.
         23    2    1    2    0    0  0.13565211165E+03 -0.36291862549E+03  0.52648448983E+03  0.66023415237E+03  0.92799751057E+02 0.  0.
        254    2    1    2    0    0 -0.13565211165E+03  0.36291862549E+03  0.58872473546E+03  0.11432525499E+04  0.90017673522E+03 0.  0.
        -24    2    4    4    0    0 -0.10561986442E+03 -0.11472897053E+03  0.63187194063E+03  0.65601362149E+03  0.82300849225E+02 0.  0.
         24    2    4    4    0    0 -0.30032247234E+02  0.47764759602E+03 -0.43147205178E+02  0.48723892843E+03  0.80566309338E+02 0.  0.
         11    1    3    3    0    0  0.28101116097E+02 -0.18351660436E+03  0.29189032968E+03  0.34593060195E+03  0.00000000000E+00 0. -1.
        -11    1    3    3    0    0  0.10755099555E+03 -0.17940202113E+03  0.23459416015E+03  0.31430355042E+03  0.00000000000E+00 0.  1.
          4    1    6    6  502    0  0.16521640974E+02  0.26405691111E+02 -0.84644059400E+01  0.32278031406E+02  0.00000000000E+00 0. -1.
          3    1    5    5  503    0 -0.52267776299E+02 -0.21991035598E+02  0.11543801781E+03  0.12861361530E+03  0.00000000000E+00 0. -1.
         -4    1    5    5    0  503 -0.53352088120E+02 -0.92737934936E+02  0.51643392282E+03  0.52740000619E+03  0.00000000000E+00 0.  1.
         -3    1    6    6    0  502 -0.46553888208E+02  0.45124190491E+03 -0.34682799238E+02  0.45496089702E+03  0.00000000000E+00 0.  1.
<mgrwt>
<rscale>  0 0.14173471E+04</rscale>
<asrwt>0</asrwt>
<pdfrwt beam="1">  1        1 0.52944422E-01 0.14173471E+04</pdfrwt>
<pdfrwt beam="2">  1       -1 0.22451507E+00 0.14173471E+04</pdfrwt>
<totfact> 0.73222644E+00</totfact>
</mgrwt>
</event>
<event>
12    1  0.2433511E-007  0.2371863E+04  0.7818608E-02  0.8450113E-01
          2   -1    0    0  501    0  0.00000000000E+00  0.00000000000E+00  0.30569934898E+04  0.30569934898E+04  0.00000000000E+00 0. -1.
         -2   -1    0    0    0  501 -0.00000000000E+00 -0.00000000000E+00 -0.46007069316E+03  0.46007069316E+03  0.00000000000E+00 0.  1.
         23    2    1    2    0    0  0.43944951123E+03  0.67385297386E+03  0.20215147871E+03  0.83489398032E+03  0.94810520191E+02 0.  0.
        254    2    1    2    0    0 -0.43944951123E+03 -0.67385297386E+03  0.23947713179E+04  0.26821702026E+04  0.90106249919E+03 0.  0.
        -24    2    4    4    0    0 -0.43933458782E+03 -0.76379541924E+03  0.24041653544E+04  0.25618131291E+04  0.80480646886E+02 0.  0.
         24    2    4    4    0    0 -0.11492341778E+00  0.89942445386E+02 -0.93940364976E+01  0.12035707353E+03  0.79422418363E+02 0.  0.
         11    1    3    3    0    0  0.17716502994E+03  0.35567658485E+03  0.11142210947E+03  0.41268410113E+03  0.00000000000E+00 0. -1.
        -11    1    3    3    0    0  0.26228448130E+03  0.31817638900E+03  0.90729369233E+02  0.42220987919E+03  0.00000000000E+00 0.  1.
          4    1    6    6  502    0 -0.12801503686E+02  0.83087250615E+02  0.21056594507E+02  0.86664582637E+02  0.00000000000E+00 0. -1.
          3    1    5    5  503    0 -0.20614594694E+03 -0.43821826198E+03  0.13028608467E+04  0.13899560362E+04  0.00000000000E+00 0. -1.
         -4    1    5    5    0  503 -0.23318864088E+03 -0.32557715726E+03  0.11013045077E+04  0.11718570929E+04  0.00000000000E+00 0.  1.
         -3    1    6    6    0  502  0.12686580268E+02  0.68551947703E+01 -0.30450631005E+02  0.33692490897E+02  0.00000000000E+00 0.  1.
<mgrwt>
<rscale>  0 0.23718627E+04</rscale>
<asrwt>0</asrwt>
<pdfrwt beam="1">  1        2 0.47030668E+00 0.23718627E+04</pdfrwt>
<pdfrwt beam="2">  1       -2 0.70780108E-01 0.23718627E+04</pdfrwt>
<totfact> 0.26228934E+00</totfact>
</mgrwt>
</event>
<event>
12    1  0.2433511E-007  0.1564716E+04  0.7818608E-02  0.8842522E-01
          2   -1    0    0  501    0  0.00000000000E+00  0.00000000000E+00  0.46518031781E+03  0.46518031781E+03  0.00000000000E+00 0. -1.
         -2   -1    0    0    0  501 -0.00000000000E+00 -0.00000000000E+00 -0.13157994525E+04  0.13157994525E+04  0.00000000000E+00 0.  1.
         23    2    1    2    0    0 -0.40242143210E+03 -0.29501605074E+03 -0.43193950609E+03  0.66870747585E+03  0.10779829374E+03 0.  0.
        254    2    1    2    0    0  0.40242143210E+03  0.29501605074E+03 -0.41867962860E+03  0.11122722945E+04  0.90159832874E+03 0.  0.
        -24    2    4    4    0    0  0.75683176201E+02 -0.25197367408E+03 -0.38019587030E+03  0.46919456278E+03  0.79849623424E+02 0.  0.
         24    2    4    4    0    0  0.32673825590E+03  0.54698972481E+03 -0.38483758301E+02  0.64307773167E+03  0.78181343035E+02 0.  0.
         11    1    3    3    0    0 -0.10647038220E+03 -0.13904499857E+03 -0.13058213435E+03  0.21845170570E+03  0.00000000000E+00 0. -1.
        -11    1    3    3    0    0 -0.29595104990E+03 -0.15597105217E+03 -0.30135737174E+03  0.45025577015E+03  0.00000000000E+00 0.  1.
          4    1    6    6  502    0  0.30464503875E+03  0.50839763131E+03 -0.15197134323E+02  0.59288085147E+03  0.00000000000E+00 0. -1.
          3    1    5    5  503    0  0.71018611673E+02 -0.24405685508E+03 -0.32178132478E+03  0.41006171815E+03  0.00000000000E+00 0. -1.
         -4    1    5    5    0  503  0.46645645279E+01 -0.79168189922E+01 -0.58414545522E+02  0.59132844628E+02  0.00000000000E+00 0.  1.
         -3    1    6    6    0  502  0.22093217152E+02  0.38592093508E+02 -0.23286623978E+02  0.50196880199E+02  0.00000000000E+00 0.  1.
<mgrwt>
<rscale>  0 0.15647160E+04</rscale>
<asrwt>0</asrwt>
<pdfrwt beam="1">  1        2 0.71566203E-01 0.15647160E+04</pdfrwt>
<pdfrwt beam="2">  1       -2 0.20243068E+00 0.15647160E+04</pdfrwt>
<totfact> 0.82449125E+00</totfact>
</mgrwt>
</event>
<event>
12    1  0.2433511E-007  0.3081509E+04  0.7818608E-02  0.8220831E-01
          1   -1    0    0  501    0  0.00000000000E+00  0.00000000000E+00  0.27730006597E+04  0.27730006597E+04  0.00000000000E+00 0. -1.
         -1   -1    0    0    0  501 -0.00000000000E+00 -0.00000000000E+00 -0.85608511173E+03  0.85608511173E+03  0.00000000000E+00 0.  1.
         23    2    1    2    0    0 -0.13721913026E+04 -0.28386926890E+03  0.99967493153E+03  0.17236215304E+04  0.89612937819E+02 0.  0.
        254    2    1    2    0    0  0.13721913026E+04  0.28386926890E+03  0.91724061641E+03  0.19054642410E+04  0.90883050823E+03 0.  0.
        -24    2    4    4    0    0  0.11807427281E+04 -0.12781022953E+03  0.78222900820E+03  0.14248723413E+04  0.88826364040E+02 0.  0.
         24    2    4    4    0    0  0.19144857447E+03  0.41167949842E+03  0.13501160822E+03  0.48059189972E+03  0.81288828502E+02 0.  0.
         13    1    3    3    0    0 -0.49877137611E+03 -0.14694913650E+03  0.37750021960E+03  0.64255221589E+03  0.00000000000E+00 0.  1.
        -13    1    3    3    0    0 -0.87341992646E+03 -0.13692013239E+03  0.62217471193E+03  0.10810693145E+04  0.00000000000E+00 0. -1.
          2    1    6    6  502    0  0.86765189242E+02  0.12973412023E+03  0.15050937940E+02  0.15679818478E+03  0.00000000000E+00 0. -1.
          1    1    5    5  503    0  0.31583393361E+03 -0.70930420863E+02  0.19485167289E+03  0.37782187953E+03  0.00000000000E+00 0. -1.
         -2    1    5    5    0  503  0.86490879450E+03 -0.56879808663E+02  0.58737733531E+03  0.10470504618E+04  0.00000000000E+00 0.  1.
         -1    1    6    6    0  502  0.10468338522E+03  0.28194537819E+03  0.11996067028E+03  0.32379371494E+03  0.00000000000E+00 0.  1.
<mgrwt>
<rscale>  0 0.30815091E+04</rscale>
<asrwt>0</asrwt>
<pdfrwt beam="1">  1        1 0.42661548E+00 0.30815091E+04</pdfrwt>
<pdfrwt beam="2">  1       -1 0.13170540E+00 0.30815091E+04</pdfrwt>
<totfact> 0.36102265E-01</totfact>
</mgrwt>
</event>
<event>
12    1  0.2433511E-007  0.2122183E+04  0.7818608E-02  0.8551534E-01
         -2   -1    0    0    0  501 -0.00000000000E+00  0.00000000000E+00  0.12483403301E+04  0.12483403301E+04  0.00000000000E+00 0.  1.
          2   -1    0    0  501    0  0.00000000000E+00 -0.00000000000E+00 -0.90192923722E+03  0.90192923722E+03  0.00000000000E+00 0. -1.
         23    2    1    2    0    0  0.13250289902E+02  0.84781347730E+03  0.33430097428E+03  0.91604242506E+03  0.91724155162E+02 0.  0.
        254    2    1    2    0    0 -0.13250289902E+02 -0.84781347730E+03  0.12110118607E+02  0.12342271423E+04  0.89677573632E+03 0.  0.
        -24    2    4    4    0    0 -0.40499585641E+03 -0.65813197756E+03  0.98343959546E+02  0.78305109874E+03  0.79612469202E+02 0.  0.
         24    2    4    4    0    0  0.39174556651E+03 -0.18968149973E+03 -0.86233840939E+02  0.45117604353E+03  0.81730573885E+02 0.  0.
         11    1    3    3    0    0  0.17201148004E+02  0.74677254626E+03  0.32463001672E+03  0.81446286785E+03  0.00000000000E+00 0.  1.
        -11    1    3    3    0    0 -0.39508581027E+01  0.10104093103E+03  0.96709575585E+01  0.10157955722E+03  0.00000000000E+00 0. -1.
          2    1    6    6  502    0  0.31223059558E+03 -0.13784409948E+03 -0.34421774340E+02  0.34303614843E+03  0.00000000000E+00 0. -1.
          1    1    5    5  503    0 -0.27375321381E+03 -0.47510865493E+03  0.36742885500E+02  0.54956264037E+03  0.00000000000E+00 0. -1.
         -2    1    5    5    0  503 -0.13124264261E+03 -0.18302332263E+03  0.61601074046E+02  0.23348845837E+03  0.00000000000E+00 0.  1.
         -1    1    6    6    0  502  0.79514970927E+02 -0.51837400258E+02 -0.51812066599E+02  0.10813989510E+03  0.00000000000E+00 0.  1.
<mgrwt>
<rscale>  0 0.21221825E+04</rscale>
<asrwt>0</asrwt>
<pdfrwt beam="1">  1        2 0.13875834E+00 0.21221825E+04</pdfrwt>
<pdfrwt beam="2">  1       -2 0.19205236E+00 0.21221825E+04</pdfrwt>
<totfact> 0.40368156E+00</totfact>
</mgrwt>
</event>
<event>
12    1  0.2433511E-007  0.2112926E+04  0.7818608E-02  0.8555571E-01
          2   -1    0    0  501    0  0.00000000000E+00  0.00000000000E+00  0.66908869486E+03  0.66908869486E+03  0.00000000000E+00 0. -1.
         -2   -1    0    0    0  501 -0.00000000000E+00 -0.00000000000E+00 -0.16681112082E+04  0.16681112082E+04  0.00000000000E+00 0.  1.
         23    2    1    2    0    0 -0.67979183460E+03  0.28804779536E+03 -0.90144954712E+03  0.11687276931E+04  0.90689932128E+02 0.  0.
        254    2    1    2    0    0  0.67979183460E+03 -0.28804779536E+03 -0.97572966202E+02  0.11684722099E+04  0.90039899538E+03 0.  0.
        -24    2    4    4    0    0  0.38741544878E+03 -0.16903228914E+03  0.39042658367E+03  0.58099459701E+03  0.80368898175E+02 0.  0.
         24    2    4    4    0    0  0.29237638583E+03 -0.11901550621E+03 -0.48799954988E+03  0.58747761293E+03  0.85660628686E+02 0.  0.
         11    1    3    3    0    0 -0.31043116824E+03  0.13201498102E+03 -0.48343771362E+03  0.58949765765E+03  0.00000000000E+00 0.  1.
        -11    1    3    3    0    0 -0.36936066636E+03  0.15603281434E+03 -0.41801183350E+03  0.57923003544E+03  0.00000000000E+00 0. -1.
          2    1    6    6  502    0  0.40480358949E+01 -0.92013280657E+01  0.85533598692E-01  0.10052778162E+02  0.00000000000E+00 0. -1.
          3    1    5    5  503    0  0.20222166794E+03 -0.10981026369E+03  0.16416899402E+03  0.28267181606E+03  0.00000000000E+00 0. -1.
         -4    1    5    5    0  503  0.18519378083E+03 -0.59222025451E+02  0.22625758965E+03  0.29832278095E+03  0.00000000000E+00 0.  1.
         -3    1    6    6    0  502  0.28832834993E+03 -0.10981417815E+03 -0.48808508348E+03  0.57742483477E+03  0.00000000000E+00 0.  1.
<mgrwt>
<rscale>  0 0.21129263E+04</rscale>
<asrwt>0</asrwt>
<pdfrwt beam="1">  1        2 0.10293672E+00 0.21129263E+04</pdfrwt>
<pdfrwt beam="2">  1       -2 0.25663249E+00 0.21129263E+04</pdfrwt>
<totfact> 0.23357241E+00</totfact>
</mgrwt>
</event>
<event>
12    1  0.2433511E-007  0.2481269E+04  0.7818608E-02  0.8409689E-01
         -1   -1    0    0    0  501 -0.00000000000E+00  0.00000000000E+00  0.16447190467E+04  0.16447190467E+04  0.00000000000E+00 0.  1.
          1   -1    0    0  501    0  0.00000000000E+00 -0.00000000000E+00 -0.93582769834E+03  0.93582769834E+03  0.00000000000E+00 0. -1.
         23    2    1    2    0    0 -0.10751784924E+04  0.12191695613E+02  0.25882287959E+03  0.11096125422E+04  0.89962673843E+02 0.  0.
        254    2    1    2    0    0  0.10751784924E+04 -0.12191695613E+02  0.45006846877E+03  0.14709342029E+04  0.89717800605E+03 0.  0.
        -24    2    4    4    0    0  0.54589626025E+03  0.43503643362E+03  0.20400980703E+03  0.73161115723E+03  0.79846468202E+02 0.  0.
         24    2    4    4    0    0  0.52928223218E+03 -0.44722812923E+03  0.24605866174E+03  0.73932304564E+03  0.76818096219E+02 0.  0.
         13    1    3    3    0    0 -0.72269182161E+03 -0.33311653810E+02  0.18175955395E+03  0.74594213633E+03  0.00000000000E+00 0. -1.
        -13    1    3    3    0    0 -0.35248667082E+03  0.45503349423E+02  0.77063325639E+02  0.36367040583E+03  0.00000000000E+00 0.  1.
          2    1    6    6  502    0  0.21949626942E+03 -0.21681640667E+03  0.77872489424E+02  0.31820133736E+03  0.00000000000E+00 0. -1.
          3    1    5    5  503    0  0.14680875877E+03  0.10260101124E+03  0.87307400628E+02  0.19925451404E+03  0.00000000000E+00 0. -1.
         -4    1    5    5    0  503  0.39908750148E+03  0.33243542238E+03  0.11670240640E+03  0.53235664319E+03  0.00000000000E+00 0.  1.
         -1    1    6    6    0  502  0.30978596276E+03 -0.23041172257E+03  0.16818617232E+03  0.42112170827E+03  0.00000000000E+00 0.  1.
<mgrwt>
<rscale>  0 0.24812687E+04</rscale>
<asrwt>0</asrwt>
<pdfrwt beam="1">  1        1 0.14397349E+00 0.24812687E+04</pdfrwt>
<pdfrwt beam="2">  1       -1 0.25303370E+00 0.24812687E+04</pdfrwt>
<totfact> 0.10084775E+00</totfact>
</mgrwt>
</event>
<event>
12    1  0.2433511E-007  0.1931324E+04  0.7818608E-02  0.8639420E-01
         -1   -1    0    0    0  501 -0.00000000000E+00  0.00000000000E+00  0.47209067223E+03  0.47209067223E+03  0.00000000000E+00 0.  1.
          1   -1    0    0  501    0  0.00000000000E+00 -0.00000000000E+00 -0.19752625352E+04  0.19752625352E+04  0.00000000000E+00 0. -1.
         23    2    1    2    0    0 -0.58001361461E+03 -0.17926763172E+03 -0.27413474649E+02  0.61496772374E+03  0.94239724799E+02 0.  0.
        254    2    1    2    0    0  0.58001361461E+03  0.17926763172E+03 -0.14757583884E+04  0.18323854837E+04  0.90067811302E+03 0.  0.
        -24    2    4    4    0    0 -0.53881347431E+02  0.35501359028E+03 -0.26656266443E+03  0.45354589620E+03  0.75567036501E+02 0.  0.
         24    2    4    4    0    0  0.63389496204E+03 -0.17574595856E+03 -0.12091957239E+04  0.13788395875E+04  0.79591736549E+02 0.  0.
         11    1    3    3    0    0 -0.53856139994E+02  0.95999767191E+01  0.54398716611E+01  0.54974863090E+02  0.00000000000E+00 0. -1.
        -11    1    3    3    0    0 -0.52615747461E+03 -0.18886760844E+03 -0.32853346310E+02  0.55999286065E+03  0.00000000000E+00 0.  1.
          4    1    6    6  502    0  0.39261626078E+03 -0.14849412720E+03 -0.77256092450E+03  0.87923171924E+03  0.00000000000E+00 0. -1.
          1    1    5    5  503    0 -0.56610133313E+02  0.33238229440E+03 -0.26800076977E+03  0.43070536266E+03  0.00000000000E+00 0. -1.
         -2    1    5    5    0  503  0.27287858822E+01  0.22631295879E+02  0.14381053357E+01  0.22840533543E+02  0.00000000000E+00 0.  1.
         -3    1    6    6    0  502  0.24127870126E+03 -0.27251831369E+02 -0.43663479942E+03  0.49960786829E+03  0.00000000000E+00 0.  1.
<mgrwt>
<rscale>  0 0.19313239E+04</rscale>
<asrwt>0</asrwt>
<pdfrwt beam="1">  1        1 0.30388655E+00 0.19313239E+04</pdfrwt>
<pdfrwt beam="2">  1       -1 0.72629333E-01 0.19313239E+04</pdfrwt>
<totfact> 0.55255375E+00</totfact>
</mgrwt>
</event>
<event>
12    1  0.2433511E-007  0.3309718E+04  0.7818608E-02  0.8160427E-01
         -1   -1    0    0    0  501 -0.00000000000E+00  0.00000000000E+00  0.98231418733E+03  0.98231418733E+03  0.00000000000E+00 0.  1.
          1   -1    0    0  501    0  0.00000000000E+00 -0.00000000000E+00 -0.27878632193E+04  0.27878632193E+04  0.00000000000E+00 0. -1.
         23    2    1    2    0    0 -0.76976548695E+03  0.11653203134E+04 -0.12196366817E+03  0.14047387370E+04  0.88912571019E+02 0.  0.
        254    2    1    2    0    0  0.76976548695E+03 -0.11653203134E+04 -0.16835853638E+04  0.23654386696E+04  0.90018336180E+03 0.  0.
        -24    2    4    4    0    0  0.38129273327E+03 -0.77677395249E+03 -0.38034781029E+03  0.94845236557E+03  0.78329504390E+02 0.  0.
         24    2    4    4    0    0  0.38847275368E+03 -0.38854636088E+03 -0.13032375535E+04  0.14169863040E+04  0.86848777081E+02 0.  0.
         11    1    3    3    0    0 -0.24429135827E+03  0.29969468363E+03 -0.42979410247E+02  0.38902750651E+03  0.00000000000E+00 0. -1.
        -11    1    3    3    0    0 -0.52547412868E+03  0.86562562974E+03 -0.78984257920E+02  0.10157112305E+04  0.00000000000E+00 0.  1.
          2    1    6    6  502    0  0.38160749052E+03 -0.35621018590E+03 -0.12012551991E+04  0.13097801444E+04  0.00000000000E+00 0. -1.
          1    1    5    5  503    0  0.15493138963E+03 -0.38731445201E+03 -0.20811389061E+03  0.46618409636E+03  0.00000000000E+00 0. -1.
         -2    1    5    5    0  503  0.22636134363E+03 -0.38945950047E+03 -0.17223391969E+03  0.48226826921E+03  0.00000000000E+00 0.  1.
         -1    1    6    6    0  502  0.68652631543E+01 -0.32336174975E+02 -0.10198235441E+03  0.10720615963E+03  0.00000000000E+00 0.  1.
<mgrwt>
<rscale>  0 0.33097176E+04</rscale>
<asrwt>0</asrwt>
<pdfrwt beam="1">  1        1 0.42890202E+00 0.33097176E+04</pdfrwt>
<pdfrwt beam="2">  1       -1 0.15112526E+00 0.33097176E+04</pdfrwt>
<totfact> 0.24082568E-01</totfact>
</mgrwt>
</event>
<event>
12    1  0.2433511E-007  0.3266035E+04  0.7818608E-02  0.8171592E-01
          1   -1    0    0  501    0  0.00000000000E+00  0.00000000000E+00  0.12278515757E+04  0.12278515757E+04  0.00000000000E+00 0. -1.
         -1   -1    0    0    0  501 -0.00000000000E+00 -0.00000000000E+00 -0.21718792488E+04  0.21718792488E+04  0.00000000000E+00 0.  1.
         23    2    1    2    0    0 -0.10172299443E+04  0.14989251331E+03 -0.15815884552E+04  0.18886361949E+04  0.91104939821E+02 0.  0.
        254    2    1    2    0    0  0.10172299443E+04 -0.14989251331E+03  0.63756078214E+03  0.15110946296E+04  0.90537213546E+03 0.  0.
        -24    2    4    4    0    0  0.29552568782E+03 -0.49123057187E+02  0.70952027404E+03  0.77441866304E+03  0.80973696194E+02 0.  0.
         24    2    4    4    0    0  0.72170425645E+03 -0.10076945613E+03 -0.71959491897E+02  0.73667596658E+03  0.80633703849E+02 0.  0.
         13    1    3    3    0    0 -0.51088798637E+03  0.12087799175E+03 -0.79294356721E+03  0.95098765727E+03  0.00000000000E+00 0. -1.
        -13    1    3    3    0    0 -0.50634195790E+03  0.29014521565E+02 -0.78864488799E+03  0.93764853764E+03  0.00000000000E+00 0.  1.
          2    1    6    6  502    0  0.36084438261E+03 -0.62974954019E+02 -0.74672388723E+02  0.37383215342E+03  0.00000000000E+00 0. -1.
          3    1    5    5  503    0  0.21969473663E+03 -0.28615030556E+02  0.42535257940E+03  0.47959296708E+03  0.00000000000E+00 0. -1.
         -4    1    5    5    0  503  0.75830951188E+02 -0.20508026631E+02  0.28416769464E+03  0.29482569595E+03  0.00000000000E+00 0.  1.
         -1    1    6    6    0  502  0.36085987385E+03 -0.37794502109E+02  0.27128968266E+01  0.36284381316E+03  0.00000000000E+00 0.  1.
<mgrwt>
<rscale>  0 0.32660345E+04</rscale>
<asrwt>0</asrwt>
<pdfrwt beam="1">  1        1 0.18890025E+00 0.32660345E+04</pdfrwt>
<pdfrwt beam="2">  1       -1 0.33413526E+00 0.32660345E+04</pdfrwt>
<totfact> 0.16772049E-01</totfact>
</mgrwt>
</event>
<event>
12    1  0.2433511E-007  0.3373197E+04  0.7818608E-02  0.8144516E-01
         -2   -1    0    0    0  501 -0.00000000000E+00  0.00000000000E+00  0.98670620780E+03  0.98670620780E+03  0.00000000000E+00 0.  1.
          2   -1    0    0  501    0  0.00000000000E+00 -0.00000000000E+00 -0.28829394333E+04  0.28829394333E+04  0.00000000000E+00 0. -1.
         23    2    1    2    0    0 -0.12551711361E+04  0.68885986454E+03 -0.16064373999E+04  0.21538554713E+04  0.92031394320E+02 0.  0.
        254    2    1    2    0    0  0.12551711361E+04 -0.68885986454E+03 -0.28979582568E+03  0.17157901699E+04  0.89998432908E+03 0.  0.
        -24    2    4    4    0    0  0.63830190302E+03 -0.75756075705E+03  0.66040047941E+02  0.99602815014E+03  0.79894730226E+02 0.  0.
         24    2    4    4    0    0  0.61686923308E+03  0.68700892503E+02 -0.35583587362E+03  0.71976201974E+03  0.78681209664E+02 0.  0.
         13    1    3    3    0    0 -0.71222157074E+03  0.35826651845E+03 -0.94712749329E+03  0.12380084623E+04  0.00000000000E+00 0. -1.
        -13    1    3    3    0    0 -0.54294956536E+03  0.33059334610E+03 -0.65930990657E+03  0.91584700901E+03  0.00000000000E+00 0.  1.
          4    1    6    6  502    0  0.18474841101E+03  0.27863763648E+02 -0.67424769009E+02  0.19863147830E+03  0.00000000000E+00 0. -1.
          3    1    5    5  503    0  0.11565915832E+03 -0.13282164309E+03  0.42424970340E+02  0.18115879191E+03  0.00000000000E+00 0. -1.
         -4    1    5    5    0  503  0.52264274470E+03 -0.62473911395E+03  0.23615077602E+02  0.81486935823E+03  0.00000000000E+00 0.  1.
         -1    1    6    6    0  502  0.43212082207E+03  0.40837128855E+02 -0.28841110461E+03  0.52113054144E+03  0.00000000000E+00 0.  1.
<mgrwt>
<rscale>  0 0.33731968E+04</rscale>
<asrwt>0</asrwt>
<pdfrwt beam="1">  1        2 0.44352914E+00 0.33731968E+04</pdfrwt>
<pdfrwt beam="2">  1       -2 0.15180096E+00 0.33731968E+04</pdfrwt>
<totfact> 0.49571993E-01</totfact>
</mgrwt>
</event>
<event>
12    1  0.2433511E-007  0.3074469E+04  0.7818608E-02  0.8222780E-01
         -1   -1    0    0    0  501 -0.00000000000E+00  0.00000000000E+00  0.58147987893E+03  0.58147987893E+03  0.00000000000E+00 0.  1.
          1   -1    0    0  501    0  0.00000000000E+00 -0.00000000000E+00 -0.40639230854E+04  0.40639230854E+04  0.00000000000E+00 0. -1.
         23    2    1    2    0    0 -0.77843659948E+03 -0.97039517342E+03 -0.61187918573E+03  0.13893164559E+04  0.90408765121E+02 0.  0.
        254    2    1    2    0    0  0.77843659948E+03  0.97039517342E+03 -0.28705640207E+04  0.32560865084E+04  0.90240302575E+03 0.  0.
        -24    2    4    4    0    0  0.76271153502E+03  0.86279938598E+03 -0.15710866823E+04  0.19496719661E+04  0.82193346547E+02 0.  0.
         24    2    4    4    0    0  0.15725064454E+02  0.10759578744E+03 -0.12994773384E+04  0.13064145422E+04  0.79078896563E+02 0.  0.
         11    1    3    3    0    0 -0.63144451434E+03 -0.83379890454E+03 -0.49554977826E+03  0.11573730473E+04  0.00000000000E+00 0. -1.
        -11    1    3    3    0    0 -0.14699208514E+03 -0.13659626888E+03 -0.11632940748E+03  0.23194340864E+03  0.00000000000E+00 0.  1.
          4    1    6    6  502    0  0.39380852369E+02  0.74639872264E+02 -0.10745014528E+04  0.10778104352E+04  0.00000000000E+00 0. -1.
          1    1    5    5  503    0  0.58736760821E+03  0.65203361090E+03 -0.11376145059E+04  0.14367725293E+04  0.00000000000E+00 0. -1.
         -4    1    5    5    0  503  0.17534392681E+03  0.21076577508E+03 -0.43347217640E+03  0.51289943686E+03  0.00000000000E+00 0.  1.
         -3    1    6    6    0  502 -0.23655787915E+02  0.32955915180E+02 -0.22497588564E+03  0.22860410706E+03  0.00000000000E+00 0.  1.
<mgrwt>
<rscale>  0 0.30744687E+04</rscale>
<asrwt>0</asrwt>
<pdfrwt beam="1">  1        1 0.62521892E+00 0.30744687E+04</pdfrwt>
<pdfrwt beam="2">  1       -1 0.89458446E-01 0.30744687E+04</pdfrwt>
<totfact> 0.87063608E-02</totfact>
</mgrwt>
</event>
<event>
12    1  0.2433511E-007  0.1271801E+04  0.7818608E-02  0.9052231E-01
          2   -1    0    0  501    0  0.00000000000E+00  0.00000000000E+00  0.69813100363E+03  0.69813100363E+03  0.00000000000E+00 0.  1.
         -2   -1    0    0    0  501 -0.00000000000E+00 -0.00000000000E+00 -0.57921749784E+03  0.57921749784E+03  0.00000000000E+00 0. -1.
         23    2    1    2    0    0 -0.99610327718E+02 -0.25583931373E+03 -0.11080399600E+03  0.30948238778E+03  0.90143502162E+02 0.  0.
        254    2    1    2    0    0  0.99610327718E+02  0.25583931373E+03  0.22971750178E+03  0.96786611369E+03  0.89923229011E+03 0.  0.
        -24    2    4    4    0    0 -0.34362413674E+03  0.23597280038E+03  0.28839181275E+03  0.51311790566E+03  0.79746081912E+02 0.  0.
         24    2    4    4    0    0  0.44323446446E+03  0.19866513347E+02 -0.58674310965E+02  0.45474820803E+03  0.80633672273E+02 0.  0.
         11    1    3    3    0    0 -0.73683819553E+02 -0.73975179869E+02 -0.51669964316E+02  0.11649642790E+03  0.00000000000E+00 0.  1.
        -11    1    3    3    0    0 -0.25926508165E+02 -0.18186413386E+03 -0.59134031680E+02  0.19298595988E+03  0.00000000000E+00 0. -1.
          2    1    6    6  502    0  0.31498345520E+03 -0.22735859386E+02 -0.41771733567E+02  0.31855356548E+03  0.00000000000E+00 0. -1.
          3    1    5    5  503    0 -0.20257276222E+03  0.16332312721E+03  0.13815797471E+03  0.29461465316E+03  0.00000000000E+00 0. -1.
         -4    1    5    5    0  503 -0.14105137452E+03  0.72649673165E+02  0.15023383803E+03  0.21850325250E+03  0.00000000000E+00 0.  1.
         -1    1    6    6    0  502  0.12825100926E+03  0.42602372733E+02 -0.16902577398E+02  0.13619464256E+03  0.00000000000E+00 0.  1.
<mgrwt>
<rscale>  0 0.12718014E+04</rscale>
<asrwt>0</asrwt>
<pdfrwt beam="1">  1        2 0.10740477E+00 0.12718014E+04</pdfrwt>
<pdfrwt beam="2">  1       -2 0.89110384E-01 0.12718014E+04</pdfrwt>
<totfact> 0.43675200E+01</totfact>
</mgrwt>
</event>
<event>
12    1  0.2433511E-007  0.2553383E+04  0.7818608E-02  0.8384211E-01
         -2   -1    0    0    0  501 -0.00000000000E+00  0.00000000000E+00  0.16842955199E+04  0.16842955199E+04  0.00000000000E+00 0.  1.
          2   -1    0    0  501    0  0.00000000000E+00 -0.00000000000E+00 -0.96772888507E+03  0.96772888507E+03  0.00000000000E+00 0. -1.
         23    2    1    2    0    0  0.71713271213E+03 -0.52257902403E+03  0.10180212268E+04  0.13534704767E+04  0.90260457112E+02 0.  0.
        254    2    1    2    0    0 -0.71713271213E+03  0.52257902403E+03 -0.30145459192E+03  0.12985539282E+04  0.89888779633E+03 0.  0.
        -24    2    4    4    0    0 -0.19226566346E+03 -0.19206686691E+03 -0.29408614955E+03  0.40821341543E+03  0.79345840892E+02 0.  0.
         24    2    4    4    0    0 -0.52486704868E+03  0.71464589094E+03 -0.73684423606E+01  0.89034051281E+03  0.80297986164E+02 0.  0.
         11    1    3    3    0    0  0.51103361909E+03 -0.40890480988E+03  0.70710897437E+03  0.96351523342E+03  0.00000000000E+00 0.  1.
        -11    1    3    3    0    0  0.20609909304E+03 -0.11367421414E+03  0.31091225238E+03  0.38995524332E+03  0.00000000000E+00 0. -1.
          4    1    6    6  502    0 -0.25073363206E+03  0.27450278245E+03 -0.29809097751E+01  0.37179028718E+03  0.00000000000E+00 0. -1.
          3    1    5    5  503    0 -0.82431017396E+02 -0.85793455980E+02 -0.18684512983E+03  0.22150957600E+03  0.00000000000E+00 0. -1.
         -4    1    5    5    0  503 -0.10983464606E+03 -0.10627341093E+03 -0.10724101972E+03  0.18670383943E+03  0.00000000000E+00 0.  1.
         -3    1    6    6    0  502 -0.27413341662E+03  0.44014310849E+03 -0.43875325856E+01  0.51855022563E+03  0.00000000000E+00 0.  1.
<mgrwt>
<rscale>  0 0.25533832E+04</rscale>
<asrwt>0</asrwt>
<pdfrwt beam="1">  1        2 0.14888137E+00 0.25533832E+04</pdfrwt>
<pdfrwt beam="2">  1       -2 0.25912239E+00 0.25533832E+04</pdfrwt>
<totfact> 0.13256932E+00</totfact>
</mgrwt>
</event>
<event>
12    1  0.2433511E-007  0.1280579E+04  0.7818608E-02  0.9045110E-01
          1   -1    0    0  501    0  0.00000000000E+00  0.00000000000E+00  0.48663444819E+03  0.48663444819E+03  0.00000000000E+00 0. -1.
         -1   -1    0    0    0  501 -0.00000000000E+00 -0.00000000000E+00 -0.84246095431E+03  0.84246095431E+03  0.00000000000E+00 0.  1.
         23    2    1    2    0    0  0.10590960901E+03  0.10933257783E+03 -0.37832911753E+03  0.41652996622E+03  0.84816470863E+02 0.  0.
        254    2    1    2    0    0 -0.10590960901E+03 -0.10933257783E+03  0.22502611411E+02  0.91256543628E+03  0.89949922186E+03 0.  0.
        -24    2    4    4    0    0 -0.25560729859E+02 -0.45172308992E+02 -0.43078931341E+03  0.44101721069E+03  0.78885101029E+02 0.  0.
         24    2    4    4    0    0 -0.80348879146E+02 -0.64160268841E+02  0.45329192482E+03  0.47154822560E+03  0.79446066475E+02 0.  0.
         11    1    3    3    0    0  0.55817467964E+02  0.98481641550E+02 -0.18826964665E+03  0.21968086694E+03  0.00000000000E+00 0. -1.
        -11    1    3    3    0    0  0.50092141041E+02  0.10850936283E+02 -0.19005947088E+03  0.19684909927E+03  0.00000000000E+00 0.  1.
          4    1    6    6  502    0 -0.72113743643E+02 -0.39460736733E+02  0.42588427480E+03  0.43374526774E+03  0.00000000000E+00 0. -1.
          3    1    5    5  503    0 -0.43728407779E+01 -0.59751721545E+02 -0.37275700069E+03  0.37754095344E+03  0.00000000000E+00 0. -1.
         -4    1    5    5    0  503 -0.21187889081E+02  0.14579412553E+02 -0.58032312722E+02  0.63476257246E+02  0.00000000000E+00 0.  1.
         -3    1    6    6    0  502 -0.82351355032E+01 -0.24699532108E+02  0.27407650025E+02  0.37802957860E+02  0.00000000000E+00 0.  1.
<mgrwt>
<rscale>  0 0.12805788E+04</rscale>
<asrwt>0</asrwt>
<pdfrwt beam="1">  1        1 0.74866840E-01 0.12805788E+04</pdfrwt>
<pdfrwt beam="2">  1       -1 0.12960938E+00 0.12805788E+04</pdfrwt>
<totfact> 0.23141520E+01</totfact>
</mgrwt>
</event>
<event>
12    1  0.2433511E-007  0.1987607E+04  0.7818608E-02  0.8612437E-01
         -2   -1    0    0    0  501 -0.00000000000E+00  0.00000000000E+00  0.23254859600E+04  0.23254859600E+04  0.00000000000E+00 0.  1.
          2   -1    0    0  501    0  0.00000000000E+00 -0.00000000000E+00 -0.42470501007E+03  0.42470501007E+03  0.00000000000E+00 0. -1.
         23    2    1    2    0    0  0.25199385912E+03 -0.60853233533E+03  0.13176211593E+04  0.14759644732E+04  0.92374771813E+02 0.  0.
        254    2    1    2    0    0 -0.25199385912E+03  0.60853233533E+03  0.58315979058E+03  0.12742264968E+04  0.92182716153E+03 0.  0.
        -24    2    4    4    0    0  0.34285756582E+03  0.19724022294E+03  0.18147988982E+03  0.44291120227E+03  0.82342982075E+02 0.  0.
         24    2    4    4    0    0 -0.59485142494E+03  0.41129211238E+03  0.40167990076E+03  0.83131529458E+03  0.82030219214E+02 0.  0.
         13    1    3    3    0    0  0.19191909818E+03 -0.45888879968E+03  0.90021132809E+03  0.10284903043E+04  0.00000000000E+00 0. -1.
        -13    1    3    3    0    0  0.60074760943E+02 -0.14964353564E+03  0.41740983121E+03  0.44747416893E+03  0.00000000000E+00 0.  1.
          4    1    6    6  502    0 -0.59520784318E+03  0.40175165144E+03  0.39841422833E+03  0.82122509907E+03  0.00000000000E+00 0. -1.
          1    1    5    5  503    0  0.28041536165E+03  0.14778657111E+03  0.10893214193E+03  0.33517138481E+03  0.00000000000E+00 0. -1.
         -2    1    5    5    0  503  0.62442204169E+02  0.49453651832E+02  0.72547747895E+02  0.10773981746E+03  0.00000000000E+00 0.  1.
         -3    1    6    6    0  502  0.35641823382E+00  0.95404609402E+01  0.32656724294E+01  0.10090195505E+02  0.00000000000E+00 0.  1.
<mgrwt>
<rscale>  0 0.19876071E+04</rscale>
<asrwt>0</asrwt>
<pdfrwt beam="1">  1        2 0.65339234E-01 0.19876071E+04</pdfrwt>
<pdfrwt beam="2">  1       -2 0.35776706E+00 0.19876071E+04</pdfrwt>
<totfact> 0.96252135E-01</totfact>
</mgrwt>
</event>
<event>
12    1  0.2433511E-007  0.1752934E+04  0.7818608E-02  0.8731737E-01
         -1   -1    0    0    0  501 -0.00000000000E+00  0.00000000000E+00  0.11066096396E+04  0.11066096396E+04  0.00000000000E+00 0.  1.
          1   -1    0    0  501    0  0.00000000000E+00 -0.00000000000E+00 -0.69418731043E+03  0.69418731043E+03  0.00000000000E+00 0. -1.
         23    2    1    2    0    0  0.26842196114E+03  0.57310247532E+03  0.68423333390E+02  0.64324784011E+03  0.92678124800E+02 0.  0.
        254    2    1    2    0    0 -0.26842196114E+03 -0.57310247532E+03  0.34399899579E+03  0.11575491099E+04  0.90613897187E+03 0.  0.
        -24    2    4    4    0    0 -0.54219729975E+03 -0.35768559196E+03 -0.99093830795E+01  0.65447008441E+03  0.79473272061E+02 0.  0.
         24    2    4    4    0    0  0.27377533861E+03 -0.21541688337E+03  0.35390837887E+03  0.50307902551E+03  0.80498419886E+02 0.  0.
         11    1    3    3    0    0  0.12658487727E+03  0.36237747857E+03  0.17960117439E+02  0.38427039171E+03  0.00000000000E+00 0. -1.
        -11    1    3    3    0    0  0.14183708387E+03  0.21072499676E+03  0.50463215951E+02  0.25897744841E+03  0.00000000000E+00 0.  1.
          2    1    6    6  502    0  0.23588611511E+03 -0.20102560362E+03  0.27487077013E+03  0.41425534744E+03  0.00000000000E+00 0. -1.
          1    1    5    5  503    0 -0.22653029618E+03 -0.10398907778E+03 -0.10765681870E+02  0.24949068778E+03  0.00000000000E+00 0. -1.
         -2    1    5    5    0  503 -0.31566700357E+03 -0.25369651418E+03  0.85629879030E+00  0.40497939663E+03  0.00000000000E+00 0.  1.
         -1    1    6    6    0  502  0.37889223502E+02 -0.14391279741E+02  0.79037608738E+02  0.88823678066E+02  0.00000000000E+00 0.  1.
<mgrwt>
<rscale>  0 0.17529340E+04</rscale>
<asrwt>0</asrwt>
<pdfrwt beam="1">  1        1 0.10679805E+00 0.17529340E+04</pdfrwt>
<pdfrwt beam="2">  1       -1 0.17024764E+00 0.17529340E+04</pdfrwt>
<totfact> 0.64048625E+00</totfact>
</mgrwt>
</event>
<event>
12    1  0.2433511E-007  0.3189309E+04  0.7818608E-02  0.8191646E-01
         -1   -1    0    0    0  501 -0.00000000000E+00  0.00000000000E+00  0.75240520935E+03  0.75240520935E+03  0.00000000000E+00 0.  1.
          1   -1    0    0  501    0  0.00000000000E+00 -0.00000000000E+00 -0.33797262211E+04  0.33797262211E+04  0.00000000000E+00 0. -1.
         23    2    1    2    0    0  0.17380389972E+03 -0.11981877721E+04 -0.22811161712E+04  0.25840135368E+04  0.88165975591E+02 0.  0.
        254    2    1    2    0    0 -0.17380389972E+03  0.11981877721E+04 -0.34620484053E+03  0.15481178936E+04  0.90052733887E+03 0.  0.
        -24    2    4    4    0    0 -0.40714048960E+03  0.11118927658E+04 -0.10336056648E+03  0.11914416581E+04  0.82346324056E+02 0.  0.
         24    2    4    4    0    0  0.23333658989E+03  0.86295006317E+02 -0.24284427405E+03  0.35667623548E+03  0.79698200867E+02 0.  0.
         11    1    3    3    0    0  0.18141032140E+03 -0.11159291304E+04 -0.21017249401E+04  0.23865152949E+04  0.00000000000E+00 0.  1.
        -11    1    3    3    0    0 -0.76064216836E+01 -0.82258641731E+02 -0.17939123108E+03  0.19749824196E+03  0.00000000000E+00 0. -1.
          4    1    6    6  502    0  0.21958094104E+03  0.76846866644E+02 -0.18726573780E+03  0.29864642496E+03  0.00000000000E+00 0. -1.
          1    1    5    5  503    0 -0.30740575953E+03  0.72794695104E+03 -0.62765980915E+02  0.79268192416E+03  0.00000000000E+00 0. -1.
         -2    1    5    5    0  503 -0.99734730072E+02  0.38394581475E+03 -0.40594585570E+02  0.39875973396E+03  0.00000000000E+00 0.  1.
         -3    1    6    6    0  502  0.13755648841E+02  0.94481396729E+01 -0.55578536241E+02  0.58029810520E+02  0.00000000000E+00 0.  1.
<mgrwt>
<rscale>  0 0.31893094E+04</rscale>
<asrwt>0</asrwt>
<pdfrwt beam="1">  1        1 0.51995787E+00 0.31893094E+04</pdfrwt>
<pdfrwt beam="2">  1       -1 0.11575465E+00 0.31893094E+04</pdfrwt>
<totfact> 0.17531769E-01</totfact>
</mgrwt>
</event>
<event>
12    1  0.2433511E-007  0.1678191E+04  0.7818608E-02  0.8773902E-01
         -2   -1    0    0    0  501 -0.00000000000E+00  0.00000000000E+00  0.88575286067E+03  0.88575286067E+03  0.00000000000E+00 0.  1.
          2   -1    0    0  501    0  0.00000000000E+00 -0.00000000000E+00 -0.79489575368E+03  0.79489575368E+03  0.00000000000E+00 0. -1.
         23    2    1    2    0    0  0.56637928391E+03  0.46174380866E+02  0.20404339745E+03  0.61067064579E+03  0.91473290618E+02 0.  0.
        254    2    1    2    0    0 -0.56637928391E+03 -0.46174380866E+02 -0.11318629046E+03  0.10699779686E+04  0.89951328514E+03 0.  0.
        -24    2    4    4    0    0 -0.73852268503E+03  0.15889214033E+03  0.20730551241E+02  0.75985720367E+03  0.79314221011E+02 0.  0.
         24    2    4    4    0    0  0.17214340112E+03 -0.20506652119E+03 -0.13391684170E+03  0.31012076488E+03  0.80966287167E+02 0.  0.
         13    1    3    3    0    0  0.17785187057E+03  0.56323906562E+02  0.56164369917E+02  0.19482840338E+03  0.00000000000E+00 0.  1.
        -13    1    3    3    0    0  0.38852741335E+03 -0.10149525696E+02  0.14787902753E+03  0.41584224241E+03  0.00000000000E+00 0. -1.
          2    1    6    6  502    0  0.46998505615E+02 -0.11753497950E+03 -0.52313126966E+02  0.13696712813E+03  0.00000000000E+00 0. -1.
          3    1    5    5  503    0 -0.36540975017E+03  0.77209037518E+02  0.49895788952E+02  0.37679584758E+03  0.00000000000E+00 0. -1.
         -4    1    5    5    0  503 -0.37311293486E+03  0.81683102808E+02 -0.29165237711E+02  0.38306135610E+03  0.00000000000E+00 0.  1.
         -1    1    6    6    0  502  0.12514489550E+03 -0.87531541697E+02 -0.81603714739E+02  0.17315363675E+03  0.00000000000E+00 0.  1.
<mgrwt>
<rscale>  0 0.16781909E+04</rscale>
<asrwt>0</asrwt>
<pdfrwt beam="1">  1        2 0.12229166E+00 0.16781909E+04</pdfrwt>
<pdfrwt beam="2">  1       -2 0.13626967E+00 0.16781909E+04</pdfrwt>
<totfact> 0.12751043E+01</totfact>
</mgrwt>
</event>
<event>
12    1  0.2440617E-007  0.3201650E+04  0.7818608E-02  0.8188382E-01
         -1   -1    0    0    0  501 -0.00000000000E+00  0.00000000000E+00  0.24340051327E+04  0.24340051327E+04  0.00000000000E+00 0.  1.
          1   -1    0    0  501    0  0.00000000000E+00 -0.00000000000E+00 -0.10528491717E+04  0.10528491717E+04  0.00000000000E+00 0. -1.
         23    2    1    2    0    0  0.89631207864E+03 -0.93287128581E+03 -0.12967443287E+03  0.13034791653E+04  0.92834787089E+02 0.  0.
        254    2    1    2    0    0 -0.89631207864E+03  0.93287128581E+03  0.15108303939E+04  0.21833751391E+04  0.90049671904E+03 0.  0.
        -24    2    4    4    0    0 -0.67568426330E+03  0.49035917111E+03  0.33102893103E+03  0.90161401952E+03  0.79538334436E+02 0.  0.
         24    2    4    4    0    0 -0.22062781534E+03  0.44251211469E+03  0.11798014628E+04  0.12817611196E+04  0.80538633716E+02 0.  0.
         11    1    3    3    0    0  0.31247486981E+03 -0.27564655087E+03 -0.68335368833E+02  0.42224553036E+03  0.00000000000E+00 0. -1.
        -11    1    3    3    0    0  0.58383720882E+03 -0.65722473494E+03 -0.61339064041E+02  0.88123363497E+03  0.00000000000E+00 0.  1.
          4    1    6    6  502    0 -0.22125072859E+03  0.39884942992E+03  0.10491498789E+04  0.11440053414E+04  0.00000000000E+00 0. -1.
          1    1    5    5  503    0 -0.61361874559E+03  0.45971388675E+03  0.28264628223E+03  0.81716200565E+03  0.00000000000E+00 0. -1.
         -2    1    5    5    0  503 -0.62065517707E+02  0.30645284360E+02  0.48382648795E+02  0.84452013867E+02  0.00000000000E+00 0.  1.
         -3    1    6    6    0  502  0.62291325266E+00  0.43662684775E+02  0.13065158390E+03  0.13775577824E+03  0.00000000000E+00 0.  1.
<mgrwt>
<rscale>  0 0.32016498E+04</rscale>
<asrwt>0</asrwt>
<pdfrwt beam="1">  1        1 0.16197680E+00 0.32016498E+04</pdfrwt>
<pdfrwt beam="2">  1       -1 0.37446233E+00 0.32016498E+04</pdfrwt>
<totfact> 0.12275569E-01</totfact>
</mgrwt>
</event>
<event>
12    1  0.2433511E-007  0.3898427E+04  0.7818608E-02  0.8025356E-01
         -1   -1    0    0    0  501 -0.00000000000E+00  0.00000000000E+00  0.14695884135E+04  0.14695884135E+04  0.00000000000E+00 0.  1.
          1   -1    0    0  501    0  0.00000000000E+00 -0.00000000000E+00 -0.25853724117E+04  0.25853724117E+04  0.00000000000E+00 0. -1.
         23    2    1    2    0    0 -0.23149504586E+03 -0.83346006102E+03  0.11664218175E+04  0.14550016571E+04  0.90798327373E+02 0.  0.
        254    2    1    2    0    0  0.23149504586E+03  0.83346006102E+03 -0.22822058156E+04  0.25999591681E+04  0.89614656245E+03 0.  0.
        -24    2    4    4    0    0  0.22006580779E+03  0.81120109571E+03 -0.23465243923E+04  0.24937673895E+04  0.78885305651E+02 0.  0.
         24    2    4    4    0    0  0.11429238071E+02  0.22258965308E+02  0.64318576699E+02  0.10619177866E+03  0.80707654704E+02 0.  0.
         11    1    3    3    0    0 -0.10781664592E+03 -0.31622302428E+03  0.51778831406E+03  0.61621925351E+03  0.00000000000E+00 0.  1.
        -11    1    3    3    0    0 -0.12367839995E+03 -0.51723703673E+03  0.64863350345E+03  0.83878240359E+03  0.00000000000E+00 0. -1.
          4    1    6    6  502    0 -0.19496820997E+01  0.30618906221E+02  0.78933408469E+02  0.84686490369E+02  0.00000000000E+00 0. -1.
          1    1    5    5  503    0  0.46624719266E+02  0.16200708277E+03 -0.56994165816E+03  0.59435145581E+03  0.00000000000E+00 0. -1.
         -2    1    5    5    0  503  0.17344108853E+03  0.64919401294E+03 -0.17765827342E+04  0.18994159336E+04  0.00000000000E+00 0.  1.
         -3    1    6    6    0  502  0.13378920170E+02 -0.83599409126E+01 -0.14614831770E+02  0.21505288295E+02  0.00000000000E+00 0.  1.
<mgrwt>
<rscale>  0 0.38984270E+04</rscale>
<asrwt>0</asrwt>
<pdfrwt beam="1">  1        1 0.39774960E+00 0.38984270E+04</pdfrwt>
<pdfrwt beam="2">  1       -1 0.22609053E+00 0.38984270E+04</pdfrwt>
<totfact> 0.93419353E-02</totfact>
</mgrwt>
</event>
<event>
12    1  0.2433511E-007  0.1846679E+04  0.7818608E-02  0.8681862E-01
          2   -1    0    0  501    0  0.00000000000E+00  0.00000000000E+00  0.90090584005E+03  0.90090584005E+03  0.00000000000E+00 0. -1.
         -2   -1    0    0    0  501 -0.00000000000E+00 -0.00000000000E+00 -0.94633195334E+03  0.94633195334E+03  0.00000000000E+00 0.  1.
         23    2    1    2    0    0  0.68530168296E+03 -0.54086673414E+02 -0.15018259461E+03  0.70960714081E+03  0.91780813139E+02 0.  0.
        254    2    1    2    0    0 -0.68530168296E+03  0.54086673414E+02  0.10475648132E+03  0.11376306526E+04  0.90036982201E+03 0.  0.
        -24    2    4    4    0    0 -0.65361398708E+03  0.79777830490E+02 -0.29656698554E+03  0.72653034327E+03  0.79489725370E+02 0.  0.
         24    2    4    4    0    0 -0.31687695880E+02 -0.25691157076E+02  0.40132346686E+03  0.41110030930E+03  0.79238839201E+02 0.  0.
         13    1    3    3    0    0  0.25237396631E+03 -0.40540410442E+01 -0.97674221926E+02  0.27064609317E+03  0.00000000000E+00 0. -1.
        -13    1    3    3    0    0  0.43292771664E+03 -0.50032632370E+02 -0.52508372687E+02  0.43896104764E+03  0.00000000000E+00 0.  1.
          4    1    6    6  502    0 -0.10075865960E+02 -0.93245828357E+01  0.62267136123E+01  0.15074577351E+02  0.00000000000E+00 0. -1.
          3    1    5    5  503    0 -0.89555053416E+02  0.14002040482E+02 -0.12299576859E+02  0.91473735689E+02  0.00000000000E+00 0. -1.
         -4    1    5    5    0  503 -0.56405893366E+03  0.65775790008E+02 -0.28426740868E+03  0.63505660758E+03  0.00000000000E+00 0.  1.
         -3    1    6    6    0  502 -0.21611829921E+02 -0.16366574241E+02  0.39509675325E+03  0.39602573195E+03  0.00000000000E+00 0.  1.
<mgrwt>
<rscale>  0 0.18466792E+04</rscale>
<asrwt>0</asrwt>
<pdfrwt beam="1">  1        2 0.13860090E+00 0.18466792E+04</pdfrwt>
<pdfrwt beam="2">  1       -2 0.14558953E+00 0.18466792E+04</pdfrwt>
<totfact> 0.89265214E+00</totfact>
</mgrwt>
</event>
<event>
12    1  0.2433511E-007  0.1108118E+04  0.7818608E-02  0.9197315E-01
         -1   -1    0    0    0  501 -0.00000000000E+00  0.00000000000E+00  0.82419464568E+03  0.82419464568E+03  0.00000000000E+00 0.  1.
          1   -1    0    0  501    0  0.00000000000E+00 -0.00000000000E+00 -0.37246251226E+03  0.37246251226E+03  0.00000000000E+00 0. -1.
         23    2    1    2    0    0 -0.13906668593E+03 -0.91573120762E+02  0.11067959946E+03  0.21965314089E+03  0.90952454532E+02 0.  0.
        254    2    1    2    0    0  0.13906668593E+03  0.91573120762E+02  0.34105253396E+03  0.97700401705E+03  0.90027486849E+03 0.  0.
        -24    2    4    4    0    0  0.35046437107E+02 -0.23171194100E+03 -0.20992965527E+03  0.32495906804E+03  0.81297351665E+02 0.  0.
         24    2    4    4    0    0  0.10402024882E+03  0.32328506176E+03  0.55098218923E+03  0.65204494901E+03  0.79043022163E+02 0.  0.
         13    1    3    3    0    0 -0.15212862626E+03 -0.87592017989E+02  0.98142063717E+02  0.20111525356E+03  0.00000000000E+00 0.  1.
        -13    1    3    3    0    0  0.13061940327E+02 -0.39811027729E+01  0.12537535738E+02  0.18537887333E+02  0.00000000000E+00 0. -1.
          4    1    6    6  502    0  0.10776104719E+03  0.23588671045E+03  0.43989182181E+03  0.51064645142E+03  0.00000000000E+00 0. -1.
          1    1    5    5  503    0  0.52776872274E+02 -0.17102849800E+03 -0.18380024114E+03  0.25655150364E+03  0.00000000000E+00 0. -1.
         -2    1    5    5    0  503 -0.17730435167E+02 -0.60683442997E+02 -0.26129414125E+02  0.68407564404E+02  0.00000000000E+00 0.  1.
         -3    1    6    6    0  502 -0.37407983662E+01  0.87398351316E+02  0.11109036742E+03  0.14139849758E+03  0.00000000000E+00 0.  1.
<mgrwt>
<rscale>  0 0.11081184E+04</rscale>
<asrwt>0</asrwt>
<pdfrwt beam="1">  1        1 0.57301925E-01 0.11081184E+04</pdfrwt>
<pdfrwt beam="2">  1       -1 0.12679918E+00 0.11081184E+04</pdfrwt>
<totfact> 0.35487914E+01</totfact>
</mgrwt>
</event>
<event>
12    1  0.2433511E-007  0.2196649E+04  0.7818608E-02  0.8519824E-01
         -1   -1    0    0    0  501 -0.00000000000E+00  0.00000000000E+00  0.12953926975E+04  0.12953926975E+04  0.00000000000E+00 0.  1.
          1   -1    0    0  501    0  0.00000000000E+00 -0.00000000000E+00 -0.93123617788E+03  0.93123617788E+03  0.00000000000E+00 0. -1.
         23    2    1    2    0    0  0.14753789337E+03 -0.85858530437E+03  0.42303837681E+03  0.97288124847E+03  0.92737805145E+02 0.  0.
        254    2    1    2    0    0 -0.14753789337E+03  0.85858530437E+03 -0.58881857225E+02  0.12537476269E+04  0.89971100023E+03 0.  0.
        -24    2    4    4    0    0 -0.28571914228E+02  0.10044659981E+04  0.72235191805E+02  0.10110913438E+04  0.85554000174E+02 0.  0.
         24    2    4    4    0    0 -0.11896597915E+03 -0.14588069373E+03 -0.13111704903E+03  0.24265628308E+03  0.79096840476E+02 0.  0.
         13    1    3    3    0    0  0.18043895339E+02 -0.21951586556E+02  0.55924990951E+01  0.28960841795E+02  0.00000000000E+00 0. -1.
        -13    1    3    3    0    0  0.12949399803E+03 -0.83663371782E+03  0.41744587772E+03  0.94392040668E+03  0.00000000000E+00 0.  1.
          2    1    6    6  502    0 -0.12068825096E+03 -0.10817881680E+03 -0.84830107179E+02  0.18293293144E+03  0.00000000000E+00 0. -1.
          1    1    5    5  503    0 -0.12127445138E+02  0.78842395486E+03  0.22750962242E+02  0.78884536748E+03  0.00000000000E+00 0. -1.
         -2    1    5    5    0  503 -0.16444469089E+02  0.21604204325E+03  0.49484229563E+02  0.22224597632E+03  0.00000000000E+00 0.  1.
         -1    1    6    6    0  502  0.17222718107E+01 -0.37701876935E+02 -0.46286941851E+02  0.59723351635E+02  0.00000000000E+00 0.  1.
<mgrwt>
<rscale>  0 0.21966489E+04</rscale>
<asrwt>0</asrwt>
<pdfrwt beam="1">  1        1 0.14326710E+00 0.21966489E+04</pdfrwt>
<pdfrwt beam="2">  1       -1 0.19929118E+00 0.21966489E+04</pdfrwt>
<totfact> 0.23820781E+00</totfact>
</mgrwt>
</event>
<event>
12    1  0.2433511E-007  0.2331848E+04  0.7818608E-02  0.8465469E-01
          1   -1    0    0  501    0  0.00000000000E+00  0.00000000000E+00  0.24490250903E+04  0.24490250903E+04  0.00000000000E+00 0. -1.
         -1   -1    0    0    0  501 -0.00000000000E+00 -0.00000000000E+00 -0.55506914084E+03  0.55506914084E+03  0.00000000000E+00 0.  1.
         23    2    1    2    0    0 -0.98999629655E+02 -0.97907113659E+03  0.96011247923E+03  0.13778831055E+04  0.91458528171E+02 0.  0.
        254    2    1    2    0    0  0.98999629655E+02  0.97907113659E+03  0.93384347019E+03  0.16262111256E+04  0.89672614614E+03 0.  0.
        -24    2    4    4    0    0  0.42164340496E+03  0.77305563932E+03  0.84883280535E+03  0.12256870163E+04  0.79958415154E+02 0.  0.
         24    2    4    4    0    0 -0.32264377531E+03  0.20601549727E+03  0.85010664845E+02  0.40052410930E+03  0.81555858985E+02 0.  0.
         13    1    3    3    0    0 -0.21718485995E+02 -0.52451161576E+03  0.55749483923E+03  0.76575754875E+03  0.00000000000E+00 0. -1.
        -13    1    3    3    0    0 -0.77281143660E+02 -0.45455952083E+03  0.40261764001E+03  0.61212555672E+03  0.00000000000E+00 0.  1.
          2    1    6    6  502    0 -0.43381386166E+02  0.15650677428E+02 -0.14260669432E+02  0.48272715505E+02  0.00000000000E+00 0. -1.
          1    1    5    5  503    0  0.18645051838E+03  0.34969031118E+03  0.32744127227E+03  0.51406701540E+03  0.00000000000E+00 0. -1.
         -2    1    5    5    0  503  0.23519288659E+03  0.42336532814E+03  0.52139153308E+03  0.71162000094E+03  0.00000000000E+00 0.  1.
         -1    1    6    6    0  502 -0.27926238914E+03  0.19036481984E+03  0.99271334277E+02  0.35225139380E+03  0.00000000000E+00 0.  1.
<mgrwt>
<rscale>  0 0.23318476E+04</rscale>
<asrwt>0</asrwt>
<pdfrwt beam="1">  1        1 0.37677309E+00 0.23318476E+04</pdfrwt>
<pdfrwt beam="2">  1       -1 0.85395254E-01 0.23318476E+04</pdfrwt>
<totfact> 0.17950729E+00</totfact>
</mgrwt>
</event>
<event>
12    1  0.2433511E-007  0.1994633E+04  0.7818608E-02  0.8609134E-01
         -2   -1    0    0    0  501 -0.00000000000E+00  0.00000000000E+00  0.33945695603E+03  0.33945695603E+03  0.00000000000E+00 0. -1.
          2   -1    0    0  501    0  0.00000000000E+00 -0.00000000000E+00 -0.29300932550E+04  0.29300932550E+04  0.00000000000E+00 0.  1.
         23    2    1    2    0    0  0.76715410717E+02  0.78555322655E+03 -0.97896207151E+03  0.12609181360E+04  0.92567177466E+02 0.  0.
        254    2    1    2    0    0 -0.76715410717E+02 -0.78555322655E+03 -0.16116742275E+04  0.20086320750E+04  0.90229145587E+03 0.  0.
        -24    2    4    4    0    0 -0.18707503081E+02 -0.63745125676E+03 -0.34547891055E+03  0.72965219439E+03  0.79640264498E+02 0.  0.
         24    2    4    4    0    0 -0.58007907636E+02 -0.14810196979E+03 -0.12661953169E+04  0.12789798806E+04  0.85087270788E+02 0.  0.
         11    1    3    3    0    0  0.67171945467E+02  0.34204931881E+03 -0.38142168632E+03  0.51671298566E+03  0.00000000000E+00 0.  1.
        -11    1    3    3    0    0  0.95434652506E+01  0.44350390773E+03 -0.59754038519E+03  0.74420515037E+03  0.00000000000E+00 0. -1.
          2    1    6    6  502    0 -0.17154598189E+02 -0.27268829912E+02 -0.84709113898E+02  0.90628380219E+02  0.00000000000E+00 0. -1.
          1    1    5    5  503    0 -0.79855343238E+01 -0.30299469526E+03 -0.20947329035E+03  0.36844078694E+03  0.00000000000E+00 0. -1.
         -2    1    5    5    0  503 -0.10721968757E+02 -0.33445656150E+03 -0.13600562020E+03  0.36121140745E+03  0.00000000000E+00 0.  1.
         -1    1    6    6    0  502 -0.40853309447E+02 -0.12083313988E+03 -0.11814862030E+04  0.11883515004E+04  0.00000000000E+00 0.  1.
<mgrwt>
<rscale>  0 0.19946333E+04</rscale>
<asrwt>0</asrwt>
<pdfrwt beam="1">  1        2 0.45078357E+00 0.19946333E+04</pdfrwt>
<pdfrwt beam="2">  1       -2 0.52224148E-01 0.19946333E+04</pdfrwt>
<totfact> 0.62050598E+00</totfact>
</mgrwt>
</event>
<event>
12    1  0.2433511E-007  0.1768135E+04  0.7818608E-02  0.8723431E-01
          1   -1    0    0  501    0  0.00000000000E+00  0.00000000000E+00  0.95882817037E+03  0.95882817037E+03  0.00000000000E+00 0. -1.
         -1   -1    0    0    0  501 -0.00000000000E+00 -0.00000000000E+00 -0.81513572768E+03  0.81513572768E+03  0.00000000000E+00 0.  1.
         23    2    1    2    0    0  0.78877784186E+02  0.46389989951E+03 -0.39625769118E+03  0.62196606976E+03  0.91634123049E+02 0.  0.
        254    2    1    2    0    0 -0.78877784186E+02 -0.46389989951E+03  0.53995013387E+03  0.11519978283E+04  0.90229043425E+03 0.  0.
        -24    2    4    4    0    0  0.39073412272E+02 -0.66262051462E+03  0.13751917982E+03  0.68259061387E+03  0.80160734629E+02 0.  0.
         24    2    4    4    0    0 -0.11795119646E+03  0.19872061511E+03  0.40243095405E+03  0.46940721443E+03  0.70640587240E+02 0.  0.
         11    1    3    3    0    0  0.82280514189E+02  0.40090946583E+03 -0.30234249899E+03  0.50883147456E+03  0.00000000000E+00 0. -1.
        -11    1    3    3    0    0 -0.34027300031E+01  0.62990433683E+02 -0.93915192188E+02  0.11313459520E+03  0.00000000000E+00 0.  1.
          2    1    6    6  502    0 -0.11917365808E+03  0.15346749263E+03  0.34838401559E+03  0.39890607215E+03  0.00000000000E+00 0. -1.
          3    1    5    5  503    0  0.34997011725E+02 -0.40833375953E+03  0.46437937799E+02  0.41245330896E+03  0.00000000000E+00 0. -1.
         -4    1    5    5    0  503  0.40764005472E+01 -0.25428675509E+03  0.91081242019E+02  0.27013730491E+03  0.00000000000E+00 0.  1.
         -1    1    6    6    0  502  0.12224616255E+01  0.45253122478E+02  0.54046938454E+02  0.70501142279E+02  0.00000000000E+00 0.  1.
<mgrwt>
<rscale>  0 0.17681347E+04</rscale>
<asrwt>0</asrwt>
<pdfrwt beam="1">  1        1 0.14751203E+00 0.17681347E+04</pdfrwt>
<pdfrwt beam="2">  1       -1 0.12540550E+00 0.17681347E+04</pdfrwt>
<totfact> 0.85670132E+00</totfact>
</mgrwt>
</event>
<event>
12    1  0.2433511E-007  0.1462290E+04  0.7818608E-02  0.8909925E-01
         -1   -1    0    0    0  501 -0.00000000000E+00  0.00000000000E+00  0.42136558818E+03  0.42136558818E+03  0.00000000000E+00 0.  1.
          1   -1    0    0  501    0  0.00000000000E+00 -0.00000000000E+00 -0.12686672203E+04  0.12686672203E+04  0.00000000000E+00 0. -1.
         23    2    1    2    0    0  0.39518031999E+03 -0.16112029614E+03 -0.12481122187E+03  0.45698811729E+03  0.10551333139E+03 0.  0.
        254    2    1    2    0    0 -0.39518031999E+03  0.16112029614E+03 -0.72249041024E+03  0.12330446912E+04  0.90348192148E+03 0.  0.
        -24    2    4    4    0    0 -0.26828259587E+03 -0.33868122020E+03 -0.16450611498E+03  0.46907245170E+03  0.79285452153E+02 0.  0.
         24    2    4    4    0    0 -0.12689772412E+03  0.49980151634E+03 -0.55798429526E+03  0.76397223949E+03  0.80015753603E+02 0.  0.
         13    1    3    3    0    0  0.10810239688E+03 -0.42037868370E+02 -0.84681991517E+02  0.14361180410E+03  0.00000000000E+00 0. -1.
        -13    1    3    3    0    0  0.28707792311E+03 -0.11908242777E+03 -0.40129230356E+02  0.31337631319E+03  0.00000000000E+00 0.  1.
          2    1    6    6  502    0 -0.11433952159E+03  0.44495953316E+03 -0.45485657925E+03  0.64649595516E+03  0.00000000000E+00 0. -1.
          1    1    5    5  503    0 -0.24311286813E+03 -0.27885805502E+03 -0.11490728775E+03  0.38738787575E+03  0.00000000000E+00 0. -1.
         -2    1    5    5    0  503 -0.25169727736E+02 -0.59823165177E+02 -0.49598827231E+02  0.81684575954E+02  0.00000000000E+00 0.  1.
         -1    1    6    6    0  502 -0.12558202535E+02  0.54841983180E+02 -0.10312771602E+03  0.11747628433E+03  0.00000000000E+00 0.  1.
<mgrwt>
<rscale>  0 0.14622896E+04</rscale>
<asrwt>0</asrwt>
<pdfrwt beam="1">  1        1 0.19517957E+00 0.14622896E+04</pdfrwt>
<pdfrwt beam="2">  1       -1 0.64825475E-01 0.14622896E+04</pdfrwt>
<totfact> 0.22301949E+01</totfact>
</mgrwt>
</event>
<event>
12    1  0.2433511E-007  0.1857057E+04  0.7818608E-02  0.8676532E-01
          2   -1    0    0  501    0  0.00000000000E+00  0.00000000000E+00  0.15419184673E+04  0.15419184673E+04  0.00000000000E+00 0. -1.
         -2   -1    0    0    0  501 -0.00000000000E+00 -0.00000000000E+00 -0.55915071381E+03  0.55915071381E+03  0.00000000000E+00 0.  1.
         23    2    1    2    0    0  0.38318658594E+03  0.59304042607E+03  0.39272021483E+03  0.81444234726E+03  0.10275341005E+03 0.  0.
        254    2    1    2    0    0 -0.38318658594E+03 -0.59304042607E+03  0.59004753861E+03  0.12866268338E+04  0.89929061213E+03 0.  0.
        -24    2    4    4    0    0 -0.61322837864E+03 -0.63764199306E+03  0.52128943744E+03  0.10295480587E+04  0.74767452596E+02 0.  0.
         24    2    4    4    0    0  0.23004179271E+03  0.44601566997E+02  0.68758101168E+02  0.25707877507E+03  0.80332396621E+02 0.  0.
         13    1    3    3    0    0  0.24004162390E+03  0.45604850522E+03  0.28500350376E+03  0.58892038297E+03  0.00000000000E+00 0.  1.
        -13    1    3    3    0    0  0.14314496203E+03  0.13699192085E+03  0.10771671107E+03  0.22552196429E+03  0.00000000000E+00 0. -1.
          2    1    6    6  502    0  0.22482594964E+03  0.41359954762E+02  0.45576801329E+02  0.23309782991E+03  0.00000000000E+00 0. -1.
          3    1    5    5  503    0 -0.41133378205E+03 -0.40896534993E+03  0.37949303818E+03  0.69315445878E+03  0.00000000000E+00 0. -1.
         -4    1    5    5    0  503 -0.20189459659E+03 -0.22867664313E+03  0.14179639926E+03  0.33639359995E+03  0.00000000000E+00 0.  1.
         -1    1    6    6    0  502  0.52158430692E+01  0.32416122356E+01  0.23181299840E+02  0.23980945166E+02  0.00000000000E+00 0.  1.
<mgrwt>
<rscale>  0 0.18570566E+04</rscale>
<asrwt>0</asrwt>
<pdfrwt beam="1">  1        2 0.23721822E+00 0.18570566E+04</pdfrwt>
<pdfrwt beam="2">  1       -2 0.86023187E-01 0.18570566E+04</pdfrwt>
<totfact> 0.13245665E+01</totfact>
</mgrwt>
</event>
<event>
12    1  0.2433511E-007  0.1630102E+04  0.7818608E-02  0.8802265E-01
         -2   -1    0    0    0  501 -0.00000000000E+00  0.00000000000E+00  0.41951993892E+03  0.41951993892E+03  0.00000000000E+00 0.  1.
          2   -1    0    0  501    0  0.00000000000E+00 -0.00000000000E+00 -0.15834968004E+04  0.15834968004E+04  0.00000000000E+00 0. -1.
         23    2    1    2    0    0  0.29347303010E+03 -0.34560098557E+03 -0.81291351582E+03  0.93535675410E+03  0.92181411496E+02 0.  0.
        254    2    1    2    0    0 -0.29347303010E+03  0.34560098557E+03 -0.35106334571E+03  0.10676599853E+04  0.90060308171E+03 0.  0.
        -24    2    4    4    0    0 -0.36194061067E+03  0.60159573892E+03 -0.35162932999E+03  0.78943311386E+03  0.81504704188E+02 0.  0.
         24    2    4    4    0    0  0.68467580568E+02 -0.25599475335E+03  0.56598428329E+00  0.27822687140E+03  0.84786486527E+02 0.  0.
         11    1    3    3    0    0  0.20752209076E+03 -0.21964002103E+03 -0.45369706801E+03  0.54511300343E+03  0.00000000000E+00 0.  1.
        -11    1    3    3    0    0  0.85950939338E+02 -0.12596096454E+03 -0.35921644781E+03  0.39024375067E+03  0.00000000000E+00 0. -1.
          2    1    6    6  502    0  0.40637195540E+01 -0.67841900972E+02  0.34922429765E+02  0.76410820207E+02  0.00000000000E+00 0. -1.
          3    1    5    5  503    0 -0.12546283950E+03  0.27089502749E+03 -0.17609931410E+03  0.34660641720E+03  0.00000000000E+00 0. -1.
         -4    1    5    5    0  503 -0.23647777116E+03  0.33070071143E+03 -0.17553001589E+03  0.44282669665E+03  0.00000000000E+00 0.  1.
         -1    1    6    6    0  502  0.64403861014E+02 -0.18815285238E+03 -0.34356445482E+02  0.20181605119E+03  0.00000000000E+00 0.  1.
<mgrwt>
<rscale>  0 0.16301024E+04</rscale>
<asrwt>0</asrwt>
<pdfrwt beam="1">  1        2 0.24361489E+00 0.16301024E+04</pdfrwt>
<pdfrwt beam="2">  1       -2 0.64541529E-01 0.16301024E+04</pdfrwt>
<totfact> 0.24156252E+01</totfact>
</mgrwt>
</event>
<event>
12    1  0.2433511E-007  0.1456592E+04  0.7818608E-02  0.8913843E-01
          2   -1    0    0  501    0  0.00000000000E+00  0.00000000000E+00  0.29382403915E+04  0.29382403915E+04  0.00000000000E+00 0. -1.
         -2   -1    0    0    0  501 -0.00000000000E+00 -0.00000000000E+00 -0.18052144383E+03  0.18052144383E+03  0.00000000000E+00 0.  1.
         23    2    1    2    0    0 -0.32637703526E+02 -0.32392335348E+03  0.21663484018E+03  0.40151566366E+03  0.91063799434E+02 0.  0.
        254    2    1    2    0    0  0.32637703526E+02  0.32392335348E+03  0.25410841075E+04  0.27172461717E+04  0.90571891749E+03 0.  0.
        -24    2    4    4    0    0  0.10479485628E+03  0.20748387899E+03  0.25452347580E+04  0.25572308529E+04  0.84723902935E+02 0.  0.
         24    2    4    4    0    0 -0.72157152758E+02  0.11643947449E+03 -0.41506505196E+01  0.16001531877E+03  0.82600656333E+02 0.  0.
         11    1    3    3    0    0 -0.27310271540E+02 -0.26613683015E+03  0.13052555947E+03  0.29767698091E+03  0.00000000000E+00 0.  1.
        -11    1    3    3    0    0 -0.53274319863E+01 -0.57786523332E+02  0.86109280712E+02  0.10383868275E+03  0.00000000000E+00 0. -1.
          2    1    6    6  502    0 -0.65044300212E+02  0.38867113939E+02  0.20167254693E+02  0.78410022942E+02  0.00000000000E+00 0. -1.
          3    1    5    5  503    0  0.71802628284E+02  0.53755192702E+02  0.10026138766E+04  0.10066180128E+04  0.00000000000E+00 0. -1.
         -4    1    5    5    0  503  0.32992228001E+02  0.15372868629E+03  0.15426208814E+04  0.15506128401E+04  0.00000000000E+00 0.  1.
         -1    1    6    6    0  502 -0.71128525470E+01  0.77572360549E+02 -0.24317905213E+02  0.81605295823E+02  0.00000000000E+00 0.  1.
<mgrwt>
<rscale>  0 0.14565925E+04</rscale>
<asrwt>0</asrwt>
<pdfrwt beam="1">  1        2 0.45203695E+00 0.14565925E+04</pdfrwt>
<pdfrwt beam="2">  1       -2 0.27772532E-01 0.14565925E+04</pdfrwt>
<totfact> 0.21985900E+01</totfact>
</mgrwt>
</event>
<event>
12    1  0.2433511E-007  0.1230105E+04  0.7818608E-02  0.9086906E-01
         -2   -1    0    0    0  501 -0.00000000000E+00  0.00000000000E+00  0.63059954585E+03  0.63059954585E+03  0.00000000000E+00 0. -1.
          2   -1    0    0  501    0  0.00000000000E+00 -0.00000000000E+00 -0.59988864804E+03  0.59988864804E+03  0.00000000000E+00 0.  1.
         23    2    1    2    0    0  0.11229063684E+03  0.18368714171E+03  0.17962834556E+03  0.29394747387E+03  0.88253168301E+02 0.  0.
        254    2    1    2    0    0 -0.11229063684E+03 -0.18368714171E+03 -0.14891744775E+03  0.93654072002E+03  0.89921185539E+03 0.  0.
        -24    2    4    4    0    0 -0.10924351346E+03  0.23277467480E+03 -0.37026428115E+03  0.45821398990E+03  0.82135425856E+02 0.  0.
         24    2    4    4    0    0 -0.30471233774E+01 -0.41646181651E+03  0.22134683340E+03  0.47832673012E+03  0.79701383434E+02 0.  0.
         13    1    3    3    0    0  0.19491728914E+02  0.47547235968E+02  0.16484453115E+01  0.51413855294E+02  0.00000000000E+00 0.  1.
        -13    1    3    3    0    0  0.92798907923E+02  0.13613990574E+03  0.17797990025E+03  0.24253361857E+03  0.00000000000E+00 0. -1.
          2    1    6    6  502    0 -0.30968820431E+02 -0.10439466056E+03  0.38125354063E+02  0.11537268140E+03  0.00000000000E+00 0. -1.
          1    1    5    5  503    0 -0.48997702941E+01  0.84888946072E+01 -0.62954817534E+02  0.63713249261E+02  0.00000000000E+00 0. -1.
         -2    1    5    5    0  503 -0.10434374316E+03  0.22428578020E+03 -0.30730946361E+03  0.39450074064E+03  0.00000000000E+00 0.  1.
         -1    1    6    6    0  502  0.27921697054E+02 -0.31206715596E+03  0.18322147934E+03  0.36295404872E+03  0.00000000000E+00 0.  1.
<mgrwt>
<rscale>  0 0.12301049E+04</rscale>
<asrwt>0</asrwt>
<pdfrwt beam="1">  1        2 0.92290561E-01 0.12301049E+04</pdfrwt>
<pdfrwt beam="2">  1       -2 0.97015315E-01 0.12301049E+04</pdfrwt>
<totfact> 0.43357994E+01</totfact>
</mgrwt>
</event>
<event>
12    1  0.2433511E-007  0.1281602E+04  0.7818608E-02  0.9044284E-01
         -2   -1    0    0    0  501 -0.00000000000E+00  0.00000000000E+00  0.28232508572E+03  0.28232508572E+03  0.00000000000E+00 0.  1.
          2   -1    0    0  501    0  0.00000000000E+00 -0.00000000000E+00 -0.14544433887E+04  0.14544433887E+04  0.00000000000E+00 0. -1.
         23    2    1    2    0    0  0.27386407231E+03  0.21621328588E+02 -0.51019195267E+03  0.58616438426E+03  0.88452500544E+02 0.  0.
        254    2    1    2    0    0 -0.27386407231E+03 -0.21621328588E+02 -0.66192635032E+03  0.11506040902E+04  0.90015235772E+03 0.  0.
        -24    2    4    4    0    0 -0.49236279602E+03 -0.28834356774E+03 -0.32884100208E+03  0.66376094099E+03  0.82940015492E+02 0.  0.
         24    2    4    4    0    0  0.21849872371E+03  0.26672223915E+03 -0.33308534824E+03  0.48684314918E+03  0.84781823322E+02 0.  0.
         13    1    3    3    0    0  0.27523931494E+03  0.14354354522E+02 -0.46637167079E+03  0.54172434254E+03  0.00000000000E+00 0. -1.
        -13    1    3    3    0    0 -0.13752426274E+01  0.72669740664E+01 -0.43820281873E+02  0.44440041716E+02  0.00000000000E+00 0.  1.
          4    1    6    6  502    0  0.32972150247E+02  0.37603864394E+01 -0.33711063557E+02  0.47304746106E+02  0.00000000000E+00 0. -1.
          1    1    5    5  503    0 -0.24829884369E+03 -0.13195366957E+03 -0.20779166691E+03  0.34963046711E+03  0.00000000000E+00 0. -1.
         -2    1    5    5    0  503 -0.24406395233E+03 -0.15638989817E+03 -0.12104933517E+03  0.31413047388E+03  0.00000000000E+00 0.  1.
         -3    1    6    6    0  502  0.18552657347E+03  0.26296185271E+03 -0.29937428469E+03  0.43953840307E+03  0.00000000000E+00 0.  1.
<mgrwt>
<rscale>  0 0.12816019E+04</rscale>
<asrwt>0</asrwt>
<pdfrwt beam="1">  1        2 0.22376052E+00 0.12816019E+04</pdfrwt>
<pdfrwt beam="2">  1       -2 0.43434629E-01 0.12816019E+04</pdfrwt>
<totfact> 0.66423645E+01</totfact>
</mgrwt>
</event>
<event>
12    1  0.2433511E-007  0.1901733E+04  0.7818608E-02  0.8653994E-01
         -2   -1    0    0    0  501 -0.00000000000E+00  0.00000000000E+00  0.15874753834E+04  0.15874753834E+04  0.00000000000E+00 0.  1.
          2   -1    0    0  501    0  0.00000000000E+00 -0.00000000000E+00 -0.56955056757E+03  0.56955056757E+03  0.00000000000E+00 0. -1.
         23    2    1    2    0    0  0.68073329104E+03  0.76369025662E+02  0.10375852981E+03  0.70164189129E+03  0.11093002071E+03 0.  0.
        254    2    1    2    0    0 -0.68073329104E+03 -0.76369025662E+02  0.91416628603E+03  0.14553840597E+04  0.90178307873E+03 0.  0.
        -24    2    4    4    0    0 -0.30599618145E+03  0.21454745228E+03  0.89589282664E+03  0.97381124201E+03  0.77589341436E+02 0.  0.
         24    2    4    4    0    0 -0.37473710959E+03 -0.29091647795E+03  0.18273459385E+02  0.48157281767E+03  0.80735128409E+02 0.  0.
         13    1    3    3    0    0  0.38555142460E+03  0.62513291600E+02  0.11097843155E+03  0.40604682600E+03  0.00000000000E+00 0.  1.
        -13    1    3    3    0    0  0.29518186644E+03  0.13855734063E+02 -0.72199017378E+01  0.29559506529E+03  0.00000000000E+00 0. -1.
          4    1    6    6  502    0 -0.34140868549E+03 -0.26939524381E+03  0.39309142625E+02  0.43666794776E+03  0.00000000000E+00 0. -1.
          1    1    5    5  503    0 -0.27105178289E+03  0.21503930196E+03  0.82990557644E+03  0.89914083224E+03  0.00000000000E+00 0. -1.
         -2    1    5    5    0  503 -0.34944398556E+02 -0.49184967970E+00  0.65987250201E+02  0.74670409773E+02  0.00000000000E+00 0.  1.
         -3    1    6    6    0  502 -0.33328424107E+02 -0.21521234139E+02 -0.21035683240E+02  0.44904869911E+02  0.00000000000E+00 0.  1.
<mgrwt>
<rscale>  0 0.19017334E+04</rscale>
<asrwt>0</asrwt>
<pdfrwt beam="1">  1        2 0.87623165E-01 0.19017334E+04</pdfrwt>
<pdfrwt beam="2">  1       -2 0.24422698E+00 0.19017334E+04</pdfrwt>
<totfact> 0.34481408E+00</totfact>
</mgrwt>
</event>
<event>
12    1  0.2433511E-007  0.2282082E+04  0.7818608E-02  0.8485020E-01
         -1   -1    0    0    0  501 -0.00000000000E+00  0.00000000000E+00  0.45915572482E+03  0.45915572482E+03  0.00000000000E+00 0.  1.
          1   -1    0    0  501    0  0.00000000000E+00 -0.00000000000E+00 -0.28355833132E+04  0.28355833132E+04  0.00000000000E+00 0. -1.
         23    2    1    2    0    0  0.70564587234E+02  0.65363073770E+03  0.63935437154E+01  0.66375449747E+03  0.91195686660E+02 0.  0.
        254    2    1    2    0    0 -0.70564587234E+02 -0.65363073770E+03 -0.23828211321E+04  0.26309845406E+04  0.90112740655E+03 0.  0.
        -24    2    4    4    0    0 -0.14283989106E+03  0.34872936634E+01 -0.15783164297E+04  0.15868334582E+04  0.80884337104E+02 0.  0.
         24    2    4    4    0    0  0.72275303821E+02 -0.65711803137E+03 -0.80450470239E+03  0.10441510824E+04  0.77432809517E+02 0.  0.
         11    1    3    3    0    0  0.91320687730E+02  0.51140370825E+03 -0.55784204249E+01  0.51952318485E+03  0.00000000000E+00 0. -1.
        -11    1    3    3    0    0 -0.20756100496E+02  0.14222702945E+03  0.11971964140E+02  0.14423131262E+03  0.00000000000E+00 0.  1.
          2    1    6    6  502    0 -0.16766533412E+02 -0.94773560902E+02 -0.11495408956E+03  0.14992527204E+03  0.00000000000E+00 0. -1.
          3    1    5    5  503    0 -0.21383852480E+02  0.17732793676E+02 -0.63719044836E+03  0.63779572639E+03  0.00000000000E+00 0. -1.
         -4    1    5    5    0  503 -0.12145603858E+03 -0.14245500013E+02 -0.94112598137E+03  0.94903773180E+03  0.00000000000E+00 0.  1.
         -1    1    6    6    0  502  0.89041837233E+02 -0.56234447047E+03 -0.68955061283E+03  0.89422581035E+03  0.00000000000E+00 0.  1.
<mgrwt>
<rscale>  0 0.22820818E+04</rscale>
<asrwt>0</asrwt>
<pdfrwt beam="1">  1        1 0.43624357E+00 0.22820818E+04</pdfrwt>
<pdfrwt beam="2">  1       -1 0.70639344E-01 0.22820818E+04</pdfrwt>
<totfact> 0.14412539E+00</totfact>
</mgrwt>
</event>
<event>
12    1  0.2433511E-007  0.1533358E+04  0.7818608E-02  0.8862568E-01
         -1   -1    0    0    0  501 -0.00000000000E+00  0.00000000000E+00  0.96483119648E+03  0.96483119648E+03  0.00000000000E+00 0.  1.
          1   -1    0    0  501    0  0.00000000000E+00 -0.00000000000E+00 -0.60922217720E+03  0.60922217720E+03  0.00000000000E+00 0. -1.
         23    2    1    2    0    0 -0.12035790448E+03  0.47272284649E+03  0.18032087010E+02  0.49661995802E+03  0.91396453845E+02 0.  0.
        254    2    1    2    0    0  0.12035790448E+03 -0.47272284649E+03  0.33757693227E+03  0.10774334157E+04  0.89941740322E+03 0.  0.
        -24    2    4    4    0    0 -0.22275017081E+03 -0.49816776962E+03  0.44417587269E+03  0.70829499530E+03  0.81245487253E+02 0.  0.
         24    2    4    4    0    0  0.34310807529E+03  0.25444923129E+02 -0.10659894042E+03  0.36913842037E+03  0.80803736610E+02 0.  0.
         11    1    3    3    0    0 -0.60818298093E+02  0.31744155967E+03 -0.26957429564E+02  0.32433734321E+03  0.00000000000E+00 0. -1.
        -11    1    3    3    0    0 -0.59539606385E+02  0.15528128682E+03  0.44989516574E+02  0.17228261481E+03  0.00000000000E+00 0.  1.
          4    1    6    6  502    0  0.34598213807E+03  0.23137279014E+02 -0.11033947546E+03  0.36388703382E+03  0.00000000000E+00 0. -1.
          3    1    5    5  503    0 -0.19092101324E+03 -0.34175645200E+03  0.29997460235E+03  0.49318664604E+03  0.00000000000E+00 0. -1.
         -4    1    5    5    0  503 -0.31829157572E+02 -0.15641131762E+03  0.14420127033E+03  0.21510834925E+03  0.00000000000E+00 0.  1.
         -3    1    6    6    0  502 -0.28740627729E+01  0.23076441143E+01  0.37405350478E+01  0.52513865430E+01  0.00000000000E+00 0.  1.
<mgrwt>
<rscale>  0 0.15333578E+04</rscale>
<asrwt>0</asrwt>
<pdfrwt beam="1">  1        1 0.93726489E-01 0.15333578E+04</pdfrwt>
<pdfrwt beam="2">  1       -1 0.14843557E+00 0.15333578E+04</pdfrwt>
<totfact> 0.11599527E+01</totfact>
</mgrwt>
</event>
<event>
12    1  0.2433511E-007  0.2404829E+04  0.7818608E-02  0.8437698E-01
          1   -1    0    0  501    0  0.00000000000E+00  0.00000000000E+00  0.24068959535E+04  0.24068959535E+04  0.00000000000E+00 0. -1.
         -1   -1    0    0    0  501 -0.00000000000E+00 -0.00000000000E+00 -0.60069074164E+03  0.60069074164E+03  0.00000000000E+00 0.  1.
         23    2    1    2    0    0  0.14340574582E+03 -0.51801552012E+03  0.18830075371E+04  0.19604686042E+04  0.93885441753E+02 0.  0.
        254    2    1    2    0    0 -0.14340574582E+03  0.51801552012E+03 -0.76802325246E+02  0.10471180910E+04  0.89535044101E+03 0.  0.
        -24    2    4    4    0    0 -0.30801065027E+03  0.73731293391E+02 -0.36229722499E+03  0.48829449674E+03  0.82857540446E+02 0.  0.
         24    2    4    4    0    0  0.16460490445E+03  0.44428422673E+03  0.28549489974E+03  0.55882359421E+03  0.79329836604E+02 0.  0.
         11    1    3    3    0    0  0.23687563072E+02 -0.34023855146E+02  0.84339939400E+02  0.93978448281E+02  0.00000000000E+00 0.  1.
        -11    1    3    3    0    0  0.11971818275E+03 -0.48399166498E+03  0.17986675977E+04  0.18664901559E+04  0.00000000000E+00 0. -1.
          4    1    6    6  502    0  0.11119701170E+03  0.18677734225E+03  0.12593323332E+03  0.25121650074E+03  0.00000000000E+00 0. -1.
          1    1    5    5  503    0 -0.90102931250E+02 -0.30836791656E+01 -0.62084620180E+02  0.10946482248E+03  0.00000000000E+00 0. -1.
         -2    1    5    5    0  503 -0.21790771902E+03  0.76814972556E+02 -0.30021260481E+03  0.37882967426E+03  0.00000000000E+00 0.  1.
         -3    1    6    6    0  502  0.53407892754E+02  0.25750688448E+03  0.15956166642E+03  0.30760709347E+03  0.00000000000E+00 0.  1.
<mgrwt>
<rscale>  0 0.24048286E+04</rscale>
<asrwt>0</asrwt>
<pdfrwt beam="1">  1        1 0.37029168E+00 0.24048286E+04</pdfrwt>
<pdfrwt beam="2">  1       -1 0.92413962E-01 0.24048286E+04</pdfrwt>
<totfact> 0.16028463E+00</totfact>
</mgrwt>
</event>
<event>
12    1  0.2433511E-007  0.1973639E+04  0.7818608E-02  0.8619045E-01
         -1   -1    0    0    0  501 -0.00000000000E+00  0.00000000000E+00  0.42933967084E+03  0.42933967084E+03  0.00000000000E+00 0.  1.
          1   -1    0    0  501    0  0.00000000000E+00 -0.00000000000E+00 -0.22681643087E+04  0.22681643087E+04  0.00000000000E+00 0. -1.
         23    2    1    2    0    0  0.76175978825E+03 -0.16642229129E+03 -0.62596825228E+03  0.10039609337E+04  0.90149595477E+02 0.  0.
        254    2    1    2    0    0 -0.76175978825E+03  0.16642229129E+03 -0.12128563856E+04  0.16935430458E+04  0.88830911395E+03 0.  0.
        -24    2    4    4    0    0 -0.39981255932E+02  0.30728814830E+03 -0.76366946414E+03  0.82812350667E+03  0.81073947262E+02 0.  0.
         24    2    4    4    0    0 -0.72177853232E+03 -0.14086585701E+03 -0.44918692145E+03  0.86541953915E+03  0.79841398687E+02 0.  0.
         11    1    3    3    0    0  0.33987712123E+03 -0.45744322692E+02 -0.23013745772E+03  0.41300393465E+03  0.00000000000E+00 0. -1.
        -11    1    3    3    0    0  0.42188266702E+03 -0.12067796860E+03 -0.39583079456E+03  0.59095699908E+03  0.00000000000E+00 0.  1.
          2    1    6    6  502    0 -0.65955112135E+03 -0.12697481751E+03 -0.43462665369E+03  0.80001913356E+03  0.00000000000E+00 0. -1.
          3    1    5    5  503    0  0.39037431596E+01  0.21489068866E+03 -0.46107728535E+03  0.50870965231E+03  0.00000000000E+00 0. -1.
         -4    1    5    5    0  503 -0.43884999091E+02  0.92397459637E+02 -0.30259217880E+03  0.31941385437E+03  0.00000000000E+00 0.  1.
         -1    1    6    6    0  502 -0.62227410970E+02 -0.13891039496E+02 -0.14560267764E+02  0.65400405593E+02  0.00000000000E+00 0.  1.
<mgrwt>
<rscale>  0 0.19736392E+04</rscale>
<asrwt>0</asrwt>
<pdfrwt beam="1">  1        1 0.34894836E+00 0.19736392E+04</pdfrwt>
<pdfrwt beam="2">  1       -1 0.66052257E-01 0.19736392E+04</pdfrwt>
<totfact> 0.42273732E+00</totfact>
</mgrwt>
</event>
<event>
12    1  0.2433511E-007  0.1608861E+04  0.7818608E-02  0.8815123E-01
          2   -1    0    0  501    0  0.00000000000E+00  0.00000000000E+00  0.23552423222E+04  0.23552423222E+04  0.00000000000E+00 0. -1.
         -2   -1    0    0    0  501 -0.00000000000E+00 -0.00000000000E+00 -0.27475231231E+03  0.27475231231E+03  0.00000000000E+00 0.  1.
         23    2    1    2    0    0 -0.47200885073E+03 -0.27788154043E+03  0.70454471023E+03  0.89720918063E+03  0.92685270750E+02 0.  0.
        254    2    1    2    0    0  0.47200885073E+03  0.27788154043E+03  0.13759452997E+04  0.17327854539E+04  0.89961628257E+03 0.  0.
        -24    2    4    4    0    0  0.39926406981E+03  0.12896411803E+03  0.14665355687E+04  0.15274049130E+04  0.78712468900E+02 0.  0.
         24    2    4    4    0    0  0.72744780919E+02  0.14891742240E+03 -0.90590269042E+02  0.20538054090E+03  0.80662059792E+02 0.  0.
         11    1    3    3    0    0 -0.29683894879E+03 -0.17075315961E+03  0.36569346769E+03  0.50100071391E+03  0.00000000000E+00 0.  1.
        -11    1    3    3    0    0 -0.17516990194E+03 -0.10712838082E+03  0.33885124254E+03  0.39620846671E+03  0.00000000000E+00 0. -1.
          2    1    6    6  502    0  0.81000178663E+02  0.87581624241E+02 -0.77088731558E+02  0.14203606014E+03  0.00000000000E+00 0. -1.
          3    1    5    5  503    0  0.37274987651E+03  0.12774213152E+03  0.14217796328E+04  0.14753704100E+04  0.00000000000E+00 0. -1.
         -4    1    5    5    0  503  0.26514193299E+02  0.12219865114E+01  0.44755935909E+02  0.52034502941E+02  0.00000000000E+00 0.  1.
         -1    1    6    6    0  502 -0.82553977436E+01  0.61335798159E+02 -0.13501537484E+02  0.63344480755E+02  0.00000000000E+00 0.  1.
<mgrwt>
<rscale>  0 0.16088608E+04</rscale>
<asrwt>0</asrwt>
<pdfrwt beam="1">  1        2 0.36234496E+00 0.16088608E+04</pdfrwt>
<pdfrwt beam="2">  1       -2 0.42269588E-01 0.16088608E+04</pdfrwt>
<totfact> 0.21466481E+01</totfact>
</mgrwt>
</event>
<event>
12    1  0.2433511E-007  0.1571090E+04  0.7818608E-02  0.8838508E-01
         -1   -1    0    0    0  501 -0.00000000000E+00  0.00000000000E+00  0.30255699266E+04  0.30255699266E+04  0.00000000000E+00 0.  1.
          1   -1    0    0  501    0  0.00000000000E+00 -0.00000000000E+00 -0.20395529476E+03  0.20395529476E+03  0.00000000000E+00 0. -1.
         23    2    1    2    0    0  0.19413602843E+03 -0.39311728043E+03  0.36216044814E+03  0.57394090928E+03  0.77575662658E+02 0.  0.
        254    2    1    2    0    0 -0.19413602843E+03  0.39311728043E+03  0.24594541837E+04  0.26555843121E+04  0.90054603611E+03 0.  0.
        -24    2    4    4    0    0  0.13581949985E+03  0.53214825127E+03  0.19472127515E+04  0.20247294261E+04  0.79139443282E+02 0.  0.
         24    2    4    4    0    0 -0.32995552828E+03 -0.13903097084E+03  0.51224143224E+03  0.63085488601E+03  0.85943823544E+02 0.  0.
         13    1    3    3    0    0  0.14173964627E+03 -0.22063401355E+03  0.18294011331E+03  0.31974455479E+03  0.00000000000E+00 0. -1.
        -13    1    3    3    0    0  0.52396382157E+02 -0.17248326688E+03  0.17922033483E+03  0.25419635449E+03  0.00000000000E+00 0.  1.
          2    1    6    6  502    0 -0.16531129577E+03 -0.23283347778E+02  0.22907812024E+03  0.28345497697E+03  0.00000000000E+00 0. -1.
          3    1    5    5  503    0  0.89451763255E+02  0.24712178059E+03  0.10383409888E+04  0.10710848713E+04  0.00000000000E+00 0. -1.
         -4    1    5    5    0  503  0.46367736595E+02  0.28502647069E+03  0.90887176264E+03  0.95364455481E+03  0.00000000000E+00 0.  1.
         -1    1    6    6    0  502 -0.16464423251E+03 -0.11574762306E+03  0.28316331200E+03  0.34739990904E+03  0.00000000000E+00 0.  1.
<mgrwt>
<rscale>  0 0.15710901E+04</rscale>
<asrwt>0</asrwt>
<pdfrwt beam="1">  1        1 0.31377740E-01 0.15710901E+04</pdfrwt>
<pdfrwt beam="2">  1       -1 0.46547226E+00 0.15710901E+04</pdfrwt>
<totfact> 0.35475757E-01</totfact>
</mgrwt>
</event>
<event>
12    1  0.2433511E-007  0.1321909E+04  0.7818608E-02  0.9012369E-01
          2   -1    0    0  501    0  0.00000000000E+00  0.00000000000E+00  0.84486468721E+03  0.84486468721E+03  0.00000000000E+00 0. -1.
         -2   -1    0    0    0  501 -0.00000000000E+00 -0.00000000000E+00 -0.51707811002E+03  0.51707811002E+03  0.00000000000E+00 0.  1.
         23    2    1    2    0    0 -0.23564000073E+03  0.25234631481E+03  0.45277120222E+02  0.35928762338E+03  0.88502577116E+02 0.  0.
        254    2    1    2    0    0  0.23564000073E+03 -0.25234631481E+03  0.28250945697E+03  0.10026551739E+04  0.89794261055E+03 0.  0.
        -24    2    4    4    0    0  0.10574373951E+03 -0.16428082921E+03  0.60183577126E+03  0.63774539097E+03  0.79642694839E+02 0.  0.
         24    2    4    4    0    0  0.12989626121E+03 -0.88065485601E+02 -0.31932631428E+03  0.36490978289E+03  0.81001766784E+02 0.  0.
         13    1    3    3    0    0 -0.22551568853E+02  0.67596497806E+02  0.28548326499E+02  0.76765009733E+02  0.00000000000E+00 0. -1.
        -13    1    3    3    0    0 -0.21308843187E+03  0.18474981701E+03  0.16728793722E+02  0.28252261365E+03  0.00000000000E+00 0.  1.
          4    1    6    6  502    0  0.49586861169E+02 -0.22285173331E+02 -0.41717783976E+02  0.68526339833E+02  0.00000000000E+00 0. -1.
          1    1    5    5  503    0  0.35472648795E+02 -0.10836835281E+03  0.25251391005E+03  0.27706548589E+03  0.00000000000E+00 0. -1.
         -2    1    5    5    0  503  0.70271090719E+02 -0.55912476404E+02  0.34932186121E+03  0.36067990507E+03  0.00000000000E+00 0.  1.
         -3    1    6    6    0  502  0.80309400043E+02 -0.65780312270E+02 -0.27760853031E+03  0.29638344305E+03  0.00000000000E+00 0.  1.
<mgrwt>
<rscale>  0 0.13219093E+04</rscale>
<asrwt>0</asrwt>
<pdfrwt beam="1">  1        2 0.12997918E+00 0.13219093E+04</pdfrwt>
<pdfrwt beam="2">  1       -2 0.79550478E-01 0.13219093E+04</pdfrwt>
<totfact> 0.43863756E+01</totfact>
</mgrwt>
</event>
<event>
12    1  0.2433511E-007  0.2948495E+04  0.7818608E-02  0.8258593E-01
          2   -1    0    0  501    0  0.00000000000E+00  0.00000000000E+00  0.75787783497E+03  0.75787783497E+03  0.00000000000E+00 0. -1.
         -2   -1    0    0    0  501 -0.00000000000E+00 -0.00000000000E+00 -0.28677525958E+04  0.28677525958E+04  0.00000000000E+00 0.  1.
         23    2    1    2    0    0  0.76134504315E+03 -0.63689293575E+03  0.14098016737E+03  0.10043229177E+04  0.59247185664E+02 0.  0.
        254    2    1    2    0    0 -0.76134504315E+03  0.63689293575E+03 -0.22508549282E+04  0.26213075131E+04  0.90533214022E+03 0.  0.
        -24    2    4    4    0    0  0.64642012492E+02  0.17133736216E+03 -0.26145133223E+02  0.20164162160E+03  0.80253935220E+02 0.  0.
         24    2    4    4    0    0 -0.82598705564E+03  0.46555557359E+03 -0.22247097950E+04  0.24196658915E+04  0.80328988959E+02 0.  0.
         11    1    3    3    0    0  0.35365543559E+03 -0.30044387076E+03  0.95566054141E+02  0.47378429406E+03  0.00000000000E+00 0. -1.
        -11    1    3    3    0    0  0.40768960756E+03 -0.33644906499E+03  0.45414113229E+02  0.53053862360E+03  0.00000000000E+00 0.  1.
          2    1    6    6  502    0 -0.73215827669E+03  0.43449769596E+03 -0.19515831920E+04  0.21292066469E+04  0.00000000000E+00 0. -1.
          3    1    5    5  503    0  0.71779524538E+02  0.12685711046E+03  0.66675256253E+01  0.14590915843E+03  0.00000000000E+00 0. -1.
         -4    1    5    5    0  503 -0.71375120458E+01  0.44480251697E+02 -0.32812658848E+02  0.55732463161E+02  0.00000000000E+00 0.  1.
         -1    1    6    6    0  502 -0.93828778957E+02  0.31057877631E+02 -0.27312660295E+03  0.29045924458E+03  0.00000000000E+00 0.  1.
<mgrwt>
<rscale>  0 0.29484953E+04</rscale>
<asrwt>0</asrwt>
<pdfrwt beam="1">  1        2 0.11659659E+00 0.29484953E+04</pdfrwt>
<pdfrwt beam="2">  1       -2 0.44119271E+00 0.29484953E+04</pdfrwt>
<totfact> 0.12606737E-01</totfact>
</mgrwt>
</event>
<event>
12    1  0.2433511E-007  0.1471902E+04  0.7818608E-02  0.8903356E-01
         -1   -1    0    0    0  501 -0.00000000000E+00  0.00000000000E+00  0.25001507171E+03  0.25001507171E+03  0.00000000000E+00 0.  1.
          1   -1    0    0  501    0  0.00000000000E+00 -0.00000000000E+00 -0.21663640794E+04  0.21663640794E+04  0.00000000000E+00 0. -1.
         23    2    1    2    0    0  0.35949190558E+03  0.60112658687E+02 -0.15543693678E+03  0.40640379130E+03  0.90307465670E+02 0.  0.
        254    2    1    2    0    0 -0.35949190558E+03 -0.60112658687E+02 -0.17609120709E+04  0.20099753598E+04  0.89796529087E+03 0.  0.
        -24    2    4    4    0    0 -0.35104428967E+02 -0.33214425625E+03 -0.21591424145E+03  0.40604115712E+03  0.81843348670E+02 0.  0.
         24    2    4    4    0    0 -0.32438747661E+03  0.27203159757E+03 -0.15449978295E+04  0.16039342027E+04  0.79738374845E+02 0.  0.
         11    1    3    3    0    0  0.24821538274E+03 -0.10517252727E+01 -0.95002313343E+02  0.26577701536E+03  0.00000000000E+00 0.  1.
        -11    1    3    3    0    0  0.11127652284E+03  0.61164383960E+02 -0.60434623432E+02  0.14062677593E+03  0.00000000000E+00 0. -1.
          4    1    6    6  502    0 -0.90612425447E+02  0.42294749122E+02 -0.44761438719E+03  0.45864811901E+03  0.00000000000E+00 0. -1.
          1    1    5    5  503    0 -0.15790957985E+02 -0.22695148927E+03 -0.10055628426E+03  0.24873258560E+03  0.00000000000E+00 0. -1.
         -2    1    5    5    0  503 -0.19313470982E+02 -0.10519276698E+03 -0.11535795719E+03  0.15730857152E+03  0.00000000000E+00 0.  1.
         -3    1    6    6    0  502 -0.23377505117E+03  0.22973684844E+03 -0.10973834423E+04  0.11452860837E+04  0.00000000000E+00 0.  1.
<mgrwt>
<rscale>  0 0.14719017E+04</rscale>
<asrwt>0</asrwt>
<pdfrwt beam="1">  1        1 0.33328678E+00 0.14719017E+04</pdfrwt>
<pdfrwt beam="2">  1       -1 0.38463857E-01 0.14719017E+04</pdfrwt>
<totfact> 0.14587080E+01</totfact>
</mgrwt>
</event>
<event>
12    1  0.2433511E-007  0.1185827E+04  0.7818608E-02  0.9125353E-01
         -2   -1    0    0    0  501 -0.00000000000E+00  0.00000000000E+00  0.12205827253E+03  0.12205827253E+03  0.00000000000E+00 0.  1.
          2   -1    0    0  501    0  0.00000000000E+00 -0.00000000000E+00 -0.28801545099E+04  0.28801545099E+04  0.00000000000E+00 0. -1.
         23    2    1    2    0    0 -0.11748193796E+02 -0.20669607924E+03 -0.89185334326E+03  0.92013106109E+03  0.91528653790E+02 0.  0.
        254    2    1    2    0    0  0.11748193796E+02  0.20669607924E+03 -0.18662428941E+04  0.20820817213E+04  0.89963351721E+03 0.  0.
        -24    2    4    4    0    0 -0.31028952643E+03 -0.13972486683E+02 -0.15219786112E+04  0.15554550655E+04  0.80911972609E+02 0.  0.
         24    2    4    4    0    0  0.32203772023E+03  0.22066856592E+03 -0.34426428290E+03  0.52662665581E+03  0.80092626976E+02 0.  0.
         13    1    3    3    0    0  0.87272398780E+01 -0.11318968830E+03 -0.65328242815E+03  0.66307314919E+03  0.00000000000E+00 0. -1.
        -13    1    3    3    0    0 -0.20475433674E+02 -0.93506390939E+02 -0.23857091511E+03  0.25705791190E+03  0.00000000000E+00 0.  1.
          4    1    6    6  502    0  0.83634567569E+02  0.52806997135E+02 -0.44534481695E+02  0.10847414392E+03  0.00000000000E+00 0. -1.
          3    1    5    5  503    0 -0.92620095459E+01  0.14394711715E+02 -0.53507688024E+02  0.56178868125E+02  0.00000000000E+00 0. -1.
         -4    1    5    5    0  503 -0.30102751689E+03 -0.28367198398E+02 -0.14684709231E+04  0.14992761974E+04  0.00000000000E+00 0.  1.
         -3    1    6    6    0  502  0.23840315266E+03  0.16786156879E+03 -0.29972980120E+03  0.41815251189E+03  0.00000000000E+00 0.  1.
<mgrwt>
<rscale>  0 0.11858274E+04</rscale>
<asrwt>0</asrwt>
<pdfrwt beam="1">  1        2 0.44310066E+00 0.11858274E+04</pdfrwt>
<pdfrwt beam="2">  1       -2 0.18778197E-01 0.11858274E+04</pdfrwt>
<totfact> 0.49341133E+01</totfact>
</mgrwt>
</event>
<event>
12    1  0.2433511E-007  0.2042630E+04  0.7818608E-02  0.8586945E-01
          2   -1    0    0  501    0  0.00000000000E+00  0.00000000000E+00  0.11839923981E+04  0.11839923981E+04  0.00000000000E+00 0.  1.
         -2   -1    0    0    0  501 -0.00000000000E+00 -0.00000000000E+00 -0.88098905661E+03  0.88098905661E+03  0.00000000000E+00 0. -1.
         23    2    1    2    0    0 -0.57841264367E+03 -0.22353602279E+02 -0.46467473473E+03  0.74791291981E+03  0.91598344002E+02 0.  0.
        254    2    1    2    0    0  0.57841264367E+03  0.22353602279E+02  0.76767807626E+03  0.13170685349E+04  0.90015500169E+03 0.  0.
        -24    2    4    4    0    0 -0.18302240873E+03  0.20142175644E+03  0.20009921596E+03  0.34736006666E+03  0.80940679626E+02 0.  0.
         24    2    4    4    0    0  0.76143505240E+03 -0.17906815416E+03  0.56757886030E+03  0.96970846828E+03  0.79624166789E+02 0.  0.
         13    1    3    3    0    0 -0.36475566874E+03  0.30241787389E+02 -0.29161733195E+03  0.46797642235E+03  0.00000000000E+00 0. -1.
        -13    1    3    3    0    0 -0.21365697493E+03 -0.52595389668E+02 -0.17305740278E+03  0.27993649746E+03  0.00000000000E+00 0.  1.
          2    1    6    6  502    0  0.14890887871E+03 -0.45179748119E+01  0.11927557220E+03  0.19084267966E+03  0.00000000000E+00 0. -1.
          1    1    5    5  503    0 -0.98884637824E+02  0.50531641046E+02  0.73287480579E+02  0.13305139290E+03  0.00000000000E+00 0. -1.
         -2    1    5    5    0  503 -0.84137770905E+02  0.15089011539E+03  0.12681173538E+03  0.21430867376E+03  0.00000000000E+00 0.  1.
         -1    1    6    6    0  502  0.61252617369E+03 -0.17455017935E+03  0.44830328810E+03  0.77886578863E+03  0.00000000000E+00 0.  1.
<mgrwt>
<rscale>  0 0.20426300E+04</rscale>
<asrwt>0</asrwt>
<pdfrwt beam="1">  1        2 0.18215268E+00 0.20426300E+04</pdfrwt>
<pdfrwt beam="2">  1       -2 0.13553678E+00 0.20426300E+04</pdfrwt>
<totfact> 0.70024332E+00</totfact>
</mgrwt>
</event>
<event>
12    1  0.2433511E-007  0.1295761E+04  0.7818608E-02  0.9032933E-01
          2   -1    0    0  501    0  0.00000000000E+00  0.00000000000E+00  0.20675337736E+04  0.20675337736E+04  0.00000000000E+00 0. -1.
         -2   -1    0    0    0  501 -0.00000000000E+00 -0.00000000000E+00 -0.20301927806E+03  0.20301927806E+03  0.00000000000E+00 0.  1.
         23    2    1    2    0    0  0.97963426653E+02 -0.25180862419E+03  0.16677936007E+03  0.33032997182E+03  0.91094012754E+02 0.  0.
        254    2    1    2    0    0 -0.97963426653E+02  0.25180862419E+03  0.16977351355E+04  0.19402230799E+04  0.89953131863E+03 0.  0.
        -24    2    4    4    0    0 -0.30659703046E+03 -0.69583923947E+02  0.17758326058E+03  0.37042675825E+03  0.82683173795E+02 0.  0.
         24    2    4    4    0    0  0.20863360380E+03  0.32139254814E+03  0.15201518749E+04  0.15697963216E+04  0.81102515091E+02 0.  0.
         11    1    3    3    0    0  0.30578083030E+02 -0.10267863392E+02  0.32862154059E+02  0.46047468441E+02  0.00000000000E+00 0. -1.
        -11    1    3    3    0    0  0.67385343624E+02 -0.24154076080E+03  0.13391720601E+03  0.28428250338E+03  0.00000000000E+00 0.  1.
          4    1    6    6  502    0  0.19347448030E+02  0.61792178871E+02  0.36960024599E+03  0.37522918190E+03  0.00000000000E+00 0. -1.
          3    1    5    5  503    0 -0.10569590928E+03  0.10477819891E+02  0.80989970407E+02  0.13356940239E+03  0.00000000000E+00 0. -1.
         -4    1    5    5    0  503 -0.20090112118E+03 -0.80061743837E+02  0.96593290175E+02  0.23685735585E+03  0.00000000000E+00 0.  1.
         -3    1    6    6    0  502  0.18928615577E+03  0.25960036926E+03  0.11505516289E+04  0.11945671397E+04  0.00000000000E+00 0.  1.
<mgrwt>
<rscale>  0 0.12957611E+04</rscale>
<asrwt>0</asrwt>
<pdfrwt beam="1">  1        2 0.31808210E+00 0.12957611E+04</pdfrwt>
<pdfrwt beam="2">  1       -2 0.31233737E-01 0.12957611E+04</pdfrwt>
<totfact> 0.57187976E+01</totfact>
</mgrwt>
</event>
<event>
12    1  0.2433511E-007  0.1684185E+04  0.7818608E-02  0.8770436E-01
          2   -1    0    0  501    0  0.00000000000E+00  0.00000000000E+00  0.22997006263E+04  0.22997006263E+04  0.00000000000E+00 0. -1.
         -2   -1    0    0    0  501 -0.00000000000E+00 -0.00000000000E+00 -0.30835301565E+03  0.30835301565E+03  0.00000000000E+00 0.  1.
         23    2    1    2    0    0 -0.51916752934E+03 -0.26302014665E+03  0.77638989983E+03  0.97445106761E+03  0.89772409679E+02 0.  0.
        254    2    1    2    0    0  0.51916752934E+03  0.26302014665E+03  0.12149577108E+04  0.16336025743E+04  0.92402413968E+03 0.  0.
        -24    2    4    4    0    0 -0.98172936541E+02  0.13936039699E+03  0.90997003956E+03  0.92891899860E+03  0.76064363155E+02 0.  0.
         24    2    4    4    0    0  0.61734046588E+03  0.12365974966E+03  0.30498767123E+03  0.70468357571E+03  0.84619606299E+02 0.  0.
         13    1    3    3    0    0 -0.37046557726E+03 -0.22961146279E+03  0.55533458406E+03  0.70594806327E+03  0.00000000000E+00 0. -1.
        -13    1    3    3    0    0 -0.14870195208E+03 -0.33408683865E+02  0.22105531577E+03  0.26850300434E+03  0.00000000000E+00 0.  1.
          2    1    6    6  502    0  0.55335339233E+03  0.10131152998E+03  0.29783582986E+03  0.63652979856E+03  0.00000000000E+00 0. -1.
          3    1    5    5  503    0 -0.10793853009E+03  0.10657204609E+03  0.70734647958E+03  0.72342751500E+03  0.00000000000E+00 0. -1.
         -4    1    5    5    0  503  0.97655935509E+01  0.32788350907E+02  0.20262355999E+03  0.20549148361E+03  0.00000000000E+00 0.  1.
         -1    1    6    6    0  502  0.63987073553E+02  0.22348219680E+02  0.71518413767E+01  0.68153777150E+02  0.00000000000E+00 0.  1.
<mgrwt>
<rscale>  0 0.16841848E+04</rscale>
<asrwt>0</asrwt>
<pdfrwt beam="1">  1        2 0.35380009E+00 0.16841848E+04</pdfrwt>
<pdfrwt beam="2">  1       -2 0.47438927E-01 0.16841848E+04</pdfrwt>
<totfact> 0.18212179E+01</totfact>
</mgrwt>
</event>
<event>
12    1  0.2433511E-007  0.1616404E+04  0.7818608E-02  0.8810533E-01
          2   -1    0    0  501    0  0.00000000000E+00  0.00000000000E+00  0.14322101326E+04  0.14322101326E+04  0.00000000000E+00 0.  1.
         -2   -1    0    0    0  501 -0.00000000000E+00 -0.00000000000E+00 -0.45607163078E+03  0.45607163078E+03  0.00000000000E+00 0. -1.
         23    2    1    2    0    0  0.48498729263E+03 -0.16755764163E+03  0.98905919425E+02  0.53102557731E+03  0.94432756943E+02 0.  0.
        254    2    1    2    0    0 -0.48498729263E+03  0.16755764163E+03  0.87723258235E+03  0.13572561860E+04  0.89962165030E+03 0.  0.
        -24    2    4    4    0    0 -0.69713728888E+03 -0.16315716468E+02  0.42940240359E+03  0.82282841718E+03  0.79959850973E+02 0.  0.
         24    2    4    4    0    0  0.21214999625E+03  0.18387335809E+03  0.44783017876E+03  0.53442776884E+03  0.79019860638E+02 0.  0.
         13    1    3    3    0    0  0.43910181873E+03 -0.15902856277E+03  0.61158515403E+02  0.47099984607E+03  0.00000000000E+00 0. -1.
        -13    1    3    3    0    0  0.45885473899E+02 -0.85290788516E+01  0.37747404022E+02  0.60025731244E+02  0.00000000000E+00 0.  1.
          2    1    6    6  502    0  0.14966637570E+03  0.15921308308E+03  0.29177501171E+03  0.36452913093E+03  0.00000000000E+00 0. -1.
          1    1    5    5  503    0 -0.10115358789E+03 -0.26276323857E+02  0.82625104581E+02  0.13322687959E+03  0.00000000000E+00 0. -1.
         -2    1    5    5    0  503 -0.59598370098E+03  0.99606073884E+01  0.34677729901E+03  0.68960153759E+03  0.00000000000E+00 0.  1.
         -1    1    6    6    0  502  0.62483620550E+02  0.24660275014E+02  0.15605516705E+03  0.16989863791E+03  0.00000000000E+00 0.  1.
<mgrwt>
<rscale>  0 0.16164039E+04</rscale>
<asrwt>0</asrwt>
<pdfrwt beam="1">  1        2 0.22034002E+00 0.16164039E+04</pdfrwt>
<pdfrwt beam="2">  1       -2 0.70164867E-01 0.16164039E+04</pdfrwt>
<totfact> 0.24565526E+01</totfact>
</mgrwt>
</event>
<event>
12    1  0.2433511E-007  0.2254758E+04  0.7818608E-02  0.8495976E-01
         -2   -1    0    0    0  501 -0.00000000000E+00  0.00000000000E+00  0.37860222703E+03  0.37860222703E+03  0.00000000000E+00 0.  1.
          2   -1    0    0  501    0  0.00000000000E+00 -0.00000000000E+00 -0.33570416748E+04  0.33570416748E+04  0.00000000000E+00 0. -1.
         23    2    1    2    0    0  0.51318761432E+03  0.79193358362E+03 -0.13578225761E+04  0.16560978401E+04  0.91965098178E+02 0.  0.
        254    2    1    2    0    0 -0.51318761432E+03 -0.79193358362E+03 -0.16206168716E+04  0.20795460618E+04  0.89866147687E+03 0.  0.
        -24    2    4    4    0    0 -0.33261868001E+03 -0.30821488535E+03 -0.14633387407E+04  0.15340827587E+04  0.80112661736E+02 0.  0.
         24    2    4    4    0    0 -0.18056893431E+03 -0.48371869827E+03 -0.15727813094E+03  0.54546330310E+03  0.78771095353E+02 0.  0.
         11    1    3    3    0    0  0.24311076602E+03  0.32722828981E+03 -0.65148100113E+03  0.76851069807E+03  0.00000000000E+00 0. -1.
        -11    1    3    3    0    0  0.27007684831E+03  0.46470529380E+03 -0.70634157502E+03  0.88758714202E+03  0.00000000000E+00 0.  1.
          4    1    6    6  502    0 -0.16546852959E+03 -0.34823188394E+03 -0.12580504338E+03  0.40555170844E+03  0.00000000000E+00 0. -1.
          1    1    5    5  503    0 -0.30888616461E+03 -0.28547925326E+03 -0.12663989743E+04  0.13344195100E+04  0.00000000000E+00 0. -1.
         -2    1    5    5    0  503 -0.23732515401E+02 -0.22735632085E+02 -0.19693976643E+03  0.19966324863E+03  0.00000000000E+00 0.  1.
         -3    1    6    6    0  502 -0.15100404715E+02 -0.13548681433E+03 -0.31473087555E+02  0.13991159465E+03  0.00000000000E+00 0.  1.
<mgrwt>
<rscale>  0 0.22547580E+04</rscale>
<asrwt>0</asrwt>
<pdfrwt beam="1">  1        2 0.51646797E+00 0.22547580E+04</pdfrwt>
<pdfrwt beam="2">  1       -2 0.58246495E-01 0.22547580E+04</pdfrwt>
<totfact> 0.25645171E+00</totfact>
</mgrwt>
</event>
<event>
12    1  0.2433511E-007  0.1470786E+04  0.7818608E-02  0.8904116E-01
         -2   -1    0    0    0  501 -0.00000000000E+00  0.00000000000E+00  0.26708943667E+03  0.26708943667E+03  0.00000000000E+00 0.  1.
          2   -1    0    0  501    0  0.00000000000E+00 -0.00000000000E+00 -0.20247994207E+04  0.20247994207E+04  0.00000000000E+00 0. -1.
         23    2    1    2    0    0 -0.34186823606E+03  0.29369275026E+03 -0.65488811120E+03  0.80015952140E+03  0.90815742601E+02 0.  0.
        254    2    1    2    0    0  0.34186823606E+03 -0.29369275026E+03 -0.11028218728E+04  0.14917293359E+04  0.89772546260E+03 0.  0.
        -24    2    4    4    0    0  0.11030837885E+03 -0.44006481114E+03 -0.13132151579E+03  0.47922638462E+03  0.81164097711E+02 0.  0.
         24    2    4    4    0    0  0.23155985721E+03  0.14637206088E+03 -0.97150035701E+03  0.10125029513E+04  0.79401102598E+02 0.  0.
         13    1    3    3    0    0 -0.93149555872E+02  0.12741317534E+03 -0.26890002596E+03  0.31179830175E+03  0.00000000000E+00 0.  1.
        -13    1    3    3    0    0 -0.24871868019E+03  0.16627957492E+03 -0.38598808524E+03  0.48836121965E+03  0.00000000000E+00 0. -1.
          4    1    6    6  502    0  0.19940489737E+02  0.19794884510E+02 -0.21501555218E+03  0.21684360324E+03  0.00000000000E+00 0. -1.
          1    1    5    5  503    0  0.71825698695E+02 -0.15270267699E+03 -0.71059384138E+02  0.18310236106E+03  0.00000000000E+00 0. -1.
         -2    1    5    5    0  503  0.38482680152E+02 -0.28736213415E+03 -0.60262131654E+02  0.29612402356E+03  0.00000000000E+00 0.  1.
         -3    1    6    6    0  502  0.21161936748E+03  0.12657717637E+03 -0.75648480482E+03  0.79565934809E+03  0.00000000000E+00 0.  1.
<mgrwt>
<rscale>  0 0.14707856E+04</rscale>
<asrwt>0</asrwt>
<pdfrwt beam="1">  1        2 0.31150761E+00 0.14707856E+04</pdfrwt>
<pdfrwt beam="2">  1       -2 0.41090681E-01 0.14707856E+04</pdfrwt>
<totfact> 0.35173666E+01</totfact>
</mgrwt>
</event>
<event>
12    1  0.2433511E-007  0.1304680E+04  0.7818608E-02  0.9025862E-01
          2   -1    0    0  501    0  0.00000000000E+00  0.00000000000E+00  0.79687615071E+03  0.79687615071E+03  0.00000000000E+00 0. -1.
         -2   -1    0    0    0  501 -0.00000000000E+00 -0.00000000000E+00 -0.53401930969E+03  0.53401930969E+03  0.00000000000E+00 0.  1.
         23    2    1    2    0    0 -0.18186792760E+03 -0.15022529965E+03  0.30858350561E+03  0.39921136920E+03  0.92208207975E+02 0.  0.
        254    2    1    2    0    0  0.18186792760E+03  0.15022529965E+03 -0.45726664591E+02  0.93168409119E+03  0.90016705904E+03 0.  0.
        -24    2    4    4    0    0 -0.17834591340E+03  0.41781906095E+03  0.55854091905E+02  0.46463051661E+03  0.79886199455E+02 0.  0.
         24    2    4    4    0    0  0.36021384100E+03 -0.26759376130E+03 -0.10158075650E+03  0.46705357459E+03  0.80373870800E+02 0.  0.
         13    1    3    3    0    0 -0.59971689208E+02 -0.39669590735E+02  0.16812347204E+03  0.18285453723E+03  0.00000000000E+00 0. -1.
        -13    1    3    3    0    0 -0.12189623840E+03 -0.11055570891E+03  0.14046003357E+03  0.21635683197E+03  0.00000000000E+00 0.  1.
          4    1    6    6  502    0  0.28470244926E+03 -0.24473841101E+03 -0.98295730535E+02  0.38809074336E+03  0.00000000000E+00 0. -1.
          3    1    5    5  503    0 -0.16007200247E+03  0.41205858563E+03  0.54791656953E+02  0.44544073640E+03  0.00000000000E+00 0. -1.
         -4    1    5    5    0  503 -0.18273910931E+02  0.57604753127E+01  0.10624349522E+01  0.19189780212E+02  0.00000000000E+00 0.  1.
         -1    1    6    6    0  502  0.75511391743E+02 -0.22855350283E+02 -0.32850259605E+01  0.78962831225E+02  0.00000000000E+00 0.  1.
<mgrwt>
<rscale>  0 0.13046797E+04</rscale>
<asrwt>0</asrwt>
<pdfrwt beam="1">  1        2 0.12259633E+00 0.13046797E+04</pdfrwt>
<pdfrwt beam="2">  1       -2 0.82156817E-01 0.13046797E+04</pdfrwt>
<totfact> 0.44183728E+01</totfact>
</mgrwt>
</event>
<event>
12    1  0.2433511E-007  0.2459522E+04  0.7818608E-02  0.8417550E-01
          2   -1    0    0  501    0  0.00000000000E+00  0.00000000000E+00  0.19527356698E+04  0.19527356698E+04  0.00000000000E+00 0. -1.
         -2   -1    0    0    0  501 -0.00000000000E+00 -0.00000000000E+00 -0.77445822035E+03  0.77445822035E+03  0.00000000000E+00 0.  1.
         23    2    1    2    0    0  0.37487425469E+03 -0.99309408392E+03  0.45490090183E+03  0.11587767508E+04  0.95195384743E+02 0.  0.
        254    2    1    2    0    0 -0.37487425469E+03  0.99309408392E+03  0.72337654765E+03  0.15684171394E+04  0.89994006865E+03 0.  0.
        -24    2    4    4    0    0 -0.40004508918E+03  0.11441553563E+04  0.58392381722E+03  0.13477503724E+04  0.79602069407E+02 0.  0.
         24    2    4    4    0    0  0.25170834489E+02 -0.15106127233E+03  0.13945273043E+03  0.22066676698E+03  0.76116221133E+02 0.  0.
         13    1    3    3    0    0  0.32705878529E+03 -0.79256580431E+03  0.39564633065E+03  0.94427963133E+03  0.00000000000E+00 0. -1.
        -13    1    3    3    0    0  0.47815469403E+02 -0.20052827961E+03  0.59254571180E+02  0.21449711943E+03  0.00000000000E+00 0.  1.
          2    1    6    6  502    0  0.53471166644E+01  0.24084212396E+01 -0.59309349083E+01  0.83407516674E+01  0.00000000000E+00 0. -1.
          3    1    5    5  503    0 -0.11313234980E+03  0.24937745359E+03  0.15708021150E+03  0.31569326216E+03  0.00000000000E+00 0. -1.
         -4    1    5    5    0  503 -0.28691273938E+03  0.89477790266E+03  0.42684360573E+03  0.10320571103E+04  0.00000000000E+00 0.  1.
         -1    1    6    6    0  502  0.19823717825E+02 -0.15346969357E+03  0.14538366533E+03  0.21232601531E+03  0.00000000000E+00 0.  1.
<mgrwt>
<rscale>  0 0.24595221E+04</rscale>
<asrwt>0</asrwt>
<pdfrwt beam="1">  1        2 0.30042087E+00 0.24595221E+04</pdfrwt>
<pdfrwt beam="2">  1       -2 0.11914742E+00 0.24595221E+04</pdfrwt>
<totfact> 0.34331856E+00</totfact>
</mgrwt>
</event>
<event>
12    1  0.2433511E-007  0.2682004E+04  0.7818608E-02  0.8340868E-01
          1   -1    0    0  501    0  0.00000000000E+00  0.00000000000E+00  0.19444356115E+04  0.19444356115E+04  0.00000000000E+00 0. -1.
         -1   -1    0    0    0  501 -0.00000000000E+00 -0.00000000000E+00 -0.92483713589E+03  0.92483713589E+03  0.00000000000E+00 0.  1.
         23    2    1    2    0    0 -0.19404908963E+03 -0.11614805194E+04  0.62167471104E+03  0.13345041344E+04  0.87919236539E+02 0.  0.
        254    2    1    2    0    0  0.19404908963E+03  0.11614805194E+04  0.39792376452E+03  0.15347686130E+04  0.90026625330E+03 0.  0.
        -24    2    4    4    0    0  0.48027344467E+03  0.30330741255E+03  0.16023214639E+03  0.59603666585E+03  0.83230992672E+02 0.  0.
         24    2    4    4    0    0 -0.28622435505E+03  0.85817310687E+03  0.23769161813E+03  0.93873194712E+03  0.79592087769E+02 0.  0.
         11    1    3    3    0    0 -0.10311692789E+03 -0.80579691174E+03  0.45761167494E+03  0.93238951561E+03  0.00000000000E+00 0.  1.
        -11    1    3    3    0    0 -0.90932161741E+02 -0.35568360767E+03  0.16406303611E+03  0.40211461876E+03  0.00000000000E+00 0. -1.
          2    1    6    6  502    0 -0.11452653081E+03  0.24097109630E+03  0.86750959320E+02  0.28055146489E+03  0.00000000000E+00 0. -1.
          3    1    5    5  503    0  0.19809632423E+03  0.16706130979E+03  0.94782754403E+02  0.27592644932E+03  0.00000000000E+00 0. -1.
         -4    1    5    5    0  503  0.28217712044E+03  0.13624610276E+03  0.65449391984E+02  0.32011021654E+03  0.00000000000E+00 0.  1.
         -1    1    6    6    0  502 -0.17169782424E+03  0.61720201057E+03  0.15094065881E+03  0.65818048222E+03  0.00000000000E+00 0.  1.
<mgrwt>
<rscale>  0 0.26820039E+04</rscale>
<asrwt>0</asrwt>
<pdfrwt beam="1">  1        1 0.29914394E+00 0.26820039E+04</pdfrwt>
<pdfrwt beam="2">  1       -1 0.14228264E+00 0.26820039E+04</pdfrwt>
<totfact> 0.11417264E+00</totfact>
</mgrwt>
</event>
<event>
12    1  0.2433511E-007  0.1255698E+04  0.7818608E-02  0.9065454E-01
         -1   -1    0    0    0  501 -0.00000000000E+00  0.00000000000E+00  0.18148660689E+03  0.18148660689E+03  0.00000000000E+00 0.  1.
          1   -1    0    0  501    0  0.00000000000E+00 -0.00000000000E+00 -0.21720288884E+04  0.21720288884E+04  0.00000000000E+00 0. -1.
         23    2    1    2    0    0 -0.17827031166E+03 -0.22793960662E+03 -0.37728815526E+03  0.48392108830E+03  0.89980549694E+02 0.  0.
        254    2    1    2    0    0  0.17827031166E+03  0.22793960662E+03 -0.16132541262E+04  0.18695944069E+04  0.89947629342E+03 0.  0.
        -24    2    4    4    0    0  0.34593477963E+03 -0.19422024295E+03 -0.11365811314E+04  0.12065554058E+04  0.81036438493E+02 0.  0.
         24    2    4    4    0    0 -0.16766446797E+03  0.42215984957E+03 -0.47667299479E+03  0.66303900117E+03  0.77931127917E+02 0.  0.
         13    1    3    3    0    0 -0.15225702069E+03 -0.22751999561E+03 -0.36158741415E+03  0.45353390923E+03  0.00000000000E+00 0. -1.
        -13    1    3    3    0    0 -0.26013290971E+02 -0.41961100555E+00 -0.15700741106E+02  0.30387179070E+02  0.00000000000E+00 0.  1.
          4    1    6    6  502    0 -0.71312552176E+02  0.16168417678E+03 -0.24069210299E+03  0.29859662014E+03  0.00000000000E+00 0. -1.
          3    1    5    5  503    0  0.24707700160E+03 -0.17283828541E+03 -0.79283400667E+03  0.84823692430E+03  0.00000000000E+00 0. -1.
         -2    1    5    5    0  503  0.98857778023E+02 -0.21381957543E+02 -0.34374712475E+03  0.35831848147E+03  0.00000000000E+00 0.  1.
         -3    1    6    6    0  502 -0.96351915790E+02  0.26047567279E+03 -0.23598089180E+03  0.36444238102E+03  0.00000000000E+00 0.  1.
<mgrwt>
<rscale>  0 0.12556977E+04</rscale>
<asrwt>0</asrwt>
<pdfrwt beam="1">  1        1 0.33415832E+00 0.12556977E+04</pdfrwt>
<pdfrwt beam="2">  1       -1 0.27921014E-01 0.12556977E+04</pdfrwt>
<totfact> 0.26029538E+01</totfact>
</mgrwt>
</event>
<event>
12    1  0.2433511E-007  0.1187993E+04  0.7818608E-02  0.9123431E-01
         -2   -1    0    0    0  501 -0.00000000000E+00  0.00000000000E+00  0.24316063151E+03  0.24316063151E+03  0.00000000000E+00 0.  1.
          2   -1    0    0  501    0  0.00000000000E+00 -0.00000000000E+00 -0.14510242082E+04  0.14510242082E+04  0.00000000000E+00 0. -1.
         23    2    1    2    0    0 -0.36934940214E+02  0.18080458940E+03 -0.47503037397E+03  0.51859291903E+03  0.96074294787E+02 0.  0.
        254    2    1    2    0    0  0.36934940214E+02 -0.18080458940E+03 -0.73283320273E+03  0.11755919207E+04  0.90050950667E+03 0.  0.
        -24    2    4    4    0    0 -0.36889096761E+03  0.10655919452E+03 -0.19420125002E+03  0.43804572541E+03  0.82064146374E+02 0.  0.
         24    2    4    4    0    0  0.40582590783E+03 -0.28736378392E+03 -0.53863195271E+03  0.73754619527E+03  0.81101158463E+02 0.  0.
         13    1    3    3    0    0 -0.34765429245E+02  0.49578698938E+02 -0.25761115661E+03  0.26463217958E+03  0.00000000000E+00 0. -1.
        -13    1    3    3    0    0 -0.21695109683E+01  0.13122589046E+03 -0.21741921735E+03  0.25396073945E+03  0.00000000000E+00 0.  1.
          2    1    6    6  502    0  0.96158084116E+02 -0.69981634537E+02 -0.81614671207E+02  0.14423855542E+03  0.00000000000E+00 0. -1.
          3    1    5    5  503    0 -0.37851863741E+02  0.79275416462E+01 -0.51273723027E+02  0.64223081351E+02  0.00000000000E+00 0. -1.
         -4    1    5    5    0  503 -0.33103910387E+03  0.98631652877E+02 -0.14292752699E+03  0.37382264406E+03  0.00000000000E+00 0.  1.
         -1    1    6    6    0  502  0.30966782371E+03 -0.21738214939E+03 -0.45701728150E+03  0.59330763985E+03  0.00000000000E+00 0.  1.
<mgrwt>
<rscale>  0 0.11879932E+04</rscale>
<asrwt>0</asrwt>
<pdfrwt beam="1">  1        2 0.22323449E+00 0.11879932E+04</pdfrwt>
<pdfrwt beam="2">  1       -2 0.37409328E-01 0.11879932E+04</pdfrwt>
<totfact> 0.89991184E+01</totfact>
</mgrwt>
</event>
<event>
12    1  0.2433511E-007  0.1826569E+04  0.7818608E-02  0.8692296E-01
         -2   -1    0    0    0  501 -0.00000000000E+00  0.00000000000E+00  0.95042110974E+03  0.95042110974E+03  0.00000000000E+00 0.  1.
          2   -1    0    0  501    0  0.00000000000E+00 -0.00000000000E+00 -0.87759920802E+03  0.87759920802E+03  0.00000000000E+00 0. -1.
         23    2    1    2    0    0  0.56704139487E+03  0.37088823577E+03  0.14489970983E+03  0.69909423260E+03  0.92966624213E+02 0.  0.
        254    2    1    2    0    0 -0.56704139487E+03 -0.37088823577E+03 -0.72077808109E+02  0.11289260852E+04  0.90010269881E+03 0.  0.
        -24    2    4    4    0    0 -0.30595920530E+03  0.16465837332E+03  0.26117154997E+03  0.44171745002E+03  0.78614959941E+02 0.  0.
         24    2    4    4    0    0 -0.26108218957E+03 -0.53554660908E+03 -0.33324935808E+03  0.68720863515E+03  0.78908132305E+02 0.  0.
         13    1    3    3    0    0  0.18303714916E+03  0.75598472414E+02  0.62949502874E+02  0.20779886169E+03  0.00000000000E+00 0.  1.
        -13    1    3    3    0    0  0.38400424571E+03  0.29528976335E+03  0.81950206957E+02  0.49129537092E+03  0.00000000000E+00 0. -1.
          2    1    6    6  502    0 -0.25610242761E+03 -0.48676186362E+03 -0.28984185866E+03  0.62171847997E+03  0.00000000000E+00 0. -1.
          1    1    5    5  503    0 -0.20690527949E+03  0.13774082513E+03  0.21705343732E+03  0.32999170329E+03  0.00000000000E+00 0. -1.
         -2    1    5    5    0  503 -0.99053925803E+02  0.26917548186E+02  0.44118112653E+02  0.11172574673E+03  0.00000000000E+00 0.  1.
         -1    1    6    6    0  502 -0.49797619611E+01 -0.48784745465E+02 -0.43407499417E+02  0.65490155176E+02  0.00000000000E+00 0.  1.
<mgrwt>
<rscale>  0 0.18265693E+04</rscale>
<asrwt>0</asrwt>
<pdfrwt beam="1">  1        2 0.13501526E+00 0.18265693E+04</pdfrwt>
<pdfrwt beam="2">  1       -2 0.14621863E+00 0.18265693E+04</pdfrwt>
<totfact> 0.91691979E+00</totfact>
</mgrwt>
</event>
<event>
12    1  0.2433511E-007  0.1645312E+04  0.7818608E-02  0.8793185E-01
         -1   -1    0    0    0  501 -0.00000000000E+00  0.00000000000E+00  0.76001531053E+03  0.76001531053E+03  0.00000000000E+00 0.  1.
          1   -1    0    0  501    0  0.00000000000E+00 -0.00000000000E+00 -0.89045902478E+03  0.89045902478E+03  0.00000000000E+00 0. -1.
         23    2    1    2    0    0 -0.56123556580E+03  0.97988346809E+02 -0.82193927798E+02  0.58326443612E+03  0.94098269043E+02 0.  0.
        254    2    1    2    0    0  0.56123556580E+03 -0.97988346809E+02 -0.48249786457E+02  0.10672098992E+04  0.90112255027E+03 0.  0.
        -24    2    4    4    0    0  0.37473484190E+03 -0.38964530202E+03  0.25278163721E+03  0.60156310554E+03  0.75696437958E+02 0.  0.
         24    2    4    4    0    0  0.18650072391E+03  0.29165695521E+03 -0.30103142366E+03  0.46564679365E+03  0.79754115021E+02 0.  0.
         11    1    3    3    0    0 -0.44671570061E+03  0.98706589157E+02 -0.97379326800E+02  0.46773992902E+03  0.00000000000E+00 0. -1.
        -11    1    3    3    0    0 -0.11451986520E+03 -0.71824234792E+00  0.15185399003E+02  0.11552450709E+03  0.00000000000E+00 0.  1.
          2    1    6    6  502    0  0.14929628424E+03  0.22007583746E+03 -0.27066085538E+03  0.37944703629E+03  0.00000000000E+00 0. -1.
          1    1    5    5  503    0  0.32284085514E+03 -0.30520443630E+03  0.18369970573E+03  0.48075102451E+03  0.00000000000E+00 0. -1.
         -2    1    5    5    0  503  0.51893986753E+02 -0.84440865722E+02  0.69081931480E+02  0.12081208103E+03  0.00000000000E+00 0.  1.
         -1    1    6    6    0  502  0.37204439667E+02  0.71581117756E+02 -0.30370568287E+02  0.86199757356E+02  0.00000000000E+00 0.  1.
<mgrwt>
<rscale>  0 0.16453115E+04</rscale>
<asrwt>0</asrwt>
<pdfrwt beam="1">  1        1 0.13699370E+00 0.16453115E+04</pdfrwt>
<pdfrwt beam="2">  1       -1 0.11692543E+00 0.16453115E+04</pdfrwt>
<totfact> 0.11684077E+01</totfact>
</mgrwt>
</event>
<event>
12    1  0.2433511E-007  0.3190153E+04  0.7818608E-02  0.8191423E-01
         -2   -1    0    0    0  501 -0.00000000000E+00  0.00000000000E+00  0.10952363673E+04  0.10952363673E+04  0.00000000000E+00 0.  1.
          2   -1    0    0  501    0  0.00000000000E+00 -0.00000000000E+00 -0.23230319403E+04  0.23230319403E+04  0.00000000000E+00 0. -1.
         23    2    1    2    0    0  0.29713443766E+03 -0.13467788424E+04 -0.32997419214E+02  0.13819301935E+04  0.80870920018E+02 0.  0.
        254    2    1    2    0    0 -0.29713443766E+03  0.13467788424E+04 -0.11947981538E+04  0.20363381141E+04  0.90389610144E+03 0.  0.
        -24    2    4    4    0    0  0.26518990294E+03  0.61411063758E+03 -0.74964241885E+03  0.10072018391E+04  0.70952299217E+02 0.  0.
         24    2    4    4    0    0 -0.56232434060E+03  0.73266820478E+03 -0.44515573499E+03  0.10291362750E+04  0.89143040960E+02 0.  0.
         11    1    3    3    0    0  0.63918227477E+02 -0.40273245521E+03 -0.37493426902E+02  0.40949325678E+03  0.00000000000E+00 0.  1.
        -11    1    3    3    0    0  0.23321621018E+03 -0.94404638714E+03  0.44960076886E+01  0.97243693670E+03  0.00000000000E+00 0. -1.
          2    1    6    6  502    0 -0.33121025724E+03  0.43329086682E+03 -0.21388183742E+03  0.58582134662E+03  0.00000000000E+00 0. -1.
          1    1    5    5  503    0  0.23884560531E+03  0.58392861723E+03 -0.68596141942E+03  0.93196723233E+03  0.00000000000E+00 0. -1.
         -2    1    5    5    0  503  0.26344297625E+02  0.30182020346E+02 -0.63680999431E+02  0.75234606785E+02  0.00000000000E+00 0.  1.
         -1    1    6    6    0  502 -0.23111408336E+03  0.29937733795E+03 -0.23127389757E+03  0.44331492836E+03  0.00000000000E+00 0.  1.
<mgrwt>
<rscale>  0 0.31901530E+04</rscale>
<asrwt>0</asrwt>
<pdfrwt beam="1">  1        2 0.35738952E+00 0.31901530E+04</pdfrwt>
<pdfrwt beam="2">  1       -2 0.16849790E+00 0.31901530E+04</pdfrwt>
<totfact> 0.80983406E-01</totfact>
</mgrwt>
</event>
<event>
12    1  0.2433511E-007  0.1361670E+04  0.7818608E-02  0.8982041E-01
          2   -1    0    0  501    0  0.00000000000E+00  0.00000000000E+00  0.58745705027E+03  0.58745705027E+03  0.00000000000E+00 0. -1.
         -2   -1    0    0    0  501 -0.00000000000E+00 -0.00000000000E+00 -0.78905512591E+03  0.78905512591E+03  0.00000000000E+00 0.  1.
         23    2    1    2    0    0  0.35824058865E+03  0.49170610331E+02  0.43789775347E+02  0.37487048722E+03  0.88635599426E+02 0.  0.
        254    2    1    2    0    0 -0.35824058865E+03 -0.49170610331E+02 -0.24538785098E+03  0.10016416890E+04  0.90128619615E+03 0.  0.
        -24    2    4    4    0    0 -0.46323507041E+03 -0.38605333222E+03 -0.13138183759E+03  0.62232409463E+03  0.80013659683E+02 0.  0.
         24    2    4    4    0    0  0.10499448176E+03  0.33688272189E+03 -0.11400601339E+03  0.37931759432E+03  0.79816394099E+02 0.  0.
         13    1    3    3    0    0  0.69046283246E+02  0.17967458372E+02 -0.25662960984E+02  0.75820883383E+02  0.00000000000E+00 0.  1.
        -13    1    3    3    0    0  0.28919430541E+03  0.31203151959E+02  0.69452736331E+02  0.29904960384E+03  0.00000000000E+00 0. -1.
          2    1    6    6  502    0  0.21186578044E+02  0.13329485748E+03 -0.79000889777E+02  0.15638903640E+03  0.00000000000E+00 0. -1.
          3    1    5    5  503    0 -0.36225067648E+03 -0.27057311415E+03 -0.72080619448E+02  0.45785475690E+03  0.00000000000E+00 0. -1.
         -4    1    5    5    0  503 -0.10098439393E+03 -0.11548021807E+03 -0.59301218142E+02  0.16446933774E+03  0.00000000000E+00 0.  1.
         -1    1    6    6    0  502  0.83807903718E+02  0.20358786441E+03 -0.35005123614E+02  0.22292855792E+03  0.00000000000E+00 0.  1.
<mgrwt>
<rscale>  0 0.13616696E+04</rscale>
<asrwt>0</asrwt>
<pdfrwt beam="1">  1        2 0.90378007E-01 0.13616696E+04</pdfrwt>
<pdfrwt beam="2">  1       -2 0.12139310E+00 0.13616696E+04</pdfrwt>
<totfact> 0.25613999E+01</totfact>
</mgrwt>
</event>
<event>
12    1  0.2433511E-007  0.2245634E+04  0.7818608E-02  0.8499671E-01
          1   -1    0    0  501    0  0.00000000000E+00  0.00000000000E+00  0.12093325447E+04  0.12093325447E+04  0.00000000000E+00 0. -1.
         -1   -1    0    0    0  501 -0.00000000000E+00 -0.00000000000E+00 -0.10424909428E+04  0.10424909428E+04  0.00000000000E+00 0.  1.
         23    2    1    2    0    0 -0.87942000343E+03 -0.12278873507E+03  0.37729331909E+03  0.96907541486E+03  0.91105955773E+02 0.  0.
        254    2    1    2    0    0  0.87942000343E+03  0.12278873507E+03 -0.21045171712E+03  0.12827480726E+04  0.90149657609E+03 0.  0.
        -24    2    4    4    0    0  0.10368961214E+04 -0.14137749588E+02 -0.14572114441E+03  0.10498784888E+04  0.75211347003E+02 0.  0.
         24    2    4    4    0    0 -0.15747611796E+03  0.13692648466E+03 -0.64730572702E+02  0.23286958386E+03  0.80564298024E+02 0.  0.
         13    1    3    3    0    0 -0.79836313961E+03 -0.84055744874E+02  0.33892631217E+03  0.87138976126E+03  0.00000000000E+00 0. -1.
        -13    1    3    3    0    0 -0.81056863811E+02 -0.38732990199E+02  0.38367006914E+02  0.97685653605E+02  0.00000000000E+00 0.  1.
          4    1    6    6  502    0 -0.12658601406E+03  0.69269119018E+02 -0.18961433862E+02  0.14553956775E+03  0.00000000000E+00 0. -1.
          1    1    5    5  503    0  0.57004834649E+03  0.27639099861E+02 -0.92240003067E+02  0.57812391002E+03  0.00000000000E+00 0. -1.
         -2    1    5    5    0  503  0.46684777490E+03 -0.41776849449E+02 -0.53481141348E+02  0.47175457874E+03  0.00000000000E+00 0.  1.
         -3    1    6    6    0  502 -0.30890103900E+02  0.67657365643E+02 -0.45769138840E+02  0.87330016116E+02  0.00000000000E+00 0.  1.
<mgrwt>
<rscale>  0 0.22456342E+04</rscale>
<asrwt>0</asrwt>
<pdfrwt beam="1">  1        1 0.18605116E+00 0.22456342E+04</pdfrwt>
<pdfrwt beam="2">  1       -1 0.16038322E+00 0.22456342E+04</pdfrwt>
<totfact> 0.27732559E+00</totfact>
</mgrwt>
</event>
<event>
12    1  0.2433511E-007  0.3286320E+04  0.7818608E-02  0.8166385E-01
          2   -1    0    0  501    0  0.00000000000E+00  0.00000000000E+00  0.22169148399E+04  0.22169148399E+04  0.00000000000E+00 0. -1.
         -2   -1    0    0    0  501 -0.00000000000E+00 -0.00000000000E+00 -0.12178974930E+04  0.12178974930E+04  0.00000000000E+00 0.  1.
         23    2    1    2    0    0  0.13114968700E+04  0.69775508868E+03  0.78956228392E+03  0.16852695258E+04  0.99189568913E+02 0.  0.
        254    2    1    2    0    0 -0.13114968700E+04 -0.69775508868E+03  0.20945506304E+03  0.17495428071E+04  0.90007911139E+03 0.  0.
        -24    2    4    4    0    0 -0.13558009359E+04 -0.43563454067E+03  0.30072691758E+03  0.14575684850E+04  0.78074186871E+02 0.  0.
         24    2    4    4    0    0  0.44304065940E+02 -0.26212054801E+03 -0.91271854536E+02  0.29197432212E+03  0.79046956926E+02 0.  0.
         11    1    3    3    0    0  0.69304775334E+03  0.33744294188E+03  0.45594709601E+03  0.89558398925E+03  0.00000000000E+00 0. -1.
        -11    1    3    3    0    0  0.61844911662E+03  0.36031214679E+03  0.33361518792E+03  0.78968553652E+03  0.00000000000E+00 0.  1.
          2    1    6    6  502    0  0.19579022418E+02 -0.95300772504E+02  0.56671584073E+01  0.97456103160E+02  0.00000000000E+00 0. -1.
          3    1    5    5  503    0 -0.10776749879E+03 -0.30463735519E+02  0.28480506956E+01  0.11202671275E+03  0.00000000000E+00 0. -1.
         -4    1    5    5    0  503 -0.12480334371E+04 -0.40517080515E+03  0.29787886689E+03  0.13455417722E+04  0.00000000000E+00 0.  1.
         -1    1    6    6    0  502  0.24725043522E+02 -0.16681977550E+03 -0.96939012944E+02  0.19451821896E+03  0.00000000000E+00 0.  1.
<mgrwt>
<rscale>  0 0.32863201E+04</rscale>
<asrwt>0</asrwt>
<pdfrwt beam="1">  1        2 0.34106382E+00 0.32863201E+04</pdfrwt>
<pdfrwt beam="2">  1       -2 0.18736885E+00 0.32863201E+04</pdfrwt>
<totfact> 0.68201028E-01</totfact>
</mgrwt>
</event>
<event>
12    1  0.2433511E-007  0.3117288E+04  0.7818608E-02  0.8211009E-01
          2   -1    0    0  501    0  0.00000000000E+00  0.00000000000E+00  0.96854204243E+03  0.96854204243E+03  0.00000000000E+00 0. -1.
         -2   -1    0    0    0  501 -0.00000000000E+00 -0.00000000000E+00 -0.25082762281E+04  0.25082762281E+04  0.00000000000E+00 0.  1.
         23    2    1    2    0    0 -0.14045131469E+04 -0.22850923210E+03 -0.82598692331E+03  0.16478199199E+04  0.90456852393E+02 0.  0.
        254    2    1    2    0    0  0.14045131469E+04  0.22850923210E+03 -0.71374726231E+03  0.18289983505E+04  0.90051438794E+03 0.  0.
        -24    2    4    4    0    0  0.18150056317E+03 -0.48779944030E+02  0.19161711169E+03  0.28011855690E+03  0.80170761858E+02 0.  0.
         24    2    4    4    0    0  0.12230125837E+04  0.27728917613E+03 -0.90536437400E+03  0.15488797936E+04  0.81822358264E+02 0.  0.
         13    1    3    3    0    0 -0.69458153911E+03 -0.10499651181E+03 -0.35629404864E+03  0.78766314568E+03  0.00000000000E+00 0. -1.
        -13    1    3    3    0    0 -0.70993160778E+03 -0.12351272029E+03 -0.46969287467E+03  0.86015677427E+03  0.00000000000E+00 0.  1.
          4    1    6    6  502    0  0.38740720147E+02  0.10749820254E+02 -0.12925619686E+02  0.42231193179E+02  0.00000000000E+00 0. -1.
          3    1    5    5  503    0  0.57478960792E+02 -0.53881459514E+02  0.90740436385E+02  0.12017016855E+03  0.00000000000E+00 0. -1.
         -4    1    5    5    0  503  0.12402160237E+03  0.51015154835E+01  0.10087667530E+03  0.15994838835E+03  0.00000000000E+00 0.  1.
         -3    1    6    6    0  502  0.11842718636E+04  0.26653935588E+03 -0.89243875431E+03  0.15066486005E+04  0.00000000000E+00 0.  1.
<mgrwt>
<rscale>  0 0.31172879E+04</rscale>
<asrwt>0</asrwt>
<pdfrwt beam="1">  1        2 0.14900647E+00 0.31172879E+04</pdfrwt>
<pdfrwt beam="2">  1       -2 0.38588865E+00 0.31172879E+04</pdfrwt>
<totfact> 0.20513862E-01</totfact>
</mgrwt>
</event>
<event>
12    1  0.2433511E-007  0.1598480E+04  0.7818608E-02  0.8821482E-01
          2   -1    0    0  501    0  0.00000000000E+00  0.00000000000E+00  0.16712946992E+04  0.16712946992E+04  0.00000000000E+00 0. -1.
         -2   -1    0    0    0  501 -0.00000000000E+00 -0.00000000000E+00 -0.38220964226E+03  0.38220964226E+03  0.00000000000E+00 0.  1.
         23    2    1    2    0    0 -0.18416557598E+03  0.50696842521E+03  0.45541082568E+03  0.71156985726E+03  0.89435440818E+02 0.  0.
        254    2    1    2    0    0  0.18416557598E+03 -0.50696842521E+03  0.83367423132E+03  0.13419344842E+04  0.90268571082E+03 0.  0.
        -24    2    4    4    0    0 -0.20445133166E+03 -0.57194089543E+03  0.32459600279E+03  0.69326726691E+03  0.79625394599E+02 0.  0.
         24    2    4    4    0    0  0.38861690764E+03  0.64972470220E+02  0.50907822853E+03  0.64866721733E+03  0.79774640667E+02 0.  0.
         13    1    3    3    0    0 -0.36131953228E+02  0.18967432421E+03  0.20141114613E+03  0.27901311277E+03  0.00000000000E+00 0. -1.
        -13    1    3    3    0    0 -0.14803362275E+03  0.31729410100E+03  0.25399967954E+03  0.43255674449E+03  0.00000000000E+00 0.  1.
          2    1    6    6  502    0  0.75228064061E+02  0.16846070591E+02  0.15674037766E+03  0.17467283048E+03  0.00000000000E+00 0. -1.
          1    1    5    5  503    0 -0.93700951227E+02 -0.19620961325E+03  0.81250100909E+02  0.23211992480E+03  0.00000000000E+00 0. -1.
         -2    1    5    5    0  503 -0.11075038043E+03 -0.37573128218E+03  0.24334590188E+03  0.46114734211E+03  0.00000000000E+00 0.  1.
         -1    1    6    6    0  502  0.31338884358E+03  0.48126399629E+02  0.35233785086E+03  0.47399438686E+03  0.00000000000E+00 0.  1.
<mgrwt>
<rscale>  0 0.15984805E+04</rscale>
<asrwt>0</asrwt>
<pdfrwt beam="1">  1        2 0.25712226E+00 0.15984805E+04</pdfrwt>
<pdfrwt beam="2">  1       -2 0.58801484E-01 0.15984805E+04</pdfrwt>
<totfact> 0.26370119E+01</totfact>
</mgrwt>
</event>
<event>
12    1  0.2433511E-007  0.1399119E+04  0.7818608E-02  0.8954457E-01
         -2   -1    0    0    0  501 -0.00000000000E+00  0.00000000000E+00  0.35353585139E+03  0.35353585139E+03  0.00000000000E+00 0.  1.
          2   -1    0    0  501    0  0.00000000000E+00 -0.00000000000E+00 -0.13842537103E+04  0.13842537103E+04  0.00000000000E+00 0. -1.
         23    2    1    2    0    0  0.35075187535E+03 -0.80125623007E+02 -0.53609252525E+03  0.65290423256E+03  0.97168656133E+02 0.  0.
        254    2    1    2    0    0 -0.35075187535E+03  0.80125623007E+02 -0.49462533369E+03  0.10848853292E+04  0.89603290297E+03 0.  0.
        -24    2    4    4    0    0 -0.37421960018E+03  0.34576829236E+03  0.19895066839E+01  0.51546055527E+03  0.78099966317E+02 0.  0.
         24    2    4    4    0    0  0.23467724831E+02 -0.26564266935E+03 -0.49661484038E+03  0.56942477391E+03  0.80631951313E+02 0.  0.
         13    1    3    3    0    0  0.16453216375E+03 -0.86856113696E+02 -0.25505216026E+03  0.31569989206E+03  0.00000000000E+00 0.  1.
        -13    1    3    3    0    0  0.18621971160E+03  0.67304906885E+01 -0.28104036500E+03  0.33720434050E+03  0.00000000000E+00 0. -1.
          4    1    6    6  502    0  0.14244559854E+02 -0.78539627408E+02 -0.81900973847E+02  0.11436411184E+03  0.00000000000E+00 0. -1.
          3    1    5    5  503    0 -0.14635237942E+03  0.17461864285E+03 -0.24975859299E+02  0.22920402034E+03  0.00000000000E+00 0. -1.
         -4    1    5    5    0  503 -0.22786722077E+03  0.17114964950E+03  0.26965365983E+02  0.28625653492E+03  0.00000000000E+00 0.  1.
         -3    1    6    6    0  502  0.92231649778E+01 -0.18710304194E+03 -0.41471386653E+03  0.45506066208E+03  0.00000000000E+00 0.  1.
<mgrwt>
<rscale>  0 0.13991187E+04</rscale>
<asrwt>0</asrwt>
<pdfrwt beam="1">  1        2 0.21296211E+00 0.13991187E+04</pdfrwt>
<pdfrwt beam="2">  1       -2 0.54390131E-01 0.13991187E+04</pdfrwt>
<totfact> 0.45752250E+01</totfact>
</mgrwt>
</event>
<event>
12    1  0.2433511E-007  0.1991257E+04  0.7818608E-02  0.8610719E-01
         -2   -1    0    0    0  501 -0.00000000000E+00  0.00000000000E+00  0.28023737273E+03  0.28023737273E+03  0.00000000000E+00 0.  1.
          2   -1    0    0  501    0  0.00000000000E+00 -0.00000000000E+00 -0.35372728394E+04  0.35372728394E+04  0.00000000000E+00 0. -1.
         23    2    1    2    0    0 -0.74897322819E+03  0.22231238099E+03 -0.12116483266E+04  0.14445743232E+04  0.91211932868E+02 0.  0.
        254    2    1    2    0    0  0.74897322819E+03 -0.22231238099E+03 -0.20453871401E+04  0.23729358889E+04  0.91478548785E+03 0.  0.
        -24    2    4    4    0    0  0.71415576128E+03 -0.22428579727E+00 -0.68839513096E+03  0.99519017497E+03  0.80604753903E+02 0.  0.
         24    2    4    4    0    0  0.34817466904E+02 -0.22208809519E+03 -0.13569920091E+04  0.13777457140E+04  0.78870535850E+02 0.  0.
         13    1    3    3    0    0 -0.13353532530E+03  0.77843746643E+01 -0.23559351784E+03  0.27091804155E+03  0.00000000000E+00 0. -1.
        -13    1    3    3    0    0 -0.61543790289E+03  0.21452800633E+03 -0.97605480875E+03  0.11736562817E+04  0.00000000000E+00 0.  1.
          4    1    6    6  502    0 -0.20664113366E+02 -0.11159507569E+03 -0.58358652158E+03  0.59451971765E+03  0.00000000000E+00 0. -1.
          3    1    5    5  503    0  0.15228489363E+03  0.31104375947E+02 -0.16482242455E+03  0.22654933826E+03  0.00000000000E+00 0. -1.
         -4    1    5    5    0  503  0.56187086766E+03 -0.31328661745E+02 -0.52357270641E+03  0.76864083671E+03  0.00000000000E+00 0.  1.
         -3    1    6    6    0  502  0.55481580271E+02 -0.11049301950E+03 -0.77340548755E+03  0.78322599630E+03  0.00000000000E+00 0.  1.
<mgrwt>
<rscale>  0 0.19912569E+04</rscale>
<asrwt>0</asrwt>
<pdfrwt beam="1">  1        2 0.54419580E+00 0.19912569E+04</pdfrwt>
<pdfrwt beam="2">  1       -2 0.43113444E-01 0.19912569E+04</pdfrwt>
<totfact> 0.36514579E+00</totfact>
</mgrwt>
</event>
<event>
12    1  0.2433511E-007  0.1423886E+04  0.7818608E-02  0.8936708E-01
         -1   -1    0    0    0  501 -0.00000000000E+00  0.00000000000E+00  0.15997930930E+03  0.15997930930E+03  0.00000000000E+00 0.  1.
          1   -1    0    0  501    0  0.00000000000E+00 -0.00000000000E+00 -0.31683023475E+04  0.31683023475E+04  0.00000000000E+00 0. -1.
         23    2    1    2    0    0  0.27251622774E+03 -0.25416215497E+03 -0.45357864643E+03  0.59391393119E+03  0.90203513070E+02 0.  0.
        254    2    1    2    0    0 -0.27251622774E+03  0.25416215497E+03 -0.25547443918E+04  0.27343677256E+04  0.90065779079E+03 0.  0.
        -24    2    4    4    0    0 -0.15801569118E+03  0.55888108988E+02 -0.24708370328E+04  0.24776387296E+04  0.74602898877E+02 0.  0.
         24    2    4    4    0    0 -0.11450053656E+03  0.19827404599E+03 -0.83907358971E+02  0.25672899597E+03  0.80289241484E+02 0.  0.
         11    1    3    3    0    0  0.19934251660E+03 -0.21679215101E+03 -0.39631897452E+03  0.49376614427E+03  0.00000000000E+00 0. -1.
        -11    1    3    3    0    0  0.73173711145E+02 -0.37370003963E+02 -0.57259671903E+02  0.10014778692E+03  0.00000000000E+00 0.  1.
          4    1    6    6  502    0 -0.89264241295E+02  0.15831883089E+03 -0.28607699872E+02  0.18398738402E+03  0.00000000000E+00 0. -1.
          1    1    5    5  503    0 -0.99611961175E+02  0.71286280876E+02 -0.15604432403E+04  0.15652435539E+04  0.00000000000E+00 0. -1.
         -2    1    5    5    0  503 -0.58403730007E+02 -0.15398171888E+02 -0.91039379248E+03  0.91239517577E+03  0.00000000000E+00 0.  1.
         -3    1    6    6    0  502 -0.25236295263E+02  0.39955215100E+02 -0.55299659099E+02  0.72741611948E+02  0.00000000000E+00 0.  1.
<mgrwt>
<rscale>  0 0.14238860E+04</rscale>
<asrwt>0</asrwt>
<pdfrwt beam="1">  1        1 0.48743111E+00 0.14238860E+04</pdfrwt>
<pdfrwt beam="2">  1       -1 0.24612202E-01 0.14238860E+04</pdfrwt>
<totfact> 0.63459363E+00</totfact>
</mgrwt>
</event>
<event>
12    1  0.2433511E-007  0.2521747E+04  0.7818608E-02  0.8395279E-01
          1   -1    0    0  501    0  0.00000000000E+00  0.00000000000E+00  0.17197669672E+04  0.17197669672E+04  0.00000000000E+00 0. -1.
         -1   -1    0    0    0  501 -0.00000000000E+00 -0.00000000000E+00 -0.92442880190E+03  0.92442880190E+03  0.00000000000E+00 0.  1.
         23    2    1    2    0    0 -0.52491774624E+03 -0.80757578020E+03 -0.20586765808E+03  0.98908066521E+03  0.90453239647E+02 0.  0.
        254    2    1    2    0    0  0.52491774624E+03  0.80757578020E+03  0.10012058234E+04  0.16551151039E+04  0.89959747958E+03 0.  0.
        -24    2    4    4    0    0  0.45415011040E+03  0.98176223758E+03  0.95482369597E+03  0.14450803064E+04  0.80370315153E+02 0.  0.
         24    2    4    4    0    0  0.70767635841E+02 -0.17418645738E+03  0.46382127435E+02  0.21003479754E+03  0.81328557177E+02 0.  0.
         13    1    3    3    0    0 -0.21932464198E+03 -0.41998225751E+03 -0.96217157443E+02  0.48347299469E+03  0.00000000000E+00 0.  1.
        -13    1    3    3    0    0 -0.30559310426E+03 -0.38759352269E+03 -0.10965050064E+03  0.50560767052E+03  0.00000000000E+00 0. -1.
          2    1    6    6  502    0 -0.18392610857E+02 -0.33367890513E+02  0.64044413269E+01  0.38635749251E+02  0.00000000000E+00 0. -1.
          1    1    5    5  503    0  0.23665259121E+03  0.41668042461E+03  0.42486110170E+03  0.64041703672E+03  0.00000000000E+00 0. -1.
         -2    1    5    5    0  503  0.21749751919E+03  0.56508181297E+03  0.52996259426E+03  0.80466326965E+03  0.00000000000E+00 0.  1.
         -1    1    6    6    0  502  0.89160246698E+02 -0.14081856687E+03  0.39977686108E+02  0.17139904828E+03  0.00000000000E+00 0.  1.
<mgrwt>
<rscale>  0 0.25217471E+04</rscale>
<asrwt>0</asrwt>
<pdfrwt beam="1">  1        1 0.26457953E+00 0.25217471E+04</pdfrwt>
<pdfrwt beam="2">  1       -1 0.14221982E+00 0.25217471E+04</pdfrwt>
<totfact> 0.16476572E+00</totfact>
</mgrwt>
</event>
<event>
12    1  0.2433511E-007  0.1514019E+04  0.7818608E-02  0.8875183E-01
          2   -1    0    0  501    0  0.00000000000E+00  0.00000000000E+00  0.39099189812E+04  0.39099189812E+04  0.00000000000E+00 0. -1.
         -2   -1    0    0    0  501 -0.00000000000E+00 -0.00000000000E+00 -0.14656665392E+03  0.14656665392E+03  0.00000000000E+00 0.  1.
         23    2    1    2    0    0  0.43168881836E+03 -0.17173980418E+03  0.17234103824E+04  0.17878887509E+04  0.10272800668E+03 0.  0.
        254    2    1    2    0    0 -0.43168881836E+03  0.17173980418E+03  0.20399419449E+04  0.22685968842E+04  0.87710825340E+03 0.  0.
        -24    2    4    4    0    0 -0.32953044669E+03  0.38799846805E+03  0.53608016131E+03  0.74366558087E+03  0.80767755437E+02 0.  0.
         24    2    4    4    0    0 -0.10215837167E+03 -0.21625866387E+03  0.15038617836E+04  0.15249313034E+04  0.81308505747E+02 0.  0.
         13    1    3    3    0    0  0.95028361188E+02 -0.10032451337E+02  0.24350981597E+03  0.26158759524E+03  0.00000000000E+00 0. -1.
        -13    1    3    3    0    0  0.33666045717E+03 -0.16170735284E+03  0.14799005664E+04  0.15263011557E+04  0.00000000000E+00 0.  1.
          4    1    6    6  502    0 -0.46208089041E+02 -0.25981569608E+02  0.25902991643E+03  0.26439880306E+03  0.00000000000E+00 0. -1.
          1    1    5    5  503    0 -0.16493942581E+02  0.50661165314E+02  0.37456303706E+02  0.65127402068E+02  0.00000000000E+00 0. -1.
         -2    1    5    5    0  503 -0.31303650411E+03  0.33733730273E+03  0.49862385761E+03  0.67853817880E+03  0.00000000000E+00 0.  1.
         -3    1    6    6    0  502 -0.55950282627E+02 -0.19027709426E+03  0.12448318672E+04  0.12605325003E+04  0.00000000000E+00 0.  1.
<mgrwt>
<rscale>  0 0.15140195E+04</rscale>
<asrwt>0</asrwt>
<pdfrwt beam="1">  1        2 0.60152592E+00 0.15140195E+04</pdfrwt>
<pdfrwt beam="2">  1       -2 0.22548719E-01 0.15140195E+04</pdfrwt>
<totfact> 0.68783860E+00</totfact>
</mgrwt>
</event>
<event>
12    1  0.2433511E-007  0.1638532E+04  0.7818608E-02  0.8797220E-01
         -2   -1    0    0    0  501 -0.00000000000E+00  0.00000000000E+00  0.30461647811E+03  0.30461647811E+03  0.00000000000E+00 0. -1.
          2   -1    0    0  501    0  0.00000000000E+00 -0.00000000000E+00 -0.22034150148E+04  0.22034150148E+04  0.00000000000E+00 0.  1.
         23    2    1    2    0    0  0.23040716363E+03  0.40433389230E+03 -0.11680228081E+04  0.12604403394E+04  0.88652193749E+02 0.  0.
        254    2    1    2    0    0 -0.23040716363E+03 -0.40433389230E+03 -0.73077572863E+03  0.12475911535E+04  0.89770661315E+03 0.  0.
        -24    2    4    4    0    0 -0.10626530376E+03 -0.41904613178E+03  0.59347757846E+02  0.44365022678E+03  0.80071168447E+02 0.  0.
         24    2    4    4    0    0 -0.12414185987E+03  0.14712239480E+02 -0.79012348647E+03  0.80394092674E+03  0.79988989608E+02 0.  0.
         13    1    3    3    0    0  0.23307175693E+03  0.36128030681E+03 -0.10795164730E+04  0.11619818069E+04  0.00000000000E+00 0. -1.
        -13    1    3    3    0    0 -0.26645933055E+01  0.43053585488E+02 -0.88506335045E+02  0.98458532510E+02  0.00000000000E+00 0.  1.
          4    1    6    6  502    0 -0.69043233569E+02 -0.27169418522E+02 -0.30443558074E+03  0.31334672206E+03  0.00000000000E+00 0. -1.
          1    1    5    5  503    0  0.17143474862E+01 -0.14411092803E+03  0.25127673959E+02  0.14629524450E+03  0.00000000000E+00 0. -1.
         -2    1    5    5    0  503 -0.10797965124E+03 -0.27493520375E+03  0.34220083887E+02  0.29735498228E+03  0.00000000000E+00 0.  1.
         -3    1    6    6    0  502 -0.55098626300E+02  0.41881658002E+02 -0.48568790573E+03  0.49059420469E+03  0.00000000000E+00 0.  1.
<mgrwt>
<rscale>  0 0.16385317E+04</rscale>
<asrwt>0</asrwt>
<pdfrwt beam="1">  1        2 0.33898691E+00 0.16385317E+04</pdfrwt>
<pdfrwt beam="2">  1       -2 0.46864075E-01 0.16385317E+04</pdfrwt>
<totfact> 0.21229883E+01</totfact>
</mgrwt>
</event>
<event>
12    1  0.2433511E-007  0.1778540E+04  0.7818608E-02  0.8717795E-01
         -1   -1    0    0    0  501 -0.00000000000E+00  0.00000000000E+00  0.73027900072E+03  0.73027900072E+03  0.00000000000E+00 0.  1.
          1   -1    0    0  501    0  0.00000000000E+00 -0.00000000000E+00 -0.10828757656E+04  0.10828757656E+04  0.00000000000E+00 0. -1.
         23    2    1    2    0    0 -0.16907791802E+03 -0.49274046304E+03 -0.54111323027E+03  0.75684586178E+03  0.92906534971E+02 0.  0.
        254    2    1    2    0    0  0.16907791802E+03  0.49274046304E+03  0.18851646535E+03  0.10563089046E+04  0.89937174623E+03 0.  0.
        -24    2    4    4    0    0  0.48176382882E+03  0.44805931263E+03 -0.31088894205E+02  0.66345512907E+03  0.79703541667E+02 0.  0.
         24    2    4    4    0    0 -0.31268591080E+03  0.44681150408E+02  0.21960535955E+03  0.39285377551E+03  0.79615896507E+02 0.  0.
         11    1    3    3    0    0 -0.78449651008E+02 -0.22546364842E+03 -0.31485941231E+03  0.39512612420E+03  0.00000000000E+00 0. -1.
        -11    1    3    3    0    0 -0.90628267008E+02 -0.26727681462E+03 -0.22625381796E+03  0.36171973758E+03  0.00000000000E+00 0.  1.
          2    1    6    6  502    0 -0.12038700467E+03  0.56342544465E+02  0.95919617099E+02  0.16391487472E+03  0.00000000000E+00 0. -1.
          1    1    5    5  503    0  0.39847061618E+03  0.35007230023E+03 -0.52814897221E+02  0.53302801120E+03  0.00000000000E+00 0. -1.
         -2    1    5    5    0  503  0.83293212634E+02  0.97987012400E+02  0.21726003017E+02  0.13042711787E+03  0.00000000000E+00 0.  1.
         -1    1    6    6    0  502 -0.19229890613E+03 -0.11661394056E+02  0.12368574245E+03  0.22893890079E+03  0.00000000000E+00 0.  1.
<mgrwt>
<rscale>  0 0.17785403E+04</rscale>
<asrwt>0</asrwt>
<pdfrwt beam="1">  1        1 0.16659627E+00 0.17785403E+04</pdfrwt>
<pdfrwt beam="2">  1       -1 0.11235062E+00 0.17785403E+04</pdfrwt>
<totfact> 0.89637303E+00</totfact>
</mgrwt>
</event>
<event>
12    1  0.2433511E-007  0.1474409E+04  0.7818608E-02  0.8901651E-01
          2   -1    0    0  501    0  0.00000000000E+00  0.00000000000E+00  0.12874859089E+04  0.12874859089E+04  0.00000000000E+00 0. -1.
         -2   -1    0    0    0  501 -0.00000000000E+00 -0.00000000000E+00 -0.42211779775E+03  0.42211779775E+03  0.00000000000E+00 0.  1.
         23    2    1    2    0    0 -0.54743710361E+02 -0.44532875755E+02 -0.24957804558E+03  0.27507811858E+03  0.91644528695E+02 0.  0.
        254    2    1    2    0    0  0.54743710361E+02  0.44532875755E+02  0.11149461567E+04  0.14345255881E+04  0.89987703583E+03 0.  0.
        -24    2    4    4    0    0 -0.14559254047E+03 -0.19746405230E+03 -0.15873676557E+02  0.25814411957E+03  0.78722125682E+02 0.  0.
         24    2    4    4    0    0  0.20033625083E+03  0.24199692805E+03  0.11308198333E+04  0.11763814685E+04  0.80141983543E+02 0.  0.
         11    1    3    3    0    0  0.17762314764E+02 -0.48672653027E+01 -0.86086701476E+01  0.20329763870E+02  0.00000000000E+00 0. -1.
        -11    1    3    3    0    0 -0.72506025125E+02 -0.39665610452E+02 -0.24096937543E+03  0.25474835471E+03  0.00000000000E+00 0.  1.
          2    1    6    6  502    0  0.17793953321E+03  0.21990764811E+03  0.89950539510E+03  0.94293785956E+03  0.00000000000E+00 0. -1.
          1    1    5    5  503    0 -0.52590754442E+02 -0.30931327479E+02  0.19698220673E+02  0.64113605187E+02  0.00000000000E+00 0. -1.
         -2    1    5    5    0  503 -0.93001786026E+02 -0.16653272482E+03 -0.35571897230E+02  0.19403051438E+03  0.00000000000E+00 0.  1.
         -1    1    6    6    0  502  0.22396717620E+02  0.22089279940E+02  0.23131443817E+03  0.23344360894E+03  0.00000000000E+00 0.  1.
<mgrwt>
<rscale>  0 0.14744093E+04</rscale>
<asrwt>0</asrwt>
<pdfrwt beam="1">  1        2 0.19807475E+00 0.14744093E+04</pdfrwt>
<pdfrwt beam="2">  1       -2 0.64941200E-01 0.14744093E+04</pdfrwt>
<totfact> 0.35599536E+01</totfact>
</mgrwt>
</event>
<event>
12    1  0.2433511E-007  0.1829883E+04  0.7818608E-02  0.8690568E-01
          2   -1    0    0  501    0  0.00000000000E+00  0.00000000000E+00  0.12603114126E+04  0.12603114126E+04  0.00000000000E+00 0. -1.
         -2   -1    0    0    0  501 -0.00000000000E+00 -0.00000000000E+00 -0.66421513159E+03  0.66421513159E+03  0.00000000000E+00 0.  1.
         23    2    1    2    0    0 -0.11411993479E+03  0.25162276653E+02  0.94275204578E+03  0.95452804753E+03  0.93198036482E+02 0.  0.
        254    2    1    2    0    0  0.11411993479E+03 -0.25162276653E+02 -0.34665576481E+03  0.96999849664E+03  0.89837095040E+03 0.  0.
        -24    2    4    4    0    0  0.31308771646E+02 -0.13348809726E+03 -0.62700954390E+03  0.64729474703E+03  0.83965529252E+02 0.  0.
         24    2    4    4    0    0  0.82811163146E+02  0.10832582061E+03  0.28035377909E+03  0.32270374960E+03  0.83350443334E+02 0.  0.
         13    1    3    3    0    0 -0.97041460301E+02  0.15718350835E+02  0.41765770744E+03  0.42907117376E+03  0.00000000000E+00 0.  1.
        -13    1    3    3    0    0 -0.17078474491E+02  0.94439258180E+01  0.52509433834E+03  0.52545687377E+03  0.00000000000E+00 0. -1.
          2    1    6    6  502    0  0.30646281510E+02  0.68981259507E+02  0.22414852609E+03  0.23651674461E+03  0.00000000000E+00 0. -1.
          1    1    5    5  503    0  0.38693634156E+02 -0.15490736301E+02 -0.13547350884E+03  0.14174001494E+03  0.00000000000E+00 0. -1.
         -2    1    5    5    0  503 -0.73848625101E+01 -0.11799736096E+03 -0.49153603506E+03  0.50555473210E+03  0.00000000000E+00 0.  1.
         -1    1    6    6    0  502  0.52164881636E+02  0.39344561100E+02  0.56205253006E+02  0.86187004994E+02  0.00000000000E+00 0.  1.
<mgrwt>
<rscale>  0 0.18298830E+04</rscale>
<asrwt>0</asrwt>
<pdfrwt beam="1">  1        2 0.19389406E+00 0.18298830E+04</pdfrwt>
<pdfrwt beam="2">  1       -2 0.10218694E+00 0.18298830E+04</pdfrwt>
<totfact> 0.12889157E+01</totfact>
</mgrwt>
</event>
<event>
12    1  0.2433511E-007  0.1926458E+04  0.7818608E-02  0.8641798E-01
          2   -1    0    0  501    0  0.00000000000E+00  0.00000000000E+00  0.23950654846E+04  0.23950654846E+04  0.00000000000E+00 0. -1.
         -2   -1    0    0    0  501 -0.00000000000E+00 -0.00000000000E+00 -0.38738383158E+03  0.38738383158E+03  0.00000000000E+00 0.  1.
         23    2    1    2    0    0 -0.56363233086E+03 -0.14388530883E+03  0.10296002938E+03  0.59735550425E+03  0.88591446094E+02 0.  0.
        254    2    1    2    0    0  0.56363233086E+03  0.14388530883E+03  0.19047216236E+04  0.21850938119E+04  0.89904733850E+03 0.  0.
        -24    2    4    4    0    0  0.33482738714E+02  0.10538579210E+03  0.15151943180E+04  0.15212735037E+04  0.78942970875E+02 0.  0.
         24    2    4    4    0    0  0.53014959215E+03  0.38499516724E+02  0.38952730565E+03  0.66382030828E+03  0.79906676779E+02 0.  0.
         13    1    3    3    0    0 -0.68826188122E+02 -0.28388300039E+02  0.42331920336E+02  0.85644213055E+02  0.00000000000E+00 0. -1.
        -13    1    3    3    0    0 -0.49480614274E+03 -0.11549700879E+03  0.60628109044E+02  0.51171129120E+03  0.00000000000E+00 0.  1.
          2    1    6    6  502    0  0.30179947005E+03  0.61016806707E+02  0.21529934698E+03  0.37571236290E+03  0.00000000000E+00 0. -1.
          1    1    5    5  503    0  0.71729820788E+01  0.24999673410E+02  0.89042571831E+03  0.89080547550E+03  0.00000000000E+00 0. -1.
         -4    1    5    5    0  503  0.26309756635E+02  0.80386118694E+02  0.62476859968E+03  0.63046802815E+03  0.00000000000E+00 0.  1.
         -1    1    6    6    0  502  0.22835012210E+03 -0.22517289983E+02  0.17422795866E+03  0.28810794538E+03  0.00000000000E+00 0.  1.
<mgrwt>
<rscale>  0 0.19264575E+04</rscale>
<asrwt>0</asrwt>
<pdfrwt beam="1">  1        2 0.36847160E+00 0.19264575E+04</pdfrwt>
<pdfrwt beam="2">  1       -2 0.59597514E-01 0.19264575E+04</pdfrwt>
<totfact> 0.98291797E+00</totfact>
</mgrwt>
</event>
<event>
12    1  0.2433511E-007  0.1133834E+04  0.7818608E-02  0.9172828E-01
          2   -1    0    0  501    0  0.00000000000E+00  0.00000000000E+00  0.43255298690E+03  0.43255298690E+03  0.00000000000E+00 0. -1.
         -2   -1    0    0    0  501 -0.00000000000E+00 -0.00000000000E+00 -0.74301905942E+03  0.74301905942E+03  0.00000000000E+00 0.  1.
         23    2    1    2    0    0  0.15410000997E+03  0.70404519365E+02 -0.14942616457E+03  0.24429674218E+03  0.93000592276E+02 0.  0.
        254    2    1    2    0    0 -0.15410000997E+03 -0.70404519365E+02 -0.16103990795E+03  0.93127530414E+03  0.90146338291E+03 0.  0.
        -24    2    4    4    0    0 -0.16375332899E+03  0.44428535611E+02  0.35224275707E+03  0.39908349202E+03  0.80022660299E+02 0.  0.
         24    2    4    4    0    0  0.96533190262E+01 -0.11483305498E+03 -0.51328266502E+03  0.53219181212E+03  0.80555655221E+02 0.  0.
         13    1    3    3    0    0  0.15116042118E+03  0.85559608170E+02 -0.12015459623E+03  0.21120380317E+03  0.00000000000E+00 0. -1.
        -13    1    3    3    0    0  0.29395887903E+01 -0.15155088805E+02 -0.29271568345E+02  0.33092939009E+02  0.00000000000E+00 0.  1.
          4    1    6    6  502    0  0.37995579140E+02 -0.42032083166E+02 -0.29395750907E+03  0.29936829690E+03  0.00000000000E+00 0. -1.
          3    1    5    5  503    0 -0.82295547738E+02 -0.32828736145E+01  0.98778025947E+02  0.12860961413E+03  0.00000000000E+00 0. -1.
         -4    1    5    5    0  503 -0.81457781256E+02  0.47711409225E+02  0.25346473113E+03  0.27047387789E+03  0.00000000000E+00 0.  1.
         -3    1    6    6    0  502 -0.28342260114E+02 -0.72800971809E+02 -0.21932515595E+03  0.23282351522E+03  0.00000000000E+00 0.  1.
<mgrwt>
<rscale>  0 0.11338344E+04</rscale>
<asrwt>0</asrwt>
<pdfrwt beam="1">  1        2 0.66546613E-01 0.11338344E+04</pdfrwt>
<pdfrwt beam="2">  1       -2 0.11431062E+00 0.11338344E+04</pdfrwt>
<totfact> 0.43133005E+01</totfact>
</mgrwt>
</event>
<event>
12    1  0.2433511E-007  0.2420407E+04  0.7818608E-02  0.8431903E-01
         -2   -1    0    0    0  501 -0.00000000000E+00  0.00000000000E+00  0.50290880173E+03  0.50290880173E+03  0.00000000000E+00 0.  1.
          2   -1    0    0  501    0  0.00000000000E+00 -0.00000000000E+00 -0.29122431444E+04  0.29122431444E+04  0.00000000000E+00 0. -1.
         23    2    1    2    0    0  0.55650203169E+03 -0.66702506822E+03 -0.23205605344E+03  0.90415617617E+03  0.95033815362E+02 0.  0.
        254    2    1    2    0    0 -0.55650203169E+03  0.66702506822E+03 -0.21772782892E+04  0.25109957699E+04  0.89996780782E+03 0.  0.
        -24    2    4    4    0    0 -0.25329456521E+03  0.25466131547E+03 -0.18758152238E+04  0.19115471570E+04  0.79493757006E+02 0.  0.
         24    2    4    4    0    0 -0.30320746648E+03  0.41236375275E+03 -0.30146306545E+03  0.59944861294E+03  0.80498617491E+02 0.  0.
         11    1    3    3    0    0  0.15580044779E+03 -0.21674014220E+03 -0.30860010509E+02  0.26870505954E+03  0.00000000000E+00 0.  1.
        -11    1    3    3    0    0  0.40070158390E+03 -0.45028492602E+03 -0.20119604293E+03  0.63545111663E+03  0.00000000000E+00 0. -1.
          2    1    6    6  502    0 -0.18533153671E+03  0.31328279413E+03 -0.21832688324E+03  0.42445319594E+03  0.00000000000E+00 0. -1.
          3    1    5    5  503    0 -0.23872405875E+03  0.21705868162E+03 -0.17477489445E+04  0.17772816379E+04  0.00000000000E+00 0. -1.
         -4    1    5    5    0  503 -0.14570506454E+02  0.37602633855E+02 -0.12806627925E+03  0.13426551908E+03  0.00000000000E+00 0.  1.
         -1    1    6    6    0  502 -0.11787592977E+03  0.99080958618E+02 -0.83136182209E+02  0.17499541700E+03  0.00000000000E+00 0.  1.
<mgrwt>
<rscale>  0 0.24204072E+04</rscale>
<asrwt>0</asrwt>
<pdfrwt beam="1">  1        2 0.44803740E+00 0.24204072E+04</pdfrwt>
<pdfrwt beam="2">  1       -2 0.77370585E-01 0.24204072E+04</pdfrwt>
<totfact> 0.26415094E+00</totfact>
</mgrwt>
</event>
<event>
12    1  0.2433511E-007  0.1372328E+04  0.7818608E-02  0.8974096E-01
         -1   -1    0    0    0  501 -0.00000000000E+00  0.00000000000E+00  0.20728254663E+04  0.20728254663E+04  0.00000000000E+00 0.  1.
          1   -1    0    0  501    0  0.00000000000E+00 -0.00000000000E+00 -0.22713985861E+03  0.22713985861E+03  0.00000000000E+00 0. -1.
         23    2    1    2    0    0 -0.28316717379E+03  0.24126162241E+03  0.37020004854E+03  0.53182044587E+03  0.85988905909E+02 0.  0.
        254    2    1    2    0    0  0.28316717379E+03 -0.24126162241E+03  0.14754855592E+04  0.17681448791E+04  0.90049312008E+03 0.  0.
        -24    2    4    4    0    0 -0.15002877291E+03 -0.48666076909E+01  0.11696146022E+04  0.11818886998E+04  0.79562958613E+02 0.  0.
         24    2    4    4    0    0  0.43319594670E+03 -0.23639501472E+03  0.30587095695E+03  0.58625617929E+03  0.81227669090E+02 0.  0.
         13    1    3    3    0    0 -0.56808594573E+02  0.68214804895E+02  0.13882473681E+03  0.16478101704E+03  0.00000000000E+00 0.  1.
        -13    1    3    3    0    0 -0.22635857922E+03  0.17304681751E+03  0.23137531173E+03  0.36703942883E+03  0.00000000000E+00 0. -1.
          4    1    6    6  502    0  0.42084996917E+03 -0.23503747079E+03  0.27974482904E+03  0.55732798118E+03  0.00000000000E+00 0. -1.
          1    1    5    5  503    0 -0.84253685145E+02  0.31906149406E+02  0.76793181204E+03  0.77319852158E+03  0.00000000000E+00 0. -1.
         -2    1    5    5    0  503 -0.65775087765E+02 -0.36772757097E+02  0.40168279019E+03  0.40869017821E+03  0.00000000000E+00 0.  1.
         -3    1    6    6    0  502  0.12345977533E+02 -0.13575439296E+01  0.26126127903E+02  0.28928198111E+02  0.00000000000E+00 0.  1.
<mgrwt>
<rscale>  0 0.13723284E+04</rscale>
<asrwt>0</asrwt>
<pdfrwt beam="1">  1        1 0.34944595E-01 0.13723284E+04</pdfrwt>
<pdfrwt beam="2">  1       -1 0.31889621E+00 0.13723284E+04</pdfrwt>
<totfact> 0.30797063E+00</totfact>
</mgrwt>
</event>
<event>
12    1  0.2433511E-007  0.1521241E+04  0.7818608E-02  0.8870449E-01
         -2   -1    0    0    0  501 -0.00000000000E+00  0.00000000000E+00  0.55517763134E+03  0.55517763134E+03  0.00000000000E+00 0. -1.
          2   -1    0    0  501    0  0.00000000000E+00 -0.00000000000E+00 -0.10420877414E+04  0.10420877414E+04  0.00000000000E+00 0.  1.
         23    2    1    2    0    0  0.21164330872E+03 -0.37761607737E+03  0.74319487404E+02  0.44976470607E+03  0.96840655751E+02 0.  0.
        254    2    1    2    0    0 -0.21164330872E+03  0.37761607737E+03 -0.56122959748E+03  0.11475006667E+04  0.90243688252E+03 0.  0.
        -24    2    4    4    0    0  0.18694626551E+03  0.19597059300E+03  0.14137691457E+03  0.31585535618E+03  0.80148577960E+02 0.  0.
         24    2    4    4    0    0 -0.39858957423E+03  0.18164548437E+03 -0.70260651205E+03  0.83164531050E+03  0.78161889801E+02 0.  0.
         11    1    3    3    0    0  0.14063336508E+03 -0.31427006000E+03  0.83143393842E+02  0.35419802079E+03  0.00000000000E+00 0. -1.
        -11    1    3    3    0    0  0.71009943640E+02 -0.63346017364E+02 -0.88239064382E+01  0.95566685286E+02  0.00000000000E+00 0.  1.
          4    1    6    6  502    0 -0.38067032984E+03  0.16182226590E+03 -0.62423035499E+03  0.74883902266E+03  0.00000000000E+00 0. -1.
          3    1    5    5  503    0  0.18730650704E+03  0.16005414341E+03  0.12681347055E+03  0.27709693740E+03  0.00000000000E+00 0. -1.
         -4    1    5    5    0  503 -0.36024153674E+00  0.35916449582E+02  0.14563444024E+02  0.38758418781E+02  0.00000000000E+00 0.  1.
         -3    1    6    6    0  502 -0.17919244385E+02  0.19823218470E+02 -0.78376157062E+02  0.82806287838E+02  0.00000000000E+00 0.  1.
<mgrwt>
<rscale>  0 0.15212413E+04</rscale>
<asrwt>0</asrwt>
<pdfrwt beam="1">  1        2 0.16032119E+00 0.15212413E+04</pdfrwt>
<pdfrwt beam="2">  1       -2 0.85411944E-01 0.15212413E+04</pdfrwt>
<totfact> 0.27226941E+01</totfact>
</mgrwt>
</event>
<event>
12    1  0.2433511E-007  0.1925014E+04  0.7818608E-02  0.8642505E-01
         -1   -1    0    0    0  501 -0.00000000000E+00  0.00000000000E+00  0.39809699798E+03  0.39809699798E+03  0.00000000000E+00 0.  1.
          1   -1    0    0  501    0  0.00000000000E+00 -0.00000000000E+00 -0.23271206065E+04  0.23271206065E+04  0.00000000000E+00 0. -1.
         23    2    1    2    0    0 -0.24411676781E+03 -0.67891319514E+03 -0.10212693915E+04  0.12537796986E+04  0.91957814246E+02 0.  0.
        254    2    1    2    0    0  0.24411676781E+03  0.67891319514E+03 -0.90775421703E+03  0.14714379060E+04  0.90586735768E+03 0.  0.
        -24    2    4    4    0    0 -0.17652284231E+03  0.67794505628E+03 -0.41261639215E+03  0.81693471239E+03  0.79751012898E+02 0.  0.
         24    2    4    4    0    0  0.42063961011E+03  0.96813885898E+00 -0.49513782488E+03  0.65450319356E+03  0.79210768646E+02 0.  0.
         13    1    3    3    0    0 -0.75037550913E+02 -0.19725564870E+03 -0.37400631882E+03  0.42944283847E+03  0.00000000000E+00 0. -1.
        -13    1    3    3    0    0 -0.16907921689E+03 -0.48165754644E+03 -0.64726307271E+03  0.82433686010E+03  0.00000000000E+00 0.  1.
          2    1    6    6  502    0  0.22093501878E+03 -0.10347937851E+02 -0.31777133420E+03  0.38716660907E+03  0.00000000000E+00 0. -1.
          1    1    5    5  503    0 -0.16897709290E+03  0.65841754967E+03 -0.38168091208E+03  0.77958145584E+03  0.00000000000E+00 0. -1.
         -2    1    5    5    0  503 -0.75457494052E+01  0.19527506607E+02 -0.30935480068E+02  0.37353256557E+02  0.00000000000E+00 0.  1.
         -1    1    6    6    0  502  0.19970459133E+03  0.11316076710E+02 -0.17736649068E+03  0.26733658449E+03  0.00000000000E+00 0.  1.
<mgrwt>
<rscale>  0 0.19250140E+04</rscale>
<asrwt>0</asrwt>
<pdfrwt beam="1">  1        1 0.35801854E+00 0.19250140E+04</pdfrwt>
<pdfrwt beam="2">  1       -1 0.61245694E-01 0.19250140E+04</pdfrwt>
<totfact> 0.45028011E+00</totfact>
</mgrwt>
</event>
<event>
12    1  0.2433511E-007  0.2282410E+04  0.7818608E-02  0.8484889E-01
         -2   -1    0    0    0  501 -0.00000000000E+00  0.00000000000E+00  0.40755151875E+03  0.40755151875E+03  0.00000000000E+00 0.  1.
          2   -1    0    0  501    0  0.00000000000E+00 -0.00000000000E+00 -0.31955443474E+04  0.31955443474E+04  0.00000000000E+00 0. -1.
         23    2    1    2    0    0 -0.16002880477E+02  0.94792098173E+03 -0.14157194043E+04  0.17063058065E+04  0.91694022304E+02 0.  0.
        254    2    1    2    0    0  0.16002880477E+02 -0.94792098173E+03 -0.13722734243E+04  0.18967900597E+04  0.90325406142E+03 0.  0.
        -24    2    4    4    0    0  0.10053144278E+03 -0.10976768071E+04 -0.10576252791E+04  0.15297034925E+04  0.80128648224E+02 0.  0.
         24    2    4    4    0    0 -0.84528562301E+02  0.14975582537E+03 -0.31464814523E+03  0.36708656711E+03  0.78595212183E+02 0.  0.
         11    1    3    3    0    0  0.12962157522E+02  0.26873197096E+03 -0.47088557043E+03  0.54232657153E+03  0.00000000000E+00 0. -1.
        -11    1    3    3    0    0 -0.28965037998E+02  0.67918901076E+03 -0.94483383384E+03  0.11639792349E+04  0.00000000000E+00 0.  1.
          4    1    6    6  502    0 -0.16512758317E+02  0.76745205943E+02 -0.79899492519E+02  0.11201083308E+03  0.00000000000E+00 0. -1.
          3    1    5    5  503    0  0.31859367328E+02 -0.71765970142E+03 -0.71250925667E+03  0.10117904463E+04  0.00000000000E+00 0. -1.
         -4    1    5    5    0  503  0.68672075449E+02 -0.38001710568E+03 -0.34511602243E+03  0.51791304627E+03  0.00000000000E+00 0.  1.
         -1    1    6    6    0  502 -0.68015803984E+02  0.73010619427E+02 -0.23474865271E+03  0.25507573403E+03  0.00000000000E+00 0.  1.
<mgrwt>
<rscale>  0 0.22824101E+04</rscale>
<asrwt>0</asrwt>
<pdfrwt beam="1">  1        2 0.49162220E+00 0.22824101E+04</pdfrwt>
<pdfrwt beam="2">  1       -2 0.62700234E-01 0.22824101E+04</pdfrwt>
<totfact> 0.27996168E+00</totfact>
</mgrwt>
</event>
<event>
12    1  0.2433511E-007  0.2423052E+04  0.7818608E-02  0.8430923E-01
         -1   -1    0    0    0  501 -0.00000000000E+00  0.00000000000E+00  0.93953837011E+03  0.93953837011E+03  0.00000000000E+00 0.  1.
          1   -1    0    0  501    0  0.00000000000E+00 -0.00000000000E+00 -0.15622510445E+04  0.15622510445E+04  0.00000000000E+00 0. -1.
         23    2    1    2    0    0 -0.99545825167E+03 -0.22047657047E+03 -0.35486632826E+02  0.10241703633E+04  0.90103180111E+02 0.  0.
        254    2    1    2    0    0  0.99545825167E+03  0.22047657047E+03 -0.58722604159E+03  0.14776190513E+04  0.89385490316E+03 0.  0.
        -24    2    4    4    0    0  0.99711648922E+03  0.45116060656E+03 -0.55766040518E+03  0.12308918811E+04  0.79514208841E+02 0.  0.
         24    2    4    4    0    0 -0.16582375559E+01 -0.23068403609E+03 -0.29565636410E+02  0.24672717022E+03  0.82354692710E+02 0.  0.
         11    1    3    3    0    0 -0.82540642620E+03 -0.17976466790E+03  0.46406220968E+01  0.84476780218E+03  0.00000000000E+00 0.  1.
        -11    1    3    3    0    0 -0.17005182547E+03 -0.40711902576E+02 -0.40127254922E+02  0.17940256114E+03  0.00000000000E+00 0. -1.
          2    1    6    6  502    0 -0.50388691108E+01 -0.13928421256E+03  0.22962348285E+02  0.14125420882E+03  0.00000000000E+00 0. -1.
          1    1    5    5  503    0  0.70474256734E+03  0.34009310754E+03 -0.36400981544E+03  0.86303450322E+03  0.00000000000E+00 0. -1.
         -2    1    5    5    0  503  0.29237392189E+03  0.11106749902E+03 -0.19365058975E+03  0.36785737786E+03  0.00000000000E+00 0.  1.
         -1    1    6    6    0  502  0.33806315549E+01 -0.91399823523E+02 -0.52527984695E+02  0.10547296140E+03  0.00000000000E+00 0.  1.
<mgrwt>
<rscale>  0 0.24230516E+04</rscale>
<asrwt>0</asrwt>
<pdfrwt beam="1">  1        1 0.24034631E+00 0.24230516E+04</pdfrwt>
<pdfrwt beam="2">  1       -1 0.14454437E+00 0.24230516E+04</pdfrwt>
<totfact> 0.20413970E+00</totfact>
</mgrwt>
</event>
<event>
12    1  0.3291652E-007  0.1709798E+04  0.7818608E-02  0.8755796E-01
          1   -1    0    0  501    0  0.00000000000E+00  0.00000000000E+00  0.15418753038E+04  0.15418753038E+04  0.00000000000E+00 0. -1.
         -1   -1    0    0    0  501 -0.00000000000E+00 -0.00000000000E+00 -0.47400203554E+03  0.47400203554E+03  0.00000000000E+00 0.  1.
         23    2    1    2    0    0  0.18604681735E+03 -0.56138545295E+03  0.19160820518E+03  0.62808855797E+03  0.89523669055E+02 0.  0.
        254    2    1    2    0    0 -0.18604681735E+03  0.56138545295E+03  0.87626506311E+03  0.13877887814E+04  0.89908297499E+03 0.  0.
        -24    2    4    4    0    0  0.14522621722E+03  0.26694381578E+03  0.88231733232E+03  0.93656774559E+03  0.79533717447E+02 0.  0.
         24    2    4    4    0    0 -0.33127303457E+03  0.29444163717E+03 -0.60522692091E+01  0.45122103581E+03  0.84416183671E+02 0.  0.
         11    1    3    3    0    0  0.11338318481E+03 -0.28030839454E+03  0.55393050521E+02  0.30740353396E+03  0.00000000000E+00 0.  1.
        -11    1    3    3    0    0  0.72663632536E+02 -0.28107705842E+03  0.13621515466E+03  0.32068502401E+03  0.00000000000E+00 0. -1.
          2    1    6    6  502    0 -0.15923529103E+02  0.13040751686E+02 -0.19508383902E+02  0.28358367832E+02  0.00000000000E+00 0. -1.
          3    1    5    5  503    0  0.12521419067E+02  0.35667225931E+02  0.50651547167E+02  0.63202184864E+02  0.00000000000E+00 0. -1.
         -4    1    5    5    0  503  0.13270479815E+03  0.23127658985E+03  0.83166578515E+03  0.87336556072E+03  0.00000000000E+00 0.  1.
         -1    1    6    6    0  502 -0.31534950546E+03  0.28140088549E+03  0.13456114693E+02  0.42286266798E+03  0.00000000000E+00 0.  1.
<mgrwt>
<rscale>  0 0.17097977E+04</rscale>
<asrwt>0</asrwt>
<pdfrwt beam="1">  1        1 0.23721158E+00 0.17097977E+04</pdfrwt>
<pdfrwt beam="2">  1       -1 0.72923391E-01 0.17097977E+04</pdfrwt>
<totfact> 0.11029941E+01</totfact>
</mgrwt>
</event>
<event>
12    1  0.2433511E-007  0.2815133E+04  0.7818608E-02  0.8298585E-01
          1   -1    0    0  501    0  0.00000000000E+00  0.00000000000E+00  0.27050805196E+04  0.27050805196E+04  0.00000000000E+00 0. -1.
         -1   -1    0    0    0  501 -0.00000000000E+00 -0.00000000000E+00 -0.73241578164E+03  0.73241578164E+03  0.00000000000E+00 0.  1.
         23    2    1    2    0    0 -0.59575944960E+03  0.25622883234E+03  0.22093292685E+04  0.23043691891E+04  0.91646093139E+02 0.  0.
        254    2    1    2    0    0  0.59575944960E+03 -0.25622883234E+03 -0.23666453057E+03  0.11331271122E+04  0.89854572281E+03 0.  0.
        -24    2    4    4    0    0  0.78907279145E+03 -0.28095430570E+03 -0.35938230016E+02  0.84227430975E+03  0.81013976445E+02 0.  0.
         24    2    4    4    0    0 -0.19331334185E+03  0.24725473359E+02 -0.20072630056E+03  0.29085280242E+03  0.79516713784E+02 0.  0.
         13    1    3    3    0    0 -0.48494464282E+03  0.16769401043E+03  0.17263892384E+04  0.18010309243E+04  0.00000000000E+00 0. -1.
        -13    1    3    3    0    0 -0.11081480678E+03  0.88534821913E+02  0.48294003011E+03  0.50333826477E+03  0.00000000000E+00 0.  1.
          2    1    6    6  502    0 -0.13467459617E+03 -0.88910413029E+01 -0.93825681379E+02  0.16437626336E+03  0.00000000000E+00 0. -1.
          3    1    5    5  503    0  0.30554345399E+03 -0.83509701782E+02 -0.44852486345E+02  0.31991001563E+03  0.00000000000E+00 0. -1.
         -4    1    5    5    0  503  0.48352933746E+03 -0.19744460392E+03  0.89142563294E+01  0.52236429412E+03  0.00000000000E+00 0.  1.
         -1    1    6    6    0  502 -0.58638745680E+02  0.33616514662E+02 -0.10690061918E+03  0.12647653907E+03  0.00000000000E+00 0.  1.
<mgrwt>
<rscale>  0 0.28151332E+04</rscale>
<asrwt>0</asrwt>
<pdfrwt beam="1">  1        1 0.41616623E+00 0.28151332E+04</pdfrwt>
<pdfrwt beam="2">  1       -1 0.11267935E+00 0.28151332E+04</pdfrwt>
<totfact> 0.60619364E-01</totfact>
</mgrwt>
</event>
<event>
12    1  0.2433511E-007  0.2359158E+04  0.7818608E-02  0.8454955E-01
         -1   -1    0    0    0  501 -0.00000000000E+00  0.00000000000E+00  0.10530952001E+04  0.10530952001E+04  0.00000000000E+00 0.  1.
          1   -1    0    0  501    0  0.00000000000E+00 -0.00000000000E+00 -0.13212538312E+04  0.13212538312E+04  0.00000000000E+00 0. -1.
         23    2    1    2    0    0 -0.31259247817E+03 -0.81668758649E+03 -0.61438222636E+03  0.10724626512E+04  0.89542988827E+02 0.  0.
        254    2    1    2    0    0  0.31259247817E+03  0.81668758649E+03  0.34622359524E+03  0.13018863801E+04  0.90019147817E+03 0.  0.
        -24    2    4    4    0    0  0.38133828948E+02  0.60384650643E+03  0.60693110955E+03  0.86039837182E+03  0.76388443186E+02 0.  0.
         24    2    4    4    0    0  0.27445864923E+03  0.21284108005E+03 -0.26070751431E+03  0.44148800824E+03  0.79463060032E+02 0.  0.
         13    1    3    3    0    0 -0.81362134790E+02 -0.24429344731E+03 -0.22991406787E+03  0.34519496518E+03  0.00000000000E+00 0. -1.
        -13    1    3    3    0    0 -0.23123034338E+03 -0.57239413917E+03 -0.38446815848E+03  0.72726768604E+03  0.00000000000E+00 0.  1.
          4    1    6    6  502    0  0.11238810675E+03  0.97461221156E+02 -0.16011972052E+03  0.21855914776E+03  0.00000000000E+00 0. -1.
          3    1    5    5  503    0  0.55483069637E+02  0.27472241535E+03  0.28009856812E+03  0.39623980666E+03  0.00000000000E+00 0. -1.
         -2    1    5    5    0  503 -0.17349240689E+02  0.32912409108E+03  0.32683254143E+03  0.46415856517E+03  0.00000000000E+00 0.  1.
         -3    1    6    6    0  502  0.16207054248E+03  0.11537985890E+03 -0.10058779379E+03  0.22292886048E+03  0.00000000000E+00 0.  1.
<mgrwt>
<rscale>  0 0.23591575E+04</rscale>
<asrwt>0</asrwt>
<pdfrwt beam="1">  1        1 0.20326982E+00 0.23591575E+04</pdfrwt>
<pdfrwt beam="2">  1       -1 0.16201465E+00 0.23591575E+04</pdfrwt>
<totfact> 0.22166415E+00</totfact>
</mgrwt>
</event>
<event>
12    1  0.2433511E-007  0.1125125E+04  0.7818608E-02  0.9181043E-01
          2   -1    0    0  501    0  0.00000000000E+00  0.00000000000E+00  0.10312189460E+04  0.10312189460E+04  0.00000000000E+00 0. -1.
         -2   -1    0    0    0  501 -0.00000000000E+00 -0.00000000000E+00 -0.30689581381E+03  0.30689581381E+03  0.00000000000E+00 0.  1.
         23    2    1    2    0    0  0.13628175200E+02 -0.14004004594E+03 -0.87565579181E+01  0.16911690297E+03  0.93417920854E+02 0.  0.
        254    2    1    2    0    0 -0.13628175200E+02  0.14004004594E+03  0.73307969012E+03  0.11689978568E+04  0.89964060358E+03 0.  0.
        -24    2    4    4    0    0 -0.21405089250E+03  0.46602291222E+03  0.39713188956E+03  0.65365952484E+03  0.81005539404E+02 0.  0.
         24    2    4    4    0    0  0.20042271730E+03 -0.32598286628E+03  0.33594780055E+03  0.51533833200E+03  0.79237472272E+02 0.  0.
         11    1    3    3    0    0  0.39601538537E+02 -0.11591494866E+03 -0.32153421120E+02  0.12664280345E+03  0.00000000000E+00 0.  1.
        -11    1    3    3    0    0 -0.25973363337E+02 -0.24125097287E+02  0.23396863202E+02  0.42474099518E+02  0.00000000000E+00 0. -1.
          2    1    6    6  502    0  0.16126676954E+03 -0.20152522403E+03  0.19668877412E+03  0.32450864510E+03  0.00000000000E+00 0. -1.
          3    1    5    5  503    0 -0.40164238273E+02  0.49451325278E+02  0.78632301920E+02  0.10120098079E+03  0.00000000000E+00 0. -1.
         -4    1    5    5    0  503 -0.17388665423E+03  0.41657158694E+03  0.31849958764E+03  0.55245854405E+03  0.00000000000E+00 0.  1.
         -1    1    6    6    0  502  0.39155947758E+02 -0.12445764224E+03  0.13925902643E+03  0.19082968690E+03  0.00000000000E+00 0.  1.
<mgrwt>
<rscale>  0 0.11251254E+04</rscale>
<asrwt>0</asrwt>
<pdfrwt beam="1">  1        2 0.15864907E+00 0.11251254E+04</pdfrwt>
<pdfrwt beam="2">  1       -2 0.47214741E-01 0.11251254E+04</pdfrwt>
<totfact> 0.10136733E+02</totfact>
</mgrwt>
</event>
<event>
12    1  0.2433511E-007  0.1940671E+04  0.7818608E-02  0.8634873E-01
          2   -1    0    0  501    0  0.00000000000E+00  0.00000000000E+00  0.45450864212E+03  0.45450864212E+03  0.00000000000E+00 0. -1.
         -2   -1    0    0    0  501 -0.00000000000E+00 -0.00000000000E+00 -0.20715799941E+04  0.20715799941E+04  0.00000000000E+00 0.  1.
         23    2    1    2    0    0 -0.42882715019E+03  0.49284824538E+03 -0.11397405367E+04  0.13169081672E+04  0.91904907790E+02 0.  0.
        254    2    1    2    0    0  0.42882715019E+03 -0.49284824538E+03 -0.47733081531E+03  0.12091804691E+04  0.89859923314E+03 0.  0.
        -24    2    4    4    0    0  0.16589650902E+03  0.22328212137E+02  0.22761708181E+03  0.29355927813E+03  0.79670026265E+02 0.  0.
         24    2    4    4    0    0  0.26293064117E+03 -0.51517645752E+03 -0.70494789712E+03  0.91562119093E+03  0.82893444712E+02 0.  0.
         11    1    3    3    0    0 -0.48839650339E+02  0.21414522269E+02 -0.11224882704E+03  0.12427265340E+03  0.00000000000E+00 0. -1.
        -11    1    3    3    0    0 -0.37998749985E+03  0.47143372311E+03 -0.10274917096E+04  0.11926355138E+04  0.00000000000E+00 0.  1.
          2    1    6    6  502    0  0.20489213988E+03 -0.33149969319E+03 -0.43562897309E+03  0.58450443776E+03  0.00000000000E+00 0. -1.
          1    1    5    5  503    0  0.65314959697E+02 -0.63235790819E+01  0.14872204207E+03  0.16255545949E+03  0.00000000000E+00 0. -1.
         -2    1    5    5    0  503  0.10058154932E+03  0.28651791219E+02  0.78895039742E+02  0.13100381865E+03  0.00000000000E+00 0.  1.
         -1    1    6    6    0  502  0.58038501292E+02 -0.18367676433E+03 -0.26931892403E+03  0.33111675317E+03  0.00000000000E+00 0.  1.
<mgrwt>
<rscale>  0 0.19406710E+04</rscale>
<asrwt>0</asrwt>
<pdfrwt beam="1">  1        2 0.69924406E-01 0.19406710E+04</pdfrwt>
<pdfrwt beam="2">  1       -2 0.31870462E+00 0.19406710E+04</pdfrwt>
<totfact> 0.15682921E+00</totfact>
</mgrwt>
</event>
<event>
12    1  0.2433511E-007  0.1692666E+04  0.7818608E-02  0.8765558E-01
         -1   -1    0    0    0  501 -0.00000000000E+00  0.00000000000E+00  0.75249048841E+03  0.75249048841E+03  0.00000000000E+00 0.  1.
          1   -1    0    0  501    0  0.00000000000E+00 -0.00000000000E+00 -0.95187849606E+03  0.95187849606E+03  0.00000000000E+00 0. -1.
         23    2    1    2    0    0  0.57618857671E+03 -0.18396550562E+03 -0.69421630460E+02  0.61567719752E+03  0.91664963734E+02 0.  0.
        254    2    1    2    0    0 -0.57618857671E+03  0.18396550562E+03 -0.12996637719E+03  0.10886917870E+04  0.89583590271E+03 0.  0.
        -24    2    4    4    0    0 -0.43201129300E+03  0.47625914266E+03  0.13448237582E+03  0.66179599673E+03  0.80199149852E+02 0.  0.
         24    2    4    4    0    0 -0.14417728372E+03 -0.29229363703E+03 -0.26444875301E+03  0.42689579022E+03  0.78001367622E+02 0.  0.
         11    1    3    3    0    0  0.13829273994E+03 -0.16906613068E+02 -0.44809131716E+02  0.14635085846E+03  0.00000000000E+00 0. -1.
        -11    1    3    3    0    0  0.43789583677E+03 -0.16705889256E+03 -0.24612498744E+02  0.46932633906E+03  0.00000000000E+00 0.  1.
          2    1    6    6  502    0 -0.55346772753E+02 -0.10440487361E+03 -0.50144419846E+02  0.12836707416E+03  0.00000000000E+00 0. -1.
          1    1    5    5  503    0 -0.49984362562E+02  0.48694620941E+02  0.40759104409E+02  0.80814028495E+02  0.00000000000E+00 0. -1.
         -4    1    5    5    0  503 -0.38202693043E+03  0.42756452172E+03  0.93723271415E+02  0.58098196823E+03  0.00000000000E+00 0.  1.
         -1    1    6    6    0  502 -0.88830510965E+02 -0.18788876343E+03 -0.21430433317E+03  0.29852871606E+03  0.00000000000E+00 0.  1.
<mgrwt>
<rscale>  0 0.16926660E+04</rscale>
<asrwt>0</asrwt>
<pdfrwt beam="1">  1        1 0.14644285E+00 0.16926660E+04</pdfrwt>
<pdfrwt beam="2">  1       -1 0.11576777E+00 0.16926660E+04</pdfrwt>
<totfact> 0.10626540E+01</totfact>
</mgrwt>
</event>
<event>
12    1  0.2433511E-007  0.2203179E+04  0.7818608E-02  0.8517106E-01
         -2   -1    0    0    0  501 -0.00000000000E+00  0.00000000000E+00  0.61039401434E+03  0.61039401434E+03  0.00000000000E+00 0. -1.
          2   -1    0    0  501    0  0.00000000000E+00 -0.00000000000E+00 -0.19880586799E+04  0.19880586799E+04  0.00000000000E+00 0.  1.
         23    2    1    2    0    0 -0.71611297905E+03 -0.26493973949E+03 -0.11690548603E+04  0.13991328623E+04  0.88727873638E+02 0.  0.
        254    2    1    2    0    0  0.71611297905E+03  0.26493973949E+03 -0.20860980531E+03  0.11993198320E+04  0.90102116751E+03 0.  0.
        -24    2    4    4    0    0 -0.60198214880E+02  0.35837609902E+03 -0.17877070057E+03  0.41302641763E+03  0.81083937108E+02 0.  0.
         24    2    4    4    0    0  0.77631119393E+03 -0.93436359534E+02 -0.29839104742E+02  0.78629341439E+03  0.77314540938E+02 0.  0.
         13    1    3    3    0    0 -0.46458475115E+03 -0.17053303474E+03 -0.67827230849E+03  0.83962719787E+03  0.00000000000E+00 0. -1.
        -13    1    3    3    0    0 -0.25152822790E+03 -0.94406704749E+02 -0.49078255180E+03  0.55950566439E+03  0.00000000000E+00 0.  1.
          4    1    6    6  502    0  0.20849776504E+03 -0.57192998737E+02 -0.21466024257E+02  0.21726285308E+03  0.00000000000E+00 0. -1.
          3    1    5    5  503    0  0.12457472539E+02  0.88492889096E+01 -0.87577521178E+01  0.17612403539E+02  0.00000000000E+00 0. -1.
         -4    1    5    5    0  503 -0.72655687420E+02  0.34952681011E+03 -0.17001294845E+03  0.39541401410E+03  0.00000000000E+00 0.  1.
         -3    1    6    6    0  502  0.56781342889E+03 -0.36243360797E+02 -0.83730804849E+01  0.56903056131E+03  0.00000000000E+00 0.  1.
<mgrwt>
<rscale>  0 0.22031787E+04</rscale>
<asrwt>0</asrwt>
<pdfrwt beam="1">  1        2 0.30585518E+00 0.22031787E+04</pdfrwt>
<pdfrwt beam="2">  1       -2 0.93906771E-01 0.22031787E+04</pdfrwt>
<totfact> 0.59358091E+00</totfact>
</mgrwt>
</event>
<event>
12    1  0.2433511E-007  0.1331528E+04  0.7818608E-02  0.9004930E-01
          1   -1    0    0  501    0  0.00000000000E+00  0.00000000000E+00  0.87615970598E+03  0.87615970598E+03  0.00000000000E+00 0. -1.
         -1   -1    0    0    0  501 -0.00000000000E+00 -0.00000000000E+00 -0.50589140448E+03  0.50589140448E+03  0.00000000000E+00 0.  1.
         23    2    1    2    0    0  0.15582073988E+03  0.30555339079E+03  0.20993469017E+03  0.41190047677E+03  0.89142868614E+02 0.  0.
        254    2    1    2    0    0 -0.15582073988E+03 -0.30555339079E+03  0.16033361133E+03  0.97015063370E+03  0.89322024582E+03 0.  0.
        -24    2    4    4    0    0  0.60738580454E+02  0.28379167246E+03  0.14517567331E+03  0.33582316157E+03  0.86454214551E+02 0.  0.
         24    2    4    4    0    0 -0.21655932033E+03 -0.58934506325E+03  0.15157938027E+02  0.63432747213E+03  0.88972108077E+02 0.  0.
         13    1    3    3    0    0  0.75211128261E+02  0.23130363566E+03  0.12645355187E+03  0.27413242505E+03  0.00000000000E+00 0. -1.
        -13    1    3    3    0    0  0.80609611618E+02  0.74249755132E+02  0.83481138297E+02  0.13776805172E+03  0.00000000000E+00 0.  1.
          4    1    6    6  502    0 -0.22382173978E+03 -0.54437198138E+03  0.14441177786E+02  0.58876614451E+03  0.00000000000E+00 0. -1.
          3    1    5    5  503    0  0.43828829013E+02  0.19915016168E+03  0.55449726645E+02  0.21132066945E+03  0.00000000000E+00 0. -1.
         -4    1    5    5    0  503  0.16909751441E+02  0.84641510779E+02  0.89725946662E+02  0.12450249212E+03  0.00000000000E+00 0.  1.
         -3    1    6    6    0  502  0.72624194460E+01 -0.44973081873E+02  0.71676024079E+00  0.45561327621E+02  0.00000000000E+00 0.  1.
<mgrwt>
<rscale>  0 0.13315279E+04</rscale>
<asrwt>0</asrwt>
<pdfrwt beam="1">  1        1 0.13479380E+00 0.13315279E+04</pdfrwt>
<pdfrwt beam="2">  1       -1 0.77829447E-01 0.13315279E+04</pdfrwt>
<totfact> 0.30877025E+01</totfact>
</mgrwt>
</event>
<event>
12    1  0.2433511E-007  0.1397918E+04  0.7818608E-02  0.8955327E-01
          2   -1    0    0  501    0  0.00000000000E+00  0.00000000000E+00  0.11128119293E+04  0.11128119293E+04  0.00000000000E+00 0. -1.
         -2   -1    0    0    0  501 -0.00000000000E+00 -0.00000000000E+00 -0.43901726411E+03  0.43901726411E+03  0.00000000000E+00 0.  1.
         23    2    1    2    0    0  0.50228102451E+02  0.14569312494E+03 -0.21280745784E+03  0.27790183137E+03  0.90515550235E+02 0.  0.
        254    2    1    2    0    0 -0.50228102451E+02 -0.14569312494E+03  0.88660212301E+03  0.12739273620E+04  0.90170851734E+03 0.  0.
        -24    2    4    4    0    0  0.25145933668E+03 -0.41028376737E+03  0.36155952374E+03  0.60810269153E+03  0.86596919514E+02 0.  0.
         24    2    4    4    0    0 -0.30168743913E+03  0.26459064243E+03  0.52504259927E+03  0.66582467049E+03  0.81420155929E+02 0.  0.
         13    1    3    3    0    0  0.26801707400E+02  0.14294931866E+03 -0.14198472800E+03  0.20325477168E+03  0.00000000000E+00 0. -1.
        -13    1    3    3    0    0  0.23426395052E+02  0.27438062803E+01 -0.70822729842E+02  0.74647059690E+02  0.00000000000E+00 0.  1.
          2    1    6    6  502    0 -0.13710604483E+03  0.16549367701E+03  0.31322431609E+03  0.37986273422E+03  0.00000000000E+00 0. -1.
          1    1    5    5  503    0  0.16654594270E+03 -0.34043704333E+03  0.28027734148E+03  0.47137068178E+03  0.00000000000E+00 0. -1.
         -2    1    5    5    0  503  0.84913393977E+02 -0.69846724048E+02  0.81282182258E+02  0.13673200975E+03  0.00000000000E+00 0.  1.
         -1    1    6    6    0  502 -0.16458139430E+03  0.99096965422E+02  0.21181828318E+03  0.28596193627E+03  0.00000000000E+00 0.  1.
<mgrwt>
<rscale>  0 0.13979179E+04</rscale>
<asrwt>0</asrwt>
<pdfrwt beam="1">  1        2 0.17120183E+00 0.13979179E+04</pdfrwt>
<pdfrwt beam="2">  1       -2 0.67541118E-01 0.13979179E+04</pdfrwt>
<totfact> 0.41854456E+01</totfact>
</mgrwt>
</event>
<event>
12    1  0.2433511E-007  0.2833319E+04  0.7818608E-02  0.8292998E-01
          1   -1    0    0  501    0  0.00000000000E+00  0.00000000000E+00  0.24920562196E+04  0.24920562196E+04  0.00000000000E+00 0. -1.
         -1   -1    0    0    0  501 -0.00000000000E+00 -0.00000000000E+00 -0.80532877254E+03  0.80532877254E+03  0.00000000000E+00 0.  1.
         23    2    1    2    0    0 -0.12376898259E+04  0.13636217079E+03  0.10827089774E+04  0.16526075528E+04  0.91554612876E+02 0.  0.
        254    2    1    2    0    0  0.12376898259E+04 -0.13636217079E+03  0.60401846961E+03  0.16447774393E+04  0.88881030951E+03 0.  0.
        -24    2    4    4    0    0 -0.34920744086E+02  0.70082763174E+02 -0.11928966168E+03  0.16425781230E+03  0.81360638250E+02 0.  0.
         24    2    4    4    0    0  0.12726105700E+04 -0.20644493396E+03  0.72330813129E+03  0.14805196270E+04  0.81280621267E+02 0.  0.
         13    1    3    3    0    0 -0.61506706419E+03  0.11284751049E+03  0.55471763494E+03  0.83591489315E+03  0.00000000000E+00 0.  1.
        -13    1    3    3    0    0 -0.62262276172E+03  0.23514660297E+02  0.52799134247E+03  0.81669265969E+03  0.00000000000E+00 0. -1.
          4    1    6    6  502    0  0.42065715602E+03 -0.10708312851E+03  0.24100977539E+03  0.49649264965E+03  0.00000000000E+00 0. -1.
          1    1    5    5  503    0 -0.42388503817E+02  0.28787032027E+02 -0.17481164066E+02  0.54139353209E+02  0.00000000000E+00 0. -1.
         -2    1    5    5    0  503  0.74677597305E+01  0.41295731147E+02 -0.10180849761E+03  0.11011845909E+03  0.00000000000E+00 0.  1.
         -3    1    6    6    0  502  0.85195341398E+03 -0.99361805457E+02  0.48229835590E+03  0.98402697731E+03  0.00000000000E+00 0.  1.
<mgrwt>
<rscale>  0 0.28333193E+04</rscale>
<asrwt>0</asrwt>
<pdfrwt beam="1">  1        1 0.38339326E+00 0.28333193E+04</pdfrwt>
<pdfrwt beam="2">  1       -1 0.12389674E+00 0.28333193E+04</pdfrwt>
<totfact> 0.67734309E-01</totfact>
</mgrwt>
</event>
<event>
12    1  0.2433511E-007  0.1528188E+04  0.7818608E-02  0.8865921E-01
         -1   -1    0    0    0  501 -0.00000000000E+00  0.00000000000E+00  0.68990313784E+03  0.68990313784E+03  0.00000000000E+00 0.  1.
          1   -1    0    0  501    0  0.00000000000E+00 -0.00000000000E+00 -0.84626345334E+03  0.84626345334E+03  0.00000000000E+00 0. -1.
         23    2    1    2    0    0  0.14051593125E+03  0.13515000690E+03  0.40383027043E+03  0.45755911575E+03  0.90946169724E+02 0.  0.
        254    2    1    2    0    0 -0.14051593125E+03 -0.13515000690E+03 -0.56019058594E+03  0.10786074754E+04  0.90087198991E+03 0.  0.
        -24    2    4    4    0    0  0.25091538257E+03 -0.22810217936E+03  0.41306431154E+02  0.35066552979E+03  0.79189387489E+02 0.  0.
         24    2    4    4    0    0 -0.39143131382E+03  0.92952172457E+02 -0.60149701709E+03  0.72794194564E+03  0.79007815171E+02 0.  0.
         11    1    3    3    0    0  0.21604212644E+02  0.41920340193E+01  0.70075103594E+01  0.23095894757E+02  0.00000000000E+00 0. -1.
        -11    1    3    3    0    0  0.11891171860E+03  0.13095797289E+03  0.39682276007E+03  0.43446322099E+03  0.00000000000E+00 0.  1.
          2    1    6    6  502    0 -0.17219022905E+03  0.80822480701E+02 -0.29082932317E+03  0.34751035032E+03  0.00000000000E+00 0. -1.
          3    1    5    5  503    0  0.16972038925E+03 -0.19688757992E+03  0.17765870831E+02  0.26054818330E+03  0.00000000000E+00 0. -1.
         -4    1    5    5    0  503  0.81194993322E+02 -0.31214599438E+02  0.23540560323E+02  0.90117346493E+02  0.00000000000E+00 0.  1.
         -1    1    6    6    0  502 -0.21924108476E+03  0.12129691757E+02 -0.31066769392E+03  0.38043159532E+03  0.00000000000E+00 0.  1.
<mgrwt>
<rscale>  0 0.15281882E+04</rscale>
<asrwt>0</asrwt>
<pdfrwt beam="1">  1        1 0.13019438E+00 0.15281882E+04</pdfrwt>
<pdfrwt beam="2">  1       -1 0.10613895E+00 0.15281882E+04</pdfrwt>
<totfact> 0.16169418E+01</totfact>
</mgrwt>
</event>
<event>
12    1  0.2433511E-007  0.1752833E+04  0.7818608E-02  0.8731793E-01
          1   -1    0    0  501    0  0.00000000000E+00  0.00000000000E+00  0.62304696275E+03  0.62304696275E+03  0.00000000000E+00 0.  1.
         -1   -1    0    0    0  501 -0.00000000000E+00 -0.00000000000E+00 -0.12328211067E+04  0.12328211067E+04  0.00000000000E+00 0. -1.
         23    2    1    2    0    0 -0.48999347313E+03 -0.31215910236E+03 -0.51258369563E+03  0.78050371739E+03  0.94377428113E+02 0.  0.
        254    2    1    2    0    0  0.48999347313E+03  0.31215910236E+03 -0.97190448279E+02  0.10753643520E+04  0.89968083090E+03 0.  0.
        -24    2    4    4    0    0 -0.91761766890E+02  0.41594157999E+03 -0.18820749649E+03  0.47233132837E+03  0.79039244673E+02 0.  0.
         24    2    4    4    0    0  0.58175524002E+03 -0.10378247762E+03  0.91017048212E+02  0.60303302366E+03  0.78452295146E+02 0.  0.
         11    1    3    3    0    0 -0.27804507961E+03 -0.17025545362E+03 -0.22515864832E+03  0.39622266808E+03  0.00000000000E+00 0.  1.
        -11    1    3    3    0    0 -0.21194839351E+03 -0.14190364874E+03 -0.28742504731E+03  0.38428104931E+03  0.00000000000E+00 0. -1.
          2    1    6    6  502    0  0.49168799661E+01 -0.10765062927E+02  0.17824845991E+01  0.11968272213E+02  0.00000000000E+00 0. -1.
          3    1    5    5  503    0 -0.65867709523E+02  0.39320667664E+03 -0.17089782405E+03  0.43376965313E+03  0.00000000000E+00 0. -1.
         -4    1    5    5    0  503 -0.25894057368E+02  0.22734903347E+02 -0.17309672445E+02  0.38561675240E+02  0.00000000000E+00 0.  1.
         -1    1    6    6    0  502  0.57683836005E+03 -0.93017414696E+02  0.89234563613E+02  0.59106475145E+03  0.00000000000E+00 0.  1.
<mgrwt>
<rscale>  0 0.17528325E+04</rscale>
<asrwt>0</asrwt>
<pdfrwt beam="1">  1        1 0.95853380E-01 0.17528325E+04</pdfrwt>
<pdfrwt beam="2">  1       -1 0.18966478E+00 0.17528325E+04</pdfrwt>
<totfact> 0.54557123E+00</totfact>
</mgrwt>
</event>
<event>
12    1  0.2433511E-007  0.1937120E+04  0.7818608E-02  0.8636597E-01
          1   -1    0    0  501    0  0.00000000000E+00  0.00000000000E+00  0.10180062027E+04  0.10180062027E+04  0.00000000000E+00 0. -1.
         -1   -1    0    0    0  501 -0.00000000000E+00 -0.00000000000E+00 -0.92151526372E+03  0.92151526372E+03  0.00000000000E+00 0.  1.
         23    2    1    2    0    0 -0.12184417380E+03 -0.15680312605E+03  0.77339335734E+03  0.80347204632E+03  0.89424946189E+02 0.  0.
        254    2    1    2    0    0  0.12184417380E+03  0.15680312605E+03 -0.67690241834E+03  0.11360494201E+04  0.89049322177E+03 0.  0.
        -24    2    4    4    0    0  0.23375592498E+03  0.46933244358E+03 -0.57043004468E+03  0.77893240287E+03  0.80190256858E+02 0.  0.
         24    2    4    4    0    0 -0.11191175118E+03 -0.31252931753E+03 -0.10647237365E+03  0.35711701727E+03  0.77442774371E+02 0.  0.
         13    1    3    3    0    0 -0.10819233596E+03 -0.14841013732E+03  0.76197051520E+03  0.78379220234E+03  0.00000000000E+00 0. -1.
        -13    1    3    3    0    0 -0.13651837839E+02 -0.83929887296E+01  0.11422842146E+02  0.19679843976E+02  0.00000000000E+00 0.  1.
          4    1    6    6  502    0 -0.33843889036E+02 -0.14838443119E+03 -0.13059564683E+02  0.15275437956E+03  0.00000000000E+00 0. -1.
          3    1    5    5  503    0  0.63315703471E+02  0.21507597516E+03 -0.24935430707E+03  0.33532689103E+03  0.00000000000E+00 0. -1.
         -4    1    5    5    0  503  0.17044022151E+03  0.25425646843E+03 -0.32107573761E+03  0.44360551183E+03  0.00000000000E+00 0.  1.
         -3    1    6    6    0  502 -0.78067862148E+02 -0.16414488634E+03 -0.93412808970E+02  0.20436263771E+03  0.00000000000E+00 0.  1.
<mgrwt>
<rscale>  0 0.19371198E+04</rscale>
<asrwt>0</asrwt>
<pdfrwt beam="1">  1        1 0.15661634E+00 0.19371198E+04</pdfrwt>
<pdfrwt beam="2">  1       -1 0.14177158E+00 0.19371198E+04</pdfrwt>
<totfact> 0.55415060E+00</totfact>
</mgrwt>
</event>
<event>
12    1  0.2433511E-007  0.3348720E+04  0.7818608E-02  0.8150608E-01
          2   -1    0    0  501    0  0.00000000000E+00  0.00000000000E+00  0.38301946722E+04  0.38301946722E+04  0.00000000000E+00 0. -1.
         -2   -1    0    0    0  501 -0.00000000000E+00 -0.00000000000E+00 -0.73194240979E+03  0.73194240979E+03  0.00000000000E+00 0.  1.
         23    2    1    2    0    0 -0.14886649923E+04 -0.38195210467E+03  0.11418355292E+04  0.19167506438E+04  0.90187500369E+02 0.  0.
        254    2    1    2    0    0  0.14886649923E+04  0.38195210467E+03  0.19564167332E+04  0.26453864381E+04  0.89916188945E+03 0.  0.
        -24    2    4    4    0    0  0.54114658258E+00  0.39404569567E+02 -0.66197396413E+02  0.10979991446E+03  0.78236263845E+02 0.  0.
         24    2    4    4    0    0  0.14881238458E+04  0.34254753511E+03  0.20226141296E+04  0.25355865237E+04  0.79873072038E+02 0.  0.
         13    1    3    3    0    0 -0.58078593294E+03 -0.17916756685E+03  0.49257761485E+03  0.78233370346E+03  0.00000000000E+00 0. -1.
        -13    1    3    3    0    0 -0.90787905940E+03 -0.20278453782E+03  0.64925791435E+03  0.11344169404E+04  0.00000000000E+00 0.  1.
          2    1    6    6  502    0  0.10697688856E+04  0.28288109335E+03  0.14647930331E+04  0.18357684525E+04  0.00000000000E+00 0. -1.
          1    1    5    5  503    0  0.42185748201E+01  0.60612400040E+02 -0.63864598504E+02  0.88149568088E+02  0.00000000000E+00 0. -1.
         -2    1    5    5    0  503 -0.36774282375E+01 -0.21207830472E+02 -0.23327979086E+01  0.21650346368E+02  0.00000000000E+00 0.  1.
         -1    1    6    6    0  502  0.41835496014E+03  0.59666441758E+02  0.55782109655E+03  0.69981807115E+03  0.00000000000E+00 0.  1.
<mgrwt>
<rscale>  0 0.33487203E+04</rscale>
<asrwt>0</asrwt>
<pdfrwt beam="1">  1        2 0.58926071E+00 0.33487203E+04</pdfrwt>
<pdfrwt beam="2">  1       -2 0.11260653E+00 0.33487203E+04</pdfrwt>
<totfact> 0.23998936E-01</totfact>
</mgrwt>
</event>
<event>
12    1  0.2433511E-007  0.2560996E+04  0.7818608E-02  0.8381572E-01
         -2   -1    0    0    0  501 -0.00000000000E+00  0.00000000000E+00  0.29474317455E+04  0.29474317455E+04  0.00000000000E+00 0.  1.
          2   -1    0    0  501    0  0.00000000000E+00 -0.00000000000E+00 -0.55630631762E+03  0.55630631762E+03  0.00000000000E+00 0. -1.
         23    2    1    2    0    0  0.51412216326E+03 -0.27270199422E+03  0.23455446614E+04  0.24183710298E+04  0.90833380777E+02 0.  0.
        254    2    1    2    0    0 -0.51412216326E+03  0.27270199422E+03  0.45580766556E+02  0.10853670333E+04  0.91501694757E+03 0.  0.
        -24    2    4    4    0    0 -0.29458457972E+03 -0.30316386227E+03 -0.11206501258E+03  0.44428345913E+03  0.78363403522E+02 0.  0.
         24    2    4    4    0    0 -0.21953758354E+03  0.57586585649E+03  0.15764577914E+03  0.64108357419E+03  0.79484100075E+02 0.  0.
         13    1    3    3    0    0  0.33090595355E+03 -0.13510849156E+03  0.13193998955E+04  0.13669561583E+04  0.00000000000E+00 0. -1.
        -13    1    3    3    0    0  0.18321620971E+03 -0.13759350266E+03  0.10261447659E+04  0.10514148715E+04  0.00000000000E+00 0.  1.
          2    1    6    6  502    0 -0.60143297765E+02  0.11730537894E+03  0.64488011299E+02  0.14675309808E+03  0.00000000000E+00 0. -1.
          3    1    5    5  503    0 -0.53799508398E+02 -0.80219343028E+02 -0.55181187350E+02  0.11124070090E+03  0.00000000000E+00 0. -1.
         -4    1    5    5    0  503 -0.24078507133E+03 -0.22294451925E+03 -0.56883825231E+02  0.33304275823E+03  0.00000000000E+00 0.  1.
         -1    1    6    6    0  502 -0.15939428577E+03  0.45856047755E+03  0.93157767839E+02  0.49433047612E+03  0.00000000000E+00 0.  1.
<mgrwt>
<rscale>  0 0.25609958E+04</rscale>
<asrwt>0</asrwt>
<pdfrwt beam="1">  1        2 0.85585589E-01 0.25609958E+04</pdfrwt>
<pdfrwt beam="2">  1       -2 0.45345103E+00 0.25609958E+04</pdfrwt>
<totfact> 0.15853961E-01</totfact>
</mgrwt>
</event>
<event>
12    1  0.2433511E-007  0.4938972E+04  0.7818608E-02  0.7837991E-01
          2   -1    0    0  501    0  0.00000000000E+00  0.00000000000E+00  0.13196032099E+04  0.13196032099E+04  0.00000000000E+00 0. -1.
         -2   -1    0    0    0  501 -0.00000000000E+00 -0.00000000000E+00 -0.46213592935E+04  0.46213592935E+04  0.00000000000E+00 0.  1.
         23    2    1    2    0    0 -0.20058158080E+04 -0.87182948968E+03 -0.27466699698E+04  0.35122403358E+04  0.90843486310E+02 0.  0.
        254    2    1    2    0    0  0.20058158080E+04  0.87182948968E+03 -0.55508611383E+03  0.24287221676E+04  0.89843589589E+03 0.  0.
        -24    2    4    4    0    0  0.17883274131E+04  0.71629509987E+03 -0.76928597959E+03  0.20758079566E+04  0.77357272352E+02 0.  0.
         24    2    4    4    0    0  0.21748839487E+03  0.15553438981E+03  0.21419986576E+03  0.35291421104E+03  0.84703657191E+02 0.  0.
         13    1    3    3    0    0 -0.15675974333E+04 -0.66211626759E+03 -0.20820704888E+04  0.26890104472E+04  0.00000000000E+00 0. -1.
        -13    1    3    3    0    0 -0.43821837470E+03 -0.20971322208E+03 -0.66459948096E+03  0.82322988863E+03  0.00000000000E+00 0.  1.
          2    1    6    6  502    0 -0.44709482931E+01  0.66497127262E+01  0.22834376467E+02  0.24199520793E+02  0.00000000000E+00 0. -1.
          1    1    5    5  503    0  0.58340361138E+03  0.26415805158E+03 -0.28041195942E+03  0.69912096019E+03  0.00000000000E+00 0. -1.
         -2    1    5    5    0  503  0.12049238018E+04  0.45213704828E+03 -0.48887402017E+03  0.13766869964E+04  0.00000000000E+00 0.  1.
         -1    1    6    6    0  502  0.22195934317E+03  0.14888467708E+03  0.19136548929E+03  0.32871469024E+03  0.00000000000E+00 0.  1.
<mgrwt>
<rscale>  0 0.49389718E+04</rscale>
<asrwt>0</asrwt>
<pdfrwt beam="1">  1        2 0.20301588E+00 0.49389718E+04</pdfrwt>
<pdfrwt beam="2">  1       -2 0.71097835E+00 0.49389718E+04</pdfrwt>
<totfact> 0.24629617E-03</totfact>
</mgrwt>
</event>
<event>
12    1  0.2433511E-007  0.2037687E+04  0.7818608E-02  0.8589201E-01
          2   -1    0    0  501    0  0.00000000000E+00  0.00000000000E+00  0.26931441389E+04  0.26931441389E+04  0.00000000000E+00 0. -1.
         -2   -1    0    0    0  501 -0.00000000000E+00 -0.00000000000E+00 -0.38543866788E+03  0.38543866788E+03  0.00000000000E+00 0.  1.
         23    2    1    2    0    0  0.63683494086E+03  0.60201429289E+02  0.16289016658E+03  0.66624082926E+03  0.90336494352E+02 0.  0.
        254    2    1    2    0    0 -0.63683494086E+03 -0.60201429289E+02  0.21448153045E+04  0.24123419775E+04  0.89998787344E+03 0.  0.
        -24    2    4    4    0    0 -0.57839748124E+03 -0.14480589959E+03  0.21917386917E+04  0.22730478064E+04  0.86691652159E+02 0.  0.
         24    2    4    4    0    0 -0.58437459627E+02  0.84604470304E+02 -0.46923387223E+02  0.13929417117E+03  0.81413811911E+02 0.  0.
         11    1    3    3    0    0  0.37589397868E+03 -0.85704065298E+01  0.87101529498E+02  0.38594871617E+03  0.00000000000E+00 0.  1.
        -11    1    3    3    0    0  0.26094096218E+03  0.68771835819E+02  0.75788637085E+02  0.28029211309E+03  0.00000000000E+00 0. -1.
          2    1    6    6  502    0  0.10955596843E+02  0.37452976515E+02 -0.38760699132E+02  0.55001294069E+02  0.00000000000E+00 0. -1.
          3    1    5    5  503    0 -0.26874302486E+03 -0.25615308082E+02  0.92694400445E+03  0.96545540798E+03  0.00000000000E+00 0. -1.
         -4    1    5    5    0  503 -0.30965445638E+03 -0.11919059151E+03  0.12647946872E+04  0.13075923984E+04  0.00000000000E+00 0.  1.
         -1    1    6    6    0  502 -0.69393056470E+02  0.47151493789E+02 -0.81626880909E+01  0.84292877099E+02  0.00000000000E+00 0.  1.
<mgrwt>
<rscale>  0 0.20376868E+04</rscale>
<asrwt>0</asrwt>
<pdfrwt beam="1">  1        2 0.41432986E+00 0.20376868E+04</pdfrwt>
<pdfrwt beam="2">  1       -2 0.59298258E-01 0.20376868E+04</pdfrwt>
<totfact> 0.65988407E+00</totfact>
</mgrwt>
</event>
<event>
12    1  0.2433511E-007  0.1792093E+04  0.7818608E-02  0.8710515E-01
          2   -1    0    0  501    0  0.00000000000E+00  0.00000000000E+00  0.12079998907E+04  0.12079998907E+04  0.00000000000E+00 0. -1.
         -2   -1    0    0    0  501 -0.00000000000E+00 -0.00000000000E+00 -0.66465206570E+03  0.66465206570E+03  0.00000000000E+00 0.  1.
         23    2    1    2    0    0 -0.25485668114E+03 -0.52261057614E+03  0.54399610200E+03  0.80142120728E+03  0.90942016010E+02 0.  0.
        254    2    1    2    0    0  0.25485668114E+03  0.52261057614E+03 -0.64827699060E+00  0.10712307491E+04  0.89970059208E+03 0.  0.
        -24    2    4    4    0    0  0.57026363984E+03  0.37600405137E+03 -0.11401415829E+03  0.69703157547E+03  0.79209363935E+02 0.  0.
         24    2    4    4    0    0 -0.31540695870E+03  0.14660652476E+03  0.11336588130E+03  0.37419917366E+03  0.78728494361E+02 0.  0.
         11    1    3    3    0    0 -0.19823013371E+03 -0.30611309065E+03  0.34150667649E+03  0.49962708119E+03  0.00000000000E+00 0. -1.
        -11    1    3    3    0    0 -0.56626547437E+02 -0.21649748549E+03  0.20248942551E+03  0.30179412609E+03  0.00000000000E+00 0.  1.
          4    1    6    6  502    0 -0.36909347111E+02  0.45435838366E+02  0.51992269675E+01  0.58768590874E+02  0.00000000000E+00 0. -1.
          1    1    5    5  503    0  0.48844571339E+03  0.28756246275E+03 -0.10248178295E+03  0.57599817773E+03  0.00000000000E+00 0. -1.
         -2    1    5    5    0  503  0.81817926455E+02  0.88441588625E+02 -0.11532375336E+02  0.12103339774E+03  0.00000000000E+00 0.  1.
         -3    1    6    6    0  502 -0.27849761159E+03  0.10117068640E+03  0.10816665433E+03  0.31543058278E+03  0.00000000000E+00 0.  1.
<mgrwt>
<rscale>  0 0.17920933E+04</rscale>
<asrwt>0</asrwt>
<pdfrwt beam="1">  1        2 0.18584614E+00 0.17920933E+04</pdfrwt>
<pdfrwt beam="2">  1       -2 0.10225416E+00 0.17920933E+04</pdfrwt>
<totfact> 0.13863793E+01</totfact>
</mgrwt>
</event>
<event>
12    1  0.2433511E-007  0.1594067E+04  0.7818608E-02  0.8824201E-01
         -2   -1    0    0    0  501 -0.00000000000E+00  0.00000000000E+00  0.13110458608E+04  0.13110458608E+04  0.00000000000E+00 0.  1.
          2   -1    0    0  501    0  0.00000000000E+00 -0.00000000000E+00 -0.48454611229E+03  0.48454611229E+03  0.00000000000E+00 0. -1.
         23    2    1    2    0    0 -0.40549827319E+03 -0.30763385970E+03  0.48278178737E+03  0.70677134880E+03  0.85907182908E+02 0.  0.
        254    2    1    2    0    0  0.40549827319E+03  0.30763385970E+03  0.34371796116E+03  0.10888206243E+04  0.89906666824E+03 0.  0.
        -24    2    4    4    0    0  0.87280046684E+02 -0.63521630961E+02  0.54001088484E+03  0.55630848663E+03  0.78832559241E+02 0.  0.
         24    2    4    4    0    0  0.31821822650E+03  0.37115549066E+03 -0.19629292368E+03  0.53251213770E+03  0.77582388374E+02 0.  0.
         11    1    3    3    0    0 -0.27962139666E+03 -0.21190969026E+03  0.38481276693E+03  0.52074437865E+03  0.00000000000E+00 0.  1.
        -11    1    3    3    0    0 -0.12587687653E+03 -0.95724169439E+02  0.97969020438E+02  0.18602697015E+03  0.00000000000E+00 0. -1.
          2    1    6    6  502    0  0.15842800363E+03  0.15542999049E+03 -0.52905708695E+02  0.22815987441E+03  0.00000000000E+00 0. -1.
          3    1    5    5  503    0  0.11621900599E+02 -0.38427772206E+02  0.80727255662E+02  0.90159037578E+02  0.00000000000E+00 0. -1.
         -4    1    5    5    0  503  0.75658146085E+02 -0.25093858755E+02  0.45928362918E+03  0.46614944905E+03  0.00000000000E+00 0.  1.
         -1    1    6    6    0  502  0.15979022287E+03  0.21572550017E+03 -0.14338721498E+03  0.30435226329E+03  0.00000000000E+00 0.  1.
<mgrwt>
<rscale>  0 0.15940667E+04</rscale>
<asrwt>0</asrwt>
<pdfrwt beam="1">  1        2 0.74545556E-01 0.15940667E+04</pdfrwt>
<pdfrwt beam="2">  1       -2 0.20169936E+00 0.15940667E+04</pdfrwt>
<totfact> 0.79349716E+00</totfact>
</mgrwt>
</event>
<event>
12    1  0.2433511E-007  0.1852317E+04  0.7818608E-02  0.8678962E-01
          1   -1    0    0  501    0  0.00000000000E+00  0.00000000000E+00  0.68553889199E+03  0.68553889199E+03  0.00000000000E+00 0. -1.
         -1   -1    0    0    0  501 -0.00000000000E+00 -0.00000000000E+00 -0.12512342992E+04  0.12512342992E+04  0.00000000000E+00 0.  1.
         23    2    1    2    0    0 -0.29331018828E+03  0.23015666952E+03  0.40634201403E+03  0.55940793201E+03  0.93917213316E+02 0.  0.
        254    2    1    2    0    0  0.29331018828E+03 -0.23015666952E+03 -0.97203742119E+03  0.13773652591E+04  0.90181780300E+03 0.  0.
        -24    2    4    4    0    0  0.54102714812E+03 -0.30696104584E+03 -0.39881080792E+03  0.74332594348E+03  0.80919336816E+02 0.  0.
         24    2    4    4    0    0 -0.24771695984E+03  0.76804376312E+02 -0.57322661327E+03  0.63403931566E+03  0.78450616454E+02 0.  0.
         13    1    3    3    0    0 -0.15860907040E+03  0.15099250322E+03  0.29569488892E+03  0.36795521545E+03  0.00000000000E+00 0. -1.
        -13    1    3    3    0    0 -0.13470111788E+03  0.79164166303E+02  0.11064712511E+03  0.19145271657E+03  0.00000000000E+00 0.  1.
          4    1    6    6  502    0 -0.13518177161E+02 -0.95773960800E+01 -0.74630150863E+02  0.76446890370E+02  0.00000000000E+00 0. -1.
          3    1    5    5  503    0  0.25039950819E+02 -0.36951421642E+02 -0.34283477103E+02  0.56282888169E+02  0.00000000000E+00 0. -1.
         -4    1    5    5    0  503  0.51598719730E+03 -0.27000962419E+03 -0.36452733081E+03  0.68704305531E+03  0.00000000000E+00 0.  1.
         -3    1    6    6    0  502 -0.23419878268E+03  0.86381772392E+02 -0.49859646241E+03  0.55759242529E+03  0.00000000000E+00 0.  1.
<mgrwt>
<rscale>  0 0.18523172E+04</rscale>
<asrwt>0</asrwt>
<pdfrwt beam="1">  1        1 0.10546752E+00 0.18523172E+04</pdfrwt>
<pdfrwt beam="2">  1       -1 0.19249758E+00 0.18523172E+04</pdfrwt>
<totfact> 0.44827823E+00</totfact>
</mgrwt>
</event>
<event>
12    1  0.2969386E-007  0.2298687E+04  0.7818608E-02  0.8478439E-01
          1   -1    0    0  501    0  0.00000000000E+00  0.00000000000E+00  0.14900984571E+04  0.14900984571E+04  0.00000000000E+00 0. -1.
         -1   -1    0    0    0  501 -0.00000000000E+00 -0.00000000000E+00 -0.88651203487E+03  0.88651203487E+03  0.00000000000E+00 0.  1.
         23    2    1    2    0    0  0.42890500541E+03 -0.57157732109E+03  0.93517591360E+03  0.11804770244E+04  0.91169501748E+02 0.  0.
        254    2    1    2    0    0 -0.42890500541E+03  0.57157732109E+03 -0.33158949142E+03  0.11961334676E+04  0.90006863279E+03 0.  0.
        -24    2    4    4    0    0 -0.52809175269E+03  0.14349075632E+01 -0.21012893905E+02  0.53447875774E+03  0.79643220304E+02 0.  0.
         24    2    4    4    0    0  0.99186747285E+02  0.57014241353E+03 -0.31057659751E+03  0.66165470982E+03  0.80179483407E+02 0.  0.
         13    1    3    3    0    0  0.27706976251E+03 -0.29602052792E+03  0.54397236506E+03  0.67845540767E+03  0.00000000000E+00 0. -1.
        -13    1    3    3    0    0  0.15183524289E+03 -0.27555679317E+03  0.39120354855E+03  0.50202161671E+03  0.00000000000E+00 0.  1.
          4    1    6    6  502    0 -0.11884249543E+02  0.61493163862E+02 -0.45570225802E+02  0.77455084202E+02  0.00000000000E+00 0. -1.
          3    1    5    5  503    0 -0.41409266723E+02 -0.14417769955E+02 -0.18346188458E+02  0.47530854105E+02  0.00000000000E+00 0. -1.
         -4    1    5    5    0  503 -0.48668248597E+03  0.15852677518E+02 -0.26667054472E+01  0.48694790363E+03  0.00000000000E+00 0.  1.
         -3    1    6    6    0  502  0.11107099683E+03  0.50864924967E+03 -0.26500637171E+03  0.58419962562E+03  0.00000000000E+00 0.  1.
<mgrwt>
<rscale>  0 0.22986868E+04</rscale>
<asrwt>0</asrwt>
<pdfrwt beam="1">  1        1 0.22924592E+00 0.22986868E+04</pdfrwt>
<pdfrwt beam="2">  1       -1 0.13638647E+00 0.22986868E+04</pdfrwt>
<totfact> 0.26957743E+00</totfact>
</mgrwt>
</event>
<event>
12    1  0.2433511E-007  0.2505867E+04  0.7818608E-02  0.8400898E-01
          1   -1    0    0  501    0  0.00000000000E+00  0.00000000000E+00  0.14844236713E+04  0.14844236713E+04  0.00000000000E+00 0. -1.
         -1   -1    0    0    0  501 -0.00000000000E+00 -0.00000000000E+00 -0.10575434254E+04  0.10575434254E+04  0.00000000000E+00 0.  1.
         23    2    1    2    0    0 -0.98160233434E+03  0.46740964540E+03  0.25660133606E+03  0.11206307419E+04  0.89185730907E+02 0.  0.
        254    2    1    2    0    0  0.98160233434E+03 -0.46740964540E+03  0.17027890982E+03  0.14213363549E+04  0.89954833510E+03 0.  0.
        -24    2    4    4    0    0  0.92178477564E+03 -0.38488336740E+03  0.46107756610E+03  0.11031051136E+04  0.80162276361E+02 0.  0.
         24    2    4    4    0    0  0.59817558700E+02 -0.82526277999E+02 -0.29079865628E+03  0.31823124130E+03  0.79489229155E+02 0.  0.
         13    1    3    3    0    0 -0.63278336585E+03  0.29689230451E+03  0.12100214227E+03  0.70936686348E+03  0.00000000000E+00 0. -1.
        -13    1    3    3    0    0 -0.34881896849E+03  0.17051734088E+03  0.13559919379E+03  0.41126387840E+03  0.00000000000E+00 0.  1.
          2    1    6    6  502    0  0.96868627186E+00 -0.68827523414E+02 -0.15494039147E+03  0.16954259418E+03  0.00000000000E+00 0. -1.
          3    1    5    5  503    0  0.85973048823E+02 -0.22033043306E+02  0.20908775285E+02  0.91181121978E+02  0.00000000000E+00 0. -1.
         -4    1    5    5    0  503  0.83581172682E+03 -0.36285032409E+03  0.44016879082E+03  0.10119239916E+04  0.00000000000E+00 0.  1.
         -1    1    6    6    0  502  0.58848872428E+02 -0.13698754585E+02 -0.13585826481E+03  0.14868864711E+03  0.00000000000E+00 0.  1.
<mgrwt>
<rscale>  0 0.25058671E+04</rscale>
<asrwt>0</asrwt>
<pdfrwt beam="1">  1        1 0.22837287E+00 0.25058671E+04</pdfrwt>
<pdfrwt beam="2">  1       -1 0.16269899E+00 0.25058671E+04</pdfrwt>
<totfact> 0.16606422E+00</totfact>
</mgrwt>
</event>
<event>
12    1  0.3168317E-007  0.2394587E+04  0.7818608E-02  0.8441533E-01
          2   -1    0    0  501    0  0.00000000000E+00  0.00000000000E+00  0.20925429644E+04  0.20925429644E+04  0.00000000000E+00 0. -1.
         -2   -1    0    0    0  501 -0.00000000000E+00 -0.00000000000E+00 -0.68505728670E+03  0.68505728670E+03  0.00000000000E+00 0.  1.
         23    2    1    2    0    0  0.10094821542E+04  0.73821853670E+01  0.39653238633E+03  0.10885108426E+04  0.92245351176E+02 0.  0.
        254    2    1    2    0    0 -0.10094821542E+04 -0.73821853670E+01  0.10109532913E+04  0.16890894084E+04  0.90104814304E+03 0.  0.
        -24    2    4    4    0    0  0.50665034448E+02 -0.24433067480E+03  0.22749487942E+03  0.34743796109E+03  0.81821710323E+02 0.  0.
         24    2    4    4    0    0 -0.10601471886E+04  0.23694848944E+03  0.78345841191E+03  0.13416514473E+04  0.78516715926E+02 0.  0.
         13    1    3    3    0    0  0.55629615682E+03  0.14309577381E+02  0.17035368916E+03  0.58197126863E+03  0.00000000000E+00 0.  1.
        -13    1    3    3    0    0  0.45318599737E+03 -0.69273920136E+01  0.22617869716E+03  0.50653957400E+03  0.00000000000E+00 0. -1.
          2    1    6    6  502    0 -0.32937683212E+02  0.16344517548E+02  0.13821552815E+02  0.39281923979E+02  0.00000000000E+00 0. -1.
          1    1    5    5  503    0 -0.25689179734E+01  0.25609382714E+01  0.20692298878E+02  0.21007831331E+02  0.00000000000E+00 0. -1.
         -2    1    5    5    0  503  0.53233952422E+02 -0.24689161308E+03  0.20680258054E+03  0.32643012976E+03  0.00000000000E+00 0.  1.
         -1    1    6    6    0  502 -0.10272095054E+04  0.22060397189E+03  0.76963685909E+03  0.13023695233E+04  0.00000000000E+00 0.  1.
<mgrwt>
<rscale>  0 0.23945871E+04</rscale>
<asrwt>0</asrwt>
<pdfrwt beam="1">  1        2 0.32192968E+00 0.23945871E+04</pdfrwt>
<pdfrwt beam="2">  1       -2 0.10539343E+00 0.23945871E+04</pdfrwt>
<totfact> 0.38877706E+00</totfact>
</mgrwt>
</event>
<event>
12    1  0.2433511E-007  0.1711385E+04  0.7818608E-02  0.8754897E-01
         -3   -1    0    0    0  501 -0.00000000000E+00  0.00000000000E+00  0.50338830149E+03  0.50338830149E+03  0.00000000000E+00 0.  1.
          3   -1    0    0  501    0  0.00000000000E+00 -0.00000000000E+00 -0.14545626893E+04  0.14545626893E+04  0.00000000000E+00 0. -1.
         23    2    1    2    0    0 -0.23920683537E+03  0.34984235408E+03 -0.85457012097E+03  0.95837802968E+03  0.92675635009E+02 0.  0.
        254    2    1    2    0    0  0.23920683537E+03 -0.34984235408E+03 -0.96604266847E+02  0.99957296113E+03  0.90011340255E+03 0.  0.
        -24    2    4    4    0    0  0.19188010718E+03  0.28584414205E+03 -0.45551125519E+02  0.35526787155E+03  0.74936682927E+02 0.  0.
         24    2    4    4    0    0  0.47326728193E+02 -0.63568649612E+03 -0.51053141328E+02  0.64430508957E+03  0.78647852202E+02 0.  0.
         11    1    3    3    0    0 -0.16357697619E+03  0.29448916935E+03 -0.71329889670E+03  0.78884511410E+03  0.00000000000E+00 0. -1.
        -11    1    3    3    0    0 -0.75629859177E+02  0.55353184726E+02 -0.14127122427E+03  0.16953291558E+03  0.00000000000E+00 0.  1.
          4    1    6    6  502    0 -0.13772155137E+02 -0.11696505826E+03  0.11183220719E+02  0.11830283825E+03  0.00000000000E+00 0. -1.
          3    1    5    5  503    0  0.13898248529E+03  0.20293155653E+03 -0.66326176458E+02  0.25474793333E+03  0.00000000000E+00 0. -1.
         -4    1    5    5    0  503  0.52897621889E+02  0.82912585510E+02  0.20775050938E+02  0.10051993822E+03  0.00000000000E+00 0.  1.
         -3    1    6    6    0  502  0.61098883330E+02 -0.51872143786E+03 -0.62236362046E+02  0.52600225133E+03  0.00000000000E+00 0.  1.
<mgrwt>
<rscale>  0 0.17113852E+04</rscale>
<asrwt>0</asrwt>
<pdfrwt beam="1">  1        3 0.22377887E+00 0.17113852E+04</pdfrwt>
<pdfrwt beam="2">  1       -3 0.77444355E-01 0.17113852E+04</pdfrwt>
<totfact> 0.40951204E-01</totfact>
</mgrwt>
</event>
<event>
12    1  0.2433511E-007  0.1952353E+04  0.7818608E-02  0.8629227E-01
          1   -1    0    0  501    0  0.00000000000E+00  0.00000000000E+00  0.90207196899E+03  0.90207196899E+03  0.00000000000E+00 0. -1.
         -1   -1    0    0    0  501 -0.00000000000E+00 -0.00000000000E+00 -0.10563681933E+04  0.10563681933E+04  0.00000000000E+00 0.  1.
         23    2    1    2    0    0  0.58435750097E+03  0.48570920252E+03 -0.15028720247E+03  0.77998413104E+03  0.91661786410E+02 0.  0.
        254    2    1    2    0    0 -0.58435750097E+03 -0.48570920252E+03 -0.40090218349E+01  0.11784560312E+04  0.90075270023E+03 0.  0.
        -24    2    4    4    0    0 -0.24400898904E+02  0.58740443405E+02 -0.31723331517E+03  0.33328617785E+03  0.79980350925E+02 0.  0.
         24    2    4    4    0    0 -0.55995660207E+03 -0.54444964593E+03  0.31322429334E+03  0.84516985339E+03  0.78903802157E+02 0.  0.
         13    1    3    3    0    0  0.31232494884E+02  0.28387138845E+02 -0.31170638519E+02  0.52468153142E+02  0.00000000000E+00 0.  1.
        -13    1    3    3    0    0  0.55312500609E+03  0.45732206368E+03 -0.11911656395E+03  0.72751597790E+03  0.00000000000E+00 0. -1.
          2    1    6    6  502    0 -0.17588940586E+02 -0.17579969157E+01  0.85787043278E+01  0.19648296416E+02  0.00000000000E+00 0. -1.
          1    1    5    5  503    0  0.21883573163E+02  0.31130994894E+02 -0.64654123344E+02  0.75021232214E+02  0.00000000000E+00 0. -1.
         -2    1    5    5    0  503 -0.46284472067E+02  0.27609448511E+02 -0.25257919183E+03  0.25826494564E+03  0.00000000000E+00 0.  1.
         -1    1    6    6    0  502 -0.54236766148E+03 -0.54269164901E+03  0.30464558901E+03  0.82552155698E+03  0.00000000000E+00 0.  1.
<mgrwt>
<rscale>  0 0.19523526E+04</rscale>
<asrwt>0</asrwt>
<pdfrwt beam="1">  1        1 0.13878030E+00 0.19523526E+04</pdfrwt>
<pdfrwt beam="2">  1       -1 0.16251818E+00 0.19523526E+04</pdfrwt>
<totfact> 0.47225647E+00</totfact>
</mgrwt>
</event>
<event>
12    1  0.2433511E-007  0.2021495E+04  0.7818608E-02  0.8596637E-01
          1   -1    0    0  501    0  0.00000000000E+00  0.00000000000E+00  0.43572849874E+03  0.43572849874E+03  0.00000000000E+00 0. -1.
         -1   -1    0    0    0  501 -0.00000000000E+00 -0.00000000000E+00 -0.23446031624E+04  0.23446031624E+04  0.00000000000E+00 0.  1.
         23    2    1    2    0    0 -0.10323351747E+03  0.56447340949E+03 -0.15501887394E+04  0.16555008050E+04  0.91161386896E+02 0.  0.
        254    2    1    2    0    0  0.10323351747E+03 -0.56447340949E+03 -0.35868592425E+03  0.11248308561E+04  0.89849956789E+03 0.  0.
        -24    2    4    4    0    0  0.15581230947E+03  0.16896823228E+03  0.90773202698E+02  0.25933462133E+03  0.78657054297E+02 0.  0.
         24    2    4    4    0    0 -0.52578791993E+02 -0.73344164177E+03 -0.44945912694E+03  0.86549623480E+03  0.79806355607E+02 0.  0.
         11    1    3    3    0    0 -0.73342257265E+01  0.22433492273E+03 -0.68832260537E+03  0.72399444576E+03  0.00000000000E+00 0. -1.
        -11    1    3    3    0    0 -0.95899291747E+02  0.34013848676E+03 -0.86186613402E+03  0.93150635924E+03  0.00000000000E+00 0.  1.
          2    1    6    6  502    0 -0.31051509660E+02 -0.69180761133E+03 -0.42650439765E+03  0.81330681084E+03  0.00000000000E+00 0. -1.
          3    1    5    5  503    0  0.64440147488E+02  0.60843681602E+02  0.76462277762E+02  0.11705112609E+03  0.00000000000E+00 0. -1.
         -4    1    5    5    0  503  0.91372161978E+02  0.10812455068E+03  0.14310924937E+02  0.14228349524E+03  0.00000000000E+00 0.  1.
         -1    1    6    6    0  502 -0.21527282333E+02 -0.41634030447E+02 -0.22954729295E+02  0.52189423957E+02  0.00000000000E+00 0.  1.
<mgrwt>
<rscale>  0 0.20214949E+04</rscale>
<asrwt>0</asrwt>
<pdfrwt beam="1">  1        1 0.67035155E-01 0.20214949E+04</pdfrwt>
<pdfrwt beam="2">  1       -1 0.36070817E+00 0.20214949E+04</pdfrwt>
<totfact> 0.65412771E-01</totfact>
</mgrwt>
</event>
<event>
12    1  0.2433511E-007  0.2071891E+04  0.7818608E-02  0.8573728E-01
          2   -1    0    0  501    0  0.00000000000E+00  0.00000000000E+00  0.79852252282E+03  0.79852252282E+03  0.00000000000E+00 0. -1.
         -2   -1    0    0    0  501 -0.00000000000E+00 -0.00000000000E+00 -0.13439613942E+04  0.13439613942E+04  0.00000000000E+00 0.  1.
         23    2    1    2    0    0 -0.58664514845E+03 -0.62815267584E+02  0.39232284674E+03  0.71493422082E+03  0.95474792377E+02 0.  0.
        254    2    1    2    0    0  0.58664514845E+03  0.62815267584E+02 -0.93776171814E+03  0.14275496962E+04  0.90022375393E+03 0.  0.
        -24    2    4    4    0    0  0.71739733831E+02  0.42008857293E+03 -0.47895396994E+03  0.64668094713E+03  0.84725105715E+02 0.  0.
         24    2    4    4    0    0  0.51490541462E+03 -0.35727330534E+03 -0.45880774820E+03  0.78086874910E+03  0.80496290579E+02 0.  0.
         11    1    3    3    0    0 -0.98415734749E+02 -0.23615274701E+02  0.29600694667E+02  0.10544922556E+03  0.00000000000E+00 0.  1.
        -11    1    3    3    0    0 -0.48822941370E+03 -0.39199992883E+02  0.36272215207E+03  0.60948499526E+03  0.00000000000E+00 0. -1.
          2    1    6    6  502    0  0.81118197122E+02 -0.53058261473E+02 -0.10958720864E+03  0.14630344258E+03  0.00000000000E+00 0. -1.
          3    1    5    5  503    0  0.20934908470E+02  0.18515514453E+02 -0.18056284665E+02  0.33273474180E+02  0.00000000000E+00 0. -1.
         -4    1    5    5    0  503  0.50804825361E+02  0.40157305847E+03 -0.46089768528E+03  0.61340747295E+03  0.00000000000E+00 0.  1.
         -1    1    6    6    0  502  0.43378721750E+03 -0.30421504387E+03 -0.34922053956E+03  0.63456530652E+03  0.00000000000E+00 0.  1.
<mgrwt>
<rscale>  0 0.20718914E+04</rscale>
<asrwt>0</asrwt>
<pdfrwt beam="1">  1        2 0.12284962E+00 0.20718914E+04</pdfrwt>
<pdfrwt beam="2">  1       -2 0.20676329E+00 0.20718914E+04</pdfrwt>
<totfact> 0.38304241E+00</totfact>
</mgrwt>
</event>
<event>
12    1  0.2433511E-007  0.2164286E+04  0.7818608E-02  0.8533442E-01
          2   -1    0    0  501    0  0.00000000000E+00  0.00000000000E+00  0.33678942669E+04  0.33678942669E+04  0.00000000000E+00 0. -1.
         -2   -1    0    0    0  501 -0.00000000000E+00 -0.00000000000E+00 -0.34770506380E+03  0.34770506380E+03  0.00000000000E+00 0.  1.
         23    2    1    2    0    0 -0.80257927791E+03  0.32177062374E+03  0.87424058695E+03  0.12330280374E+04  0.91606252048E+02 0.  0.
        254    2    1    2    0    0  0.80257927791E+03 -0.32177062374E+03  0.21459486161E+04  0.24825712933E+04  0.90021937975E+03 0.  0.
        -24    2    4    4    0    0  0.81935280838E+03  0.63768583967E+02  0.16833550921E+04  0.18750236457E+04  0.81387031407E+02 0.  0.
         24    2    4    4    0    0 -0.16773530470E+02 -0.38553920771E+03  0.46259352403E+03  0.60754764763E+03  0.78737180898E+02 0.  0.
         13    1    3    3    0    0 -0.13633370766E+03  0.19700366928E+02  0.14934474318E+03  0.20317193856E+03  0.00000000000E+00 0. -1.
        -13    1    3    3    0    0 -0.66624557025E+03  0.30207025682E+03  0.72489584376E+03  0.10298560988E+04  0.00000000000E+00 0.  1.
          2    1    6    6  502    0  0.17411104226E+02 -0.28575778474E+03  0.36469637426E+03  0.46364221496E+03  0.00000000000E+00 0. -1.
          3    1    5    5  503    0  0.23896022282E+03  0.45569552389E+02  0.44048594846E+03  0.50319622712E+03  0.00000000000E+00 0. -1.
         -4    1    5    5    0  503  0.58039258556E+03  0.18199031578E+02  0.12428691436E+04  0.13718274185E+04  0.00000000000E+00 0.  1.
         -1    1    6    6    0  502 -0.34184634696E+02 -0.99781422973E+02  0.97897149771E+02  0.14390543267E+03  0.00000000000E+00 0.  1.
<mgrwt>
<rscale>  0 0.21642864E+04</rscale>
<asrwt>0</asrwt>
<pdfrwt beam="1">  1        2 0.51813756E+00 0.21642864E+04</pdfrwt>
<pdfrwt beam="2">  1       -2 0.53493089E-01 0.21642864E+04</pdfrwt>
<totfact> 0.30365780E+00</totfact>
</mgrwt>
</event>
<event>
12    1  0.2433511E-007  0.1383345E+04  0.7818608E-02  0.8965964E-01
          2   -1    0    0  501    0  0.00000000000E+00  0.00000000000E+00  0.32396171089E+04  0.32396171089E+04  0.00000000000E+00 0. -1.
         -2   -1    0    0    0  501 -0.00000000000E+00 -0.00000000000E+00 -0.14767501531E+03  0.14767501531E+03  0.00000000000E+00 0.  1.
         23    2    1    2    0    0  0.12821716713E+03 -0.36156812035E+03  0.72644215026E+03  0.82662269489E+03  0.91737312065E+02 0.  0.
        254    2    1    2    0    0 -0.12821716713E+03  0.36156812035E+03  0.23654999433E+04  0.25606694293E+04  0.90236732921E+03 0.  0.
        -24    2    4    4    0    0  0.29824513101E+03  0.43071997404E+03  0.14851359718E+04  0.15768306657E+04  0.79348846161E+02 0.  0.
         24    2    4    4    0    0 -0.42646229813E+03 -0.69151853695E+02  0.88036397151E+03  0.98383876360E+03  0.79031132046E+02 0.  0.
         13    1    3    3    0    0  0.88961234597E+02 -0.23996959232E+03  0.38742752252E+03  0.46432703099E+03  0.00000000000E+00 0.  1.
        -13    1    3    3    0    0  0.39255932529E+02 -0.12159852803E+03  0.33901462774E+03  0.36229566390E+03  0.00000000000E+00 0. -1.
          4    1    6    6  502    0 -0.20420149435E+03 -0.26740659689E+02  0.33284157785E+03  0.39140366519E+03  0.00000000000E+00 0. -1.
          3    1    5    5  503    0  0.39677674841E+00 -0.27801922904E+01  0.28710194333E+01  0.40161739935E+01  0.00000000000E+00 0. -1.
         -4    1    5    5    0  503  0.29784835426E+03  0.43350016633E+03  0.14822649524E+04  0.15728144917E+04  0.00000000000E+00 0.  1.
         -3    1    6    6    0  502 -0.22226080378E+03 -0.42411194006E+02  0.54752239366E+03  0.59243509841E+03  0.00000000000E+00 0.  1.
<mgrwt>
<rscale>  0 0.13833445E+04</rscale>
<asrwt>0</asrwt>
<pdfrwt beam="1">  1        2 0.49840258E+00 0.13833445E+04</pdfrwt>
<pdfrwt beam="2">  1       -2 0.22719235E-01 0.13833445E+04</pdfrwt>
<totfact> 0.20558568E+01</totfact>
</mgrwt>
</event>
<event>
12    1  0.2433511E-007  0.1676413E+04  0.7818608E-02  0.8774932E-01
          2   -1    0    0  501    0  0.00000000000E+00  0.00000000000E+00  0.36775811656E+03  0.36775811656E+03  0.00000000000E+00 0.  1.
         -2   -1    0    0    0  501 -0.00000000000E+00 -0.00000000000E+00 -0.19104684044E+04  0.19104684044E+04  0.00000000000E+00 0. -1.
         23    2    1    2    0    0 -0.37051805636E+03  0.29736789426E+02 -0.11863435074E+04  0.12466332742E+04  0.92280529613E+02 0.  0.
        254    2    1    2    0    0  0.37051805636E+03 -0.29736789426E+02 -0.35636678044E+03  0.10315932467E+04  0.89387887197E+03 0.  0.
        -24    2    4    4    0    0  0.60239272818E+03  0.18384118240E+03 -0.17112495534E+03  0.65749104724E+03  0.79599921738E+02 0.  0.
         24    2    4    4    0    0 -0.23187467182E+03 -0.21357797183E+03 -0.18524182510E+03  0.37410219950E+03  0.79098093650E+02 0.  0.
         13    1    3    3    0    0 -0.30147908267E+03  0.80323908563E+01 -0.10476349519E+04  0.10901803287E+04  0.00000000000E+00 0. -1.
        -13    1    3    3    0    0 -0.69038973695E+02  0.21704398570E+02 -0.13870855553E+03  0.15645294559E+03  0.00000000000E+00 0.  1.
          4    1    6    6  502    0 -0.14010283659E+03 -0.11419754595E+03 -0.14850392850E+03  0.23393012012E+03  0.00000000000E+00 0. -1.
          3    1    5    5  503    0  0.57938066042E+03  0.18561967023E+03 -0.15094895586E+03  0.62683506517E+03  0.00000000000E+00 0. -1.
         -4    1    5    5    0  503  0.23012067763E+02 -0.17784878311E+01 -0.20175999479E+02  0.30655982070E+02  0.00000000000E+00 0.  1.
         -3    1    6    6    0  502 -0.91771835227E+02 -0.99380425875E+02 -0.36737896606E+02  0.14017207937E+03  0.00000000000E+00 0.  1.
<mgrwt>
<rscale>  0 0.16764131E+04</rscale>
<asrwt>0</asrwt>
<pdfrwt beam="1">  1        2 0.56578172E-01 0.16764131E+04</pdfrwt>
<pdfrwt beam="2">  1       -2 0.29391822E+00 0.16764131E+04</pdfrwt>
<totfact> 0.28915415E+00</totfact>
</mgrwt>
</event>
<event>
12    1  0.2433511E-007  0.1455651E+04  0.7818608E-02  0.8914492E-01
         -1   -1    0    0    0  501 -0.00000000000E+00  0.00000000000E+00  0.32391649981E+03  0.32391649981E+03  0.00000000000E+00 0.  1.
          1   -1    0    0  501    0  0.00000000000E+00 -0.00000000000E+00 -0.16353903679E+04  0.16353903679E+04  0.00000000000E+00 0. -1.
         23    2    1    2    0    0  0.33022971246E+03  0.22664944699E+03 -0.66281769351E+03  0.77986433065E+03  0.91866449675E+02 0.  0.
        254    2    1    2    0    0 -0.33022971246E+03 -0.22664944699E+03 -0.64865617462E+03  0.11794425371E+04  0.89994901558E+03 0.  0.
        -24    2    4    4    0    0 -0.46224209904E+03  0.11699782731E+03 -0.64115472348E+03  0.80265799187E+03  0.76316595537E+02 0.  0.
         24    2    4    4    0    0  0.13201238658E+03 -0.34364727431E+03 -0.75014511440E+01  0.37678454523E+03  0.79934988651E+02 0.  0.
         13    1    3    3    0    0  0.18143462224E+03  0.14141274273E+03 -0.45968443972E+03  0.51402905567E+03  0.00000000000E+00 0. -1.
        -13    1    3    3    0    0  0.14879509023E+03  0.85236704261E+02 -0.20313325379E+03  0.26583527498E+03  0.00000000000E+00 0.  1.
          2    1    6    6  502    0  0.10839037616E+03 -0.24845786428E+03  0.27924260295E+02  0.27250605183E+03  0.00000000000E+00 0. -1.
          1    1    5    5  503    0 -0.27434098011E+03  0.68016359959E+02 -0.44088220734E+03  0.52370441982E+03  0.00000000000E+00 0. -1.
         -4    1    5    5    0  503 -0.18790111893E+03  0.48981467355E+02 -0.20027251614E+03  0.27895357205E+03  0.00000000000E+00 0.  1.
         -1    1    6    6    0  502  0.23622010413E+02 -0.95189410021E+02 -0.35425711439E+02  0.10427849341E+03  0.00000000000E+00 0.  1.
<mgrwt>
<rscale>  0 0.14556510E+04</rscale>
<asrwt>0</asrwt>
<pdfrwt beam="1">  1        1 0.25159852E+00 0.14556510E+04</pdfrwt>
<pdfrwt beam="2">  1       -1 0.49833308E-01 0.14556510E+04</pdfrwt>
<totfact> 0.20692813E+01</totfact>
</mgrwt>
</event>
<event>
12    1  0.2433511E-007  0.1874431E+04  0.7818608E-02  0.8667689E-01
         -2   -1    0    0    0  501 -0.00000000000E+00  0.00000000000E+00  0.10526756597E+04  0.10526756597E+04  0.00000000000E+00 0. -1.
          2   -1    0    0  501    0  0.00000000000E+00 -0.00000000000E+00 -0.83441944809E+03  0.83441944809E+03  0.00000000000E+00 0.  1.
         23    2    1    2    0    0  0.26958094663E+03 -0.65850922277E+03 -0.73884553230E+01  0.71674885962E+03  0.85825725940E+02 0.  0.
        254    2    1    2    0    0 -0.26958094663E+03  0.65850922277E+03  0.22564466697E+03  0.11703462482E+04  0.90138035353E+03 0.  0.
        -24    2    4    4    0    0  0.19970758662E+03  0.33950722629E+03  0.40420695896E+03  0.57013886551E+03  0.80788510505E+02 0.  0.
         24    2    4    4    0    0 -0.46928853325E+03  0.31900199648E+03 -0.17856229199E+03  0.60020738271E+03  0.79814841615E+02 0.  0.
         11    1    3    3    0    0  0.88694161458E+02 -0.28277782767E+03  0.31007057029E+02  0.29797884435E+03  0.00000000000E+00 0. -1.
        -11    1    3    3    0    0  0.18088678517E+03 -0.37573139510E+03 -0.38395512352E+02  0.41877001526E+03  0.00000000000E+00 0.  1.
          2    1    6    6  502    0 -0.13461835632E+03  0.13553156726E+03 -0.49800196773E+02  0.19741065620E+03  0.00000000000E+00 0. -1.
          3    1    5    5  503    0  0.13383808201E+03  0.18265310030E+03  0.18338799562E+03  0.29138624570E+03  0.00000000000E+00 0. -1.
         -4    1    5    5    0  503  0.65869504612E+02  0.15685412599E+03  0.22081896334E+03  0.27875261981E+03  0.00000000000E+00 0.  1.
         -3    1    6    6    0  502 -0.33467017692E+03  0.18347042922E+03 -0.12876209522E+03  0.40279672651E+03  0.00000000000E+00 0.  1.
<mgrwt>
<rscale>  0 0.18744312E+04</rscale>
<asrwt>0</asrwt>
<pdfrwt beam="1">  1        2 0.12837222E+00 0.18744312E+04</pdfrwt>
<pdfrwt beam="2">  1       -2 0.16195010E+00 0.18744312E+04</pdfrwt>
<totfact> 0.74409289E+00</totfact>
</mgrwt>
</event>
<event>
12    1  0.2433511E-007  0.1310080E+04  0.7818608E-02  0.9021609E-01
         -2   -1    0    0    0  501 -0.00000000000E+00  0.00000000000E+00  0.81264597546E+03  0.81264597546E+03  0.00000000000E+00 0.  1.
          2   -1    0    0  501    0  0.00000000000E+00 -0.00000000000E+00 -0.52800065706E+03  0.52800065706E+03  0.00000000000E+00 0. -1.
         23    2    1    2    0    0  0.32618074896E+03 -0.12911710653E+02  0.10617468580E+03  0.35466150828E+03  0.89169099404E+02 0.  0.
        254    2    1    2    0    0 -0.32618074896E+03  0.12911710653E+02  0.17847063260E+03  0.98598512423E+03  0.91310147587E+03 0.  0.
        -24    2    4    4    0    0 -0.23399049198E+03  0.40875936556E+03 -0.96956942238E+02  0.48848928653E+03  0.85938147185E+02 0.  0.
         24    2    4    4    0    0 -0.92190256978E+02 -0.39584765491E+03  0.27542757484E+03  0.49749583770E+03  0.80295393199E+02 0.  0.
         13    1    3    3    0    0  0.12699473033E+03  0.23249827259E+02  0.76467195700E+02  0.15005148456E+03  0.00000000000E+00 0. -1.
        -13    1    3    3    0    0  0.19918601863E+03 -0.36161537912E+02  0.29707490104E+02  0.20461002373E+03  0.00000000000E+00 0.  1.
          2    1    6    6  502    0 -0.77831997644E+02 -0.21522838975E+03  0.11814605252E+03  0.25756468962E+03  0.00000000000E+00 0. -1.
          3    1    5    5  503    0 -0.22760281488E+03  0.40599026572E+03 -0.10572502260E+03  0.47729332449E+03  0.00000000000E+00 0. -1.
         -4    1    5    5    0  503 -0.63876771080E+01  0.27690998329E+01  0.87680803653E+01  0.11195962041E+02  0.00000000000E+00 0.  1.
         -1    1    6    6    0  502 -0.14358259334E+02 -0.18061926515E+03  0.15728152231E+03  0.23993114808E+03  0.00000000000E+00 0.  1.
<mgrwt>
<rscale>  0 0.13100803E+04</rscale>
<asrwt>0</asrwt>
<pdfrwt beam="1">  1        2 0.81230870E-01 0.13100803E+04</pdfrwt>
<pdfrwt beam="2">  1       -2 0.12502246E+00 0.13100803E+04</pdfrwt>
<totfact> 0.27110566E+01</totfact>
</mgrwt>
</event>
<event>
12    1  0.2433511E-007  0.2366488E+04  0.7818608E-02  0.8452158E-01
         -2   -1    0    0    0  501 -0.00000000000E+00  0.00000000000E+00  0.10461450533E+04  0.10461450533E+04  0.00000000000E+00 0.  1.
          2   -1    0    0  501    0  0.00000000000E+00 -0.00000000000E+00 -0.13383099470E+04  0.13383099470E+04  0.00000000000E+00 0. -1.
         23    2    1    2    0    0 -0.12725806789E+03  0.90355835221E+03  0.31066780103E+03  0.96830714266E+03  0.92151658852E+02 0.  0.
        254    2    1    2    0    0  0.12725806789E+03 -0.90355835221E+03 -0.60283269473E+03  0.14161478576E+04  0.89969727419E+03 0.  0.
        -24    2    4    4    0    0  0.17340877445E+03 -0.64761453080E+03  0.81325795613E+02  0.67995396356E+03  0.79046340678E+02 0.  0.
         24    2    4    4    0    0 -0.46150706558E+02 -0.25594382141E+03 -0.68415849034E+03  0.73619389408E+03  0.79192691211E+02 0.  0.
         13    1    3    3    0    0 -0.11288160995E+03  0.48372487223E+03  0.15563563106E+03  0.52053286115E+03  0.00000000000E+00 0. -1.
        -13    1    3    3    0    0 -0.14376457945E+02  0.41983347998E+03  0.15503216998E+03  0.44777428151E+03  0.00000000000E+00 0.  1.
          4    1    6    6  502    0 -0.55811361639E+02 -0.16871238164E+03 -0.52747335339E+03  0.55660301324E+03  0.00000000000E+00 0. -1.
          1    1    5    5  503    0  0.16735629504E+03 -0.53751002332E+03  0.49241874585E+02  0.56511053509E+03  0.00000000000E+00 0. -1.
         -2    1    5    5    0  503  0.60524794046E+01 -0.11010450748E+03  0.32083921028E+02  0.11484342847E+03  0.00000000000E+00 0.  1.
         -3    1    6    6    0  502  0.96606550815E+01 -0.87231439771E+02 -0.15668513695E+03  0.17959088084E+03  0.00000000000E+00 0.  1.
<mgrwt>
<rscale>  0 0.23664880E+04</rscale>
<asrwt>0</asrwt>
<pdfrwt beam="1">  1        2 0.20589384E+00 0.23664880E+04</pdfrwt>
<pdfrwt beam="2">  1       -2 0.16094539E+00 0.23664880E+04</pdfrwt>
<totfact> 0.35105665E+00</totfact>
</mgrwt>
</event>
<event>
12    1  0.3090030E-007  0.2356653E+04  0.7818608E-02  0.8455913E-01
         -2   -1    0    0    0  501 -0.00000000000E+00  0.00000000000E+00  0.71610514740E+03  0.71610514740E+03  0.00000000000E+00 0.  1.
          2   -1    0    0  501    0  0.00000000000E+00 -0.00000000000E+00 -0.19388954600E+04  0.19388954600E+04  0.00000000000E+00 0. -1.
         23    2    1    2    0    0  0.93683373642E+03  0.35235215611E+03 -0.41445788559E+03  0.10855374961E+04  0.69331270026E+02 0.  0.
        254    2    1    2    0    0 -0.93683373642E+03 -0.35235215611E+03 -0.80833242700E+03  0.15694631112E+04  0.89889023433E+03 0.  0.
        -24    2    4    4    0    0 -0.72935369033E+03 -0.39386992365E+02 -0.91384885904E+03  0.11726684293E+04  0.80767365004E+02 0.  0.
         24    2    4    4    0    0 -0.20748004609E+03 -0.31296516375E+03  0.10551643204E+03  0.39679468189E+03  0.72918714311E+02 0.  0.
         11    1    3    3    0    0  0.24847039586E+03  0.70501031483E+02 -0.13021666526E+03  0.28924784004E+03  0.00000000000E+00 0. -1.
        -11    1    3    3    0    0  0.68836334056E+03  0.28185112463E+03 -0.28424122033E+03  0.79628965610E+03  0.00000000000E+00 0.  1.
          2    1    6    6  502    0 -0.91843960758E+02 -0.15366896524E+03  0.87114250379E+02  0.19909383874E+03  0.00000000000E+00 0. -1.
          3    1    5    5  503    0 -0.51764967225E+03 -0.61243719033E+02 -0.67299561397E+03  0.85125499865E+03  0.00000000000E+00 0. -1.
         -4    1    5    5    0  503 -0.21170401808E+03  0.21856726669E+02 -0.24085324508E+03  0.32141343070E+03  0.00000000000E+00 0.  1.
         -1    1    6    6    0  502 -0.11563608534E+03 -0.15929619851E+03  0.18402181661E+02  0.19770084314E+03  0.00000000000E+00 0.  1.
<mgrwt>
<rscale>  0 0.23566527E+04</rscale>
<asrwt>0</asrwt>
<pdfrwt beam="1">  1        2 0.29829160E+00 0.23566527E+04</pdfrwt>
<pdfrwt beam="2">  1       -2 0.11017003E+00 0.23566527E+04</pdfrwt>
<totfact> 0.42677096E+00</totfact>
</mgrwt>
</event>
<event>
12    1  0.2433511E-007  0.4799312E+04  0.7818608E-02  0.7860234E-01
         -2   -1    0    0    0  501 -0.00000000000E+00  0.00000000000E+00  0.12217546436E+04  0.12217546436E+04  0.00000000000E+00 0.  1.
          2   -1    0    0  501    0  0.00000000000E+00 -0.00000000000E+00 -0.47131800010E+04  0.47131800010E+04  0.00000000000E+00 0. -1.
         23    2    1    2    0    0 -0.22357097616E+04 -0.26236801638E+03 -0.23395389884E+04  0.32479567437E+04  0.92440342720E+02 0.  0.
        254    2    1    2    0    0  0.22357097616E+04  0.26236801638E+03 -0.11518863691E+04  0.26869779008E+04  0.90872048418E+03 0.  0.
        -24    2    4    4    0    0  0.86106557291E+03 -0.33136688945E+03 -0.49253299959E+03  0.10488870268E+04  0.79607179425E+02 0.  0.
         24    2    4    4    0    0  0.13746441887E+04  0.59373490582E+03 -0.65935336948E+03  0.16380908740E+04  0.80168959023E+02 0.  0.
         11    1    3    3    0    0 -0.61592963513E+03 -0.10602557053E+03 -0.68451070234E+03  0.92691188290E+03  0.00000000000E+00 0. -1.
        -11    1    3    3    0    0 -0.16197801264E+04 -0.15634244584E+03 -0.16550282860E+04  0.23210448608E+04  0.00000000000E+00 0.  1.
          4    1    6    6  502    0  0.86218664409E+03  0.40820234281E+03 -0.44156852652E+03  0.10511792071E+04  0.00000000000E+00 0. -1.
          3    1    5    5  503    0  0.30431875168E+03 -0.80474702485E+02 -0.14963647429E+03  0.34853572960E+03  0.00000000000E+00 0. -1.
         -2    1    5    5    0  503  0.55674682123E+03 -0.25089218696E+03 -0.34289652530E+03  0.70035129720E+03  0.00000000000E+00 0.  1.
         -3    1    6    6    0  502  0.51245754456E+03  0.18553256301E+03 -0.21778484296E+03  0.58691166690E+03  0.00000000000E+00 0.  1.
<mgrwt>
<rscale>  0 0.47993123E+04</rscale>
<asrwt>0</asrwt>
<pdfrwt beam="1">  1        2 0.72510463E+00 0.47993123E+04</pdfrwt>
<pdfrwt beam="2">  1       -2 0.18796225E+00 0.47993123E+04</pdfrwt>
<totfact> 0.86828774E-03</totfact>
</mgrwt>
</event>
<event>
12    1  0.2433511E-007  0.3643976E+04  0.7818608E-02  0.8080492E-01
         -1   -1    0    0    0  501 -0.00000000000E+00  0.00000000000E+00  0.24170810025E+04  0.24170810025E+04  0.00000000000E+00 0.  1.
          1   -1    0    0  501    0  0.00000000000E+00 -0.00000000000E+00 -0.13734089660E+04  0.13734089660E+04  0.00000000000E+00 0. -1.
         23    2    1    2    0    0 -0.15509247377E+04  0.71571844797E+03  0.55759132383E+03  0.17993774677E+04  0.96076782014E+02 0.  0.
        254    2    1    2    0    0  0.15509247377E+04 -0.71571844797E+03  0.48608071264E+03  0.19911125008E+04  0.90035220481E+03 0.  0.
        -24    2    4    4    0    0  0.50434120260E+03  0.44887789095E+02 -0.16770509723E+03  0.53934415434E+03  0.79950953314E+02 0.  0.
         24    2    4    4    0    0  0.10465835351E+04 -0.76060623706E+03  0.65378580987E+03  0.14517683465E+04  0.79602152411E+02 0.  0.
         11    1    3    3    0    0 -0.12336563031E+04  0.55574450477E+03  0.48010074058E+03  0.14357076826E+04  0.00000000000E+00 0.  1.
        -11    1    3    3    0    0 -0.31726843468E+03  0.15997394320E+03  0.77490583249E+02  0.36366978516E+03  0.00000000000E+00 0. -1.
          4    1    6    6  502    0  0.40315029549E+03 -0.26252489600E+03  0.21002952578E+03  0.52493988558E+03  0.00000000000E+00 0. -1.
          3    1    5    5  503    0  0.16944985865E+03  0.38072543950E+02 -0.25865166322E+02  0.17558980616E+03  0.00000000000E+00 0. -1.
         -4    1    5    5    0  503  0.33489134395E+03  0.68152451445E+01 -0.14183993091E+03  0.36375434818E+03  0.00000000000E+00 0.  1.
         -3    1    6    6    0  502  0.64343323966E+03 -0.49808134106E+03  0.44375628409E+03  0.92682846087E+03  0.00000000000E+00 0.  1.
<mgrwt>
<rscale>  0 0.36439762E+04</rscale>
<asrwt>0</asrwt>
<pdfrwt beam="1">  1        1 0.21129369E+00 0.36439762E+04</pdfrwt>
<pdfrwt beam="2">  1       -1 0.37185862E+00 0.36439762E+04</pdfrwt>
<totfact> 0.71742536E-02</totfact>
</mgrwt>
</event>
<event>
12    1  0.2433511E-007  0.1541050E+04  0.7818608E-02  0.8857605E-01
         -1   -1    0    0    0  501 -0.00000000000E+00  0.00000000000E+00  0.48962798418E+03  0.48962798418E+03  0.00000000000E+00 0.  1.
          1   -1    0    0  501    0  0.00000000000E+00 -0.00000000000E+00 -0.12125708461E+04  0.12125708461E+04  0.00000000000E+00 0. -1.
         23    2    1    2    0    0  0.43306964934E+03 -0.22250653104E+03 -0.38585975137E+03  0.62817038082E+03  0.93015063677E+02 0.  0.
        254    2    1    2    0    0 -0.43306964934E+03  0.22250653104E+03 -0.33708311057E+03  0.10740284495E+04  0.89602098711E+03 0.  0.
        -24    2    4    4    0    0  0.15241411390E+03 -0.30487901308E+01  0.18582223174E+03  0.25335247521E+03  0.80113779415E+02 0.  0.
         24    2    4    4    0    0 -0.58548376324E+03  0.22555532117E+03 -0.52290534231E+03  0.82067597427E+03  0.80078822405E+02 0.  0.
         13    1    3    3    0    0  0.27333415126E+03 -0.11510620027E+03 -0.28294285855E+03  0.40989956915E+03  0.00000000000E+00 0. -1.
        -13    1    3    3    0    0  0.15973549809E+03 -0.10740033077E+03 -0.10291689282E+03  0.21827081167E+03  0.00000000000E+00 0.  1.
          2    1    6    6  502    0 -0.44971361654E+03  0.14137497351E+03 -0.36662835955E+03  0.59719810286E+03  0.00000000000E+00 0. -1.
          1    1    5    5  503    0  0.15940351025E+03  0.17356812337E+01  0.15870791741E+03  0.22494598178E+03  0.00000000000E+00 0. -1.
         -2    1    5    5    0  503 -0.69893963556E+01 -0.47844713645E+01  0.27114314330E+02  0.28406493435E+02  0.00000000000E+00 0.  1.
         -1    1    6    6    0  502 -0.13577014671E+03  0.84180347662E+02 -0.15627698277E+03  0.22347787141E+03  0.00000000000E+00 0.  1.
<mgrwt>
<rscale>  0 0.15410498E+04</rscale>
<asrwt>0</asrwt>
<pdfrwt beam="1">  1        1 0.18654936E+00 0.15410498E+04</pdfrwt>
<pdfrwt beam="2">  1       -1 0.75327383E-01 0.15410498E+04</pdfrwt>
<totfact> 0.17871501E+01</totfact>
</mgrwt>
</event>
<event>
12    1  0.2433511E-007  0.1654890E+04  0.7818608E-02  0.8787519E-01
         -1   -1    0    0    0  501 -0.00000000000E+00  0.00000000000E+00  0.12105927613E+04  0.12105927613E+04  0.00000000000E+00 0.  1.
          1   -1    0    0  501    0  0.00000000000E+00 -0.00000000000E+00 -0.56556193611E+03  0.56556193611E+03  0.00000000000E+00 0. -1.
         23    2    1    2    0    0  0.12872683215E+03 -0.46412091378E+03  0.57584549683E+03  0.75624007701E+03  0.91226081459E+02 0.  0.
        254    2    1    2    0    0 -0.12872683215E+03  0.46412091378E+03  0.69185328321E+02  0.10199146203E+04  0.89635952788E+03 0.  0.
        -24    2    4    4    0    0  0.32683556057E+02  0.30995652060E+02  0.42261897011E+03  0.43264541874E+03  0.80909326841E+02 0.  0.
         24    2    4    4    0    0 -0.16141038820E+03  0.43312526172E+03 -0.35343364179E+03  0.58726920161E+03  0.79491950862E+02 0.  0.
         11    1    3    3    0    0  0.13382578113E+03 -0.44010151157E+03  0.51443737150E+03  0.69010469450E+03  0.00000000000E+00 0. -1.
        -11    1    3    3    0    0 -0.50989489796E+01 -0.24019402215E+02  0.61408125331E+02  0.66135382513E+02  0.00000000000E+00 0.  1.
          2    1    6    6  502    0 -0.40852257028E+02  0.15518586886E+03 -0.16668089940E+03  0.23137433527E+03  0.00000000000E+00 0. -1.
          1    1    5    5  503    0  0.11206395845E+02  0.22143686469E+02  0.39808813742E+03  0.39886099247E+03  0.00000000000E+00 0. -1.
         -2    1    5    5    0  503  0.21477160212E+02  0.88519655909E+01  0.24530832694E+02  0.33784426268E+02  0.00000000000E+00 0.  1.
         -1    1    6    6    0  502 -0.12055813118E+03  0.27793939286E+03 -0.18675274239E+03  0.35589486634E+03  0.00000000000E+00 0.  1.
<mgrwt>
<rscale>  0 0.16548899E+04</rscale>
<asrwt>0</asrwt>
<pdfrwt beam="1">  1        1 0.87009529E-01 0.16548899E+04</pdfrwt>
<pdfrwt beam="2">  1       -1 0.18624504E+00 0.16548899E+04</pdfrwt>
<totfact> 0.66875903E+00</totfact>
</mgrwt>
</event>
<event>
12    1  0.2433511E-007  0.3948538E+04  0.7818608E-02  0.8015009E-01
          1   -1    0    0  501    0  0.00000000000E+00  0.00000000000E+00  0.27713848068E+04  0.27713848068E+04  0.00000000000E+00 0. -1.
         -1   -1    0    0    0  501 -0.00000000000E+00 -0.00000000000E+00 -0.14064222388E+04  0.14064222388E+04  0.00000000000E+00 0.  1.
         23    2    1    2    0    0  0.91313532621E+03  0.15247683077E+04  0.12656393997E+04  0.21837413695E+04  0.90270497539E+02 0.  0.
        254    2    1    2    0    0 -0.91313532621E+03 -0.15247683077E+04  0.99323168279E+02  0.19940656761E+04  0.89872037518E+03 0.  0.
        -24    2    4    4    0    0 -0.61568832324E+03 -0.15341068289E+04  0.20586714553E+03  0.16677629893E+04  0.80599212763E+02 0.  0.
         24    2    4    4    0    0 -0.29744700298E+03  0.93385212211E+01 -0.10654397725E+03  0.32630268678E+03  0.80993189554E+02 0.  0.
         13    1    3    3    0    0  0.15660435130E+03  0.32084646844E+03  0.27811043380E+03  0.45256247364E+03  0.00000000000E+00 0. -1.
        -13    1    3    3    0    0  0.75653097491E+03  0.12039218392E+04  0.98752896593E+03  0.17311788959E+04  0.00000000000E+00 0.  1.
          4    1    6    6  502    0 -0.20379622669E+03  0.43428235071E+02 -0.64410154557E+02  0.21809993495E+03  0.00000000000E+00 0. -1.
          1    1    5    5  503    0 -0.34752712501E+03 -0.94829987918E+03  0.10091360430E+03  0.10150031128E+04  0.00000000000E+00 0. -1.
         -2    1    5    5    0  503 -0.26816119823E+03 -0.58580694971E+03  0.10495354123E+03  0.65275987651E+03  0.00000000000E+00 0.  1.
         -3    1    6    6    0  502 -0.93650776284E+02 -0.34089713850E+02 -0.42133822693E+02  0.10820275183E+03  0.00000000000E+00 0.  1.
<mgrwt>
<rscale>  0 0.39485376E+04</rscale>
<asrwt>0</asrwt>
<pdfrwt beam="1">  1        1 0.42636689E+00 0.39485376E+04</pdfrwt>
<pdfrwt beam="2">  1       -1 0.21637265E+00 0.39485376E+04</pdfrwt>
<totfact> 0.79891628E-02</totfact>
</mgrwt>
</event>
<event>
12    1  0.2433511E-007  0.1520773E+04  0.7818608E-02  0.8870756E-01
         -2   -1    0    0    0  501 -0.00000000000E+00  0.00000000000E+00  0.41961169178E+03  0.41961169178E+03  0.00000000000E+00 0.  1.
          2   -1    0    0  501    0  0.00000000000E+00 -0.00000000000E+00 -0.13779106373E+04  0.13779106373E+04  0.00000000000E+00 0. -1.
         23    2    1    2    0    0  0.34301040079E+02 -0.45694112916E+03 -0.51358629859E+03  0.69369609326E+03  0.86438572618E+02 0.  0.
        254    2    1    2    0    0 -0.34301040079E+02  0.45694112916E+03 -0.44471264695E+03  0.11038262358E+04  0.90038395350E+03 0.  0.
        -24    2    4    4    0    0  0.26409443005E+03  0.11074308376E+03  0.16310748216E+03  0.33907388979E+03  0.79731759159E+02 0.  0.
         24    2    4    4    0    0 -0.29839547013E+03  0.34619804539E+03 -0.60782012911E+03  0.76475234606E+03  0.80671545263E+02 0.  0.
         11    1    3    3    0    0  0.60728463170E+02 -0.24673568202E+03 -0.29339410126E+03  0.38813211884E+03  0.00000000000E+00 0.  1.
        -11    1    3    3    0    0 -0.26427423090E+02 -0.21020544714E+03 -0.22019219733E+03  0.30556397442E+03  0.00000000000E+00 0. -1.
          2    1    6    6  502    0 -0.29116168485E+03  0.32074756106E+03 -0.59316617623E+03  0.73450679866E+03  0.00000000000E+00 0. -1.
          3    1    5    5  503    0  0.21803051796E+03  0.12175589811E+03  0.14136338415E+03  0.28695890275E+03  0.00000000000E+00 0. -1.
         -4    1    5    5    0  503  0.46063912086E+02 -0.11012814347E+02  0.21744098015E+02  0.52114987048E+02  0.00000000000E+00 0.  1.
         -1    1    6    6    0  502 -0.72337852805E+01  0.25450484334E+02 -0.14653952880E+02  0.30245547397E+02  0.00000000000E+00 0.  1.
<mgrwt>
<rscale>  0 0.15207727E+04</rscale>
<asrwt>0</asrwt>
<pdfrwt beam="1">  1        2 0.21198625E+00 0.15207727E+04</pdfrwt>
<pdfrwt beam="2">  1       -2 0.64555644E-01 0.15207727E+04</pdfrwt>
<totfact> 0.31843612E+01</totfact>
</mgrwt>
</event>
<event>
12    1  0.2433511E-007  0.2202067E+04  0.7818608E-02  0.8517568E-01
          2   -1    0    0  501    0  0.00000000000E+00  0.00000000000E+00  0.44542780431E+03  0.44542780431E+03  0.00000000000E+00 0.  1.
         -2   -1    0    0    0  501 -0.00000000000E+00 -0.00000000000E+00 -0.27215962817E+04  0.27215962817E+04  0.00000000000E+00 0. -1.
         23    2    1    2    0    0 -0.67531871578E+03 -0.55302154962E+03 -0.13435201226E+04  0.16054639036E+04  0.10285827097E+03 0.  0.
        254    2    1    2    0    0  0.67531871578E+03  0.55302154962E+03 -0.93264835484E+03  0.15615601824E+04  0.89819209930E+03 0.  0.
        -24    2    4    4    0    0 -0.10735393902E+03  0.20091724347E+03  0.58522597015E+02  0.24814945104E+03  0.79124261419E+02 0.  0.
         24    2    4    4    0    0  0.78267265480E+03  0.35210430615E+03 -0.99117095186E+03  0.13134107314E+04  0.77935655893E+02 0.  0.
         13    1    3    3    0    0 -0.41559563221E+03 -0.34551978961E+03 -0.73869683667E+03  0.91530140994E+03  0.00000000000E+00 0.  1.
        -13    1    3    3    0    0 -0.25972308357E+03 -0.20750176001E+03 -0.60482328590E+03  0.69016249370E+03  0.00000000000E+00 0. -1.
          4    1    6    6  502    0  0.59475130406E+03  0.29428375586E+03 -0.73035953549E+03  0.98679131214E+03  0.00000000000E+00 0. -1.
          1    1    5    5  503    0 -0.10031083735E+03  0.15060958625E+03  0.73309266374E+02  0.19524282342E+03  0.00000000000E+00 0. -1.
         -2    1    5    5    0  503 -0.70431016755E+01  0.50307657221E+02 -0.14786669359E+02  0.52906627629E+02  0.00000000000E+00 0.  1.
         -3    1    6    6    0  502  0.18792135075E+03  0.57820550294E+02 -0.26081141637E+03  0.32661941922E+03  0.00000000000E+00 0.  1.
<mgrwt>
<rscale>  0 0.22020669E+04</rscale>
<asrwt>0</asrwt>
<pdfrwt beam="1">  1        2 0.68527355E-01 0.22020669E+04</pdfrwt>
<pdfrwt beam="2">  1       -2 0.41870712E+00 0.22020669E+04</pdfrwt>
<totfact> 0.36006286E-01</totfact>
</mgrwt>
</event>
<event>
12    1  0.2433511E-007  0.1973692E+04  0.7818608E-02  0.8619020E-01
         -1   -1    0    0    0  501 -0.00000000000E+00  0.00000000000E+00  0.59971695877E+03  0.59971695877E+03  0.00000000000E+00 0.  1.
          1   -1    0    0  501    0  0.00000000000E+00 -0.00000000000E+00 -0.16238745307E+04  0.16238745307E+04  0.00000000000E+00 0. -1.
         23    2    1    2    0    0  0.19491176606E+03 -0.67711810277E+03 -0.32700291295E+02  0.71115838155E+03  0.90539565639E+02 0.  0.
        254    2    1    2    0    0 -0.19491176606E+03  0.67711810277E+03 -0.99145728066E+03  0.15124331080E+04  0.89888088477E+03 0.  0.
        -24    2    4    4    0    0 -0.37078625937E+03  0.14970623121E+03 -0.42668748347E+02  0.41001821962E+03  0.79999453360E+02 0.  0.
         24    2    4    4    0    0  0.17587449331E+03  0.52741187156E+03 -0.94878853232E+03  0.11024148883E+04  0.77613061337E+02 0.  0.
         13    1    3    3    0    0  0.64381853617E+01 -0.14952678566E+03 -0.17742872331E+02  0.15071336828E+03  0.00000000000E+00 0.  1.
        -13    1    3    3    0    0  0.18847358069E+03 -0.52759131711E+03 -0.14957418965E+02  0.56044501327E+03  0.00000000000E+00 0. -1.
          2    1    6    6  502    0  0.91854029699E+02  0.26355494781E+03 -0.40037826924E+03  0.48805853314E+03  0.00000000000E+00 0. -1.
          3    1    5    5  503    0 -0.20247435667E+03  0.75955759960E+02 -0.62726342310E+02  0.22516602008E+03  0.00000000000E+00 0. -1.
         -4    1    5    5    0  503 -0.16831190270E+03  0.73750471251E+02  0.20057593962E+02  0.18485219954E+03  0.00000000000E+00 0.  1.
         -1    1    6    6    0  502  0.84020463614E+02  0.26385692375E+03 -0.54841026308E+03  0.61435635519E+03  0.00000000000E+00 0.  1.
<mgrwt>
<rscale>  0 0.19736921E+04</rscale>
<asrwt>0</asrwt>
<pdfrwt beam="1">  1        1 0.24982685E+00 0.19736921E+04</pdfrwt>
<pdfrwt beam="2">  1       -1 0.92264149E-01 0.19736921E+04</pdfrwt>
<totfact> 0.57105673E+00</totfact>
</mgrwt>
</event>
<event>
12    1  0.2433511E-007  0.1903359E+04  0.7818608E-02  0.8653186E-01
         -1   -1    0    0    0  501 -0.00000000000E+00  0.00000000000E+00  0.45793588815E+03  0.45793588815E+03  0.00000000000E+00 0.  1.
          1   -1    0    0  501    0  0.00000000000E+00 -0.00000000000E+00 -0.19777751217E+04  0.19777751217E+04  0.00000000000E+00 0. -1.
         23    2    1    2    0    0  0.29989351778E+03  0.65148520092E+03 -0.80836990440E+03  0.10845038996E+04  0.91201517609E+02 0.  0.
        254    2    1    2    0    0 -0.29989351778E+03 -0.65148520092E+03 -0.71146932918E+03  0.13512071103E+04  0.89733102009E+03 0.  0.
        -24    2    4    4    0    0  0.98105355718E+02 -0.46279219519E+03 -0.76216453747E+03  0.90063070176E+03  0.80247131049E+02 0.  0.
         24    2    4    4    0    0 -0.39799887350E+03 -0.18869300573E+03  0.50695208284E+02  0.45057640856E+03  0.80255480154E+02 0.  0.
         13    1    3    3    0    0  0.23075828950E+03  0.45115780005E+03 -0.62196230668E+03  0.80226545460E+03  0.00000000000E+00 0. -1.
        -13    1    3    3    0    0  0.69135228282E+02  0.20032740086E+03 -0.18640759772E+03  0.28223844496E+03  0.00000000000E+00 0.  1.
          2    1    6    6  502    0 -0.32579732405E+03 -0.18634428150E+03  0.46817214786E+02  0.37823265222E+03  0.00000000000E+00 0. -1.
          1    1    5    5  503    0  0.58433973200E+01 -0.34577666302E+02 -0.10631408729E+03  0.11194840532E+03  0.00000000000E+00 0. -1.
         -2    1    5    5    0  503  0.92261958398E+02 -0.42821452889E+03 -0.65585045018E+03  0.78868229644E+03  0.00000000000E+00 0.  1.
         -1    1    6    6    0  502 -0.72201549446E+02 -0.23487242276E+01  0.38779934983E+01  0.72343756341E+02  0.00000000000E+00 0.  1.
<mgrwt>
<rscale>  0 0.19033594E+04</rscale>
<asrwt>0</asrwt>
<pdfrwt beam="1">  1        1 0.30427310E+00 0.19033594E+04</pdfrwt>
<pdfrwt beam="2">  1       -1 0.70451675E-01 0.19033594E+04</pdfrwt>
<totfact> 0.58757984E+00</totfact>
</mgrwt>
</event>
<event>
12    1  0.2433511E-007  0.3310363E+04  0.7818608E-02  0.8160264E-01
         -2   -1    0    0    0  501 -0.00000000000E+00  0.00000000000E+00  0.70456883963E+03  0.70456883963E+03  0.00000000000E+00 0.  1.
          2   -1    0    0  501    0  0.00000000000E+00 -0.00000000000E+00 -0.38883720981E+04  0.38883720981E+04  0.00000000000E+00 0. -1.
         23    2    1    2    0    0  0.90909389113E+03  0.75646887471E+03 -0.28247532932E+04  0.30634001087E+04  0.80574170420E+02 0.  0.
        254    2    1    2    0    0 -0.90909389113E+03 -0.75646887471E+03 -0.35904996524E+03  0.15295408291E+04  0.90104462093E+03 0.  0.
        -24    2    4    4    0    0 -0.32265008907E+03 -0.80069814128E+03 -0.35283219791E+03  0.93604981194E+03  0.80486627004E+02 0.  0.
         24    2    4    4    0    0 -0.58644380206E+03  0.44229266567E+02 -0.62177673341E+01  0.59349101711E+03  0.79500728088E+02 0.  0.
         13    1    3    3    0    0  0.60943689294E+03  0.54030674977E+03 -0.20123425536E+04  0.21709139235E+04  0.00000000000E+00 0. -1.
        -13    1    3    3    0    0  0.29965699819E+03  0.21616212495E+03 -0.81241073960E+03  0.89248618513E+03  0.00000000000E+00 0.  1.
          2    1    6    6  502    0 -0.15239341658E+01 -0.53394422787E+01 -0.33159034671E+01  0.64673978533E+01  0.00000000000E+00 0. -1.
          1    1    5    5  503    0 -0.40306177557E+02 -0.65986924558E+02 -0.11674526028E+02  0.78199467516E+02  0.00000000000E+00 0. -1.
         -2    1    5    5    0  503 -0.28234391151E+03 -0.73471121672E+03 -0.34115767188E+03  0.85785034442E+03  0.00000000000E+00 0.  1.
         -1    1    6    6    0  502 -0.58491986790E+03  0.49568708845E+02 -0.29018638670E+01  0.58702361926E+03  0.00000000000E+00 0.  1.
<mgrwt>
<rscale>  0 0.33103630E+04</rscale>
<asrwt>0</asrwt>
<pdfrwt beam="1">  1        2 0.59821109E+00 0.33103630E+04</pdfrwt>
<pdfrwt beam="2">  1       -2 0.10839521E+00 0.33103630E+04</pdfrwt>
<totfact> 0.23802811E-01</totfact>
</mgrwt>
</event>
<event>
12    1  0.2433511E-007  0.2315392E+04  0.7818608E-02  0.8471877E-01
          2   -1    0    0  501    0  0.00000000000E+00  0.00000000000E+00  0.20865083377E+04  0.20865083377E+04  0.00000000000E+00 0. -1.
         -2   -1    0    0    0  501 -0.00000000000E+00 -0.00000000000E+00 -0.64234564242E+03  0.64234564242E+03  0.00000000000E+00 0.  1.
         23    2    1    2    0    0 -0.31875793879E+03 -0.92823939855E+03  0.55937789845E+03  0.11334236223E+04  0.92252206894E+02 0.  0.
        254    2    1    2    0    0  0.31875793879E+03  0.92823939855E+03  0.88478479681E+03  0.15954303578E+04  0.89404635531E+03 0.  0.
        -24    2    4    4    0    0  0.33068887209E+03  0.94746565911E+03  0.36764555934E+03  0.10719853754E+04  0.83325160795E+02 0.  0.
         24    2    4    4    0    0 -0.11930933297E+02 -0.19226260564E+02  0.51713923746E+03  0.52344498243E+03  0.77779576001E+02 0.  0.
         13    1    3    3    0    0 -0.22521056196E+03 -0.64259236359E+03  0.33845444657E+03  0.76039210633E+03  0.00000000000E+00 0.  1.
        -13    1    3    3    0    0 -0.93547376829E+02 -0.28564703496E+03  0.22092345188E+03  0.37303151594E+03  0.00000000000E+00 0. -1.
          4    1    6    6  502    0 -0.32780207267E+01  0.25151354287E+02  0.32789791655E+03  0.32887745396E+03  0.00000000000E+00 0. -1.
          1    1    5    5  503    0  0.22363326306E+03  0.68375068832E+03  0.22591245642E+03  0.75403135086E+03  0.00000000000E+00 0. -1.
         -2    1    5    5    0  503  0.10705560903E+03  0.26371497080E+03  0.14173310293E+03  0.31795402453E+03  0.00000000000E+00 0.  1.
         -3    1    6    6    0  502 -0.86529125702E+01 -0.44377614852E+02  0.18924132091E+03  0.19456752848E+03  0.00000000000E+00 0.  1.
<mgrwt>
<rscale>  0 0.23153916E+04</rscale>
<asrwt>0</asrwt>
<pdfrwt beam="1">  1        2 0.32100128E+00 0.23153916E+04</pdfrwt>
<pdfrwt beam="2">  1       -2 0.98822408E-01 0.23153916E+04</pdfrwt>
<totfact> 0.45983766E+00</totfact>
</mgrwt>
</event>
<event>
12    1  0.2886017E-007  0.2155121E+04  0.7818608E-02  0.8537343E-01
          1   -1    0    0  501    0  0.00000000000E+00  0.00000000000E+00  0.17022744301E+04  0.17022744301E+04  0.00000000000E+00 0. -1.
         -1   -1    0    0    0  501 -0.00000000000E+00 -0.00000000000E+00 -0.68210887501E+03  0.68210887501E+03  0.00000000000E+00 0.  1.
         23    2    1    2    0    0 -0.63489525039E+03  0.51167824680E+03  0.35425435742E+02  0.82145609584E+03  0.92889981562E+02 0.  0.
        254    2    1    2    0    0  0.63489525039E+03 -0.51167824680E+03  0.98474011937E+03  0.15629272093E+04  0.89895592309E+03 0.  0.
        -24    2    4    4    0    0  0.12091574951E+03  0.78562456092E+02  0.71083638074E+03  0.72971706814E+03  0.80037249821E+02 0.  0.
         24    2    4    4    0    0  0.51397950088E+03 -0.59024070289E+03  0.27390373863E+03  0.83321014116E+03  0.81589623282E+02 0.  0.
         13    1    3    3    0    0 -0.40099917137E+03  0.34325938307E+03  0.64468191049E+02  0.53177390606E+03  0.00000000000E+00 0. -1.
        -13    1    3    3    0    0 -0.23389607902E+03  0.16841886374E+03 -0.29042755307E+02  0.28968218978E+03  0.00000000000E+00 0.  1.
          4    1    6    6  502    0  0.12711554169E+03 -0.11173897962E+03  0.33153906185E+02  0.17246200162E+03  0.00000000000E+00 0. -1.
          3    1    5    5  503    0  0.64026034165E+01 -0.14080047941E+02  0.11037842858E+03  0.11145689111E+03  0.00000000000E+00 0. -1.
         -4    1    5    5    0  503  0.11451314610E+03  0.92642504033E+02  0.60045795216E+03  0.61826017702E+03  0.00000000000E+00 0.  1.
         -3    1    6    6    0  502  0.38686395918E+03 -0.47850172327E+03  0.24074983244E+03  0.66074813954E+03  0.00000000000E+00 0.  1.
<mgrwt>
<rscale>  0 0.21551209E+04</rscale>
<asrwt>0</asrwt>
<pdfrwt beam="1">  1        1 0.26188837E+00 0.21551209E+04</pdfrwt>
<pdfrwt beam="2">  1       -1 0.10493983E+00 0.21551209E+04</pdfrwt>
<totfact> 0.37051860E+00</totfact>
</mgrwt>
</event>
<event>
12    1  0.2433511E-007  0.1757947E+04  0.7818608E-02  0.8728988E-01
         -2   -1    0    0    0  501 -0.00000000000E+00  0.00000000000E+00  0.84609127886E+03  0.84609127886E+03  0.00000000000E+00 0.  1.
          2   -1    0    0  501    0  0.00000000000E+00 -0.00000000000E+00 -0.91313333842E+03  0.91313333842E+03  0.00000000000E+00 0. -1.
         23    2    1    2    0    0  0.22701626504E+02 -0.63119386568E+03  0.93388468266E+02  0.64503361065E+03  0.91792662838E+02 0.  0.
        254    2    1    2    0    0 -0.22701626504E+02  0.63119386568E+03 -0.16043052782E+03  0.11141910066E+04  0.90374918261E+03 0.  0.
        -24    2    4    4    0    0  0.19372229267E+02  0.77173693285E+03 -0.35892968325E+03  0.85496869669E+03  0.78662430731E+02 0.  0.
         24    2    4    4    0    0 -0.42073855771E+02 -0.14054306717E+03  0.19849915543E+03  0.25922230994E+03  0.79194243444E+02 0.  0.
         11    1    3    3    0    0 -0.42359300702E+01 -0.39599614635E+02 -0.15799019694E+02  0.42844855072E+02  0.00000000000E+00 0. -1.
        -11    1    3    3    0    0  0.26937556574E+02 -0.59159425104E+03  0.10918748796E+03  0.60218875558E+03  0.00000000000E+00 0.  1.
          2    1    6    6  502    0 -0.43378293717E+00 -0.94583935166E+02  0.73860912464E+02  0.12000726374E+03  0.00000000000E+00 0. -1.
          3    1    5    5  503    0  0.33459438521E+02  0.44265400006E+03 -0.17077692201E+03  0.47563310954E+03  0.00000000000E+00 0. -1.
         -4    1    5    5    0  503 -0.14087209254E+02  0.32908293279E+03 -0.18815276124E+03  0.37933558715E+03  0.00000000000E+00 0.  1.
         -1    1    6    6    0  502 -0.41640072833E+02 -0.45959132007E+02  0.12463824296E+03  0.13921504620E+03  0.00000000000E+00 0.  1.
<mgrwt>
<rscale>  0 0.17579467E+04</rscale>
<asrwt>0</asrwt>
<pdfrwt beam="1">  1        2 0.14048205E+00 0.17579467E+04</pdfrwt>
<pdfrwt beam="2">  1       -2 0.13016789E+00 0.17579467E+04</pdfrwt>
<totfact> 0.11779053E+01</totfact>
</mgrwt>
</event>
<event>
12    1  0.2433511E-007  0.2148585E+04  0.7818608E-02  0.8540138E-01
         -1   -1    0    0    0  501 -0.00000000000E+00  0.00000000000E+00  0.92867177757E+03  0.92867177757E+03  0.00000000000E+00 0.  1.
          1   -1    0    0  501    0  0.00000000000E+00 -0.00000000000E+00 -0.12427478455E+04  0.12427478455E+04  0.00000000000E+00 0. -1.
         23    2    1    2    0    0  0.42922935134E+03 -0.76809450430E+03 -0.68280615786E+02  0.88721374505E+03  0.90988918687E+02 0.  0.
        254    2    1    2    0    0 -0.42922935134E+03  0.76809450430E+03 -0.24579545217E+03  0.12842058781E+04  0.90253106835E+03 0.  0.
        -24    2    4    4    0    0  0.25353653727E+03  0.57393111521E+02 -0.64583875656E+02  0.27902298744E+03  0.78153730181E+02 0.  0.
         24    2    4    4    0    0 -0.68276588861E+03  0.71070139278E+03 -0.18121157652E+03  0.10051828906E+04  0.79304979470E+02 0.  0.
         13    1    3    3    0    0  0.12276371723E+03 -0.14760609792E+03 -0.27768151493E+02  0.19398340302E+03  0.00000000000E+00 0.  1.
        -13    1    3    3    0    0  0.30646563411E+03 -0.62048840638E+03 -0.40512464292E+02  0.69323034202E+03  0.00000000000E+00 0. -1.
          2    1    6    6  502    0 -0.23158680254E+03  0.29104462770E+03 -0.85152217298E+02  0.38156299943E+03  0.00000000000E+00 0. -1.
          1    1    5    5  503    0  0.13108262598E+03 -0.23919014195E+01 -0.55757653353E+02  0.14246856472E+03  0.00000000000E+00 0. -1.
         -2    1    5    5    0  503  0.12245391130E+03  0.59785012940E+02 -0.88262223025E+01  0.13655442272E+03  0.00000000000E+00 0.  1.
         -1    1    6    6    0  502 -0.45117908608E+03  0.41965676508E+03 -0.96059359221E+02  0.62361989119E+03  0.00000000000E+00 0.  1.
<mgrwt>
<rscale>  0 0.21485854E+04</rscale>
<asrwt>0</asrwt>
<pdfrwt beam="1">  1        1 0.19119198E+00 0.21485854E+04</pdfrwt>
<pdfrwt beam="2">  1       -1 0.14287258E+00 0.21485854E+04</pdfrwt>
<totfact> 0.36197442E+00</totfact>
</mgrwt>
</event>
<event>
12    1  0.2433511E-007  0.2657141E+04  0.7818608E-02  0.8349047E-01
         -4   -1    0    0    0  501 -0.00000000000E+00  0.00000000000E+00  0.79014449659E+03  0.79014449659E+03  0.00000000000E+00 0.  1.
          4   -1    0    0  501    0  0.00000000000E+00 -0.00000000000E+00 -0.22338941701E+04  0.22338941701E+04  0.00000000000E+00 0. -1.
         23    2    1    2    0    0 -0.36579386991E+03  0.10344476853E+04 -0.11144159075E+04  0.15667739797E+04  0.94713882614E+02 0.  0.
        254    2    1    2    0    0  0.36579386991E+03 -0.10344476853E+04 -0.32933376602E+03  0.14572646870E+04  0.90070665013E+03 0.  0.
        -24    2    4    4    0    0 -0.12849604159E+02 -0.73041912470E+02  0.24734229244E+03  0.27103403823E+03  0.82346869684E+02 0.  0.
         24    2    4    4    0    0  0.37864347407E+03 -0.96140577288E+03 -0.57667605846E+03  0.11862306488E+04  0.83162101498E+02 0.  0.
         11    1    3    3    0    0 -0.23976775245E+03  0.64976558159E+03 -0.76593373216E+03  0.10326366099E+04  0.00000000000E+00 0.  1.
        -11    1    3    3    0    0 -0.12602611746E+03  0.38468210376E+03 -0.34848217539E+03  0.53413736978E+03  0.00000000000E+00 0. -1.
          4    1    6    6  502    0  0.14344969160E+03 -0.35905026130E+03 -0.26226171115E+03  0.46720028820E+03  0.00000000000E+00 0. -1.
          1    1    5    5  503    0  0.25099188000E+02 -0.12220023794E+01  0.30755895219E+02  0.39716339443E+02  0.00000000000E+00 0. -1.
         -4    1    5    5    0  503 -0.37948792159E+02 -0.71819910091E+02  0.21658639722E+03  0.23131769879E+03  0.00000000000E+00 0.  1.
         -3    1    6    6    0  502  0.23519378247E+03 -0.60235551158E+03 -0.31441434731E+03  0.71903036058E+03  0.00000000000E+00 0.  1.
<mgrwt>
<rscale>  0 0.26571407E+04</rscale>
<asrwt>0</asrwt>
<pdfrwt beam="1">  1        4 0.34367603E+00 0.26571407E+04</pdfrwt>
<pdfrwt beam="2">  1       -4 0.12156069E+00 0.26571407E+04</pdfrwt>
<totfact> 0.14656971E-02</totfact>
</mgrwt>
</event>
<event>
12    1  0.2433511E-007  0.1536925E+04  0.7818608E-02  0.8860263E-01
          2   -1    0    0  501    0  0.00000000000E+00  0.00000000000E+00  0.12248366287E+04  0.12248366287E+04  0.00000000000E+00 0. -1.
         -2   -1    0    0    0  501 -0.00000000000E+00 -0.00000000000E+00 -0.48213315048E+03  0.48213315048E+03  0.00000000000E+00 0.  1.
         23    2    1    2    0    0  0.42274239462E+03 -0.24997384839E+03  0.12872229205E+03  0.51582730459E+03  0.91160970831E+02 0.  0.
        254    2    1    2    0    0 -0.42274239462E+03  0.24997384839E+03  0.61398118619E+03  0.11911424746E+04  0.89479016577E+03 0.  0.
        -24    2    4    4    0    0 -0.32233913106E+03  0.24899347362E+03 -0.13029039687E+03  0.43524287081E+03  0.80996936685E+02 0.  0.
         24    2    4    4    0    0 -0.10040326356E+03  0.98037476272E+00  0.74427158306E+03  0.75589960381E+03  0.85803526905E+02 0.  0.
         11    1    3    3    0    0  0.24247147460E+03 -0.14205470765E+03  0.26767020076E+02  0.28229139081E+03  0.00000000000E+00 0.  1.
        -11    1    3    3    0    0  0.18027092002E+03 -0.10791914073E+03  0.10195527198E+03  0.23353591378E+03  0.00000000000E+00 0. -1.
          4    1    6    6  502    0 -0.68881375979E+02  0.41141806703E+02  0.49407547771E+03  0.50054757006E+03  0.00000000000E+00 0. -1.
          1    1    5    5  503    0 -0.68262483556E+02  0.55444649008E+02 -0.64698907071E+02  0.10917794805E+03  0.00000000000E+00 0. -1.
         -2    1    5    5    0  503 -0.25407664750E+03  0.19354882461E+03 -0.65591489800E+02  0.32606492276E+03  0.00000000000E+00 0.  1.
         -3    1    6    6    0  502 -0.31521887579E+02 -0.40161431941E+02  0.25019610534E+03  0.25535203375E+03  0.00000000000E+00 0.  1.
<mgrwt>
<rscale>  0 0.15369246E+04</rscale>
<asrwt>0</asrwt>
<pdfrwt beam="1">  1        2 0.18843640E+00 0.15369246E+04</pdfrwt>
<pdfrwt beam="2">  1       -2 0.74174331E-01 0.15369246E+04</pdfrwt>
<totfact> 0.28866579E+01</totfact>
</mgrwt>
</event>
<event>
12    1  0.2433511E-007  0.2943562E+04  0.7818608E-02  0.8260033E-01
         -1   -1    0    0    0  501 -0.00000000000E+00  0.00000000000E+00  0.80064699482E+03  0.80064699482E+03  0.00000000000E+00 0.  1.
          1   -1    0    0  501    0  0.00000000000E+00 -0.00000000000E+00 -0.27054858889E+04  0.27054858889E+04  0.00000000000E+00 0. -1.
         23    2    1    2    0    0 -0.12115685244E+04 -0.41915313469E+03 -0.43155676907E+03  0.13557928123E+04  0.91352422981E+02 0.  0.
        254    2    1    2    0    0  0.12115685244E+04  0.41915313469E+03 -0.14732821250E+04  0.21503400714E+04  0.89989697375E+03 0.  0.
        -24    2    4    4    0    0  0.13477741528E+04  0.35527009685E+03 -0.12979767451E+04  0.19061030225E+04  0.75980871945E+02 0.  0.
         24    2    4    4    0    0 -0.13620562838E+03  0.63883037846E+02 -0.17530537983E+03  0.24423704891E+03  0.79288991263E+02 0.  0.
         13    1    3    3    0    0 -0.43067416431E+03 -0.16096682645E+03 -0.11037449822E+03  0.47283515613E+03  0.00000000000E+00 0.  1.
        -13    1    3    3    0    0 -0.78089436010E+03 -0.25818630825E+03 -0.32118227085E+03  0.88295765613E+03  0.00000000000E+00 0. -1.
          4    1    6    6  502    0 -0.23313604075E+02  0.15099636432E+02  0.26704448510E+01  0.27904380141E+02  0.00000000000E+00 0. -1.
          3    1    5    5  503    0  0.56893271252E+02  0.28837338788E+02 -0.48306078464E+02  0.80011959348E+02  0.00000000000E+00 0. -1.
         -4    1    5    5    0  503  0.12908808815E+04  0.32643275806E+03 -0.12496706667E+04  0.18260910632E+04  0.00000000000E+00 0.  1.
         -3    1    6    6    0  502 -0.11289202430E+03  0.48783401413E+02 -0.17797582468E+03  0.21633266877E+03  0.00000000000E+00 0.  1.
<mgrwt>
<rscale>  0 0.29435619E+04</rscale>
<asrwt>0</asrwt>
<pdfrwt beam="1">  1        1 0.41622860E+00 0.29435619E+04</pdfrwt>
<pdfrwt beam="2">  1       -1 0.12317646E+00 0.29435619E+04</pdfrwt>
<totfact> 0.48254230E-01</totfact>
</mgrwt>
</event>
<event>
12    1  0.2433511E-007  0.2054262E+04  0.7818608E-02  0.8581664E-01
          2   -1    0    0  501    0  0.00000000000E+00  0.00000000000E+00  0.74091995046E+03  0.74091995046E+03  0.00000000000E+00 0. -1.
         -2   -1    0    0    0  501 -0.00000000000E+00 -0.00000000000E+00 -0.14239022921E+04  0.14239022921E+04  0.00000000000E+00 0.  1.
         23    2    1    2    0    0 -0.96099209782E+02 -0.32532608648E+03  0.51812309790E+03  0.62611525376E+03  0.92177251793E+02 0.  0.
        254    2    1    2    0    0  0.96099209782E+02  0.32532608648E+03 -0.12011054395E+04  0.15387069888E+04  0.89994044235E+03 0.  0.
        -24    2    4    4    0    0  0.39888119901E+03  0.39514422720E+03 -0.10283639274E+04  0.11742982439E+04  0.78732631296E+02 0.  0.
         24    2    4    4    0    0 -0.30278198923E+03 -0.69818140720E+02 -0.17274151217E+03  0.36440874491E+03  0.80016233154E+02 0.  0.
         13    1    3    3    0    0 -0.43777668589E+02 -0.83589592397E+02  0.21566696635E+03  0.23540591453E+03  0.00000000000E+00 0. -1.
        -13    1    3    3    0    0 -0.52321541193E+02 -0.24173649409E+03  0.30245613156E+03  0.39070933923E+03  0.00000000000E+00 0.  1.
          2    1    6    6  502    0 -0.89715184425E+02 -0.35343720986E+02 -0.93982574617E+02  0.13465035188E+03  0.00000000000E+00 0. -1.
          1    1    5    5  503    0  0.11723626294E+03  0.16199356230E+03 -0.32532475228E+03  0.38186705805E+03  0.00000000000E+00 0. -1.
         -2    1    5    5    0  503  0.28164493607E+03  0.23315066490E+03 -0.70303917509E+03  0.79243118582E+03  0.00000000000E+00 0.  1.
         -1    1    6    6    0  502 -0.21306680480E+03 -0.34474419733E+02 -0.78758937549E+02  0.22975839303E+03  0.00000000000E+00 0.  1.
<mgrwt>
<rscale>  0 0.20542615E+04</rscale>
<asrwt>0</asrwt>
<pdfrwt beam="1">  1        2 0.11398769E+00 0.20542615E+04</pdfrwt>
<pdfrwt beam="2">  1       -2 0.21906189E+00 0.20542615E+04</pdfrwt>
<totfact> 0.35291923E+00</totfact>
</mgrwt>
</event>
<event>
12    1  0.2433511E-007  0.1514168E+04  0.7818608E-02  0.8875085E-01
         -1   -1    0    0    0  501 -0.00000000000E+00  0.00000000000E+00  0.65343060504E+03  0.65343060504E+03  0.00000000000E+00 0.  1.
          1   -1    0    0  501    0  0.00000000000E+00 -0.00000000000E+00 -0.87718031436E+03  0.87718031436E+03  0.00000000000E+00 0. -1.
         23    2    1    2    0    0 -0.33711096478E+03 -0.29462949886E+03  0.11341916151E+03  0.47080153209E+03  0.91322682006E+02 0.  0.
        254    2    1    2    0    0  0.33711096478E+03  0.29462949886E+03 -0.33716887083E+03  0.10598093873E+04  0.89947915251E+03 0.  0.
        -24    2    4    4    0    0  0.61749733138E+03  0.26468984701E+03 -0.35880271057E+03  0.76588687473E+03  0.80496275748E+02 0.  0.
         24    2    4    4    0    0 -0.28038636660E+03  0.29939651849E+02  0.21633839740E+02  0.29392251257E+03  0.80059496924E+02 0.  0.
         13    1    3    3    0    0 -0.12219001955E+03 -0.66268629587E+02  0.53337254906E+01  0.13910564609E+03  0.00000000000E+00 0. -1.
        -13    1    3    3    0    0 -0.21492094522E+03 -0.22836086927E+03  0.10808543602E+03  0.33169588600E+03  0.00000000000E+00 0.  1.
          4    1    6    6  502    0 -0.18821067379E+03  0.14197550939E+02 -0.23297193758E+02  0.19017777846E+03  0.00000000000E+00 0. -1.
          3    1    5    5  503    0  0.20650571065E+03  0.50939379336E+02 -0.96947685784E+02  0.23374833192E+03  0.00000000000E+00 0. -1.
         -4    1    5    5    0  503  0.41099162073E+03  0.21375046768E+03 -0.26185502478E+03  0.53213854281E+03  0.00000000000E+00 0.  1.
         -3    1    6    6    0  502 -0.92175692809E+02  0.15742100909E+02  0.44931033498E+02  0.10374473412E+03  0.00000000000E+00 0.  1.
<mgrwt>
<rscale>  0 0.15141684E+04</rscale>
<asrwt>0</asrwt>
<pdfrwt beam="1">  1        1 0.13495082E+00 0.15141684E+04</pdfrwt>
<pdfrwt beam="2">  1       -1 0.10052779E+00 0.15141684E+04</pdfrwt>
<totfact> 0.17297245E+01</totfact>
</mgrwt>
</event>
<event>
12    1  0.2433511E-007  0.1834909E+04  0.7818608E-02  0.8687952E-01
         -1   -1    0    0    0  501 -0.00000000000E+00  0.00000000000E+00  0.91718771302E+03  0.91718771302E+03  0.00000000000E+00 0.  1.
          1   -1    0    0  501    0  0.00000000000E+00 -0.00000000000E+00 -0.91772171231E+03  0.91772171231E+03  0.00000000000E+00 0. -1.
         23    2    1    2    0    0 -0.24518222907E+03  0.62623832181E+03  0.16621943320E+03  0.69910939605E+03  0.94001524017E+02 0.  0.
        254    2    1    2    0    0  0.24518222907E+03 -0.62623832181E+03 -0.16675343249E+03  0.11358000293E+04  0.89997013179E+03 0.  0.
        -24    2    4    4    0    0  0.30061030411E+03 -0.71142045517E+03  0.15239073718E+03  0.79135911662E+03  0.80874567703E+02 0.  0.
         24    2    4    4    0    0 -0.55428075048E+02  0.85182133364E+02 -0.31914416967E+03  0.34444091266E+03  0.80363386770E+02 0.  0.
         11    1    3    3    0    0 -0.90512792605E+02  0.12548029014E+03  0.30074630763E+02  0.15761456866E+03  0.00000000000E+00 0. -1.
        -11    1    3    3    0    0 -0.15466943646E+03  0.50075803167E+03  0.13614480244E+03  0.54149482739E+03  0.00000000000E+00 0.  1.
          2    1    6    6  502    0 -0.71041160011E+02  0.73387449375E+02 -0.20959526711E+03  0.23315818694E+03  0.00000000000E+00 0. -1.
          1    1    5    5  503    0  0.67056672079E+02 -0.89281943146E+02  0.30378072946E+02  0.11571814878E+03  0.00000000000E+00 0. -1.
         -2    1    5    5    0  503  0.23355363203E+03 -0.62213851203E+03  0.12201266424E+03  0.67564096784E+03  0.00000000000E+00 0.  1.
         -1    1    6    6    0  502  0.15613084963E+02  0.11794683989E+02 -0.10954890256E+03  0.11128272572E+03  0.00000000000E+00 0.  1.
<mgrwt>
<rscale>  0 0.18349093E+04</rscale>
<asrwt>0</asrwt>
<pdfrwt beam="1">  1        1 0.14118796E+00 0.18349093E+04</pdfrwt>
<pdfrwt beam="2">  1       -1 0.14110580E+00 0.18349093E+04</pdfrwt>
<totfact> 0.67993364E+00</totfact>
</mgrwt>
</event>
<event>
12    1  0.2433511E-007  0.2367097E+04  0.7818608E-02  0.8451926E-01
          2   -1    0    0  501    0  0.00000000000E+00  0.00000000000E+00  0.77849723787E+03  0.77849723787E+03  0.00000000000E+00 0. -1.
         -2   -1    0    0    0  501 -0.00000000000E+00 -0.00000000000E+00 -0.17993468306E+04  0.17993468306E+04  0.00000000000E+00 0.  1.
         23    2    1    2    0    0  0.65818251542E+03 -0.68242695484E+02 -0.12686491954E+04  0.14337573172E+04  0.91257736850E+02 0.  0.
        254    2    1    2    0    0 -0.65818251542E+03  0.68242695484E+02  0.24779960264E+03  0.11440867513E+04  0.89981584912E+03 0.  0.
        -24    2    4    4    0    0 -0.25041471338E+03  0.37838241825E+03  0.39267107391E+03  0.60536083376E+03  0.79939875163E+02 0.  0.
         24    2    4    4    0    0 -0.40776780204E+03 -0.31013972277E+03 -0.14487147127E+03  0.53872591753E+03  0.82320368158E+02 0.  0.
         11    1    3    3    0    0  0.31716160106E+03  0.11395398673E+02 -0.57804194617E+03  0.65943447577E+03  0.00000000000E+00 0. -1.
        -11    1    3    3    0    0  0.34102091436E+03 -0.79638094156E+02 -0.69060724920E+03  0.77432284140E+03  0.00000000000E+00 0.  1.
          4    1    6    6  502    0 -0.17969784995E+03 -0.18720596135E+03 -0.81573268389E+02  0.27201394699E+03  0.00000000000E+00 0. -1.
          3    1    5    5  503    0 -0.14285422869E+03  0.15372370354E+03  0.15308186821E+03  0.25975443414E+03  0.00000000000E+00 0. -1.
         -4    1    5    5    0  503 -0.10756048469E+03  0.22465871471E+03  0.23958920570E+03  0.34560639961E+03  0.00000000000E+00 0.  1.
         -3    1    6    6    0  502 -0.22806995209E+03 -0.12293376143E+03 -0.63298202880E+02  0.26671197055E+03  0.00000000000E+00 0.  1.
<mgrwt>
<rscale>  0 0.23670966E+04</rscale>
<asrwt>0</asrwt>
<pdfrwt beam="1">  1        2 0.11976881E+00 0.23670966E+04</pdfrwt>
<pdfrwt beam="2">  1       -2 0.27682259E+00 0.23670966E+04</pdfrwt>
<totfact> 0.14180447E+00</totfact>
</mgrwt>
</event>
<event>
12    1  0.2433511E-007  0.1603810E+04  0.7818608E-02  0.8818211E-01
         -2   -1    0    0    0  501 -0.00000000000E+00  0.00000000000E+00  0.64014918789E+03  0.64014918789E+03  0.00000000000E+00 0.  1.
          2   -1    0    0  501    0  0.00000000000E+00 -0.00000000000E+00 -0.10045341764E+04  0.10045341764E+04  0.00000000000E+00 0. -1.
         23    2    1    2    0    0 -0.40772355908E+03  0.95556145432E+02  0.23181538985E+03  0.48736291782E+03  0.91732007136E+02 0.  0.
        254    2    1    2    0    0  0.40772355908E+03 -0.95556145432E+02 -0.59620037835E+03  0.11573204465E+04  0.89920311782E+03 0.  0.
        -24    2    4    4    0    0  0.10724919187E+03 -0.30918833343E+03  0.11187110171E+03  0.35513530015E+03  0.80660543813E+02 0.  0.
         24    2    4    4    0    0  0.30047436721E+03  0.21363218800E+03 -0.70807148006E+03  0.80218514631E+03  0.78817707310E+02 0.  0.
         13    1    3    3    0    0 -0.12099179582E+03  0.29794892962E+02  0.11898492862E+03  0.17229092705E+03  0.00000000000E+00 0.  1.
        -13    1    3    3    0    0 -0.28673176326E+03  0.65761252470E+02  0.11283046122E+03  0.31507199077E+03  0.00000000000E+00 0. -1.
          4    1    6    6  502    0  0.21075301629E+03  0.15982561471E+03 -0.57495285533E+03  0.63287585421E+03  0.00000000000E+00 0. -1.
          1    1    5    5  503    0  0.77655680196E+02 -0.14944432707E+03  0.90738113797E+02  0.19130451342E+03  0.00000000000E+00 0. -1.
         -2    1    5    5    0  503  0.29593511672E+02 -0.15974400637E+03  0.21132987913E+02  0.16383078673E+03  0.00000000000E+00 0.  1.
         -3    1    6    6    0  502  0.89721350923E+02  0.53806573291E+02 -0.13311862472E+03  0.16930929209E+03  0.00000000000E+00 0.  1.
<mgrwt>
<rscale>  0 0.16038101E+04</rscale>
<asrwt>0</asrwt>
<pdfrwt beam="1">  1        2 0.15454372E+00 0.16038101E+04</pdfrwt>
<pdfrwt beam="2">  1       -2 0.98484491E-01 0.16038101E+04</pdfrwt>
<totfact> 0.20544732E+01</totfact>
</mgrwt>
</event>
<event>
12    1  0.2433511E-007  0.1625353E+04  0.7818608E-02  0.8805123E-01
         -2   -1    0    0    0  501 -0.00000000000E+00  0.00000000000E+00  0.45540973428E+03  0.45540973428E+03  0.00000000000E+00 0.  1.
          2   -1    0    0  501    0  0.00000000000E+00 -0.00000000000E+00 -0.14502165566E+04  0.14502165566E+04  0.00000000000E+00 0. -1.
         23    2    1    2    0    0  0.47162416817E+03  0.24049620286E+03 -0.55742569286E+03  0.77374800445E+03  0.87719962057E+02 0.  0.
        254    2    1    2    0    0 -0.47162416817E+03 -0.24049620286E+03 -0.43738112948E+03  0.11318782864E+04  0.89976576025E+03 0.  0.
        -24    2    4    4    0    0  0.79750293234E+01 -0.49119322366E+03 -0.22824811972E+03  0.54630537041E+03  0.70837627831E+02 0.  0.
         24    2    4    4    0    0 -0.47959919749E+03  0.25069702081E+03 -0.20913300976E+03  0.58557291604E+03  0.79338753141E+02 0.  0.
         11    1    3    3    0    0  0.21962374825E+03  0.16068836216E+03 -0.29203824941E+03  0.39917625136E+03  0.00000000000E+00 0.  1.
        -11    1    3    3    0    0  0.25200041991E+03  0.79807840695E+02 -0.26538744345E+03  0.37457175309E+03  0.00000000000E+00 0. -1.
          2    1    6    6  502    0 -0.36894857800E+03  0.16500020687E+03 -0.12874587326E+03  0.42417404607E+03  0.00000000000E+00 0. -1.
          1    1    5    5  503    0  0.35071967995E+02 -0.32746186622E+03 -0.16834570325E+03  0.36986699308E+03  0.00000000000E+00 0. -1.
         -2    1    5    5    0  503 -0.27096938671E+02 -0.16373135744E+03 -0.59902416467E+02  0.17643837732E+03  0.00000000000E+00 0.  1.
         -1    1    6    6    0  502 -0.11065061949E+03  0.85696813937E+02 -0.80387136504E+02  0.16139886997E+03  0.00000000000E+00 0.  1.
<mgrwt>
<rscale>  0 0.16253526E+04</rscale>
<asrwt>0</asrwt>
<pdfrwt beam="1">  1        2 0.22311024E+00 0.16253526E+04</pdfrwt>
<pdfrwt beam="2">  1       -2 0.70063036E-01 0.16253526E+04</pdfrwt>
<totfact> 0.24051864E+01</totfact>
</mgrwt>
</event>
<event>
12    1  0.2433511E-007  0.1327461E+04  0.7818608E-02  0.9008067E-01
          1   -1    0    0  501    0  0.00000000000E+00  0.00000000000E+00  0.12675164095E+04  0.12675164095E+04  0.00000000000E+00 0. -1.
         -1   -1    0    0    0  501 -0.00000000000E+00 -0.00000000000E+00 -0.34756025214E+03  0.34756025214E+03  0.00000000000E+00 0.  1.
         23    2    1    2    0    0 -0.11378136202E+03  0.30310804587E+03  0.84491013547E+02  0.34601039859E+03  0.88112307582E+02 0.  0.
        254    2    1    2    0    0  0.11378136202E+03 -0.30310804587E+03  0.83546514382E+03  0.12690662631E+04  0.89872492325E+03 0.  0.
        -24    2    4    4    0    0  0.15714565765E+03 -0.15779537348E+03 -0.14256377079E+03  0.27586536965E+03  0.78632918187E+02 0.  0.
         24    2    4    4    0    0 -0.43364295623E+02 -0.14531267240E+03  0.97802891461E+03  0.99320089341E+03  0.83133759462E+02 0.  0.
         11    1    3    3    0    0 -0.74196249710E+02  0.25925009787E+03  0.41247371688E+02  0.27279487236E+03  0.00000000000E+00 0.  1.
        -11    1    3    3    0    0 -0.39585112313E+02  0.43857948004E+02  0.43243641858E+02  0.73215526230E+02  0.00000000000E+00 0. -1.
          2    1    6    6  502    0 -0.51611855504E+02 -0.85644116341E+02  0.41132997318E+03  0.42330963269E+03  0.00000000000E+00 0. -1.
          1    1    5    5  503    0  0.84969777578E+02 -0.31334539372E+02 -0.54327517289E+02  0.10560869090E+03  0.00000000000E+00 0. -1.
         -2    1    5    5    0  503  0.72175880068E+02 -0.12646083411E+03 -0.88236253498E+02  0.17025667875E+03  0.00000000000E+00 0.  1.
         -1    1    6    6    0  502  0.82475598808E+01 -0.59668556055E+02  0.56669894143E+03  0.56989126072E+03  0.00000000000E+00 0.  1.
<mgrwt>
<rscale>  0 0.13274612E+04</rscale>
<asrwt>0</asrwt>
<pdfrwt beam="1">  1        1 0.19500252E+00 0.13274612E+04</pdfrwt>
<pdfrwt beam="2">  1       -1 0.53470809E-01 0.13274612E+04</pdfrwt>
<totfact> 0.33019447E+01</totfact>
</mgrwt>
</event>
<event>
12    1  0.2710390E-007  0.2863448E+04  0.7818608E-02  0.8283837E-01
          1   -1    0    0  501    0  0.00000000000E+00  0.00000000000E+00  0.13143147892E+04  0.13143147892E+04  0.00000000000E+00 0. -1.
         -1   -1    0    0    0  501 -0.00000000000E+00 -0.00000000000E+00 -0.15596215026E+04  0.15596215026E+04  0.00000000000E+00 0.  1.
         23    2    1    2    0    0  0.11038489955E+04  0.43960260849E+03  0.38924884934E+03  0.12536458257E+04  0.91543057514E+02 0.  0.
        254    2    1    2    0    0 -0.11038489955E+04 -0.43960260849E+03 -0.63455556271E+03  0.16202904660E+04  0.90052616504E+03 0.  0.
        -24    2    4    4    0    0 -0.10939143255E+04 -0.21561042657E+03 -0.21484232158E+03  0.11382664832E+04  0.79730521574E+02 0.  0.
         24    2    4    4    0    0 -0.99346700177E+01 -0.22399218192E+03 -0.41971324113E+03  0.48202398285E+03  0.76920218607E+02 0.  0.
         11    1    3    3    0    0  0.60011747058E+03  0.27948418616E+03  0.24329248044E+03  0.70529683102E+03  0.00000000000E+00 0. -1.
        -11    1    3    3    0    0  0.50373152493E+03  0.16011842234E+03  0.14595636890E+03  0.54834899471E+03  0.00000000000E+00 0.  1.
          4    1    6    6  502    0 -0.19687373582E+02 -0.25350784771E+02 -0.10445823069E+03  0.10927843761E+03  0.00000000000E+00 0. -1.
          1    1    5    5  503    0 -0.24261354231E+03 -0.42515537974E+02 -0.14456458370E+02  0.24673445457E+03  0.00000000000E+00 0. -1.
         -2    1    5    5    0  503 -0.85130078318E+03 -0.17309488860E+03 -0.20038586321E+03  0.89153202863E+03  0.00000000000E+00 0.  1.
         -3    1    6    6    0  502  0.97527035647E+01 -0.19864139715E+03 -0.31525501043E+03  0.37274554523E+03  0.00000000000E+00 0.  1.
<mgrwt>
<rscale>  0 0.28634480E+04</rscale>
<asrwt>0</asrwt>
<pdfrwt beam="1">  1        1 0.20220228E+00 0.28634480E+04</pdfrwt>
<pdfrwt beam="2">  1       -1 0.23994177E+00 0.28634480E+04</pdfrwt>
<totfact> 0.61729620E-01</totfact>
</mgrwt>
</event>
<event>
12    1  0.2433511E-007  0.1551333E+04  0.7818608E-02  0.8851017E-01
         -4   -1    0    0    0  501 -0.00000000000E+00  0.00000000000E+00  0.77834227209E+03  0.77834227209E+03  0.00000000000E+00 0.  1.
          4   -1    0    0  501    0  0.00000000000E+00 -0.00000000000E+00 -0.77299986560E+03  0.77299986560E+03  0.00000000000E+00 0. -1.
         23    2    1    2    0    0  0.20364083755E+03  0.35680543923E+03  0.30485181623E+03  0.51942859817E+03  0.89954024639E+02 0.  0.
        254    2    1    2    0    0 -0.20364083755E+03 -0.35680543923E+03 -0.29950940975E+03  0.10319135395E+04  0.89797547536E+03 0.  0.
        -24    2    4    4    0    0  0.24277602876E+03 -0.33577415812E+03 -0.38381252218E+03  0.56990677771E+03  0.76139330763E+02 0.  0.
         24    2    4    4    0    0 -0.44641686631E+03 -0.21031281109E+02  0.84303112438E+02  0.46200676182E+03  0.81319738624E+02 0.  0.
         13    1    3    3    0    0  0.20148898611E+03  0.34153229732E+03  0.30982436482E+03  0.50322287177E+03  0.00000000000E+00 0.  1.
        -13    1    3    3    0    0  0.21518514416E+01  0.15273141913E+02 -0.49725485903E+01  0.16205726395E+02  0.00000000000E+00 0. -1.
          4    1    6    6  502    0 -0.22184260242E+03 -0.46157909805E+02  0.22354018826E+02  0.22769364296E+03  0.00000000000E+00 0. -1.
          1    1    5    5  503    0  0.10826365558E+02 -0.38978134032E+01  0.69343087522E+00  0.11527531692E+02  0.00000000000E+00 0. -1.
         -2    1    5    5    0  503  0.23194966320E+03 -0.33187634472E+03 -0.38450595306E+03  0.55837924602E+03  0.00000000000E+00 0.  1.
         -3    1    6    6    0  502 -0.22457426389E+03  0.25126628696E+02  0.61949093612E+02  0.23431311886E+03  0.00000000000E+00 0.  1.
<mgrwt>
<rscale>  0 0.15513329E+04</rscale>
<asrwt>0</asrwt>
<pdfrwt beam="1">  1        4 0.11892306E+00 0.15513329E+04</pdfrwt>
<pdfrwt beam="2">  1       -4 0.11974497E+00 0.15513329E+04</pdfrwt>
<totfact> 0.55479661E-01</totfact>
</mgrwt>
</event>
<event>
12    1  0.2433511E-007  0.1499824E+04  0.7818608E-02  0.8884570E-01
         -2   -1    0    0    0  501 -0.00000000000E+00  0.00000000000E+00  0.24924281771E+03  0.24924281771E+03  0.00000000000E+00 0.  1.
          2   -1    0    0  501    0  0.00000000000E+00 -0.00000000000E+00 -0.22563059332E+04  0.22563059332E+04  0.00000000000E+00 0. -1.
         23    2    1    2    0    0  0.44001122678E+03  0.13764941490E+03 -0.55948095713E+03  0.73070356822E+03  0.91386662623E+02 0.  0.
        254    2    1    2    0    0 -0.44001122678E+03 -0.13764941490E+03 -0.14475821584E+04  0.17748451827E+04  0.91761869873E+03 0.  0.
        -24    2    4    4    0    0 -0.53959313960E+03  0.23699790796E+03 -0.10876548130E+04  0.12397146102E+04  0.81058977198E+02 0.  0.
         24    2    4    4    0    0  0.99581912821E+02 -0.37464732286E+03 -0.35992734541E+03  0.53513057256E+03  0.80869412187E+02 0.  0.
         11    1    3    3    0    0  0.12000380891E+03  0.53892142227E+02 -0.22264091407E+03  0.25860056799E+03  0.00000000000E+00 0. -1.
        -11    1    3    3    0    0  0.32000741788E+03  0.83757272672E+02 -0.33684004306E+03  0.47210300023E+03  0.00000000000E+00 0.  1.
          4    1    6    6  502    0  0.11256769209E+03 -0.34646731513E+03 -0.33961092425E+03  0.49804283513E+03  0.00000000000E+00 0. -1.
          3    1    5    5  503    0 -0.28974972807E+03  0.10435673279E+03 -0.63880119576E+03  0.70916302802E+03  0.00000000000E+00 0. -1.
         -2    1    5    5    0  503 -0.24984341153E+03  0.13264117517E+03 -0.44885361721E+03  0.53055158215E+03  0.00000000000E+00 0.  1.
         -3    1    6    6    0  502 -0.12985779268E+02 -0.28180007731E+02 -0.20316421162E+02  0.37087737431E+02  0.00000000000E+00 0.  1.
<mgrwt>
<rscale>  0 0.14998241E+04</rscale>
<asrwt>0</asrwt>
<pdfrwt beam="1">  1        2 0.34712398E+00 0.14998241E+04</pdfrwt>
<pdfrwt beam="2">  1       -2 0.38345050E-01 0.14998241E+04</pdfrwt>
<totfact> 0.29826337E+01</totfact>
</mgrwt>
</event>
<event>
12    1  0.2433511E-007  0.1135664E+04  0.7818608E-02  0.9171112E-01
          2   -1    0    0  501    0  0.00000000000E+00  0.00000000000E+00  0.25701170804E+04  0.25701170804E+04  0.00000000000E+00 0. -1.
         -2   -1    0    0    0  501 -0.00000000000E+00 -0.00000000000E+00 -0.12545467842E+03  0.12545467842E+03  0.00000000000E+00 0.  1.
         23    2    1    2    0    0  0.19428222841E+01 -0.19208082698E+03  0.55843815911E+03  0.59737620920E+03  0.90035210422E+02 0.  0.
        254    2    1    2    0    0 -0.19428222841E+01  0.19208082698E+03  0.18862242429E+04  0.20981955496E+04  0.89871232964E+03 0.  0.
        -24    2    4    4    0    0  0.43305618761E+03  0.17229847447E+03  0.87321820602E+03  0.99302023999E+03  0.79716596628E+02 0.  0.
         24    2    4    4    0    0 -0.43499900989E+03  0.19782352512E+02  0.10130060368E+04  0.11051753096E+04  0.74938336358E+02 0.  0.
         11    1    3    3    0    0  0.19211483558E+02 -0.15439572488E+03  0.51204668501E+03  0.53516252540E+03  0.00000000000E+00 0. -1.
        -11    1    3    3    0    0 -0.17268661274E+02 -0.37685102105E+02  0.46391474093E+02  0.62213683796E+02  0.00000000000E+00 0.  1.
          4    1    6    6  502    0 -0.21465734440E+03  0.42889651032E+02  0.45952817259E+03  0.50900239594E+03  0.00000000000E+00 0. -1.
          1    1    5    5  503    0  0.10443814886E+03  0.67231323985E+01  0.20595491770E+03  0.23101938354E+03  0.00000000000E+00 0. -1.
         -2    1    5    5    0  503  0.32861803875E+03  0.16557534207E+03  0.66726328832E+03  0.76200085645E+03  0.00000000000E+00 0.  1.
         -3    1    6    6    0  502 -0.22034166549E+03 -0.23107298521E+02  0.55347786426E+03  0.59617291369E+03  0.00000000000E+00 0.  1.
<mgrwt>
<rscale>  0 0.11356641E+04</rscale>
<asrwt>0</asrwt>
<pdfrwt beam="1">  1        2 0.39540259E+00 0.11356641E+04</pdfrwt>
<pdfrwt beam="2">  1       -2 0.19300722E-01 0.11356641E+04</pdfrwt>
<totfact> 0.72067860E+01</totfact>
</mgrwt>
</event>
<event>
12    1  0.2433511E-007  0.1346557E+04  0.7818608E-02  0.8993438E-01
         -2   -1    0    0    0  501 -0.00000000000E+00  0.00000000000E+00  0.19134314787E+03  0.19134314787E+03  0.00000000000E+00 0.  1.
          2   -1    0    0  501    0  0.00000000000E+00 -0.00000000000E+00 -0.23690638452E+04  0.23690638452E+04  0.00000000000E+00 0. -1.
         23    2    1    2    0    0  0.13366862156E+03 -0.33742850102E+03 -0.52756329913E+03  0.64637777963E+03  0.88067620163E+02 0.  0.
        254    2    1    2    0    0 -0.13366862156E+03  0.33742850102E+03 -0.16501573982E+04  0.19140292134E+04  0.89931256932E+03 0.  0.
        -24    2    4    4    0    0 -0.33726175804E+03  0.50081069810E+03 -0.14567765511E+04  0.15789467365E+04  0.79486023237E+02 0.  0.
         24    2    4    4    0    0  0.20359313648E+03 -0.16338219708E+03 -0.19338084704E+03  0.33508247695E+03  0.82098762525E+02 0.  0.
         13    1    3    3    0    0  0.93523911809E+02 -0.25426760429E+03 -0.32055908187E+03  0.41971044977E+03  0.00000000000E+00 0.  1.
        -13    1    3    3    0    0  0.40144709749E+02 -0.83160896730E+02 -0.20700421726E+03  0.22666732987E+03  0.00000000000E+00 0. -1.
          2    1    6    6  502    0  0.18086064815E+03 -0.10145699364E+03 -0.15341827219E+03  0.25795593005E+03  0.00000000000E+00 0. -1.
          3    1    5    5  503    0 -0.46787818668E+02  0.30718028586E+02 -0.11767827873E+03  0.13031068468E+03  0.00000000000E+00 0. -1.
         -4    1    5    5    0  503 -0.29047393937E+03  0.47009266952E+03 -0.13390982724E+04  0.14486360518E+04  0.00000000000E+00 0.  1.
         -1    1    6    6    0  502  0.22732488331E+02 -0.61925203441E+02 -0.39962574858E+02  0.77126546897E+02  0.00000000000E+00 0.  1.
<mgrwt>
<rscale>  0 0.13465573E+04</rscale>
<asrwt>0</asrwt>
<pdfrwt beam="1">  1        2 0.36447137E+00 0.13465573E+04</pdfrwt>
<pdfrwt beam="2">  1       -2 0.29437407E-01 0.13465573E+04</pdfrwt>
<totfact> 0.43110744E+01</totfact>
</mgrwt>
</event>
<event>
12    1  0.2433511E-007  0.2274058E+04  0.7818608E-02  0.8488220E-01
          1   -1    0    0  501    0  0.00000000000E+00  0.00000000000E+00  0.16388993364E+04  0.16388993364E+04  0.00000000000E+00 0. -1.
         -1   -1    0    0    0  501 -0.00000000000E+00 -0.00000000000E+00 -0.78884347624E+03  0.78884347624E+03  0.00000000000E+00 0.  1.
         23    2    1    2    0    0  0.38490235172E+03  0.87205197229E+03  0.27440184130E+03  0.99602185693E+03  0.90214778427E+02 0.  0.
        254    2    1    2    0    0 -0.38490235172E+03 -0.87205197229E+03  0.57565401890E+03  0.14317209558E+04  0.89990159625E+03 0.  0.
        -24    2    4    4    0    0 -0.75929658301E+02  0.11465002287E+03  0.32959678212E+03  0.36600294762E+03  0.80088564272E+02 0.  0.
         24    2    4    4    0    0 -0.30897269341E+03 -0.98670199516E+03  0.24605723678E+03  0.10657180081E+04  0.78522331706E+02 0.  0.
         13    1    3    3    0    0  0.94241787744E+02  0.14772397572E+03  0.74163307255E+02  0.19027370733E+03  0.00000000000E+00 0. -1.
        -13    1    3    3    0    0  0.29066056397E+03  0.72432799657E+03  0.20023853405E+03  0.80574814960E+03  0.00000000000E+00 0.  1.
          2    1    6    6  502    0 -0.21237164251E+03 -0.55281826759E+03  0.12996735180E+03  0.60630129809E+03  0.00000000000E+00 0. -1.
          1    1    5    5  503    0 -0.98944842824E+01  0.17020099072E+02  0.14933792068E+03  0.15063000745E+03  0.00000000000E+00 0. -1.
         -2    1    5    5    0  503 -0.66035174018E+02  0.97629923794E+02  0.18025886144E+03  0.21537294016E+03  0.00000000000E+00 0.  1.
         -1    1    6    6    0  502 -0.96601050904E+02 -0.43388372756E+03  0.11608988498E+03  0.45941671005E+03  0.00000000000E+00 0.  1.
<mgrwt>
<rscale>  0 0.22740581E+04</rscale>
<asrwt>0</asrwt>
<pdfrwt beam="1">  1        1 0.25213836E+00 0.22740581E+04</pdfrwt>
<pdfrwt beam="2">  1       -1 0.12136054E+00 0.22740581E+04</pdfrwt>
<totfact> 0.28623123E+00</totfact>
</mgrwt>
</event>
<event>
12    1  0.2433511E-007  0.4214193E+04  0.7818608E-02  0.7962678E-01
         -2   -1    0    0    0  501 -0.00000000000E+00  0.00000000000E+00  0.11274406277E+04  0.11274406277E+04  0.00000000000E+00 0.  1.
          2   -1    0    0  501    0  0.00000000000E+00 -0.00000000000E+00 -0.39379946828E+04  0.39379946828E+04  0.00000000000E+00 0. -1.
         23    2    1    2    0    0 -0.19485618244E+04  0.45800694593E+03 -0.15647916423E+04  0.25423555808E+04  0.91298790897E+02 0.  0.
        254    2    1    2    0    0  0.19485618244E+04 -0.45800694593E+03 -0.12457624128E+04  0.25230797298E+04  0.89852311469E+03 0.  0.
        -24    2    4    4    0    0  0.11296310056E+03  0.18448444745E+03 -0.23810738405E+03  0.33120154346E+03  0.78766506929E+02 0.  0.
         24    2    4    4    0    0  0.18355987239E+04 -0.64249139338E+03 -0.10076550287E+04  0.21918781863E+04  0.82118579739E+02 0.  0.
         11    1    3    3    0    0 -0.16519166733E+04  0.36226230006E+03 -0.13478163262E+04  0.21625613329E+04  0.00000000000E+00 0. -1.
        -11    1    3    3    0    0 -0.29664515115E+03  0.95744645873E+02 -0.21697531613E+03  0.37979424788E+03  0.00000000000E+00 0.  1.
          4    1    6    6  502    0  0.11182307475E+04 -0.34903865642E+03 -0.60175140738E+03  0.13169558628E+04  0.00000000000E+00 0. -1.
          3    1    5    5  503    0  0.55560799442E+02  0.14437948241E+03 -0.19522893107E+03  0.24909189650E+03  0.00000000000E+00 0. -1.
         -4    1    5    5    0  503  0.57402301115E+02  0.40104965035E+02 -0.42878452983E+02  0.82109646961E+02  0.00000000000E+00 0.  1.
         -3    1    6    6    0  502  0.71736797638E+03 -0.29345273696E+03 -0.40590362136E+03  0.87492232353E+03  0.00000000000E+00 0.  1.
<mgrwt>
<rscale>  0 0.42141928E+04</rscale>
<asrwt>0</asrwt>
<pdfrwt beam="1">  1        2 0.60584533E+00 0.42141928E+04</pdfrwt>
<pdfrwt beam="2">  1       -2 0.17345241E+00 0.42141928E+04</pdfrwt>
<totfact> 0.59715329E-02</totfact>
</mgrwt>
</event>
<event>
12    1  0.2433511E-007  0.1187198E+04  0.7818608E-02  0.9124136E-01
         -2   -1    0    0    0  501 -0.00000000000E+00  0.00000000000E+00  0.23541032709E+03  0.23541032709E+03  0.00000000000E+00 0. -1.
          2   -1    0    0  501    0  0.00000000000E+00 -0.00000000000E+00 -0.14967908212E+04  0.14967908212E+04  0.00000000000E+00 0.  1.
         23    2    1    2    0    0 -0.35936234678E+02  0.19854706554E+03 -0.83341753471E+02  0.23669383175E+03  0.91464593811E+02 0.  0.
        254    2    1    2    0    0  0.35936234678E+02 -0.19854706554E+03 -0.11780387407E+04  0.14955073166E+04  0.89891852200E+03 0.  0.
        -24    2    4    4    0    0 -0.23540520526E+02  0.13727904691E+03  0.87208761152E+02  0.18244279116E+03  0.79248414479E+02 0.  0.
         24    2    4    4    0    0  0.59476755204E+02 -0.33582611245E+03 -0.12652475018E+04  0.13130645254E+04  0.83489788586E+02 0.  0.
         11    1    3    3    0    0  0.26125142874E+01  0.16199814247E+03 -0.36977872953E+02  0.16618539792E+03  0.00000000000E+00 0. -1.
        -11    1    3    3    0    0 -0.38548748966E+02  0.36548923068E+02 -0.46363880518E+02  0.70508433828E+02  0.00000000000E+00 0.  1.
          2    1    6    6  502    0  0.51020983718E+01  0.43768184144E+00 -0.36447056204E+01  0.62854476570E+01  0.00000000000E+00 0. -1.
          1    1    5    5  503    0 -0.50491443512E+02  0.67530977443E+02  0.57101412778E+02  0.10183511243E+03  0.00000000000E+00 0. -1.
         -2    1    5    5    0  503  0.26950922986E+02  0.69748069465E+02  0.30107348374E+02  0.80607678728E+02  0.00000000000E+00 0.  1.
         -1    1    6    6    0  502  0.54374656832E+02 -0.33626379429E+03 -0.12616027962E+04  0.13067790778E+04  0.00000000000E+00 0.  1.
<mgrwt>
<rscale>  0 0.11871984E+04</rscale>
<asrwt>0</asrwt>
<pdfrwt beam="1">  1        2 0.23027550E+00 0.11871984E+04</pdfrwt>
<pdfrwt beam="2">  1       -2 0.36216975E-01 0.11871984E+04</pdfrwt>
<totfact> 0.90253565E+01</totfact>
</mgrwt>
</event>
<event>
12    1  0.2433511E-007  0.1266127E+04  0.7818608E-02  0.9056867E-01
         -1   -1    0    0    0  501 -0.00000000000E+00  0.00000000000E+00  0.11483528634E+03  0.11483528634E+03  0.00000000000E+00 0.  1.
          1   -1    0    0  501    0  0.00000000000E+00 -0.00000000000E+00 -0.34899494621E+04  0.34899494621E+04  0.00000000000E+00 0. -1.
         23    2    1    2    0    0 -0.22082507682E+03 -0.76651208664E+02 -0.29779825489E+03  0.39028589114E+03  0.94869140754E+02 0.  0.
        254    2    1    2    0    0  0.22082507682E+03  0.76651208664E+02 -0.30773159209E+04  0.32144988573E+04  0.89916100023E+03 0.  0.
        -24    2    4    4    0    0 -0.26210888071E+03 -0.17153779643E+03 -0.64996210208E+03  0.72590572133E+03  0.79762780584E+02 0.  0.
         24    2    4    4    0    0  0.48293395753E+03  0.24818900510E+03 -0.24273538188E+04  0.24885931360E+04  0.78906559712E+02 0.  0.
         13    1    3    3    0    0 -0.22044155884E+03 -0.86322658099E+02 -0.26160983602E+03  0.35282543625E+03  0.00000000000E+00 0.  1.
        -13    1    3    3    0    0 -0.38351798184E+00  0.96714494349E+01 -0.36188418875E+02  0.37460454894E+02  0.00000000000E+00 0. -1.
          4    1    6    6  502    0  0.32464707362E+03  0.19692065768E+03 -0.17946730974E+04  0.18344004455E+04  0.00000000000E+00 0. -1.
          3    1    5    5  503    0 -0.21426889869E+03 -0.16104153997E+03 -0.48883399240E+03  0.55749817100E+03  0.00000000000E+00 0. -1.
         -4    1    5    5    0  503 -0.47839982022E+02 -0.10496256466E+02 -0.16112810968E+03  0.16840755033E+03  0.00000000000E+00 0.  1.
         -3    1    6    6    0  502  0.15828688391E+03  0.51268347422E+02 -0.63268072142E+03  0.65419269051E+03  0.00000000000E+00 0.  1.
<mgrwt>
<rscale>  0 0.12661269E+04</rscale>
<asrwt>0</asrwt>
<pdfrwt beam="1">  1        1 0.53691525E+00 0.12661269E+04</pdfrwt>
<pdfrwt beam="2">  1       -1 0.17666969E-01 0.12661269E+04</pdfrwt>
<totfact> 0.64255425E+00</totfact>
</mgrwt>
</event>
<event>
12    1  0.2433511E-007  0.3249020E+04  0.7818608E-02  0.8175990E-01
          2   -1    0    0  501    0  0.00000000000E+00  0.00000000000E+00  0.13895538402E+04  0.13895538402E+04  0.00000000000E+00 0.  1.
         -2   -1    0    0    0  501 -0.00000000000E+00 -0.00000000000E+00 -0.18991945319E+04  0.18991945319E+04  0.00000000000E+00 0. -1.
         23    2    1    2    0    0 -0.14268757518E+04 -0.41762058198E+03 -0.45780748548E+02  0.14902000196E+04  0.90657927396E+02 0.  0.
        254    2    1    2    0    0  0.14268757518E+04  0.41762058198E+03 -0.46385994313E+03  0.17985483525E+04  0.89957143573E+03 0.  0.
        -24    2    4    4    0    0  0.15044341074E+04  0.34886250312E+03 -0.55044241313E+03  0.16414167318E+04  0.78962066125E+02 0.  0.
         24    2    4    4    0    0 -0.77558355550E+02  0.68758078856E+02  0.86582469997E+02  0.15713162071E+03  0.80317184905E+02 0.  0.
         13    1    3    3    0    0 -0.81651426155E+03 -0.28136440896E+03 -0.45192755728E+02  0.86481434719E+03  0.00000000000E+00 0. -1.
        -13    1    3    3    0    0 -0.61036149028E+03 -0.13625617301E+03 -0.58799282026E+00  0.62538567240E+03  0.00000000000E+00 0.  1.
          2    1    6    6  502    0 -0.84922597429E+02  0.73643196964E+02  0.56557041503E+02  0.12583269431E+03  0.00000000000E+00 0. -1.
          1    1    5    5  503    0  0.79468719687E+03  0.21022777764E+03 -0.26072286214E+03  0.86238035124E+03  0.00000000000E+00 0. -1.
         -2    1    5    5    0  503  0.70974691051E+03  0.13863472548E+03 -0.28971955098E+03  0.77903638061E+03  0.00000000000E+00 0.  1.
         -1    1    6    6    0  502  0.73642418796E+01 -0.48851181077E+01  0.30025428493E+02  0.31298926397E+02  0.00000000000E+00 0.  1.
<mgrwt>
<rscale>  0 0.32490202E+04</rscale>
<asrwt>0</asrwt>
<pdfrwt beam="1">  1        2 0.21377751E+00 0.32490202E+04</pdfrwt>
<pdfrwt beam="2">  1       -2 0.29218377E+00 0.32490202E+04</pdfrwt>
<totfact> 0.43656848E-01</totfact>
</mgrwt>
</event>
<event>
12    1  0.2433511E-007  0.1591739E+04  0.7818608E-02  0.8825639E-01
          2   -1    0    0  501    0  0.00000000000E+00  0.00000000000E+00  0.92877697779E+03  0.92877697779E+03  0.00000000000E+00 0. -1.
         -2   -1    0    0    0  501 -0.00000000000E+00 -0.00000000000E+00 -0.68198058251E+03  0.68198058251E+03  0.00000000000E+00 0.  1.
         23    2    1    2    0    0  0.51323709678E+03 -0.14477318363E+03  0.14002033882E+03  0.55880820519E+03  0.91045717554E+02 0.  0.
        254    2    1    2    0    0 -0.51323709678E+03  0.14477318363E+03  0.10677605646E+03  0.10519493551E+04  0.90045806525E+03 0.  0.
        -24    2    4    4    0    0 -0.23297789110E+03 -0.37143913487E+03  0.11029221464E+03  0.45913921254E+03  0.79991969823E+02 0.  0.
         24    2    4    4    0    0 -0.28025920569E+03  0.51621231850E+03 -0.35161581797E+01  0.59281014257E+03  0.79944490881E+02 0.  0.
         13    1    3    3    0    0  0.43044184028E+03 -0.12611771595E+03  0.15090480704E+03  0.47324213351E+03  0.00000000000E+00 0. -1.
        -13    1    3    3    0    0  0.82795256502E+02 -0.18655467689E+02 -0.10884468217E+02  0.85566071678E+02  0.00000000000E+00 0.  1.
          2    1    6    6  502    0 -0.18213629758E+03  0.37901571143E+03 -0.32100694500E+02  0.42173095096E+03  0.00000000000E+00 0. -1.
          3    1    5    5  503    0 -0.19974304989E+03 -0.35373664056E+03  0.11217042948E+03  0.42143694914E+03  0.00000000000E+00 0. -1.
         -4    1    5    5    0  503 -0.33234841203E+02 -0.17702494306E+02 -0.18782148399E+01  0.37702263399E+02  0.00000000000E+00 0.  1.
         -1    1    6    6    0  502 -0.98122908105E+02  0.13719660707E+03  0.28584536320E+02  0.17107919162E+03  0.00000000000E+00 0.  1.
<mgrwt>
<rscale>  0 0.15917385E+04</rscale>
<asrwt>0</asrwt>
<pdfrwt beam="1">  1        2 0.14288877E+00 0.15917385E+04</pdfrwt>
<pdfrwt beam="2">  1       -2 0.10492009E+00 0.15917385E+04</pdfrwt>
<totfact> 0.19820079E+01</totfact>
</mgrwt>
</event>
<event>
12    1  0.3114081E-007  0.3395834E+04  0.7818608E-02  0.8138929E-01
          2   -1    0    0  501    0  0.00000000000E+00  0.00000000000E+00  0.17235398953E+04  0.17235398953E+04  0.00000000000E+00 0. -1.
         -2   -1    0    0    0  501 -0.00000000000E+00 -0.00000000000E+00 -0.16726754187E+04  0.16726754187E+04  0.00000000000E+00 0.  1.
         23    2    1    2    0    0 -0.13434521076E+04  0.81323880130E+03  0.16837376725E+03  0.15820246751E+04  0.90727248603E+02 0.  0.
        254    2    1    2    0    0  0.13434521076E+04 -0.81323880130E+03 -0.11750929061E+03  0.18141906389E+04  0.90069879961E+03 0.  0.
        -24    2    4    4    0    0  0.14527097231E+03  0.38043339228E+02  0.24483215088E+03  0.29818600682E+03  0.80132150237E+02 0.  0.
         24    2    4    4    0    0  0.11981811353E+04 -0.85128214053E+03 -0.36234144149E+03  0.15160046321E+04  0.81605199481E+02 0.  0.
         11    1    3    3    0    0 -0.61757056568E+03  0.42250242041E+03  0.62129430918E+02  0.75084070549E+03  0.00000000000E+00 0. -1.
        -11    1    3    3    0    0 -0.72588154192E+03  0.39073638090E+03  0.10624433633E+03  0.83118396956E+03  0.00000000000E+00 0.  1.
          2    1    6    6  502    0  0.44659982525E+02 -0.52685827916E+02 -0.15624078220E+02  0.70812585905E+02  0.00000000000E+00 0. -1.
          3    1    5    5  503    0  0.16109866026E+02 -0.22346111367E+02  0.36297555967E+02  0.45567412103E+02  0.00000000000E+00 0. -1.
         -4    1    5    5    0  503  0.12916110629E+03  0.60389450595E+02  0.20853459492E+03  0.25261859472E+03  0.00000000000E+00 0.  1.
         -1    1    6    6    0  502  0.11535211528E+04 -0.79859631261E+03 -0.34671736327E+03  0.14451920462E+04  0.00000000000E+00 0.  1.
<mgrwt>
<rscale>  0 0.33958344E+04</rscale>
<asrwt>0</asrwt>
<pdfrwt beam="1">  1        2 0.26515998E+00 0.33958344E+04</pdfrwt>
<pdfrwt beam="2">  1       -2 0.25733468E+00 0.33958344E+04</pdfrwt>
<totfact> 0.45683335E-01</totfact>
</mgrwt>
</event>
<event>
12    1  0.2433511E-007  0.1725002E+04  0.7818608E-02  0.8747232E-01
          2   -1    0    0  501    0  0.00000000000E+00  0.00000000000E+00  0.25047745575E+04  0.25047745575E+04  0.00000000000E+00 0. -1.
         -2   -1    0    0    0  501 -0.00000000000E+00 -0.00000000000E+00 -0.29699591680E+03  0.29699591680E+03  0.00000000000E+00 0.  1.
         23    2    1    2    0    0 -0.58660804187E+03  0.47227059847E+02  0.11423344204E+04  0.12885087440E+04  0.94802243548E+02 0.  0.
        254    2    1    2    0    0  0.58660804187E+03 -0.47227059847E+02  0.10654442202E+04  0.15132617302E+04  0.89913863656E+03 0.  0.
        -24    2    4    4    0    0  0.23471194332E+03  0.10260520958E+03 -0.99399970092E+02  0.28493354443E+03  0.75427086100E+02 0.  0.
         24    2    4    4    0    0  0.35189609855E+03 -0.14983226943E+03  0.11648441903E+04  0.12283281858E+04  0.75150323678E+02 0.  0.
         11    1    3    3    0    0 -0.36524760526E+03 -0.10949815161E+01  0.77795937380E+03  0.85943458123E+03  0.00000000000E+00 0. -1.
        -11    1    3    3    0    0 -0.22136043661E+03  0.48322041363E+02  0.36437504664E+03  0.42907416281E+03  0.00000000000E+00 0.  1.
          2    1    6    6  502    0  0.22394962810E+03 -0.11901352502E+03  0.67358236190E+03  0.71974360249E+03  0.00000000000E+00 0. -1.
          3    1    5    5  503    0  0.22610785270E+03  0.10110717786E+03 -0.74651865244E+02  0.25868962765E+03  0.00000000000E+00 0. -1.
         -4    1    5    5    0  503  0.86040906157E+01  0.14980317169E+01 -0.24748104848E+02  0.26243916779E+02  0.00000000000E+00 0.  1.
         -1    1    6    6    0  502  0.12794647045E+03 -0.30818744405E+02  0.49126182841E+03  0.50858458329E+03  0.00000000000E+00 0.  1.
<mgrwt>
<rscale>  0 0.17250018E+04</rscale>
<asrwt>0</asrwt>
<pdfrwt beam="1">  1        2 0.38534992E+00 0.17250018E+04</pdfrwt>
<pdfrwt beam="2">  1       -2 0.45691681E-01 0.17250018E+04</pdfrwt>
<totfact> 0.14943422E+01</totfact>
</mgrwt>
</event>
<event>
12    1  0.2433511E-007  0.1538457E+04  0.7818608E-02  0.8859275E-01
         -2   -1    0    0    0  501 -0.00000000000E+00  0.00000000000E+00  0.56679685309E+03  0.56679685309E+03  0.00000000000E+00 0.  1.
          2   -1    0    0  501    0  0.00000000000E+00 -0.00000000000E+00 -0.10439582234E+04  0.10439582234E+04  0.00000000000E+00 0. -1.
         23    2    1    2    0    0  0.36789327240E+03  0.31511340611E+03 -0.29168872668E+03  0.57284837738E+03  0.91820649137E+02 0.  0.
        254    2    1    2    0    0 -0.36789327240E+03 -0.31511340611E+03 -0.18547264361E+03  0.10379066991E+04  0.89900405778E+03 0.  0.
        -24    2    4    4    0    0 -0.33115825625E+03 -0.49288677818E+03  0.17702578215E+03  0.62474918540E+03  0.79813847975E+02 0.  0.
         24    2    4    4    0    0 -0.36735016155E+02  0.17777337207E+03 -0.36249842576E+03  0.41315751369E+03  0.79631584262E+02 0.  0.
         11    1    3    3    0    0  0.36838997812E+03  0.31348607873E+03 -0.29676254568E+03  0.56749687757E+03  0.00000000000E+00 0. -1.
        -11    1    3    3    0    0 -0.49670571328E+00  0.16273273718E+01  0.50738190002E+01  0.53514998073E+01  0.00000000000E+00 0.  1.
          4    1    6    6  502    0  0.17224947584E+02  0.10084659895E+03 -0.15988431612E+03  0.18981498856E+03  0.00000000000E+00 0. -1.
          3    1    5    5  503    0 -0.12761776409E+03 -0.12890481780E+03  0.67875050790E+02  0.19367438727E+03  0.00000000000E+00 0. -1.
         -4    1    5    5    0  503 -0.20354049215E+03 -0.36398196038E+03  0.10915073136E+03  0.43107479813E+03  0.00000000000E+00 0.  1.
         -3    1    6    6    0  502 -0.53959963740E+02  0.76926773124E+02 -0.20261410964E+03  0.22334252514E+03  0.00000000000E+00 0.  1.
<mgrwt>
<rscale>  0 0.15384567E+04</rscale>
<asrwt>0</asrwt>
<pdfrwt beam="1">  1        2 0.16060896E+00 0.15384567E+04</pdfrwt>
<pdfrwt beam="2">  1       -2 0.87199517E-01 0.15384567E+04</pdfrwt>
<totfact> 0.25862972E+01</totfact>
</mgrwt>
</event>
<event>
12    1  0.2433511E-007  0.2586782E+04  0.7818608E-02  0.8372705E-01
          2   -1    0    0  501    0  0.00000000000E+00  0.00000000000E+00  0.30865882891E+04  0.30865882891E+04  0.00000000000E+00 0.  1.
         -2   -1    0    0    0  501 -0.00000000000E+00 -0.00000000000E+00 -0.54197695966E+03  0.54197695966E+03  0.00000000000E+00 0. -1.
         23    2    1    2    0    0  0.36261935575E+03 -0.10631459816E+04  0.13450670342E+04  0.17547634892E+04  0.90649881988E+02 0.  0.
        254    2    1    2    0    0 -0.36261935575E+03  0.10631459816E+04  0.11995442952E+04  0.18738017595E+04  0.90025237717E+03 0.  0.
        -24    2    4    4    0    0  0.26421471328E+03  0.12710271647E+03  0.32666235090E+03  0.44646159446E+03  0.81579094062E+02 0.  0.
         24    2    4    4    0    0 -0.62683406903E+03  0.93604326512E+03  0.87288194427E+03  0.14273401651E+04  0.79240860013E+02 0.  0.
         13    1    3    3    0    0  0.52980864264E+02 -0.23649017086E+03  0.24971792219E+03  0.34798507663E+03  0.00000000000E+00 0. -1.
        -13    1    3    3    0    0  0.30963849149E+03 -0.82665581073E+03  0.10953491120E+04  0.14067784126E+04  0.00000000000E+00 0.  1.
          4    1    6    6  502    0 -0.39420988720E+03  0.51849312857E+03  0.49987893461E+03  0.82104537561E+03  0.00000000000E+00 0. -1.
          1    1    5    5  503    0  0.26402883969E+03  0.13388705938E+03  0.31088276389E+03  0.42928436466E+03  0.00000000000E+00 0. -1.
         -2    1    5    5    0  503  0.18587359235E+00 -0.67843429050E+01  0.15779587009E+02  0.17177229806E+02  0.00000000000E+00 0.  1.
         -3    1    6    6    0  502 -0.23262418183E+03  0.41755013655E+03  0.37300300966E+03  0.60629478945E+03  0.00000000000E+00 0.  1.
<mgrwt>
<rscale>  0 0.25867816E+04</rscale>
<asrwt>0</asrwt>
<pdfrwt beam="1">  1        2 0.47485973E+00 0.25867816E+04</pdfrwt>
<pdfrwt beam="2">  1       -2 0.83381073E-01 0.25867816E+04</pdfrwt>
<totfact> 0.17109234E+00</totfact>
</mgrwt>
</event>
<event>
12    1  0.2433511E-007  0.1389306E+04  0.7818608E-02  0.8961596E-01
          1   -1    0    0  501    0  0.00000000000E+00  0.00000000000E+00  0.11241708353E+04  0.11241708353E+04  0.00000000000E+00 0. -1.
         -1   -1    0    0    0  501 -0.00000000000E+00 -0.00000000000E+00 -0.42924353876E+03  0.42924353876E+03  0.00000000000E+00 0.  1.
         23    2    1    2    0    0 -0.27216912701E+03  0.28022878234E+03  0.27919652254E+03  0.48837489872E+03  0.89191587882E+02 0.  0.
        254    2    1    2    0    0  0.27216912701E+03 -0.28022878234E+03  0.41573077398E+03  0.10650394753E+04  0.89937356166E+03 0.  0.
        -24    2    4    4    0    0 -0.13859943796E+03  0.16217128497E+03  0.39440182430E+03  0.45579694899E+03  0.81784655214E+02 0.  0.
         24    2    4    4    0    0  0.41076856497E+03 -0.44240006731E+03  0.21328949683E+02  0.60924252633E+03  0.79201630473E+02 0.  0.
         13    1    3    3    0    0 -0.13451229271E+03  0.15405114655E+03  0.92976483866E+02  0.22465515618E+03  0.00000000000E+00 0.  1.
        -13    1    3    3    0    0 -0.13765683430E+03  0.12617763579E+03  0.18622003867E+03  0.26371974254E+03  0.00000000000E+00 0. -1.
          2    1    6    6  502    0  0.24065044575E+03 -0.30611918970E+03 -0.69064198722E+01  0.38944742133E+03  0.00000000000E+00 0. -1.
          3    1    5    5  503    0 -0.88051292809E+02  0.14789125769E+03  0.33407590768E+03  0.37580788491E+03  0.00000000000E+00 0. -1.
         -4    1    5    5    0  503 -0.50548145148E+02  0.14280027277E+02  0.60325916623E+02  0.79989064086E+02  0.00000000000E+00 0.  1.
         -1    1    6    6    0  502  0.17011811922E+03 -0.13628087761E+03  0.28235369555E+02  0.21979510500E+03  0.00000000000E+00 0.  1.
<mgrwt>
<rscale>  0 0.13893064E+04</rscale>
<asrwt>0</asrwt>
<pdfrwt beam="1">  1        1 0.17294936E+00 0.13893064E+04</pdfrwt>
<pdfrwt beam="2">  1       -1 0.66037468E-01 0.13893064E+04</pdfrwt>
<totfact> 0.27578629E+01</totfact>
</mgrwt>
</event>
<event>
12    1  0.2433511E-007  0.1486608E+04  0.7818608E-02  0.8893408E-01
         -2   -1    0    0    0  501 -0.00000000000E+00  0.00000000000E+00  0.13821691810E+03  0.13821691810E+03  0.00000000000E+00 0.  1.
          2   -1    0    0  501    0  0.00000000000E+00 -0.00000000000E+00 -0.39973438968E+04  0.39973438968E+04  0.00000000000E+00 0. -1.
         23    2    1    2    0    0 -0.41275453709E+03 -0.11060803195E+03 -0.70356215490E+03  0.82821455234E+03  0.91319189025E+02 0.  0.
        254    2    1    2    0    0  0.41275453709E+03  0.11060803195E+03 -0.31555648238E+04  0.33073462626E+04  0.89350405628E+03 0.  0.
        -24    2    4    4    0    0  0.42167116426E+03  0.15872418303E+03 -0.62521056459E+03  0.77524953411E+03  0.84401735862E+02 0.  0.
         24    2    4    4    0    0 -0.89166271637E+01 -0.48116151088E+02 -0.25303542592E+04  0.25320967285E+04  0.80165421773E+02 0.  0.
         13    1    3    3    0    0 -0.99857928758E+02 -0.48173521980E+02 -0.25192025489E+03  0.27523827673E+03  0.00000000000E+00 0. -1.
        -13    1    3    3    0    0 -0.31289660833E+03 -0.62434509966E+02 -0.45164190001E+03  0.55297627561E+03  0.00000000000E+00 0.  1.
          4    1    6    6  502    0  0.24719939974E+02 -0.23381164174E+02 -0.43577047361E+03  0.43709685419E+03  0.00000000000E+00 0. -1.
          3    1    5    5  503    0  0.12428353682E+03  0.61242547535E+02 -0.13357123149E+03  0.19245342562E+03  0.00000000000E+00 0. -1.
         -4    1    5    5    0  503  0.29738762743E+03  0.97481635498E+02 -0.49163933310E+03  0.58279610848E+03  0.00000000000E+00 0.  1.
         -3    1    6    6    0  502 -0.33636567138E+02 -0.24734986914E+02 -0.20945837856E+04  0.20949998743E+04  0.00000000000E+00 0.  1.
<mgrwt>
<rscale>  0 0.14866076E+04</rscale>
<asrwt>0</asrwt>
<pdfrwt beam="1">  1        2 0.61497600E+00 0.14866076E+04</pdfrwt>
<pdfrwt beam="2">  1       -2 0.21264141E-01 0.14866076E+04</pdfrwt>
<totfact> 0.65350601E+00</totfact>
</mgrwt>
</event>
<event>
12    1  0.2433511E-007  0.2319291E+04  0.7818608E-02  0.8470353E-01
         -2   -1    0    0    0  501 -0.00000000000E+00  0.00000000000E+00  0.37778527442E+03  0.37778527442E+03  0.00000000000E+00 0.  1.
          2   -1    0    0  501    0  0.00000000000E+00 -0.00000000000E+00 -0.35596360157E+04  0.35596360157E+04  0.00000000000E+00 0. -1.
         23    2    1    2    0    0 -0.41250892875E+03  0.83407807682E+03 -0.18995744810E+04  0.21166903570E+04  0.78390074575E+02 0.  0.
        254    2    1    2    0    0  0.41250892875E+03 -0.83407807682E+03 -0.12822762603E+04  0.18207309332E+04  0.89720614620E+03 0.  0.
        -24    2    4    4    0    0  0.37229178155E+03 -0.98519016901E+03 -0.12598109606E+04  0.16443649305E+04  0.87244075563E+02 0.  0.
         24    2    4    4    0    0  0.40217147200E+02  0.15111209219E+03 -0.22465299707E+02  0.17636600262E+03  0.78409143952E+02 0.  0.
         13    1    3    3    0    0 -0.34871354156E+03  0.74428184132E+03 -0.17141173488E+04  0.19009878692E+04  0.00000000000E+00 0. -1.
        -13    1    3    3    0    0 -0.63795387185E+02  0.89796235505E+02 -0.18545713221E+03  0.21570248776E+03  0.00000000000E+00 0.  1.
          4    1    6    6  502    0  0.34198926669E+02  0.16019777142E+03 -0.23204497004E+02  0.16544286396E+03  0.00000000000E+00 0. -1.
          3    1    5    5  503    0  0.87878620194E+02 -0.32830101831E+03 -0.37072881956E+03  0.50293545129E+03  0.00000000000E+00 0. -1.
         -4    1    5    5    0  503  0.28441316135E+03 -0.65688915070E+03 -0.88908214099E+03  0.11414294792E+04  0.00000000000E+00 0.  1.
         -3    1    6    6    0  502  0.60182205313E+01 -0.90856792361E+01  0.73919729691E+00  0.10923138660E+02  0.00000000000E+00 0.  1.
<mgrwt>
<rscale>  0 0.23192913E+04</rscale>
<asrwt>0</asrwt>
<pdfrwt beam="1">  1        2 0.54763631E+00 0.23192913E+04</pdfrwt>
<pdfrwt beam="2">  1       -2 0.58120811E-01 0.23192913E+04</pdfrwt>
<totfact> 0.18552307E+00</totfact>
</mgrwt>
</event>
<event>
12    1  0.2433511E-007  0.1756069E+04  0.7818608E-02  0.8730017E-01
          2   -1    0    0  501    0  0.00000000000E+00  0.00000000000E+00  0.87442351291E+03  0.87442351291E+03  0.00000000000E+00 0. -1.
         -2   -1    0    0    0  501 -0.00000000000E+00 -0.00000000000E+00 -0.88166051728E+03  0.88166051728E+03  0.00000000000E+00 0.  1.
         23    2    1    2    0    0 -0.54948128349E+03  0.16975578722E+03 -0.29090751281E+03  0.65086940950E+03  0.90868581071E+02 0.  0.
        254    2    1    2    0    0  0.54948128349E+03 -0.16975578722E+03  0.28367050844E+03  0.11052146207E+04  0.90015759300E+03 0.  0.
        -24    2    4    4    0    0  0.48622597064E+03  0.12714994262E+03 -0.18458174425E+03  0.54131220021E+03  0.79785182527E+02 0.  0.
         24    2    4    4    0    0  0.63255312848E+02 -0.29690572984E+03  0.46825225269E+03  0.56390242048E+03  0.81064916383E+02 0.  0.
         13    1    3    3    0    0 -0.47515699935E+03  0.11435797844E+03 -0.25688268371E+03  0.55212374923E+03  0.00000000000E+00 0.  1.
        -13    1    3    3    0    0 -0.74324284132E+02  0.55397808775E+02 -0.34024829093E+02  0.98745660277E+02  0.00000000000E+00 0. -1.
          2    1    6    6  502    0  0.64277418839E+02 -0.27254836045E+03  0.37804864889E+03  0.47046251316E+03  0.00000000000E+00 0. -1.
          3    1    5    5  503    0  0.18021489621E+03  0.57501984996E+02 -0.30210094117E+02  0.19156340172E+03  0.00000000000E+00 0. -1.
         -4    1    5    5    0  503  0.30601107443E+03  0.69647957623E+02 -0.15437165013E+03  0.34974879848E+03  0.00000000000E+00 0.  1.
         -1    1    6    6    0  502 -0.10221059910E+01 -0.24357369389E+02  0.90203603790E+02  0.93439907325E+02  0.00000000000E+00 0.  1.
<mgrwt>
<rscale>  0 0.17560691E+04</rscale>
<asrwt>0</asrwt>
<pdfrwt beam="1">  1        2 0.13452669E+00 0.17560691E+04</pdfrwt>
<pdfrwt beam="2">  1       -2 0.13564008E+00 0.17560691E+04</pdfrwt>
<totfact> 0.11269448E+01</totfact>
</mgrwt>
</event>
<event>
12    1  0.2433511E-007  0.1688755E+04  0.7818608E-02  0.8767804E-01
          1   -1    0    0  501    0  0.00000000000E+00  0.00000000000E+00  0.10152526726E+04  0.10152526726E+04  0.00000000000E+00 0. -1.
         -1   -1    0    0    0  501 -0.00000000000E+00 -0.00000000000E+00 -0.70226223473E+03  0.70226223473E+03  0.00000000000E+00 0.  1.
         23    2    1    2    0    0 -0.23351437184E+03 -0.40024850093E+03 -0.27419301480E+03  0.54694548008E+03  0.96123485514E+02 0.  0.
        254    2    1    2    0    0  0.23351437184E+03  0.40024850093E+03  0.58718345270E+03  0.11705694273E+04  0.90040021802E+03 0.  0.
        -24    2    4    4    0    0 -0.31416045445E+03  0.41494593649E+02  0.32438925019E+03  0.46048069305E+03  0.79971811214E+02 0.  0.
         24    2    4    4    0    0  0.54767482628E+03  0.35875390728E+03  0.26279420251E+03  0.71008873424E+03  0.80704004129E+02 0.  0.
         11    1    3    3    0    0 -0.14997236126E+03 -0.23881531946E+03 -0.11231697228E+03  0.30354500195E+03  0.00000000000E+00 0. -1.
        -11    1    3    3    0    0 -0.83542010580E+02 -0.16143318147E+03 -0.16187604252E+03  0.24340047813E+03  0.00000000000E+00 0.  1.
          2    1    6    6  502    0  0.11190889105E+03  0.86497649730E+02  0.91532650598E+02  0.16847453644E+03  0.00000000000E+00 0. -1.
          1    1    5    5  503    0 -0.15651004801E+03  0.11564646655E+02  0.10561353511E+03  0.18916488833E+03  0.00000000000E+00 0. -1.
         -4    1    5    5    0  503 -0.15765040644E+03  0.29929946994E+02  0.21877571509E+03  0.27131580472E+03  0.00000000000E+00 0.  1.
         -1    1    6    6    0  502  0.43576593523E+03  0.27225625755E+03  0.17126155191E+03  0.54161419779E+03  0.00000000000E+00 0.  1.
<mgrwt>
<rscale>  0 0.16887553E+04</rscale>
<asrwt>0</asrwt>
<pdfrwt beam="1">  1        1 0.15619272E+00 0.16887553E+04</pdfrwt>
<pdfrwt beam="2">  1       -1 0.10804034E+00 0.16887553E+04</pdfrwt>
<totfact> 0.11168179E+01</totfact>
</mgrwt>
</event>
<event>
12    1  0.2433511E-007  0.2417629E+04  0.7818608E-02  0.8432933E-01
          2   -1    0    0  501    0  0.00000000000E+00  0.00000000000E+00  0.10663723562E+04  0.10663723562E+04  0.00000000000E+00 0. -1.
         -2   -1    0    0    0  501 -0.00000000000E+00 -0.00000000000E+00 -0.13702839598E+04  0.13702839598E+04  0.00000000000E+00 0.  1.
         23    2    1    2    0    0 -0.97367193417E+03 -0.22794798783E+02 -0.49450287442E+03  0.10959851452E+04  0.89965034486E+02 0.  0.
        254    2    1    2    0    0  0.97367193417E+03  0.22794798783E+02  0.19059127086E+03  0.13406711708E+04  0.90139753579E+03 0.  0.
        -24    2    4    4    0    0  0.10988216730E+04  0.60545608932E+02  0.31282182999E+03  0.11463194144E+04  0.71525258246E+02 0.  0.
         24    2    4    4    0    0 -0.12514973887E+03 -0.37750810148E+02 -0.12223055913E+03  0.19435175645E+03  0.75793897141E+02 0.  0.
         11    1    3    3    0    0 -0.56530129611E+03  0.30928999761E+02 -0.28083113452E+03  0.63197174346E+03  0.00000000000E+00 0. -1.
        -11    1    3    3    0    0 -0.40837063805E+03 -0.53723798544E+02 -0.21367173990E+03  0.46401340173E+03  0.00000000000E+00 0.  1.
          2    1    6    6  502    0 -0.30447943885E+02 -0.42380866536E+02 -0.65922374732E+02  0.84077194443E+02  0.00000000000E+00 0. -1.
          1    1    5    5  503    0  0.26257447622E+03  0.42678446100E+02  0.63141817724E+02  0.27341121863E+03  0.00000000000E+00 0. -1.
         -2    1    5    5    0  503  0.83624719682E+03  0.17867162831E+02  0.24968001226E+03  0.87290819575E+03  0.00000000000E+00 0.  1.
         -1    1    6    6    0  502 -0.94701794986E+02  0.46300563875E+01 -0.56308184399E+02  0.11027456201E+03  0.00000000000E+00 0.  1.
<mgrwt>
<rscale>  0 0.24176294E+04</rscale>
<asrwt>0</asrwt>
<pdfrwt beam="1">  1        2 0.16405729E+00 0.24176294E+04</pdfrwt>
<pdfrwt beam="2">  1       -2 0.21081292E+00 0.24176294E+04</pdfrwt>
<totfact> 0.23220730E+00</totfact>
</mgrwt>
</event>
<event>
12    1  0.2433511E-007  0.1972095E+04  0.7818608E-02  0.8619779E-01
         -2   -1    0    0    0  501 -0.00000000000E+00  0.00000000000E+00  0.86094257800E+03  0.86094257800E+03  0.00000000000E+00 0.  1.
          2   -1    0    0  501    0  0.00000000000E+00 -0.00000000000E+00 -0.11293319884E+04  0.11293319884E+04  0.00000000000E+00 0. -1.
         23    2    1    2    0    0 -0.42306515170E+03 -0.65233221533E+03 -0.14290108270E+03  0.79515580993E+03  0.85618928334E+02 0.  0.
        254    2    1    2    0    0  0.42306515170E+03  0.65233221533E+03 -0.12548832772E+03  0.11951187565E+04  0.89891049608E+03 0.  0.
        -24    2    4    4    0    0  0.13160644646E+03  0.70238903656E+02 -0.43740731664E+03  0.46917621242E+03  0.80915989264E+02 0.  0.
         24    2    4    4    0    0  0.29145870524E+03  0.58209331167E+03  0.31191898891E+03  0.72594254406E+03  0.76930626372E+02 0.  0.
         11    1    3    3    0    0 -0.18346707110E+03 -0.24837475646E+03 -0.94891101194E+02  0.32303948196E+03  0.00000000000E+00 0. -1.
        -11    1    3    3    0    0 -0.23959808060E+03 -0.40395745887E+03 -0.48009981501E+02  0.47211632797E+03  0.00000000000E+00 0.  1.
          2    1    6    6  502    0  0.70398017613E+02  0.94597649649E+02  0.80547161873E+02  0.14280210604E+03  0.00000000000E+00 0. -1.
          1    1    5    5  503    0  0.22055343180E+01 -0.11754037190E+02 -0.71534866535E+02  0.72527642331E+02  0.00000000000E+00 0. -1.
         -2    1    5    5    0  503  0.12940091214E+03  0.81992940845E+02 -0.36587245010E+03  0.39664857009E+03  0.00000000000E+00 0.  1.
         -1    1    6    6    0  502  0.22106068762E+03  0.48749566203E+03  0.23137182704E+03  0.58314043802E+03  0.00000000000E+00 0.  1.
<mgrwt>
<rscale>  0 0.19720953E+04</rscale>
<asrwt>0</asrwt>
<pdfrwt beam="1">  1        2 0.17374338E+00 0.19720953E+04</pdfrwt>
<pdfrwt beam="2">  1       -2 0.13245271E+00 0.19720953E+04</pdfrwt>
<totfact> 0.80608620E+00</totfact>
</mgrwt>
</event>
<event>
12    1  0.2433511E-007  0.1555220E+04  0.7818608E-02  0.8848541E-01
         -2   -1    0    0    0  501 -0.00000000000E+00  0.00000000000E+00  0.28697418942E+03  0.28697418942E+03  0.00000000000E+00 0.  1.
          2   -1    0    0  501    0  0.00000000000E+00 -0.00000000000E+00 -0.21070783189E+04  0.21070783189E+04  0.00000000000E+00 0. -1.
         23    2    1    2    0    0 -0.49020863865E+03 -0.14706956899E+03 -0.58491073038E+03  0.78236206515E+03  0.89643019416E+02 0.  0.
        254    2    1    2    0    0  0.49020863865E+03  0.14706956899E+03 -0.12351933991E+04  0.16116904432E+04  0.89994965633E+03 0.  0.
        -24    2    4    4    0    0  0.72467649045E+03 -0.31261602233E+02 -0.84104129750E+03  0.11134537503E+04  0.79344101210E+02 0.  0.
         24    2    4    4    0    0 -0.23446785180E+03  0.17833117123E+03 -0.39415210162E+03  0.49823669288E+03  0.78145650949E+02 0.  0.
         11    1    3    3    0    0 -0.18586083234E+03 -0.40776198925E+02 -0.28067870692E+03  0.33909804469E+03  0.00000000000E+00 0. -1.
        -11    1    3    3    0    0 -0.30434780631E+03 -0.10629337007E+03 -0.30423202346E+03  0.44326402045E+03  0.00000000000E+00 0.  1.
          4    1    6    6  502    0 -0.35556123010E+02  0.24385642518E+02 -0.11325748022E+03  0.12118644425E+03  0.00000000000E+00 0. -1.
          1    1    5    5  503    0  0.32334134000E+02  0.13933328988E+02 -0.31162266394E+02  0.47018302022E+02  0.00000000000E+00 0. -1.
         -2    1    5    5    0  503  0.69234235645E+03 -0.45194931221E+02 -0.80987903111E+03  0.10664354483E+04  0.00000000000E+00 0.  1.
         -1    1    6    6    0  502 -0.19891172879E+03  0.15394552871E+03 -0.28089462140E+03  0.37705024863E+03  0.00000000000E+00 0.  1.
<mgrwt>
<rscale>  0 0.15552197E+04</rscale>
<asrwt>0</asrwt>
<pdfrwt beam="1">  1        2 0.32416589E+00 0.15552197E+04</pdfrwt>
<pdfrwt beam="2">  1       -2 0.44149876E-01 0.15552197E+04</pdfrwt>
<totfact> 0.27272661E+01</totfact>
</mgrwt>
</event>
<event>
12    1  0.2433511E-007  0.3845748E+04  0.7818608E-02  0.8036408E-01
         -1   -1    0    0    0  501 -0.00000000000E+00  0.00000000000E+00  0.10082836573E+04  0.10082836573E+04  0.00000000000E+00 0.  1.
          1   -1    0    0  501    0  0.00000000000E+00 -0.00000000000E+00 -0.36670684617E+04  0.36670684617E+04  0.00000000000E+00 0. -1.
         23    2    1    2    0    0  0.14829214944E+04 -0.24983625998E+03 -0.24963143370E+04  0.29157006490E+04  0.90833310201E+02 0.  0.
        254    2    1    2    0    0 -0.14829214944E+04  0.24983625998E+03 -0.16247046742E+03  0.17596514699E+04  0.89916757476E+03 0.  0.
        -24    2    4    4    0    0 -0.84338126745E+03  0.36407323260E+03  0.28613361137E+03  0.96591844423E+03  0.85350549857E+02 0.  0.
         24    2    4    4    0    0 -0.63954022697E+03 -0.11423697261E+03 -0.44860407879E+03  0.79373302572E+03  0.81882286164E+02 0.  0.
         13    1    3    3    0    0  0.54734767369E+03 -0.58600706865E+02 -0.85809335013E+03  0.10194840441E+04  0.00000000000E+00 0.  1.
        -13    1    3    3    0    0  0.93557382073E+03 -0.19123555312E+03 -0.16382209869E+04  0.18962166049E+04  0.00000000000E+00 0. -1.
          2    1    6    6  502    0 -0.82525911534E+02 -0.23377543835E+02 -0.29289169634E+02  0.90636036366E+02  0.00000000000E+00 0. -1.
          3    1    5    5  503    0 -0.46603269713E+03  0.15505154922E+03  0.14765383529E+03  0.51286363957E+03  0.00000000000E+00 0. -1.
         -4    1    5    5    0  503 -0.37734857032E+03  0.20902168338E+03  0.13847977608E+03  0.45305480466E+03  0.00000000000E+00 0.  1.
         -1    1    6    6    0  502 -0.55701431543E+03 -0.90859428780E+02 -0.41931490916E+03  0.70309698936E+03  0.00000000000E+00 0.  1.
<mgrwt>
<rscale>  0 0.38457484E+04</rscale>
<asrwt>0</asrwt>
<pdfrwt beam="1">  1        1 0.56416437E+00 0.38457484E+04</pdfrwt>
<pdfrwt beam="2">  1       -1 0.15512056E+00 0.38457484E+04</pdfrwt>
<totfact> 0.46240996E-02</totfact>
</mgrwt>
</event>
<event>
12    1  0.2433511E-007  0.1595705E+04  0.7818608E-02  0.8823191E-01
          2   -1    0    0  501    0  0.00000000000E+00  0.00000000000E+00  0.88166472100E+03  0.88166472100E+03  0.00000000000E+00 0. -1.
         -2   -1    0    0    0  501 -0.00000000000E+00 -0.00000000000E+00 -0.72200755821E+03  0.72200755821E+03  0.00000000000E+00 0.  1.
         23    2    1    2    0    0 -0.26975057109E+03  0.46631838586E+03  0.73522329354E+02  0.55162453884E+03  0.93090769400E+02 0.  0.
        254    2    1    2    0    0  0.26975057109E+03 -0.46631838586E+03  0.86134833433E+02  0.10520477404E+04  0.89953712035E+03 0.  0.
        -24    2    4    4    0    0  0.36479603588E+03  0.84687578909E+01 -0.25690545877E+03  0.45342896048E+03  0.80309026930E+02 0.  0.
         24    2    4    4    0    0 -0.95045464785E+02 -0.47478714375E+03  0.34304029220E+03  0.59861877989E+03  0.78811987157E+02 0.  0.
         11    1    3    3    0    0 -0.12374526687E+03  0.30337344108E+03  0.52624298799E+02  0.33183979968E+03  0.00000000000E+00 0. -1.
        -11    1    3    3    0    0 -0.14600530422E+03  0.16294494478E+03  0.20898030555E+02  0.21978473916E+03  0.00000000000E+00 0.  1.
          4    1    6    6  502    0 -0.36933951379E+02 -0.77203565492E+02  0.35633644131E+02  0.92705252728E+02  0.00000000000E+00 0. -1.
          1    1    5    5  503    0  0.99022529042E+02 -0.27237024781E+02 -0.47300220366E+02  0.11306912763E+03  0.00000000000E+00 0. -1.
         -2    1    5    5    0  503  0.26577350683E+03  0.35705782672E+02 -0.20960523840E+03  0.34035983285E+03  0.00000000000E+00 0.  1.
         -3    1    6    6    0  502 -0.58111513406E+02 -0.39758357825E+03  0.30740664807E+03  0.50591352716E+03  0.00000000000E+00 0.  1.
<mgrwt>
<rscale>  0 0.15957050E+04</rscale>
<asrwt>0</asrwt>
<pdfrwt beam="1">  1        2 0.13564073E+00 0.15957050E+04</pdfrwt>
<pdfrwt beam="2">  1       -2 0.11107809E+00 0.15957050E+04</pdfrwt>
<totfact> 0.18576090E+01</totfact>
</mgrwt>
</event>
<event>
12    1  0.2433511E-007  0.1232244E+04  0.7818608E-02  0.9085092E-01
          2   -1    0    0  501    0  0.00000000000E+00  0.00000000000E+00  0.26356057082E+04  0.26356057082E+04  0.00000000000E+00 0. -1.
         -2   -1    0    0    0  501 -0.00000000000E+00 -0.00000000000E+00 -0.14403011753E+03  0.14403011753E+03  0.00000000000E+00 0.  1.
         23    2    1    2    0    0 -0.31436864561E+02 -0.23275128938E+03  0.25861172813E+03  0.36093921527E+03  0.90750493288E+02 0.  0.
        254    2    1    2    0    0  0.31436864561E+02  0.23275128938E+03  0.22329638625E+04  0.24186966104E+04  0.89933544513E+03 0.  0.
        -24    2    4    4    0    0 -0.39126838015E+03  0.44577214266E+02  0.14604350105E+04  0.15147232492E+04  0.80237324862E+02 0.  0.
         24    2    4    4    0    0  0.42270524471E+03  0.18817407512E+03  0.77252885198E+03  0.90397336125E+03  0.79232595922E+02 0.  0.
         13    1    3    3    0    0  0.11334891912E+02 -0.14462609023E+03  0.10629865100E+03  0.17984601456E+03  0.00000000000E+00 0.  1.
        -13    1    3    3    0    0 -0.42771756474E+02 -0.88125199150E+02  0.15231307713E+03  0.18109320071E+03  0.00000000000E+00 0. -1.
          2    1    6    6  502    0  0.31999962388E+03  0.14528580785E+03  0.51567868479E+03  0.62404505542E+03  0.00000000000E+00 0. -1.
          3    1    5    5  503    0 -0.36314539891E+03  0.19188201852E+02  0.13030766011E+04  0.13528678414E+04  0.00000000000E+00 0. -1.
         -4    1    5    5    0  503 -0.28122981238E+02  0.25389012414E+02  0.15735840938E+03  0.16185540778E+03  0.00000000000E+00 0.  1.
         -1    1    6    6    0  502  0.10270562082E+03  0.42888267264E+02  0.25685016719E+03  0.27992830583E+03  0.00000000000E+00 0.  1.
<mgrwt>
<rscale>  0 0.12322445E+04</rscale>
<asrwt>0</asrwt>
<pdfrwt beam="1">  1        2 0.40547776E+00 0.12322445E+04</pdfrwt>
<pdfrwt beam="2">  1       -2 0.22158482E-01 0.12322445E+04</pdfrwt>
<totfact> 0.51284692E+01</totfact>
</mgrwt>
</event>
<event>
12    1  0.2433511E-007  0.1567485E+04  0.7818608E-02  0.8840776E-01
         -1   -1    0    0    0  501 -0.00000000000E+00  0.00000000000E+00  0.73479125429E+03  0.73479125429E+03  0.00000000000E+00 0.  1.
          1   -1    0    0  501    0  0.00000000000E+00 -0.00000000000E+00 -0.83595471912E+03  0.83595471912E+03  0.00000000000E+00 0. -1.
         23    2    1    2    0    0 -0.49476383163E+03 -0.23252000203E+02  0.13331714448E+03  0.52041059620E+03  0.87873904083E+02 0.  0.
        254    2    1    2    0    0  0.49476383163E+03  0.23252000203E+02 -0.23448060931E+03  0.10503353772E+04  0.89604204359E+03 0.  0.
        -24    2    4    4    0    0  0.21849837833E+03 -0.41954376402E+03 -0.20088534888E+03  0.52120794720E+03  0.86857869924E+02 0.  0.
         24    2    4    4    0    0  0.27626545330E+03  0.44279576423E+03 -0.33595260429E+02  0.52912743001E+03  0.80352387397E+02 0.  0.
         11    1    3    3    0    0 -0.62451256038E+02  0.10815994487E+02  0.45326961761E+02  0.77920976508E+02  0.00000000000E+00 0.  1.
        -11    1    3    3    0    0 -0.43231257560E+03 -0.34067994690E+02  0.87990182718E+02  0.44248961969E+03  0.00000000000E+00 0. -1.
          4    1    6    6  502    0  0.13548288070E+03  0.25967271781E+03  0.14256876103E+02  0.29323845221E+03  0.00000000000E+00 0. -1.
          1    1    5    5  503    0 -0.11433348657E+01 -0.33234305076E+02  0.64742199863E+00  0.33260267644E+02  0.00000000000E+00 0. -1.
         -2    1    5    5    0  503  0.21964171320E+03 -0.38630945895E+03 -0.20153277088E+03  0.48794767956E+03  0.00000000000E+00 0.  1.
         -3    1    6    6    0  502  0.14078257260E+03  0.18312304641E+03 -0.47852136532E+02  0.23588897780E+03  0.00000000000E+00 0.  1.
<mgrwt>
<rscale>  0 0.15674849E+04</rscale>
<asrwt>0</asrwt>
<pdfrwt beam="1">  1        1 0.12860842E+00 0.15674849E+04</pdfrwt>
<pdfrwt beam="2">  1       -1 0.11304481E+00 0.15674849E+04</pdfrwt>
<totfact> 0.14168370E+01</totfact>
</mgrwt>
</event>
<event>
12    1  0.2509867E-007  0.2069609E+04  0.7818608E-02  0.8574750E-01
         -1   -1    0    0    0  501 -0.00000000000E+00  0.00000000000E+00  0.59764216009E+03  0.59764216009E+03  0.00000000000E+00 0.  1.
          1   -1    0    0  501    0  0.00000000000E+00 -0.00000000000E+00 -0.17917409091E+04  0.17917409091E+04  0.00000000000E+00 0. -1.
         23    2    1    2    0    0  0.70733944763E+03  0.17173914484E+03 -0.96122699531E+03  0.12091466326E+04  0.90856010572E+02 0.  0.
        254    2    1    2    0    0 -0.70733944763E+03 -0.17173914484E+03 -0.23287175373E+03  0.11802364366E+04  0.89939166359E+03 0.  0.
        -24    2    4    4    0    0  0.91417254113E+02  0.16222537323E+03 -0.23489559814E+03  0.31075823134E+03  0.81978962247E+02 0.  0.
         24    2    4    4    0    0 -0.79875670174E+03 -0.33396451807E+03  0.20238444151E+01  0.86947820525E+03  0.80272570352E+02 0.  0.
         11    1    3    3    0    0  0.10314739737E+03  0.37767619796E+02 -0.99439919627E+02  0.14816908012E+03  0.00000000000E+00 0.  1.
        -11    1    3    3    0    0  0.60419205026E+03  0.13397152505E+03 -0.86178707568E+03  0.10609775525E+04  0.00000000000E+00 0. -1.
          4    1    6    6  502    0 -0.39221618797E+03 -0.19830632229E+03  0.25685399869E+02  0.44024842457E+03  0.00000000000E+00 0. -1.
          1    1    5    5  503    0  0.16194393468E+02  0.10687250933E+03 -0.10433384904E+03  0.15023163344E+03  0.00000000000E+00 0. -1.
         -2    1    5    5    0  503  0.75222860645E+02  0.55352863899E+02 -0.13056174910E+03  0.16052659790E+03  0.00000000000E+00 0.  1.
         -3    1    6    6    0  502 -0.40654051377E+03 -0.13565819578E+03 -0.23661555454E+02  0.42922978068E+03  0.00000000000E+00 0.  1.
<mgrwt>
<rscale>  0 0.20696086E+04</rscale>
<asrwt>0</asrwt>
<pdfrwt beam="1">  1        1 0.27565244E+00 0.20696086E+04</pdfrwt>
<pdfrwt beam="2">  1       -1 0.91944950E-01 0.20696086E+04</pdfrwt>
<totfact> 0.43834785E+00</totfact>
</mgrwt>
</event>
<event>
12    1  0.2433511E-007  0.1335899E+04  0.7818608E-02  0.9001571E-01
          2   -1    0    0  501    0  0.00000000000E+00  0.00000000000E+00  0.20247727467E+04  0.20247727467E+04  0.00000000000E+00 0. -1.
         -2   -1    0    0    0  501 -0.00000000000E+00 -0.00000000000E+00 -0.22034899181E+03  0.22034899181E+03  0.00000000000E+00 0.  1.
         23    2    1    2    0    0 -0.13017875311E+03  0.20202229974E+03  0.94158395757E+03  0.97606449009E+03  0.91444093858E+02 0.  0.
        254    2    1    2    0    0  0.13017875311E+03 -0.20202229974E+03  0.86283979734E+03  0.12690572484E+04  0.89902962499E+03 0.  0.
        -24    2    4    4    0    0  0.16440418471E+03 -0.35385976542E+03  0.10873857950E+02  0.39943822174E+03  0.84777253267E+02 0.  0.
         24    2    4    4    0    0 -0.34225431598E+02  0.15183746568E+03  0.85196593939E+03  0.86961902670E+03  0.78519383369E+02 0.  0.
         13    1    3    3    0    0 -0.12797723002E+03  0.20094073478E+03  0.94339818079E+03  0.97301360619E+03  0.00000000000E+00 0. -1.
        -13    1    3    3    0    0 -0.22015230879E+01  0.10815649655E+01 -0.18142232233E+01  0.30508839023E+01  0.00000000000E+00 0.  1.
          2    1    6    6  502    0 -0.23795094389E+02  0.15798215233E+03  0.74299469335E+03  0.75997742159E+03  0.00000000000E+00 0. -1.
          3    1    5    5  503    0  0.48795376742E+02 -0.16063059295E+03  0.39471859923E+02  0.17245638263E+03  0.00000000000E+00 0. -1.
         -4    1    5    5    0  503  0.11560880796E+03 -0.19322917247E+03 -0.28598001974E+02  0.22698183912E+03  0.00000000000E+00 0.  1.
         -1    1    6    6    0  502 -0.10430337209E+02 -0.61446866563E+01  0.10897124604E+03  0.10964160511E+03  0.00000000000E+00 0.  1.
<mgrwt>
<rscale>  0 0.13358991E+04</rscale>
<asrwt>0</asrwt>
<pdfrwt beam="1">  1        2 0.31150349E+00 0.13358991E+04</pdfrwt>
<pdfrwt beam="2">  1       -2 0.33899846E-01 0.13358991E+04</pdfrwt>
<totfact> 0.51576232E+01</totfact>
</mgrwt>
</event>
<event>
12    1  0.2433511E-007  0.3485197E+04  0.7818608E-02  0.8117307E-01
         -2   -1    0    0    0  501 -0.00000000000E+00  0.00000000000E+00  0.14550978250E+04  0.14550978250E+04  0.00000000000E+00 0.  1.
          2   -1    0    0  501    0  0.00000000000E+00 -0.00000000000E+00 -0.20869043775E+04  0.20869043775E+04  0.00000000000E+00 0. -1.
         23    2    1    2    0    0 -0.57260081762E+03  0.14202356709E+04  0.25722093769E+03  0.15554351917E+04  0.90966849146E+02 0.  0.
        254    2    1    2    0    0  0.57260081762E+03 -0.14202356709E+04 -0.88902749022E+03  0.19865670108E+04  0.90063175194E+03 0.  0.
        -24    2    4    4    0    0  0.50121020513E+03 -0.11451001474E+04 -0.10636777238E+04  0.16432063525E+04  0.79061999323E+02 0.  0.
         24    2    4    4    0    0  0.71390612494E+02 -0.27513552356E+03  0.17465023357E+03  0.34336065822E+03  0.81225991211E+02 0.  0.
         13    1    3    3    0    0 -0.17951521147E+03  0.51529406180E+03  0.56386724848E+02  0.54857373617E+03  0.00000000000E+00 0. -1.
        -13    1    3    3    0    0 -0.39308560615E+03  0.90494160912E+03  0.20083421284E+03  0.10068614556E+04  0.00000000000E+00 0.  1.
          2    1    6    6  502    0 -0.86003053451E+01 -0.64094510452E-01  0.89993660540E+01  0.12448210695E+02  0.00000000000E+00 0. -1.
          3    1    5    5  503    0  0.23904052100E+03 -0.48459798282E+03 -0.41971618984E+03  0.68420556534E+03  0.00000000000E+00 0. -1.
         -4    1    5    5    0  503  0.26216968413E+03 -0.66050216454E+03 -0.64396153396E+03  0.95900078720E+03  0.00000000000E+00 0.  1.
         -3    1    6    6    0  502  0.79990917839E+02 -0.27507142905E+03  0.16565086752E+03  0.33091244753E+03  0.00000000000E+00 0.  1.
<mgrwt>
<rscale>  0 0.34851973E+04</rscale>
<asrwt>0</asrwt>
<pdfrwt beam="1">  1        2 0.32106221E+00 0.34851973E+04</pdfrwt>
<pdfrwt beam="2">  1       -2 0.22386120E+00 0.34851973E+04</pdfrwt>
<totfact> 0.45937454E-01</totfact>
</mgrwt>
</event>
<event>
12    1  0.2433511E-007  0.1566321E+04  0.7818608E-02  0.8841510E-01
          1   -1    0    0  501    0  0.00000000000E+00  0.00000000000E+00  0.14964009401E+04  0.14964009401E+04  0.00000000000E+00 0. -1.
         -1   -1    0    0    0  501 -0.00000000000E+00 -0.00000000000E+00 -0.40987697485E+03  0.40987697485E+03  0.00000000000E+00 0.  1.
         23    2    1    2    0    0  0.39172071326E+03  0.33568077060E+03  0.43783965825E+03  0.68285743697E+03  0.92000086685E+02 0.  0.
        254    2    1    2    0    0 -0.39172071326E+03 -0.33568077060E+03  0.64868430697E+03  0.12234204780E+04  0.89991090604E+03 0.  0.
        -24    2    4    4    0    0  0.21108842542E+03 -0.21071661461E+03  0.49394360141E+03  0.58367634279E+03  0.87965770239E+02 0.  0.
         24    2    4    4    0    0 -0.60280913868E+03 -0.12496415599E+03  0.15474070556E+03  0.63974413516E+03  0.79579988427E+02 0.  0.
         13    1    3    3    0    0  0.27987159612E+03  0.23752081909E+03  0.25424175365E+03  0.44652336906E+03  0.00000000000E+00 0.  1.
        -13    1    3    3    0    0  0.11184911714E+03  0.98159951504E+02  0.18359790459E+03  0.23633406791E+03  0.00000000000E+00 0. -1.
          4    1    6    6  502    0 -0.60048776492E+03 -0.12204832281E+03  0.14553260950E+03  0.62981035983E+03  0.00000000000E+00 0. -1.
          3    1    5    5  503    0  0.15776346701E+03 -0.20294604216E+03  0.40573713647E+03  0.48031139011E+03  0.00000000000E+00 0. -1.
         -4    1    5    5    0  503  0.53324958408E+02 -0.77705724464E+01  0.88206464942E+02  0.10336495268E+03  0.00000000000E+00 0.  1.
         -3    1    6    6    0  502 -0.23213737583E+01 -0.29158331824E+01  0.92080960615E+01  0.99337753322E+01  0.00000000000E+00 0.  1.
<mgrwt>
<rscale>  0 0.15663209E+04</rscale>
<asrwt>0</asrwt>
<pdfrwt beam="1">  1        1 0.23021553E+00 0.15663209E+04</pdfrwt>
<pdfrwt beam="2">  1       -1 0.63057997E-01 0.15663209E+04</pdfrwt>
<totfact> 0.16146732E+01</totfact>
</mgrwt>
</event>
<event>
12    1  0.2433511E-007  0.2700015E+04  0.7818608E-02  0.8335000E-01
         -1   -1    0    0    0  501 -0.00000000000E+00  0.00000000000E+00  0.15322341622E+04  0.15322341622E+04  0.00000000000E+00 0.  1.
          1   -1    0    0  501    0  0.00000000000E+00 -0.00000000000E+00 -0.11894532610E+04  0.11894532610E+04  0.00000000000E+00 0. -1.
         23    2    1    2    0    0  0.86634484797E+02  0.11404560568E+04 -0.20631972955E+03  0.11658218590E+04  0.91799915871E+02 0.  0.
        254    2    1    2    0    0 -0.86634484797E+02 -0.11404560568E+04  0.54910063070E+03  0.15558655642E+04  0.90058902935E+03 0.  0.
        -24    2    4    4    0    0 -0.41533093319E+03 -0.49256569079E+03  0.12920805138E+02  0.64946020797E+03  0.80689966687E+02 0.  0.
         24    2    4    4    0    0  0.32869644839E+03 -0.64789036605E+03  0.53617982556E+03  0.90640535626E+03  0.79237509510E+02 0.  0.
         11    1    3    3    0    0 -0.16784054125E+02  0.22588812690E+03 -0.26927457345E+02  0.22810576123E+03  0.00000000000E+00 0. -1.
        -11    1    3    3    0    0  0.10341853892E+03  0.91456792994E+03 -0.17939227221E+03  0.93771609776E+03  0.00000000000E+00 0.  1.
          4    1    6    6  502    0  0.48637868722E+02 -0.11263687048E+03  0.12820650242E+03  0.17745313220E+03  0.00000000000E+00 0. -1.
          3    1    5    5  503    0 -0.90503913001E+02 -0.96617361412E+02 -0.29278471449E+02  0.13558429734E+03  0.00000000000E+00 0. -1.
         -4    1    5    5    0  503 -0.32482702019E+03 -0.39594832938E+03  0.42199276587E+02  0.51387591063E+03  0.00000000000E+00 0.  1.
         -3    1    6    6    0  502  0.28005857967E+03 -0.53525349557E+03  0.40797332314E+03  0.72895222406E+03  0.00000000000E+00 0.  1.
<mgrwt>
<rscale>  0 0.27000155E+04</rscale>
<asrwt>0</asrwt>
<pdfrwt beam="1">  1        1 0.18299281E+00 0.27000155E+04</pdfrwt>
<pdfrwt beam="2">  1       -1 0.23572833E+00 0.27000155E+04</pdfrwt>
<totfact> 0.82156045E-01</totfact>
</mgrwt>
</event>
<event>
12    1  0.2433511E-007  0.1897615E+04  0.7818608E-02  0.8656044E-01
          2   -1    0    0  501    0  0.00000000000E+00  0.00000000000E+00  0.56813676433E+03  0.56813676433E+03  0.00000000000E+00 0. -1.
         -2   -1    0    0    0  501 -0.00000000000E+00 -0.00000000000E+00 -0.15845409408E+04  0.15845409408E+04  0.00000000000E+00 0.  1.
         23    2    1    2    0    0  0.30868665369E+03 -0.54184291087E+03  0.41247424848E+02  0.63154210316E+03  0.90900427830E+02 0.  0.
        254    2    1    2    0    0 -0.30868665369E+03  0.54184291087E+03 -0.10576516013E+04  0.15211356019E+04  0.89796738224E+03 0.  0.
        -24    2    4    4    0    0 -0.24263276711E+03 -0.14819753361E+03 -0.56558721052E+02  0.30141534011E+03  0.82578142894E+02 0.  0.
         24    2    4    4    0    0 -0.66053886576E+02  0.69004044448E+03 -0.10010928802E+04  0.12197202618E+04  0.70792876192E+02 0.  0.
         13    1    3    3    0    0  0.40404524991E+02 -0.50265128874E+02 -0.21583574227E+02  0.68007054758E+02  0.00000000000E+00 0. -1.
        -13    1    3    3    0    0  0.26828212869E+03 -0.49157778200E+03  0.62830999075E+02  0.56353504840E+03  0.00000000000E+00 0.  1.
          2    1    6    6  502    0  0.74933341359E+01  0.24871599510E+03 -0.33456688553E+03  0.41695419073E+03  0.00000000000E+00 0. -1.
          3    1    5    5  503    0 -0.26419430712E+02 -0.31320011065E+02 -0.36401279611E+02  0.54808599413E+02  0.00000000000E+00 0. -1.
         -4    1    5    5    0  503 -0.21621333640E+03 -0.11687752254E+03 -0.20157441441E+02  0.24660674070E+03  0.00000000000E+00 0.  1.
         -1    1    6    6    0  502 -0.73547220712E+02  0.44132444938E+03 -0.66652599471E+03  0.80276607110E+03  0.00000000000E+00 0.  1.
<mgrwt>
<rscale>  0 0.18976153E+04</rscale>
<asrwt>0</asrwt>
<pdfrwt beam="1">  1        2 0.87405658E-01 0.18976153E+04</pdfrwt>
<pdfrwt beam="2">  1       -2 0.24377552E+00 0.18976153E+04</pdfrwt>
<totfact> 0.34817935E+00</totfact>
</mgrwt>
</event>
<event>
12    1  0.2433511E-007  0.3447280E+04  0.7818608E-02  0.8126399E-01
         -2   -1    0    0    0  501 -0.00000000000E+00  0.00000000000E+00  0.80261402821E+03  0.80261402821E+03  0.00000000000E+00 0.  1.
          2   -1    0    0  501    0  0.00000000000E+00 -0.00000000000E+00 -0.37015726204E+04  0.37015726204E+04  0.00000000000E+00 0. -1.
         23    2    1    2    0    0  0.90803837520E+03  0.26814982222E+03  0.34144124910E+03  0.10107600530E+04  0.92821010970E+02 0.  0.
        254    2    1    2    0    0 -0.90803837520E+03 -0.26814982222E+03 -0.32403998413E+04  0.34934265957E+04  0.89855452247E+03 0.  0.
        -24    2    4    4    0    0  0.16825409644E+03  0.16488905679E+02 -0.39751640967E+03  0.43924065671E+03  0.79572190970E+02 0.  0.
         24    2    4    4    0    0 -0.10762924716E+04 -0.28463872790E+03 -0.28428834317E+04  0.30541859390E+04  0.81491434839E+02 0.  0.
         11    1    3    3    0    0  0.54600920309E+03  0.17677783725E+03  0.16102762819E+03  0.59607579270E+03  0.00000000000E+00 0. -1.
        -11    1    3    3    0    0  0.36202917211E+03  0.91371984967E+02  0.18041362092E+03  0.41468426026E+03  0.00000000000E+00 0.  1.
          2    1    6    6  502    0 -0.89973198558E+02 -0.14419110047E+02 -0.29400179482E+03  0.30779886704E+03  0.00000000000E+00 0. -1.
          1    1    5    5  503    0  0.49985540218E+02  0.20893651245E+01 -0.21883347527E+03  0.22447941904E+03  0.00000000000E+00 0. -1.
         -4    1    5    5    0  503  0.11826855622E+03  0.14399540555E+02 -0.17868293440E+03  0.21476123767E+03  0.00000000000E+00 0.  1.
         -1    1    6    6    0  502 -0.98631927308E+03 -0.27021961785E+03 -0.25488816368E+04  0.27463870719E+04  0.00000000000E+00 0.  1.
<mgrwt>
<rscale>  0 0.34472796E+04</rscale>
<asrwt>0</asrwt>
<pdfrwt beam="1">  1        2 0.56947270E+00 0.34472796E+04</pdfrwt>
<pdfrwt beam="2">  1       -2 0.12347908E+00 0.34472796E+04</pdfrwt>
<totfact> 0.23707172E-01</totfact>
</mgrwt>
</event>
<event>
12    1  0.2433511E-007  0.3992879E+04  0.7818608E-02  0.8005985E-01
         -1   -1    0    0    0  501 -0.00000000000E+00  0.00000000000E+00  0.38025196961E+04  0.38025196961E+04  0.00000000000E+00 0.  1.
          1   -1    0    0  501    0  0.00000000000E+00 -0.00000000000E+00 -0.10481918510E+04  0.10481918510E+04  0.00000000000E+00 0. -1.
         23    2    1    2    0    0  0.18069992478E+04 -0.54988321823E+03  0.11379437239E+04  0.22070225385E+04  0.91731846281E+02 0.  0.
        254    2    1    2    0    0 -0.18069992478E+04  0.54988321823E+03  0.16163841211E+04  0.26436890085E+04  0.89931980498E+03 0.  0.
        -24    2    4    4    0    0 -0.15533838062E+04  0.90768381132E+02  0.12707463288E+04  0.20106019470E+04  0.80522102478E+02 0.  0.
         24    2    4    4    0    0 -0.25361544161E+03  0.45911483710E+03  0.34563779235E+03  0.63308706151E+03  0.78908289081E+02 0.  0.
         13    1    3    3    0    0  0.93127448313E+03 -0.32915803369E+03  0.57865888557E+03  0.11447546811E+04  0.00000000000E+00 0. -1.
        -13    1    3    3    0    0  0.87572476464E+03 -0.22072518454E+03  0.55928483838E+03  0.10622678574E+04  0.00000000000E+00 0.  1.
          2    1    6    6  502    0 -0.70796389406E+02  0.16543565791E+03  0.15839722372E+03  0.23973061161E+03  0.00000000000E+00 0. -1.
          3    1    5    5  503    0 -0.51027052974E+03  0.56952662476E+02  0.45341780857E+03  0.68498710091E+03  0.00000000000E+00 0. -1.
         -4    1    5    5    0  503 -0.10431132764E+04  0.33815718656E+02  0.81732852022E+03  0.13256148461E+04  0.00000000000E+00 0.  1.
         -1    1    6    6    0  502 -0.18281905221E+03  0.29367917918E+03  0.18724056863E+03  0.39335644990E+03  0.00000000000E+00 0.  1.
<mgrwt>
<rscale>  0 0.39928787E+04</rscale>
<asrwt>0</asrwt>
<pdfrwt beam="1">  1        1 0.16126029E+00 0.39928787E+04</pdfrwt>
<pdfrwt beam="2">  1       -1 0.58500302E+00 0.39928787E+04</pdfrwt>
<totfact> 0.55336441E-03</totfact>
</mgrwt>
</event>
<event>
12    1  0.2801783E-007  0.4401447E+04  0.7818608E-02  0.7928121E-01
          2   -1    0    0  501    0  0.00000000000E+00  0.00000000000E+00  0.26047134918E+04  0.26047134918E+04  0.00000000000E+00 0. -1.
         -2   -1    0    0    0  501 -0.00000000000E+00 -0.00000000000E+00 -0.18593923893E+04  0.18593923893E+04  0.00000000000E+00 0.  1.
         23    2    1    2    0    0  0.68216292533E+03 -0.19177471706E+04  0.91118503441E+03  0.22321110135E+04  0.94662256605E+02 0.  0.
        254    2    1    2    0    0 -0.68216292533E+03  0.19177471706E+04 -0.16586393188E+03  0.22319948676E+04  0.90066074529E+03 0.  0.
        -24    2    4    4    0    0 -0.41658445948E+03  0.10001931398E+04 -0.52705808954E+03  0.12076257755E+04  0.81491442081E+02 0.  0.
         24    2    4    4    0    0 -0.26557846584E+03  0.91755403080E+03  0.36119415766E+03  0.10243690921E+04  0.80209079142E+02 0.  0.
         11    1    3    3    0    0  0.37558050058E+03 -0.11827523410E+04  0.53523349536E+03  0.13514579931E+04  0.00000000000E+00 0. -1.
        -11    1    3    3    0    0  0.30658242475E+03 -0.73499482951E+03  0.37595153905E+03  0.88065302037E+03  0.00000000000E+00 0.  1.
          2    1    6    6  502    0 -0.11764895176E+03  0.27318077736E+03  0.11059609335E+03  0.31733343479E+03  0.00000000000E+00 0. -1.
          1    1    5    5  503    0 -0.15819416577E+03  0.47486227411E+03 -0.22323319459E+03  0.54804437103E+03  0.00000000000E+00 0. -1.
         -2    1    5    5    0  503 -0.25839029371E+03  0.52533086565E+03 -0.30382489495E+03  0.65958140444E+03  0.00000000000E+00 0.  1.
         -1    1    6    6    0  502 -0.14792951409E+03  0.64437325344E+03  0.25059806430E+03  0.70703565731E+03  0.00000000000E+00 0.  1.
<mgrwt>
<rscale>  0 0.44014472E+04</rscale>
<asrwt>0</asrwt>
<pdfrwt beam="1">  1        2 0.40072515E+00 0.44014472E+04</pdfrwt>
<pdfrwt beam="2">  1       -2 0.28606037E+00 0.44014472E+04</pdfrwt>
<totfact> 0.89315629E-02</totfact>
</mgrwt>
</event>
<event>
12    1  0.2433511E-007  0.3438486E+04  0.7818608E-02  0.8128525E-01
         -1   -1    0    0    0  501 -0.00000000000E+00  0.00000000000E+00  0.11455320057E+04  0.11455320057E+04  0.00000000000E+00 0.  1.
          1   -1    0    0  501    0  0.00000000000E+00 -0.00000000000E+00 -0.25802827834E+04  0.25802827834E+04  0.00000000000E+00 0. -1.
         23    2    1    2    0    0 -0.70735189183E+03 -0.12776498015E+02 -0.22248009913E+04  0.23363173375E+04  0.90162703539E+02 0.  0.
        254    2    1    2    0    0  0.70735189183E+03  0.12776498015E+02  0.79005021362E+03  0.13894974515E+04  0.89778276325E+03 0.  0.
        -24    2    4    4    0    0  0.79560000256E+03 -0.26178699806E+03  0.62464276043E+03  0.10478152843E+04  0.78908145880E+02 0.  0.
         24    2    4    4    0    0 -0.88248110730E+02  0.27456349608E+03  0.16540745319E+03  0.34168216720E+03  0.78830421702E+02 0.  0.
         11    1    3    3    0    0 -0.17284414506E+03  0.28736184042E+02 -0.62358019654E+03  0.64772920906E+03  0.00000000000E+00 0. -1.
        -11    1    3    3    0    0 -0.53450774677E+03 -0.41512682057E+02 -0.16012207948E+04  0.16885881285E+04  0.00000000000E+00 0.  1.
          2    1    6    6  502    0 -0.84740521825E+02  0.20467722462E+03  0.90850135567E+02  0.23943155484E+03  0.00000000000E+00 0. -1.
          1    1    5    5  503    0  0.38489287561E+03 -0.88992526110E+02  0.27304834564E+03  0.48022660740E+03  0.00000000000E+00 0. -1.
         -2    1    5    5    0  503  0.41070712695E+03 -0.17279447195E+03  0.35159441479E+03  0.56758867693E+03  0.00000000000E+00 0.  1.
         -1    1    6    6    0  502 -0.35075889056E+01  0.69886271455E+02  0.74557317621E+02  0.10225061236E+03  0.00000000000E+00 0.  1.
<mgrwt>
<rscale>  0 0.34384860E+04</rscale>
<asrwt>0</asrwt>
<pdfrwt beam="1">  1        1 0.39696658E+00 0.34384860E+04</pdfrwt>
<pdfrwt beam="2">  1       -1 0.17623569E+00 0.34384860E+04</pdfrwt>
<totfact> 0.21634443E-01</totfact>
</mgrwt>
</event>
<event>
12    1  0.2433511E-007  0.1867519E+04  0.7818608E-02  0.8671195E-01
         -2   -1    0    0    0  501 -0.00000000000E+00  0.00000000000E+00  0.37848504410E+03  0.37848504410E+03  0.00000000000E+00 0.  1.
          2   -1    0    0  501    0  0.00000000000E+00 -0.00000000000E+00 -0.23036761627E+04  0.23036761627E+04  0.00000000000E+00 0. -1.
         23    2    1    2    0    0  0.70714854723E+03  0.92421517701E+02 -0.79365047092E+03  0.10707439686E+04  0.89502913711E+02 0.  0.
        254    2    1    2    0    0 -0.70714854723E+03 -0.92421517701E+02 -0.11315406477E+04  0.16114172382E+04  0.89871045023E+03 0.  0.
        -24    2    4    4    0    0  0.86309453051E+02  0.22294135467E+03 -0.10498160722E+03  0.27380785667E+03  0.82446559733E+02 0.  0.
         24    2    4    4    0    0 -0.79345800028E+03 -0.31536287238E+03 -0.10265590405E+04  0.13376093815E+04  0.79662126820E+02 0.  0.
         13    1    3    3    0    0  0.22774058709E+03  0.58789252056E+02 -0.30756624629E+03  0.38719368153E+03  0.00000000000E+00 0. -1.
        -13    1    3    3    0    0  0.47940796014E+03  0.33632265646E+02 -0.48608422464E+03  0.68355028709E+03  0.00000000000E+00 0.  1.
          2    1    6    6  502    0 -0.49993264576E+03 -0.17348088774E+03 -0.68257226936E+03  0.86367422771E+03  0.00000000000E+00 0. -1.
          1    1    5    5  503    0 -0.97465903405E+00 -0.55578680225E+01  0.30459848677E+01  0.64123225904E+01  0.00000000000E+00 0. -1.
         -2    1    5    5    0  503  0.87284112085E+02  0.22849922270E+03 -0.10802759209E+03  0.26739553408E+03  0.00000000000E+00 0.  1.
         -1    1    6    6    0  502 -0.29352535452E+03 -0.14188198463E+03 -0.34398677111E+03  0.47393515381E+03  0.00000000000E+00 0.  1.
<mgrwt>
<rscale>  0 0.18675192E+04</rscale>
<asrwt>0</asrwt>
<pdfrwt beam="1">  1        2 0.35441172E+00 0.18675192E+04</pdfrwt>
<pdfrwt beam="2">  1       -2 0.58228469E-01 0.18675192E+04</pdfrwt>
<totfact> 0.11693595E+01</totfact>
</mgrwt>
</event>
<event>
12    1  0.2433511E-007  0.2089780E+04  0.7818608E-02  0.8565759E-01
          1   -1    0    0  501    0  0.00000000000E+00  0.00000000000E+00  0.11323036540E+04  0.11323036540E+04  0.00000000000E+00 0. -1.
         -1   -1    0    0    0  501 -0.00000000000E+00 -0.00000000000E+00 -0.96422445538E+03  0.96422445538E+03  0.00000000000E+00 0.  1.
         23    2    1    2    0    0  0.16302503948E+03  0.79463231179E+03 -0.17966040711E+03  0.83575262010E+03  0.90481521227E+02 0.  0.
        254    2    1    2    0    0 -0.16302503948E+03 -0.79463231179E+03  0.34773960572E+03  0.12607754893E+04  0.90034122782E+03 0.  0.
        -24    2    4    4    0    0  0.17925139284E+03 -0.23819093889E+03  0.49784329964E+03  0.58563823991E+03  0.79108860725E+02 0.  0.
         24    2    4    4    0    0 -0.34227643232E+03 -0.55644137290E+03 -0.15010369391E+03  0.67513724936E+03  0.80616555057E+02 0.  0.
         11    1    3    3    0    0  0.11388994759E+03  0.53881013481E+03 -0.78409189004E+02  0.55626907379E+03  0.00000000000E+00 0. -1.
        -11    1    3    3    0    0  0.49135091890E+02  0.25582217698E+03 -0.10125121811E+03  0.27948354631E+03  0.00000000000E+00 0.  1.
          4    1    6    6  502    0 -0.25187988208E+03 -0.40545975217E+03 -0.72462026102E+02  0.48279584801E+03  0.00000000000E+00 0. -1.
          1    1    5    5  503    0  0.11586006096E+03 -0.10583047432E+03  0.20585619041E+03  0.25884438211E+03  0.00000000000E+00 0. -1.
         -2    1    5    5    0  503  0.63391331879E+02 -0.13236046457E+03  0.29198710923E+03  0.32679385780E+03  0.00000000000E+00 0.  1.
         -3    1    6    6    0  502 -0.90396550239E+02 -0.15098162074E+03 -0.77641667811E+02  0.19234140136E+03  0.00000000000E+00 0.  1.
<mgrwt>
<rscale>  0 0.20897798E+04</rscale>
<asrwt>0</asrwt>
<pdfrwt beam="1">  1        1 0.17420056E+00 0.20897798E+04</pdfrwt>
<pdfrwt beam="2">  1       -1 0.14834222E+00 0.20897798E+04</pdfrwt>
<totfact> 0.39682495E+00</totfact>
</mgrwt>
</event>
<event>
12    1  0.2433511E-007  0.2268487E+04  0.7818608E-02  0.8490451E-01
          1   -1    0    0  501    0  0.00000000000E+00  0.00000000000E+00  0.10867146830E+04  0.10867146830E+04  0.00000000000E+00 0. -1.
         -1   -1    0    0    0  501 -0.00000000000E+00 -0.00000000000E+00 -0.11838514036E+04  0.11838514036E+04  0.00000000000E+00 0.  1.
         23    2    1    2    0    0  0.81732156894E+03 -0.45971392019E+03  0.12707630173E+03  0.95065655493E+03  0.90818849896E+02 0.  0.
        254    2    1    2    0    0 -0.81732156894E+03  0.45971392019E+03 -0.22421302230E+03  0.13199095317E+04  0.90140903973E+03 0.  0.
        -24    2    4    4    0    0 -0.43463810995E+03  0.20130854198E+03  0.33421048547E+03  0.59063973507E+03  0.87881922737E+02 0.  0.
         24    2    4    4    0    0 -0.38268345899E+03  0.25840537821E+03 -0.55842350777E+03  0.72926979659E+03  0.82326501859E+02 0.  0.
         13    1    3    3    0    0  0.33623796916E+03 -0.17131290329E+03  0.93334544197E+02  0.38873566839E+03  0.00000000000E+00 0. -1.
        -13    1    3    3    0    0  0.48108359979E+03 -0.28840101691E+03  0.33741757532E+02  0.56192088655E+03  0.00000000000E+00 0.  1.
          2    1    6    6  502    0 -0.24270634871E+03  0.20753700218E+03 -0.39988938799E+03  0.51175140606E+03  0.00000000000E+00 0. -1.
          3    1    5    5  503    0 -0.10963048373E+03  0.22129956639E+02  0.46811115864E+02  0.12124297305E+03  0.00000000000E+00 0. -1.
         -4    1    5    5    0  503 -0.32500762622E+03  0.17917858534E+03  0.28739936961E+03  0.46939676202E+03  0.00000000000E+00 0.  1.
         -1    1    6    6    0  502 -0.13997711028E+03  0.50868376037E+02 -0.15853411979E+03  0.21751839053E+03  0.00000000000E+00 0.  1.
<mgrwt>
<rscale>  0 0.22684873E+04</rscale>
<asrwt>0</asrwt>
<pdfrwt beam="1">  1        1 0.16718688E+00 0.22684873E+04</pdfrwt>
<pdfrwt beam="2">  1       -1 0.18213098E+00 0.22684873E+04</pdfrwt>
<totfact> 0.23628370E+00</totfact>
</mgrwt>
</event>
<event>
12    1  0.2433511E-007  0.3608547E+04  0.7818608E-02  0.8088537E-01
          2   -1    0    0  501    0  0.00000000000E+00  0.00000000000E+00  0.29062676051E+04  0.29062676051E+04  0.00000000000E+00 0.  1.
         -2   -1    0    0    0  501 -0.00000000000E+00 -0.00000000000E+00 -0.11201320524E+04  0.11201320524E+04  0.00000000000E+00 0. -1.
         23    2    1    2    0    0  0.11905805916E+04 -0.12003498738E+04  0.81818772191E+03  0.18805187956E+04  0.92724473119E+02 0.  0.
        254    2    1    2    0    0 -0.11905805916E+04  0.12003498738E+04  0.96794783082E+03  0.21458808619E+04  0.89975535870E+03 0.  0.
        -24    2    4    4    0    0 -0.57357953563E+03  0.97096163959E+03  0.95927712218E+03  0.14826656867E+04  0.79529568321E+02 0.  0.
         24    2    4    4    0    0 -0.61700105599E+03  0.22938823417E+03  0.86707086401E+01  0.66321517512E+03  0.80435826903E+02 0.  0.
         11    1    3    3    0    0  0.75825306285E+03 -0.70073071661E+03  0.49278106517E+03  0.11440299046E+04  0.00000000000E+00 0.  1.
        -11    1    3    3    0    0  0.43232752877E+03 -0.49961915715E+03  0.32540665674E+03  0.73648889101E+03  0.00000000000E+00 0. -1.
          2    1    6    6  502    0 -0.61814844663E+03  0.22974896244E+03  0.12106854381E+02  0.65957460817E+03  0.00000000000E+00 0. -1.
          1    1    5    5  503    0 -0.51181325979E+03  0.84884650399E+03  0.80925130700E+03  0.12796018436E+04  0.00000000000E+00 0. -1.
         -2    1    5    5    0  503 -0.61766275845E+02  0.12211513560E+03  0.15002581518E+03  0.20306384315E+03  0.00000000000E+00 0.  1.
         -1    1    6    6    0  502  0.11473906393E+01 -0.36072827733E+00 -0.34361457408E+01  0.36405669505E+01  0.00000000000E+00 0.  1.
<mgrwt>
<rscale>  0 0.36085474E+04</rscale>
<asrwt>0</asrwt>
<pdfrwt beam="1">  1        2 0.44711809E+00 0.36085474E+04</pdfrwt>
<pdfrwt beam="2">  1       -2 0.17232801E+00 0.36085474E+04</pdfrwt>
<totfact> 0.33259031E-01</totfact>
</mgrwt>
</event>
<event>
12    1  0.2433511E-007  0.1988950E+04  0.7818608E-02  0.8611805E-01
         -2   -1    0    0    0  501 -0.00000000000E+00  0.00000000000E+00  0.62468727360E+03  0.62468727360E+03  0.00000000000E+00 0. -1.
          2   -1    0    0  501    0  0.00000000000E+00 -0.00000000000E+00 -0.15831603774E+04  0.15831603774E+04  0.00000000000E+00 0.  1.
         23    2    1    2    0    0  0.43948137938E+03  0.27487905355E+03 -0.10385361801E+04  0.11641853858E+04  0.89821145329E+02 0.  0.
        254    2    1    2    0    0 -0.43948137938E+03 -0.27487905355E+03  0.80063076355E+02  0.10436622652E+04  0.90228512715E+03 0.  0.
        -24    2    4    4    0    0  0.90496950070E+02 -0.44575435230E+03 -0.54274658662E+02  0.46529763327E+03  0.81667058184E+02 0.  0.
         24    2    4    4    0    0 -0.52997832945E+03  0.17087529875E+03  0.13433773502E+03  0.57836463191E+03  0.79897578070E+02 0.  0.
         11    1    3    3    0    0  0.25178063209E+03  0.16585111894E+03 -0.50458150923E+03  0.58779467487E+03  0.00000000000E+00 0. -1.
        -11    1    3    3    0    0  0.18770074729E+03  0.10902793461E+03 -0.53395467091E+03  0.57639071093E+03  0.00000000000E+00 0.  1.
          4    1    6    6  502    0 -0.14221593599E+03  0.23711120681E+02  0.63781102764E+02  0.15765664833E+03  0.00000000000E+00 0. -1.
          1    1    5    5  503    0 -0.13519845049E+02 -0.29464632922E+02 -0.10029524559E+02  0.33934380299E+02  0.00000000000E+00 0. -1.
         -2    1    5    5    0  503  0.10401679512E+03 -0.41628971938E+03 -0.44245134103E+02  0.43136325298E+03  0.00000000000E+00 0.  1.
         -3    1    6    6    0  502 -0.38776239346E+03  0.14716417807E+03  0.70556632253E+02  0.42070798358E+03  0.00000000000E+00 0.  1.
<mgrwt>
<rscale>  0 0.19889496E+04</rscale>
<asrwt>0</asrwt>
<pdfrwt beam="1">  1        2 0.24356313E+00 0.19889496E+04</pdfrwt>
<pdfrwt beam="2">  1       -2 0.96105736E-01 0.19889496E+04</pdfrwt>
<totfact> 0.96137200E+00</totfact>
</mgrwt>
</event>
<event>
12    1  0.2433511E-007  0.3597862E+04  0.7818608E-02  0.8090982E-01
         -2   -1    0    0    0  501 -0.00000000000E+00  0.00000000000E+00  0.20368098285E+04  0.20368098285E+04  0.00000000000E+00 0.  1.
          2   -1    0    0  501    0  0.00000000000E+00 -0.00000000000E+00 -0.15888339605E+04  0.15888339605E+04  0.00000000000E+00 0. -1.
         23    2    1    2    0    0  0.88395209646E+03  0.17354820673E+01  0.16553924528E+04  0.18788320680E+04  0.91167133505E+02 0.  0.
        254    2    1    2    0    0 -0.88395209646E+03 -0.17354820673E+01 -0.12074165849E+04  0.17468117210E+04  0.90117815016E+03 0.  0.
        -24    2    4    4    0    0 -0.81863467498E+03  0.16074710487E+03 -0.42305554945E+03  0.93911779449E+03  0.83449812465E+02 0.  0.
         24    2    4    4    0    0 -0.65317421486E+02 -0.16248258693E+03 -0.78436103542E+03  0.80769392648E+03  0.80500238365E+02 0.  0.
         13    1    3    3    0    0  0.18728580126E+03  0.34562857409E+02  0.32408012756E+03  0.37589691612E+03  0.00000000000E+00 0. -1.
        -13    1    3    3    0    0  0.69666629520E+03 -0.32827375342E+02  0.13313123253E+04  0.15029351519E+04  0.00000000000E+00 0.  1.
          2    1    6    6  502    0 -0.33321662161E+02 -0.50889485292E+02 -0.13546413686E+03  0.14849446205E+03  0.00000000000E+00 0. -1.
          1    1    5    5  503    0 -0.10939911214E+03  0.51126558963E+02 -0.63060979279E+02  0.13623060550E+03  0.00000000000E+00 0. -1.
         -2    1    5    5    0  503 -0.70923556284E+03  0.10962054590E+03 -0.35999457017E+03  0.80288718898E+03  0.00000000000E+00 0.  1.
         -1    1    6    6    0  502 -0.31995759325E+02 -0.11159310164E+03 -0.64889689856E+03  0.65919946443E+03  0.00000000000E+00 0.  1.
<mgrwt>
<rscale>  0 0.35978619E+04</rscale>
<asrwt>0</asrwt>
<pdfrwt beam="1">  1        2 0.24443599E+00 0.35978619E+04</pdfrwt>
<pdfrwt beam="2">  1       -2 0.31335536E+00 0.35978619E+04</pdfrwt>
<totfact> 0.24264719E-01</totfact>
</mgrwt>
</event>
<event>
12    1  0.2433511E-007  0.2268390E+04  0.7818608E-02  0.8490490E-01
          1   -1    0    0  501    0  0.00000000000E+00  0.00000000000E+00  0.11321608187E+04  0.11321608187E+04  0.00000000000E+00 0. -1.
         -1   -1    0    0    0  501 -0.00000000000E+00 -0.00000000000E+00 -0.11362330836E+04  0.11362330836E+04  0.00000000000E+00 0.  1.
         23    2    1    2    0    0  0.58500774701E+03  0.44464329885E+03  0.60174477516E+03  0.95403766913E+03  0.90273874515E+02 0.  0.
        254    2    1    2    0    0 -0.58500774701E+03 -0.44464329885E+03 -0.60581704009E+03  0.13143562332E+04  0.90585666324E+03 0.  0.
        -24    2    4    4    0    0 -0.36224850867E+03 -0.71285287743E+03 -0.47545017364E+03  0.93353718949E+03  0.77817797724E+02 0.  0.
         24    2    4    4    0    0 -0.22275923833E+03  0.26820957858E+03 -0.13036686645E+03  0.38081904369E+03  0.80433623960E+02 0.  0.
         11    1    3    3    0    0  0.21672795749E+03  0.18216930580E+03  0.28632616317E+03  0.40266528936E+03  0.00000000000E+00 0. -1.
        -11    1    3    3    0    0  0.36827978951E+03  0.26247399305E+03  0.31541861199E+03  0.55137237978E+03  0.00000000000E+00 0.  1.
          2    1    6    6  502    0 -0.49248734009E+02  0.96903547429E+02 -0.10747299815E+02  0.10923021450E+03  0.00000000000E+00 0. -1.
          1    1    5    5  503    0 -0.94456503542E+02 -0.14880184488E+03 -0.13759668782E+03  0.22359979562E+03  0.00000000000E+00 0. -1.
         -2    1    5    5    0  503 -0.26779200513E+03 -0.56405103255E+03 -0.33785348582E+03  0.70993739387E+03  0.00000000000E+00 0.  1.
         -1    1    6    6    0  502 -0.17351050432E+03  0.17130603115E+03 -0.11961956664E+03  0.27158882919E+03  0.00000000000E+00 0.  1.
<mgrwt>
<rscale>  0 0.22683902E+04</rscale>
<asrwt>0</asrwt>
<pdfrwt beam="1">  1        1 0.17417859E+00 0.22683902E+04</pdfrwt>
<pdfrwt beam="2">  1       -1 0.17480509E+00 0.22683902E+04</pdfrwt>
<totfact> 0.24669176E+00</totfact>
</mgrwt>
</event>
<event>
12    1  0.2433511E-007  0.2753046E+04  0.7818608E-02  0.8317996E-01
          2   -1    0    0  501    0  0.00000000000E+00  0.00000000000E+00  0.15988364158E+04  0.15988364158E+04  0.00000000000E+00 0. -1.
         -2   -1    0    0    0  501 -0.00000000000E+00 -0.00000000000E+00 -0.11851213780E+04  0.11851213780E+04  0.00000000000E+00 0.  1.
         23    2    1    2    0    0  0.97603112291E+03  0.67493283967E+03 -0.13810768902E+03  0.11980736964E+04  0.90198432250E+02 0.  0.
        254    2    1    2    0    0 -0.97603112291E+03 -0.67493283967E+03  0.55182272681E+03  0.15858840975E+04  0.89573933597E+03 0.  0.
        -24    2    4    4    0    0 -0.98694260099E+03 -0.31376292809E+03  0.61992316634E+03  0.12095157721E+04  0.78235530218E+02 0.  0.
         24    2    4    4    0    0  0.10911478088E+02 -0.36116991158E+03 -0.68100439533E+02  0.37636832538E+03  0.80328582084E+02 0.  0.
         13    1    3    3    0    0  0.47885842155E+03  0.30722739738E+03 -0.25376509317E+02  0.56950682947E+03  0.00000000000E+00 0. -1.
        -13    1    3    3    0    0  0.49717270136E+03  0.36770544228E+03 -0.11273117971E+03  0.62856686688E+03  0.00000000000E+00 0.  1.
          4    1    6    6  502    0 -0.30043594729E+02 -0.23162108900E+03 -0.31655278825E+02  0.23569684583E+03  0.00000000000E+00 0. -1.
          1    1    5    5  503    0 -0.20856093132E+03 -0.72368909348E+02  0.96360541350E+02  0.24087398167E+03  0.00000000000E+00 0. -1.
         -2    1    5    5    0  503 -0.77838166967E+03 -0.24139401874E+03  0.52356262499E+03  0.96864179047E+03  0.00000000000E+00 0.  1.
         -3    1    6    6    0  502  0.40955072817E+02 -0.12954882257E+03 -0.36445160709E+02  0.14067147955E+03  0.00000000000E+00 0.  1.
<mgrwt>
<rscale>  0 0.27530457E+04</rscale>
<asrwt>0</asrwt>
<pdfrwt beam="1">  1        2 0.24597483E+00 0.27530457E+04</pdfrwt>
<pdfrwt beam="2">  1       -2 0.18232637E+00 0.27530457E+04</pdfrwt>
<totfact> 0.17051525E+00</totfact>
</mgrwt>
</event>
<event>
12    1  0.3505328E-007  0.3270873E+04  0.7818608E-02  0.8170347E-01
         -1   -1    0    0    0  501 -0.00000000000E+00  0.00000000000E+00  0.13253832399E+04  0.13253832399E+04  0.00000000000E+00 0.  1.
          1   -1    0    0  501    0  0.00000000000E+00 -0.00000000000E+00 -0.20180220772E+04  0.20180220772E+04  0.00000000000E+00 0. -1.
         23    2    1    2    0    0 -0.66828423675E+03  0.11601592338E+04  0.39270253330E+03  0.13981111537E+04  0.89029487798E+02 0.  0.
        254    2    1    2    0    0  0.66828423675E+03 -0.11601592338E+04 -0.10853413706E+04  0.19452941634E+04  0.90201453561E+03 0.  0.
        -24    2    4    4    0    0  0.82155758159E+03 -0.59526186833E+03 -0.60550053930E+03  0.11842194638E+04  0.80319883400E+02 0.  0.
         24    2    4    4    0    0 -0.15327334484E+03 -0.56489736546E+03 -0.47984083133E+03  0.76107469955E+03  0.79910719804E+02 0.  0.
         11    1    3    3    0    0 -0.38385245033E+03  0.58090512618E+03  0.21692613264E+03  0.72928075270E+03  0.00000000000E+00 0. -1.
        -11    1    3    3    0    0 -0.28443178643E+03  0.57925410761E+03  0.17577640066E+03  0.66883040103E+03  0.00000000000E+00 0.  1.
          2    1    6    6  502    0 -0.14045020484E+03 -0.38209235916E+03 -0.31765750974E+03  0.51635949150E+03  0.00000000000E+00 0. -1.
          3    1    5    5  503    0  0.56041435840E+03 -0.44103135951E+03 -0.45175537624E+03  0.84418945334E+03  0.00000000000E+00 0. -1.
         -4    1    5    5    0  503  0.26114322319E+03 -0.15423050881E+03 -0.15374516306E+03  0.34003001049E+03  0.00000000000E+00 0.  1.
         -1    1    6    6    0  502 -0.12823139995E+02 -0.18280500630E+03 -0.16218332159E+03  0.24471520805E+03  0.00000000000E+00 0.  1.
<mgrwt>
<rscale>  0 0.32708731E+04</rscale>
<asrwt>0</asrwt>
<pdfrwt beam="1">  1        1 0.31046493E+00 0.32708731E+04</pdfrwt>
<pdfrwt beam="2">  1       -1 0.20390511E+00 0.32708731E+04</pdfrwt>
<totfact> 0.34089492E-01</totfact>
</mgrwt>
</event>
<event>
12    1  0.2433511E-007  0.1615953E+04  0.7818608E-02  0.8810807E-01
         -1   -1    0    0    0  501 -0.00000000000E+00  0.00000000000E+00  0.25860810810E+03  0.25860810810E+03  0.00000000000E+00 0.  1.
          1   -1    0    0  501    0  0.00000000000E+00 -0.00000000000E+00 -0.25243822905E+04  0.25243822905E+04  0.00000000000E+00 0. -1.
         23    2    1    2    0    0 -0.49716506908E+03  0.19157228105E+03 -0.10337984363E+04  0.11666232178E+04  0.91637768684E+02 0.  0.
        254    2    1    2    0    0  0.49716506908E+03 -0.19157228105E+03 -0.12319757460E+04  0.16163671807E+04  0.90055848192E+03 0.  0.
        -24    2    4    4    0    0 -0.20167609783E+03  0.28840966163E+02 -0.62258780911E+03  0.65994367778E+03  0.80031418969E+02 0.  0.
         24    2    4    4    0    0  0.69884116692E+03 -0.22041324722E+03 -0.60938793693E+03  0.95642350296E+03  0.80195281734E+02 0.  0.
         11    1    3    3    0    0 -0.10976833930E+03  0.79852536702E+02 -0.22187364323E+03  0.26010272873E+03  0.00000000000E+00 0.  1.
        -11    1    3    3    0    0 -0.38739672978E+03  0.11171974435E+03 -0.81192479311E+03  0.90652048912E+03  0.00000000000E+00 0. -1.
          4    1    6    6  502    0  0.40238494842E+03 -0.15075545548E+03 -0.31430011376E+03  0.53237713661E+03  0.00000000000E+00 0. -1.
          3    1    5    5  503    0 -0.19332162779E+03  0.46714544330E+02 -0.57515910435E+03  0.60857497133E+03  0.00000000000E+00 0. -1.
         -4    1    5    5    0  503 -0.83544700448E+01 -0.17873578167E+02 -0.47428704767E+02  0.51368706448E+02  0.00000000000E+00 0.  1.
         -3    1    6    6    0  502  0.29645621849E+03 -0.69657791738E+02 -0.29508782316E+03  0.42404636635E+03  0.00000000000E+00 0.  1.
<mgrwt>
<rscale>  0 0.16159526E+04</rscale>
<asrwt>0</asrwt>
<pdfrwt beam="1">  1        1 0.38836649E+00 0.16159526E+04</pdfrwt>
<pdfrwt beam="2">  1       -1 0.39785864E-01 0.16159526E+04</pdfrwt>
<totfact> 0.76956865E+00</totfact>
</mgrwt>
</event>
<event>
12    1  0.2433511E-007  0.1485367E+04  0.7818608E-02  0.8894243E-01
          2   -1    0    0  501    0  0.00000000000E+00  0.00000000000E+00  0.12796930637E+04  0.12796930637E+04  0.00000000000E+00 0.  1.
         -2   -1    0    0    0  501 -0.00000000000E+00 -0.00000000000E+00 -0.43102401182E+03  0.43102401182E+03  0.00000000000E+00 0. -1.
         23    2    1    2    0    0 -0.16536973881E+03 -0.29226118828E+03 -0.99143356422E+02  0.36190573257E+03  0.91556547838E+02 0.  0.
        254    2    1    2    0    0  0.16536973881E+03  0.29226118828E+03  0.94781240825E+03  0.13488113429E+04  0.89898827847E+03 0.  0.
        -24    2    4    4    0    0  0.23178287540E+03 -0.15410573852E+03 -0.71348535603E+01  0.28952496818E+03  0.79384640133E+02 0.  0.
         24    2    4    4    0    0 -0.66413136594E+02  0.44636692680E+03  0.95494726181E+03  0.10592863747E+04  0.80679692531E+02 0.  0.
         13    1    3    3    0    0 -0.98556022680E+01 -0.95313556619E+02 -0.41520641204E+02  0.10443069768E+03  0.00000000000E+00 0. -1.
        -13    1    3    3    0    0 -0.15551413654E+03 -0.19694763166E+03 -0.57622715219E+02  0.25747503489E+03  0.00000000000E+00 0.  1.
          4    1    6    6  502    0 -0.15516854123E+02  0.34094936624E+03  0.71920117756E+03  0.79607636374E+03  0.00000000000E+00 0. -1.
          1    1    5    5  503    0  0.36306307883E+02 -0.63535345487E+02  0.76678518885E+01  0.73577741681E+02  0.00000000000E+00 0. -1.
         -2    1    5    5    0  503  0.19547656752E+03 -0.90570393028E+02 -0.14802705449E+02  0.21594722650E+03  0.00000000000E+00 0.  1.
         -3    1    6    6    0  502 -0.50896282471E+02  0.10541756056E+03  0.23574608425E+03  0.26321001099E+03  0.00000000000E+00 0.  1.
<mgrwt>
<rscale>  0 0.14853665E+04</rscale>
<asrwt>0</asrwt>
<pdfrwt beam="1">  1        2 0.19687585E+00 0.14853665E+04</pdfrwt>
<pdfrwt beam="2">  1       -2 0.66311387E-01 0.14853665E+04</pdfrwt>
<totfact> 0.34364297E+01</totfact>
</mgrwt>
</event>
<event>
12    1  0.2433511E-007  0.3063915E+04  0.7818608E-02  0.8225711E-01
          1   -1    0    0  501    0  0.00000000000E+00  0.00000000000E+00  0.87719253838E+03  0.87719253838E+03  0.00000000000E+00 0. -1.
         -1   -1    0    0    0  501 -0.00000000000E+00 -0.00000000000E+00 -0.26754604996E+04  0.26754604996E+04  0.00000000000E+00 0.  1.
         23    2    1    2    0    0  0.49651584752E+03 -0.12178569809E+04 -0.13731249564E+04  0.19036535233E+04  0.93386178334E+02 0.  0.
        254    2    1    2    0    0 -0.49651584752E+03  0.12178569809E+04 -0.42514300481E+03  0.16489995146E+04  0.89930484920E+03 0.  0.
        -24    2    4    4    0    0  0.12438187907E+03 -0.58568873164E+02  0.18054560277E+02  0.16011774735E+03  0.80065979831E+02 0.  0.
         24    2    4    4    0    0 -0.62089772658E+03  0.12764258541E+04 -0.44319756509E+03  0.14888817672E+04  0.74618277200E+02 0.  0.
         11    1    3    3    0    0  0.22295524504E+03 -0.43140058060E+03 -0.48951513693E+03  0.68952198770E+03  0.00000000000E+00 0. -1.
        -11    1    3    3    0    0  0.27356060248E+03 -0.78645640032E+03 -0.88360981944E+03  0.12141315356E+04  0.00000000000E+00 0.  1.
          2    1    6    6  502    0 -0.49145909011E+03  0.97591457713E+03 -0.36971525448E+03  0.11535296565E+04  0.00000000000E+00 0. -1.
          3    1    5    5  503    0  0.13308133496E+03 -0.56329172490E+02  0.27475545199E+02  0.14710038399E+03  0.00000000000E+00 0. -1.
         -4    1    5    5    0  503 -0.86994558895E+01 -0.22397006741E+01 -0.94209849221E+01  0.13017363358E+02  0.00000000000E+00 0.  1.
         -1    1    6    6    0  502 -0.12943863648E+03  0.30051127695E+03 -0.73482310610E+02  0.33535211072E+03  0.00000000000E+00 0.  1.
<mgrwt>
<rscale>  0 0.30639151E+04</rscale>
<asrwt>0</asrwt>
<pdfrwt beam="1">  1        1 0.13495270E+00 0.30639151E+04</pdfrwt>
<pdfrwt beam="2">  1       -1 0.41160931E+00 0.30639151E+04</pdfrwt>
<totfact> 0.95720499E-02</totfact>
</mgrwt>
</event>
<event>
12    1  0.2433511E-007  0.1470281E+04  0.7818608E-02  0.8904460E-01
         -1   -1    0    0    0  501 -0.00000000000E+00  0.00000000000E+00  0.40814234673E+03  0.40814234673E+03  0.00000000000E+00 0.  1.
          1   -1    0    0  501    0  0.00000000000E+00 -0.00000000000E+00 -0.13241246365E+04  0.13241246365E+04  0.00000000000E+00 0. -1.
         23    2    1    2    0    0 -0.34960128553E+03 -0.20362195667E+02 -0.62656818608E+03  0.72341818472E+03  0.90058316237E+02 0.  0.
        254    2    1    2    0    0  0.34960128553E+03  0.20362195667E+02 -0.28941410373E+03  0.10088487985E+04  0.90076617223E+03 0.  0.
        -24    2    4    4    0    0  0.54557614446E+03  0.15725654621E+03 -0.43372635642E+03  0.71843373821E+03  0.75136763478E+02 0.  0.
         24    2    4    4    0    0 -0.19597485894E+03 -0.13689435054E+03  0.14431225268E+03  0.29041506033E+03  0.79803962625E+02 0.  0.
         11    1    3    3    0    0 -0.14385830970E+03  0.13507561805E+02 -0.18201873902E+03  0.23239726515E+03  0.00000000000E+00 0.  1.
        -11    1    3    3    0    0 -0.20574297582E+03 -0.33869757472E+02 -0.44454944706E+03  0.49102091956E+03  0.00000000000E+00 0. -1.
          4    1    6    6  502    0 -0.19899770590E+03 -0.12991587691E+03  0.14990056832E+03  0.28097758346E+03  0.00000000000E+00 0. -1.
          3    1    5    5  503    0  0.41529948978E+03  0.13672116288E+03 -0.36589327273E+03  0.57012650317E+03  0.00000000000E+00 0. -1.
         -4    1    5    5    0  503  0.13027665468E+03  0.20535383330E+02 -0.67833083681E+02  0.14830723504E+03  0.00000000000E+00 0.  1.
         -3    1    6    6    0  502  0.30228469635E+01 -0.69784736310E+01 -0.55883156404E+01  0.94374768704E+01  0.00000000000E+00 0.  1.
<mgrwt>
<rscale>  0 0.14702807E+04</rscale>
<asrwt>0</asrwt>
<pdfrwt beam="1">  1        1 0.20371148E+00 0.14702807E+04</pdfrwt>
<pdfrwt beam="2">  1       -1 0.62791131E-01 0.14702807E+04</pdfrwt>
<totfact> 0.21685891E+01</totfact>
</mgrwt>
</event>
<event>
12    1  0.2433511E-007  0.2659707E+04  0.7818608E-02  0.8348198E-01
          2   -1    0    0  501    0  0.00000000000E+00  0.00000000000E+00  0.15984768454E+04  0.15984768454E+04  0.00000000000E+00 0.  1.
         -2   -1    0    0    0  501 -0.00000000000E+00 -0.00000000000E+00 -0.11063724480E+04  0.11063724480E+04  0.00000000000E+00 0. -1.
         23    2    1    2    0    0  0.16822270036E+03 -0.10186603531E+04 -0.35344873943E+03  0.10951051267E+04  0.91440884330E+02 0.  0.
        254    2    1    2    0    0 -0.16822270036E+03  0.10186603531E+04  0.84555313685E+03  0.16097441667E+04  0.90019352541E+03 0.  0.
        -24    2    4    4    0    0 -0.41771136337E+03  0.84369655523E+03  0.88131978471E+03  0.12920258089E+04  0.79369185024E+02 0.  0.
         24    2    4    4    0    0  0.24948866301E+03  0.17496379784E+03 -0.35766647856E+02  0.31771835782E+03  0.82515321427E+02 0.  0.
         11    1    3    3    0    0  0.24865736542E+02 -0.40924290385E+03 -0.12413967037E+03  0.42837917429E+03  0.00000000000E+00 0. -1.
        -11    1    3    3    0    0  0.14335696382E+03 -0.60941744921E+03 -0.22930906906E+03  0.66672595242E+03  0.00000000000E+00 0.  1.
          2    1    6    6  502    0  0.24472530611E+03  0.15732145739E+03 -0.16852053017E+02  0.29141809844E+03  0.00000000000E+00 0. -1.
          3    1    5    5  503    0 -0.42031314705E+02  0.50097622253E+02  0.44534666792E+02  0.79118516906E+02  0.00000000000E+00 0. -1.
         -4    1    5    5    0  503 -0.37568004867E+03  0.79359893298E+03  0.83678511791E+03  0.12129072920E+04  0.00000000000E+00 0.  1.
         -1    1    6    6    0  502  0.47633568984E+01  0.17642340443E+02 -0.18914594839E+02  0.26300259375E+02  0.00000000000E+00 0.  1.
<mgrwt>
<rscale>  0 0.26597073E+04</rscale>
<asrwt>0</asrwt>
<pdfrwt beam="1">  1        2 0.24591951E+00 0.26597073E+04</pdfrwt>
<pdfrwt beam="2">  1       -2 0.17021115E+00 0.26597073E+04</pdfrwt>
<totfact> 0.20893333E+00</totfact>
</mgrwt>
</event>
<event>
12    1  0.2433511E-007  0.2707375E+04  0.7818608E-02  0.8332616E-01
          1   -1    0    0  501    0  0.00000000000E+00  0.00000000000E+00  0.19531522194E+04  0.19531522194E+04  0.00000000000E+00 0. -1.
         -1   -1    0    0    0  501 -0.00000000000E+00 -0.00000000000E+00 -0.93821183227E+03  0.93821183227E+03  0.00000000000E+00 0.  1.
         23    2    1    2    0    0 -0.99330585660E+03 -0.59723651180E+03  0.79637184449E+03  0.14077774908E+04  0.65432203441E+02 0.  0.
        254    2    1    2    0    0  0.99330585660E+03  0.59723651180E+03  0.21856854263E+03  0.14835865608E+04  0.89994938737E+03 0.  0.
        -24    2    4    4    0    0  0.11387312038E+03  0.54497635022E+03 -0.33452985506E+02  0.56351596141E+03  0.80404145932E+02 0.  0.
         24    2    4    4    0    0  0.87943273621E+03  0.52260161583E+02  0.25202152813E+03  0.92007059940E+03  0.82957791841E+02 0.  0.
         13    1    3    3    0    0 -0.56197424723E+03 -0.37385967691E+03  0.45146956165E+03  0.81204117978E+03  0.00000000000E+00 0.  1.
        -13    1    3    3    0    0 -0.43133160937E+03 -0.22337683490E+03  0.34490228283E+03  0.59573631106E+03  0.00000000000E+00 0. -1.
          4    1    6    6  502    0  0.48832791764E+03 -0.33555219106E+01  0.11262607850E+03  0.50115870563E+03  0.00000000000E+00 0. -1.
          3    1    5    5  503    0  0.11378831452E+03  0.53026253330E+03 -0.45859614111E+02  0.54426945436E+03  0.00000000000E+00 0. -1.
         -4    1    5    5    0  503  0.84805859683E-01  0.14713816922E+02  0.12406628605E+02  0.19246507054E+02  0.00000000000E+00 0.  1.
         -3    1    6    6    0  502  0.39110481858E+03  0.55615683494E+02  0.13939544963E+03  0.41891189377E+03  0.00000000000E+00 0.  1.
<mgrwt>
<rscale>  0 0.27073755E+04</rscale>
<asrwt>0</asrwt>
<pdfrwt beam="1">  1        1 0.30048496E+00 0.27073755E+04</pdfrwt>
<pdfrwt beam="2">  1       -1 0.14434028E+00 0.27073755E+04</pdfrwt>
<totfact> 0.10819453E+00</totfact>
</mgrwt>
</event>
<event>
12    1  0.2433511E-007  0.2807946E+04  0.7818608E-02  0.8300806E-01
          1   -1    0    0  501    0  0.00000000000E+00  0.00000000000E+00  0.11969220459E+04  0.11969220459E+04  0.00000000000E+00 0. -1.
         -1   -1    0    0    0  501 -0.00000000000E+00 -0.00000000000E+00 -0.16468411751E+04  0.16468411751E+04  0.00000000000E+00 0.  1.
         23    2    1    2    0    0 -0.74334560474E+03  0.58881824025E+03  0.63497795531E+03  0.11446938426E+04  0.88641871147E+02 0.  0.
        254    2    1    2    0    0  0.74334560474E+03 -0.58881824025E+03 -0.10848970845E+04  0.16990693785E+04  0.90031409009E+03 0.  0.
        -24    2    4    4    0    0  0.93398698595E+03 -0.47188382401E+03 -0.98830264841E+03  0.14416220179E+04  0.80782946812E+02 0.  0.
         24    2    4    4    0    0 -0.19064138121E+03 -0.11693441624E+03 -0.96594436096E+02  0.25744736054E+03  0.83251813371E+02 0.  0.
         11    1    3    3    0    0 -0.50360208325E+03  0.44590406688E+03  0.46831518756E+03  0.81961247551E+03  0.00000000000E+00 0. -1.
        -11    1    3    3    0    0 -0.23974352149E+03  0.14291417337E+03  0.16666276775E+03  0.32508136704E+03  0.00000000000E+00 0.  1.
          2    1    6    6  502    0 -0.15076673146E+03 -0.84070187801E+02 -0.33412117133E+02  0.17582597465E+03  0.00000000000E+00 0. -1.
          1    1    5    5  503    0  0.84851065004E+03 -0.44639160935E+03 -0.92505368071E+03  0.13322762868E+04  0.00000000000E+00 0. -1.
         -2    1    5    5    0  503  0.85476335915E+02 -0.25492214654E+02 -0.63248967699E+02  0.10934573117E+03  0.00000000000E+00 0.  1.
         -1    1    6    6    0  502 -0.39874649759E+02 -0.32864228438E+02 -0.63182318962E+02  0.81621385884E+02  0.00000000000E+00 0.  1.
<mgrwt>
<rscale>  0 0.28079462E+04</rscale>
<asrwt>0</asrwt>
<pdfrwt beam="1">  1        1 0.18414185E+00 0.28079462E+04</pdfrwt>
<pdfrwt beam="2">  1       -1 0.25336018E+00 0.28079462E+04</pdfrwt>
<totfact> 0.61592917E-01</totfact>
</mgrwt>
</event>
<event>
12    1  0.2433511E-007  0.2527551E+04  0.7818608E-02  0.8393235E-01
         -2   -1    0    0    0  501 -0.00000000000E+00  0.00000000000E+00  0.56791821775E+03  0.56791821775E+03  0.00000000000E+00 0.  1.
          2   -1    0    0  501    0  0.00000000000E+00 -0.00000000000E+00 -0.28122518635E+04  0.28122518635E+04  0.00000000000E+00 0. -1.
         23    2    1    2    0    0 -0.10402160100E+04  0.15024971776E+03 -0.54003139169E+03  0.11850144655E+04  0.89448612179E+02 0.  0.
        254    2    1    2    0    0  0.10402160100E+04 -0.15024971776E+03 -0.17043022541E+04  0.21951556158E+04  0.89968754521E+03 0.  0.
        -24    2    4    4    0    0  0.84603330095E+03  0.18190670851E+03 -0.69812865410E+03  0.11147864773E+04  0.80640408335E+02 0.  0.
         24    2    4    4    0    0  0.19418270907E+03 -0.33215642627E+03 -0.10061736000E+04  0.10803691384E+04  0.82324637725E+02 0.  0.
         11    1    3    3    0    0 -0.15086375350E+03  0.99089089289E+01 -0.11162404564E+03  0.18793080152E+03  0.00000000000E+00 0. -1.
        -11    1    3    3    0    0 -0.88935225652E+03  0.14034080883E+03 -0.42840734606E+03  0.99708366397E+03  0.00000000000E+00 0.  1.
          4    1    6    6  502    0  0.13912400182E+03 -0.23846442120E+03 -0.81468169705E+03  0.86019011594E+03  0.00000000000E+00 0. -1.
          1    1    5    5  503    0  0.61798528195E+03  0.96090157014E+02 -0.50752991195E+03  0.80543512371E+03  0.00000000000E+00 0. -1.
         -2    1    5    5    0  503  0.22804801900E+03  0.85816551495E+02 -0.19059874215E+03  0.30935135362E+03  0.00000000000E+00 0.  1.
         -3    1    6    6    0  502  0.55058707250E+02 -0.93692005066E+02 -0.19149190293E+03  0.22017902249E+03  0.00000000000E+00 0.  1.
<mgrwt>
<rscale>  0 0.25275514E+04</rscale>
<asrwt>0</asrwt>
<pdfrwt beam="1">  1        2 0.43265412E+00 0.25275514E+04</pdfrwt>
<pdfrwt beam="2">  1       -2 0.87372036E-01 0.25275514E+04</pdfrwt>
<totfact> 0.22884561E+00</totfact>
</mgrwt>
</event>
<event>
12    1  0.2433511E-007  0.1959280E+04  0.7818608E-02  0.8625899E-01
          2   -1    0    0  501    0  0.00000000000E+00  0.00000000000E+00  0.10162616530E+04  0.10162616530E+04  0.00000000000E+00 0. -1.
         -2   -1    0    0    0  501 -0.00000000000E+00 -0.00000000000E+00 -0.94433763184E+03  0.94433763184E+03  0.00000000000E+00 0.  1.
         23    2    1    2    0    0 -0.52492105647E+03  0.38808169451E+03 -0.38333784451E+03  0.76312027459E+03  0.96203603474E+02 0.  0.
        254    2    1    2    0    0  0.52492105647E+03 -0.38808169451E+03  0.45526186566E+03  0.11974790102E+04  0.89473073966E+03 0.  0.
        -24    2    4    4    0    0 -0.94878201114E+02  0.20884850158E+03  0.11843266501E+03  0.26991016665E+03  0.78775835490E+02 0.  0.
         24    2    4    4    0    0  0.61979925759E+03 -0.59693019609E+03  0.33682920064E+03  0.92756884358E+03  0.80332250520E+02 0.  0.
         13    1    3    3    0    0 -0.22821940381E+03  0.18560370127E+03 -0.11987483819E+03  0.31765202192E+03  0.00000000000E+00 0. -1.
        -13    1    3    3    0    0 -0.29670165267E+03  0.20247799323E+03 -0.26346300632E+03  0.44546825267E+03  0.00000000000E+00 0.  1.
          2    1    6    6  502    0  0.27909611730E+03 -0.32415274096E+03  0.17192446027E+03  0.46100722576E+03  0.00000000000E+00 0. -1.
          1    1    5    5  503    0 -0.89988770381E+01  0.10219348355E+03  0.71943510289E+02  0.12530106361E+03  0.00000000000E+00 0. -1.
         -2    1    5    5    0  503 -0.85879324076E+02  0.10665501803E+03  0.46489154724E+02  0.14460910304E+03  0.00000000000E+00 0.  1.
         -1    1    6    6    0  502  0.34070314029E+03 -0.27277745513E+03  0.16490474037E+03  0.46656161782E+03  0.00000000000E+00 0.  1.
<mgrwt>
<rscale>  0 0.19592796E+04</rscale>
<asrwt>0</asrwt>
<pdfrwt beam="1">  1        2 0.15634795E+00 0.19592796E+04</pdfrwt>
<pdfrwt beam="2">  1       -2 0.14528271E+00 0.19592796E+04</pdfrwt>
<totfact> 0.74720364E+00</totfact>
</mgrwt>
</event>
<event>
12    1  0.2433511E-007  0.4914075E+04  0.7818608E-02  0.7841900E-01
          1   -1    0    0  501    0  0.00000000000E+00  0.00000000000E+00  0.26708813263E+04  0.26708813263E+04  0.00000000000E+00 0.  1.
         -1   -1    0    0    0  501 -0.00000000000E+00 -0.00000000000E+00 -0.22603151353E+04  0.22603151353E+04  0.00000000000E+00 0. -1.
         23    2    1    2    0    0  0.18699750568E+04 -0.51366625319E+03 -0.11747973927E+04  0.22691824663E+04  0.91544625830E+02 0.  0.
        254    2    1    2    0    0 -0.18699750568E+04  0.51366625319E+03  0.15853635837E+04  0.26620139953E+04  0.90126637891E+03 0.  0.
        -24    2    4    4    0    0 -0.10725113741E+04 -0.93354627929E+01  0.42131569462E+03  0.11550962919E+04  0.79829383987E+02 0.  0.
         24    2    4    4    0    0 -0.79746368270E+03  0.52300171599E+03  0.11640478891E+04  0.15069177034E+04  0.79462925633E+02 0.  0.
         13    1    3    3    0    0  0.13114635226E+04 -0.36429822456E+03 -0.87278234540E+03  0.16169102603E+04  0.00000000000E+00 0.  1.
        -13    1    3    3    0    0  0.55851153423E+03 -0.14936802863E+03 -0.30201504726E+03  0.65227220592E+03  0.00000000000E+00 0. -1.
          4    1    6    6  502    0 -0.50980294908E+03  0.33276248377E+03  0.80208505208E+03  0.10069609467E+04  0.00000000000E+00 0. -1.
          1    1    5    5  503    0 -0.76795053599E+03  0.26617326869E+02  0.28628636952E+03  0.82000999578E+03  0.00000000000E+00 0. -1.
         -2    1    5    5    0  503 -0.30456083814E+03 -0.35952789662E+02  0.13502932510E+03  0.33508629613E+03  0.00000000000E+00 0.  1.
         -3    1    6    6    0  502 -0.28766073362E+03  0.19023923221E+03  0.36196283698E+03  0.49995675662E+03  0.00000000000E+00 0.  1.
<mgrwt>
<rscale>  0 0.49140751E+04</rscale>
<asrwt>0</asrwt>
<pdfrwt beam="1">  1        1 0.41090482E+00 0.49140751E+04</pdfrwt>
<pdfrwt beam="2">  1       -1 0.34774079E+00 0.49140751E+04</pdfrwt>
<totfact> 0.12029523E-02</totfact>
</mgrwt>
</event>
<event>
12    1  0.2433511E-007  0.1690050E+04  0.7818608E-02  0.8767060E-01
          2   -1    0    0  501    0  0.00000000000E+00  0.00000000000E+00  0.16999019837E+04  0.16999019837E+04  0.00000000000E+00 0. -1.
         -2   -1    0    0    0  501 -0.00000000000E+00 -0.00000000000E+00 -0.42006356647E+03  0.42006356647E+03  0.00000000000E+00 0.  1.
         23    2    1    2    0    0 -0.41373424930E+03  0.35895395158E+03  0.14398615420E+03  0.57002606806E+03  0.64604467883E+02 0.  0.
        254    2    1    2    0    0  0.41373424930E+03 -0.35895395158E+03  0.11358522630E+04  0.15499394821E+04  0.90118148359E+03 0.  0.
        -24    2    4    4    0    0  0.60979347109E+03  0.19866801380E+02  0.57940781786E+03  0.84486328993E+03  0.76405445441E+02 0.  0.
         24    2    4    4    0    0 -0.19605922179E+03 -0.37882075296E+03  0.55644444513E+03  0.70507619214E+03  0.74549546565E+02 0.  0.
         13    1    3    3    0    0 -0.32386712809E+02  0.34159310259E+02 -0.52186398805E+01  0.47360234862E+02  0.00000000000E+00 0.  1.
        -13    1    3    3    0    0 -0.38134753649E+03  0.32479464132E+03  0.14920479408E+03  0.52266583320E+03  0.00000000000E+00 0. -1.
          4    1    6    6  502    0 -0.16064666464E+03 -0.24484329972E+03  0.34871810493E+03  0.45536788313E+03  0.00000000000E+00 0. -1.
          1    1    5    5  503    0  0.35900737405E+03 -0.21298618520E+02  0.31441780043E+03  0.47770124450E+03  0.00000000000E+00 0. -1.
         -2    1    5    5    0  503  0.25078609704E+03  0.41165419900E+02  0.26499001743E+03  0.36716204543E+03  0.00000000000E+00 0.  1.
         -3    1    6    6    0  502 -0.35412557153E+02 -0.13397745324E+03  0.20772634019E+03  0.24970830901E+03  0.00000000000E+00 0.  1.
<mgrwt>
<rscale>  0 0.16900496E+04</rscale>
<asrwt>0</asrwt>
<pdfrwt beam="1">  1        2 0.26152338E+00 0.16900496E+04</pdfrwt>
<pdfrwt beam="2">  1       -2 0.64625165E-01 0.16900496E+04</pdfrwt>
<totfact> 0.20644021E+01</totfact>
</mgrwt>
</event>
<event>
12    1  0.2433511E-007  0.4073078E+04  0.7818608E-02  0.7989964E-01
          2   -1    0    0  501    0  0.00000000000E+00  0.00000000000E+00  0.13021619808E+04  0.13021619808E+04  0.00000000000E+00 0. -1.
         -2   -1    0    0    0  501 -0.00000000000E+00 -0.00000000000E+00 -0.31850814441E+04  0.31850814441E+04  0.00000000000E+00 0.  1.
         23    2    1    2    0    0  0.27153085821E+03 -0.18082137227E+04 -0.15954056448E+04  0.24282647079E+04  0.88229507370E+02 0.  0.
        254    2    1    2    0    0 -0.27153085821E+03  0.18082137227E+04 -0.28751381840E+03  0.20589787170E+04  0.90186655736E+03 0.  0.
        -24    2    4    4    0    0 -0.23916728970E+03  0.10423305882E+04 -0.59848132711E+03  0.12280079355E+04  0.78546440381E+02 0.  0.
         24    2    4    4    0    0 -0.32363568514E+02  0.76588313455E+03  0.31096750871E+03  0.83097078148E+03  0.78659213350E+02 0.  0.
         11    1    3    3    0    0  0.15220208682E+03 -0.11219149811E+04 -0.93465135348E+03  0.14681389078E+04  0.00000000000E+00 0.  1.
        -11    1    3    3    0    0  0.11932877140E+03 -0.68629874168E+03 -0.66075429135E+03  0.96012580011E+03  0.00000000000E+00 0. -1.
          4    1    6    6  502    0  0.11552373299E+02  0.55128184993E+03  0.22968150609E+03  0.59732631755E+03  0.00000000000E+00 0. -1.
          3    1    5    5  503    0 -0.17089675973E+03  0.64500512074E+03 -0.33750710819E+03  0.74776223249E+03  0.00000000000E+00 0. -1.
         -4    1    5    5    0  503 -0.68270529972E+02  0.39732546744E+03 -0.26097421892E+03  0.48024570303E+03  0.00000000000E+00 0.  1.
         -3    1    6    6    0  502 -0.43915941812E+02  0.21460128462E+03  0.81286002618E+02  0.23364446393E+03  0.00000000000E+00 0.  1.
<mgrwt>
<rscale>  0 0.40730784E+04</rscale>
<asrwt>0</asrwt>
<pdfrwt beam="1">  1        2 0.20033261E+00 0.40730784E+04</pdfrwt>
<pdfrwt beam="2">  1       -2 0.49001253E+00 0.40730784E+04</pdfrwt>
<totfact> 0.24665692E-02</totfact>
</mgrwt>
</event>
<event>
12    1  0.2433511E-007  0.1909785E+04  0.7818608E-02  0.8650001E-01
         -1   -1    0    0    0  501 -0.00000000000E+00  0.00000000000E+00  0.13536958409E+04  0.13536958409E+04  0.00000000000E+00 0.  1.
          1   -1    0    0  501    0  0.00000000000E+00 -0.00000000000E+00 -0.67357800600E+03  0.67357800600E+03  0.00000000000E+00 0. -1.
         23    2    1    2    0    0  0.48806261342E+03  0.46023661856E+03  0.59697737978E+03  0.90268653403E+03  0.91859278589E+02 0.  0.
        254    2    1    2    0    0 -0.48806261342E+03 -0.46023661856E+03  0.83140455127E+02  0.11245873129E+04  0.89875548918E+03 0.  0.
        -24    2    4    4    0    0 -0.35454772376E+03 -0.63293917724E+03 -0.20115484836E+03  0.75709181212E+03  0.80054034591E+02 0.  0.
         24    2    4    4    0    0 -0.13351488966E+03  0.17270255867E+03  0.28429530348E+03  0.36749550076E+03  0.81097003424E+02 0.  0.
         11    1    3    3    0    0  0.19185437341E+03  0.20518344828E+03  0.30602881091E+03  0.41540580299E+03  0.00000000000E+00 0.  1.
        -11    1    3    3    0    0  0.29620824001E+03  0.25505317028E+03  0.29094856887E+03  0.48728073104E+03  0.00000000000E+00 0. -1.
          4    1    6    6  502    0 -0.62938572685E+02  0.13659735075E+03  0.15607774162E+03  0.21674953654E+03  0.00000000000E+00 0. -1.
          3    1    5    5  503    0 -0.35465091887E+03 -0.60938799660E+03 -0.18639302702E+03  0.72929648647E+03  0.00000000000E+00 0. -1.
         -4    1    5    5    0  503  0.10319511106E+00 -0.23551180633E+02 -0.14761821342E+02  0.27795325646E+02  0.00000000000E+00 0.  1.
         -3    1    6    6    0  502 -0.70576316974E+02  0.36105207922E+02  0.12821756187E+03  0.15074596422E+03  0.00000000000E+00 0.  1.
<mgrwt>
<rscale>  0 0.19097851E+04</rscale>
<asrwt>0</asrwt>
<pdfrwt beam="1">  1        1 0.10362739E+00 0.19097851E+04</pdfrwt>
<pdfrwt beam="2">  1       -1 0.20826090E+00 0.19097851E+04</pdfrwt>
<totfact> 0.35657455E+00</totfact>
</mgrwt>
</event>
<event>
12    1  0.2433511E-007  0.2111828E+04  0.7818608E-02  0.8556051E-01
         -2   -1    0    0    0  501 -0.00000000000E+00  0.00000000000E+00  0.37838222162E+03  0.37838222162E+03  0.00000000000E+00 0.  1.
          2   -1    0    0  501    0  0.00000000000E+00 -0.00000000000E+00 -0.29466339512E+04  0.29466339512E+04  0.00000000000E+00 0. -1.
         23    2    1    2    0    0 -0.70534543970E+03  0.34970883742E+03 -0.16055175571E+04  0.17904917054E+04  0.91462893927E+02 0.  0.
        254    2    1    2    0    0  0.70534543970E+03 -0.34970883742E+03 -0.96273417253E+03  0.15345244674E+04  0.89894371000E+03 0.  0.
        -24    2    4    4    0    0  0.17491675101E+03 -0.43827459962E+03 -0.62204083592E+02  0.48256625154E+03  0.79500595354E+02 0.  0.
         24    2    4    4    0    0  0.53042868869E+03  0.88565762194E+02 -0.90053008893E+03  0.10519582158E+04  0.80393773105E+02 0.  0.
         13    1    3    3    0    0 -0.65092578481E+03  0.31907193431E+03 -0.15255519321E+04  0.16890292994E+04  0.00000000000E+00 0. -1.
        -13    1    3    3    0    0 -0.54419654890E+02  0.30636903116E+02 -0.79965624926E+02  0.10146240605E+03  0.00000000000E+00 0.  1.
          4    1    6    6  502    0  0.52713707154E+03  0.86185983924E+02 -0.90143130904E+03  0.10477976527E+04  0.00000000000E+00 0. -1.
          1    1    5    5  503    0  0.15804070365E+03 -0.40971107518E+03 -0.36598971698E+02  0.44065804641E+03  0.00000000000E+00 0. -1.
         -2    1    5    5    0  503  0.16876047359E+02 -0.28563524440E+02 -0.25605111893E+02  0.41908205139E+02  0.00000000000E+00 0.  1.
         -3    1    6    6    0  502  0.32916171587E+01  0.23797782702E+01  0.90122011037E+00  0.41605631616E+01  0.00000000000E+00 0.  1.
<mgrwt>
<rscale>  0 0.21118276E+04</rscale>
<asrwt>0</asrwt>
<pdfrwt beam="1">  1        2 0.45332830E+00 0.21118276E+04</pdfrwt>
<pdfrwt beam="2">  1       -2 0.58212650E-01 0.21118276E+04</pdfrwt>
<totfact> 0.47853695E+00</totfact>
</mgrwt>
</event>
<event>
12    1  0.2433511E-007  0.1358895E+04  0.7818608E-02  0.8984122E-01
         -1   -1    0    0    0  501 -0.00000000000E+00  0.00000000000E+00  0.61832982132E+03  0.61832982132E+03  0.00000000000E+00 0.  1.
          1   -1    0    0  501    0  0.00000000000E+00 -0.00000000000E+00 -0.74660640957E+03  0.74660640957E+03  0.00000000000E+00 0. -1.
         23    2    1    2    0    0 -0.26098592434E+03  0.11232097718E+03  0.20841665245E+03  0.36402918699E+03  0.91378845183E+02 0.  0.
        254    2    1    2    0    0  0.26098592434E+03 -0.11232097718E+03 -0.33669324070E+03  0.10009070439E+04  0.89873406387E+03 0.  0.
        -24    2    4    4    0    0 -0.11518934182E+03  0.25838978771E+03 -0.35997264358E+03  0.46502342234E+03  0.81440851734E+02 0.  0.
         24    2    4    4    0    0  0.37617526617E+03 -0.37071076489E+03  0.23279402881E+02  0.53588362156E+03  0.87721281202E+02 0.  0.
         11    1    3    3    0    0 -0.37862460820E+02  0.10153286149E+02 -0.40783912596E+01  0.39411780399E+02  0.00000000000E+00 0. -1.
        -11    1    3    3    0    0 -0.22312346352E+03  0.10216769103E+03  0.21249504370E+03  0.32461740660E+03  0.00000000000E+00 0.  1.
          4    1    6    6  502    0  0.19926978076E+03 -0.13736708627E+03  0.22360837400E+02  0.24306001103E+03  0.00000000000E+00 0. -1.
          1    1    5    5  503    0 -0.12601363799E+03  0.24846758388E+03 -0.33178114406E+03  0.43323700760E+03  0.00000000000E+00 0. -1.
         -2    1    5    5    0  503  0.10824296173E+02  0.99222038303E+01 -0.28191499521E+02  0.31786414736E+02  0.00000000000E+00 0.  1.
         -3    1    6    6    0  502  0.17690548541E+03 -0.23334367862E+03  0.91856548098E+00  0.29282361052E+03  0.00000000000E+00 0.  1.
<mgrwt>
<rscale>  0 0.13588952E+04</rscale>
<asrwt>0</asrwt>
<pdfrwt beam="1">  1        1 0.11486252E+00 0.13588952E+04</pdfrwt>
<pdfrwt beam="2">  1       -1 0.95127665E-01 0.13588952E+04</pdfrwt>
<totfact> 0.25769150E+01</totfact>
</mgrwt>
</event>
<event>
12    1  0.2433511E-007  0.1179653E+04  0.7818608E-02  0.9130855E-01
         -2   -1    0    0    0  501 -0.00000000000E+00  0.00000000000E+00  0.28939839454E+03  0.28939839454E+03  0.00000000000E+00 0.  1.
          2   -1    0    0  501    0  0.00000000000E+00 -0.00000000000E+00 -0.12021331319E+04  0.12021331319E+04  0.00000000000E+00 0. -1.
         23    2    1    2    0    0  0.17971598582E+03  0.10937829145E+03 -0.32096216449E+03  0.39440313102E+03  0.90970723454E+02 0.  0.
        254    2    1    2    0    0 -0.17971598582E+03 -0.10937829145E+03 -0.59177257284E+03  0.10971283954E+04  0.89957461714E+03 0.  0.
        -24    2    4    4    0    0 -0.33279109129E+03  0.22035073477E+03 -0.60029398788E+03  0.72521941796E+03  0.79284144389E+02 0.  0.
         24    2    4    4    0    0  0.15307510547E+03 -0.32972902622E+03  0.85214150358E+01  0.37190897743E+03  0.78041362961E+02 0.  0.
         13    1    3    3    0    0  0.73085252534E+02  0.10717312175E+02 -0.57749126632E+02  0.93761807496E+02  0.00000000000E+00 0.  1.
        -13    1    3    3    0    0  0.10663073329E+03  0.98660979278E+02 -0.26321303785E+03  0.30064132352E+03  0.00000000000E+00 0. -1.
          2    1    6    6  502    0  0.11502597997E+03 -0.15643513292E+03 -0.18944855177E+01  0.19418165710E+03  0.00000000000E+00 0. -1.
          1    1    5    5  503    0 -0.33532017098E+02  0.59827633369E+01 -0.25080892339E+02  0.42299418298E+02  0.00000000000E+00 0. -1.
         -2    1    5    5    0  503 -0.29925907419E+03  0.21436797143E+03 -0.57521309554E+03  0.68291999966E+03  0.00000000000E+00 0.  1.
         -1    1    6    6    0  502  0.38049125500E+02 -0.17329389330E+03  0.10415900553E+02  0.17772732033E+03  0.00000000000E+00 0.  1.
<mgrwt>
<rscale>  0 0.11796532E+04</rscale>
<asrwt>0</asrwt>
<pdfrwt beam="1">  1        2 0.18494356E+00 0.11796532E+04</pdfrwt>
<pdfrwt beam="2">  1       -2 0.44522830E-01 0.11796532E+04</pdfrwt>
<totfact> 0.89223839E+01</totfact>
</mgrwt>
</event>
<event>
12    1  0.2433511E-007  0.1463464E+04  0.7818608E-02  0.8909119E-01
         -2   -1    0    0    0  501 -0.00000000000E+00  0.00000000000E+00  0.61100746403E+03  0.61100746403E+03  0.00000000000E+00 0. -1.
          2   -1    0    0  501    0  0.00000000000E+00 -0.00000000000E+00 -0.87630993803E+03  0.87630993803E+03  0.00000000000E+00 0.  1.
         23    2    1    2    0    0  0.39129737012E+02 -0.28420759384E+03  0.27112744828E+03  0.40167485406E+03  0.74347175180E+02 0.  0.
        254    2    1    2    0    0 -0.39129737012E+02  0.28420759384E+03 -0.53642992228E+03  0.10856425480E+04  0.89919830282E+03 0.  0.
        -24    2    4    4    0    0  0.14295100820E+03 -0.77599402786E+02 -0.63567366359E+03  0.66102318483E+03  0.80087366360E+02 0.  0.
         24    2    4    4    0    0 -0.18208074522E+03  0.36180699663E+03  0.99243741313E+02  0.42461936316E+03  0.79966135295E+02 0.  0.
         13    1    3    3    0    0 -0.62835583846E+01 -0.13046049485E+03  0.84115548520E+02  0.15535394853E+03  0.00000000000E+00 0. -1.
        -13    1    3    3    0    0  0.45413295397E+02 -0.15374709899E+03  0.18701189976E+03  0.24632090553E+03  0.00000000000E+00 0.  1.
          4    1    6    6  502    0 -0.15007955625E+02  0.90602513021E+00  0.56163004361E+01  0.16049998261E+02  0.00000000000E+00 0. -1.
          3    1    5    5  503    0 -0.35793590218E+01 -0.25966546819E+01 -0.41499036189E-01  0.44222334531E+01  0.00000000000E+00 0. -1.
         -2    1    5    5    0  503  0.14653036722E+03 -0.75002748104E+02 -0.63563216455E+03  0.65660095138E+03  0.00000000000E+00 0.  1.
         -3    1    6    6    0  502 -0.16707278959E+03  0.36090097150E+03  0.93627440877E+02  0.40856936490E+03  0.00000000000E+00 0.  1.
<mgrwt>
<rscale>  0 0.14634643E+04</rscale>
<asrwt>0</asrwt>
<pdfrwt beam="1">  1        2 0.13481691E+00 0.14634643E+04</pdfrwt>
<pdfrwt beam="2">  1       -2 0.94001149E-01 0.14634643E+04</pdfrwt>
<totfact> 0.28174486E+01</totfact>
</mgrwt>
</event>
<event>
12    1  0.2433511E-007  0.1033241E+04  0.7818608E-02  0.9272820E-01
         -1   -1    0    0    0  501 -0.00000000000E+00  0.00000000000E+00  0.87942816116E+02  0.87942816116E+02  0.00000000000E+00 0.  1.
          1   -1    0    0  501    0  0.00000000000E+00 -0.00000000000E+00 -0.30348873771E+04  0.30348873771E+04  0.00000000000E+00 0. -1.
         23    2    1    2    0    0  0.54377799926E+02  0.83776855600E+02 -0.41208279163E+03  0.43131817316E+03  0.79041967881E+02 0.  0.
        254    2    1    2    0    0 -0.54377799926E+02 -0.83776855600E+02 -0.25348617694E+04  0.26915120201E+04  0.89929820288E+03 0.  0.
        -24    2    4    4    0    0 -0.19267468923E+03 -0.33025418175E+02 -0.25092582229E+04  0.25182116854E+04  0.82456347040E+02 0.  0.
         24    2    4    4    0    0  0.13829688930E+03 -0.50751437425E+02 -0.25603546532E+02  0.17330033473E+03  0.87611223206E+02 0.  0.
         11    1    3    3    0    0  0.64625334779E+02  0.33826122507E+02 -0.19158211264E+03  0.20499840570E+03  0.00000000000E+00 0.  1.
        -11    1    3    3    0    0 -0.10247534853E+02  0.49950733094E+02 -0.22050067899E+03  0.22631976746E+03  0.00000000000E+00 0. -1.
          4    1    6    6  502    0  0.37728182468E+02  0.24474055689E+02  0.73861706034E+00  0.44977113173E+02  0.00000000000E+00 0. -1.
          1    1    5    5  503    0 -0.83794860597E+01 -0.26004506865E+02 -0.38016434219E+03  0.38114482449E+03  0.00000000000E+00 0. -1.
         -2    1    5    5    0  503 -0.18429520317E+03 -0.70209113101E+01 -0.21290938807E+04  0.21370668609E+04  0.00000000000E+00 0.  1.
         -3    1    6    6    0  502  0.10056870683E+03 -0.75225493114E+02 -0.26342163592E+02  0.12832322156E+03  0.00000000000E+00 0.  1.
<mgrwt>
<rscale>  0 0.10332406E+04</rscale>
<asrwt>0</asrwt>
<pdfrwt beam="1">  1        1 0.46690574E+00 0.10332406E+04</pdfrwt>
<pdfrwt beam="2">  1       -1 0.13529664E-01 0.10332406E+04</pdfrwt>
<totfact> 0.22420076E+01</totfact>
</mgrwt>
</event>
<event>
12    1  0.2433511E-007  0.1613108E+04  0.7818608E-02  0.8812536E-01
          1   -1    0    0  501    0  0.00000000000E+00  0.00000000000E+00  0.71629861663E+03  0.71629861663E+03  0.00000000000E+00 0. -1.
         -1   -1    0    0    0  501 -0.00000000000E+00 -0.00000000000E+00 -0.90818135569E+03  0.90818135569E+03  0.00000000000E+00 0.  1.
         23    2    1    2    0    0  0.66216044258E+02 -0.48970435798E+03 -0.31272149633E+03  0.59146267595E+03  0.88534965082E+02 0.  0.
        254    2    1    2    0    0 -0.66216044258E+02  0.48970435798E+03  0.12083875727E+03  0.10330172964E+04  0.89907052370E+03 0.  0.
        -24    2    4    4    0    0 -0.20165744192E+03  0.30532501725E+03  0.47423479163E+03  0.60445135332E+03  0.81078424385E+02 0.  0.
         24    2    4    4    0    0  0.13544139767E+03  0.18437934073E+03 -0.35339603435E+03  0.42856594305E+03  0.80248968547E+02 0.  0.
         13    1    3    3    0    0 -0.14180625579E+02 -0.15481902846E+03 -0.72371730460E+02  0.17148670236E+03  0.00000000000E+00 0. -1.
        -13    1    3    3    0    0  0.80396669838E+02 -0.33488532952E+03 -0.24034976587E+03  0.41997597360E+03  0.00000000000E+00 0.  1.
          4    1    6    6  502    0  0.74226260936E+02  0.15026651145E+03 -0.28509155862E+03  0.33070645453E+03  0.00000000000E+00 0. -1.
          1    1    5    5  503    0 -0.68787180313E+02  0.14115135024E+03  0.25913683771E+03  0.30299716254E+03  0.00000000000E+00 0. -1.
         -4    1    5    5    0  503 -0.13287026161E+03  0.16417366701E+03  0.21509795392E+03  0.30145419078E+03  0.00000000000E+00 0.  1.
         -3    1    6    6    0  502  0.61215136729E+02  0.34112829284E+02 -0.68304475735E+02  0.97859488512E+02  0.00000000000E+00 0.  1.
<mgrwt>
<rscale>  0 0.16131076E+04</rscale>
<asrwt>0</asrwt>
<pdfrwt beam="1">  1        1 0.11019979E+00 0.16131076E+04</pdfrwt>
<pdfrwt beam="2">  1       -1 0.13972021E+00 0.16131076E+04</pdfrwt>
<totfact> 0.10624105E+01</totfact>
</mgrwt>
</event>
<event>
12    1  0.2433511E-007  0.3520455E+04  0.7818608E-02  0.8108959E-01
          2   -1    0    0  501    0  0.00000000000E+00  0.00000000000E+00  0.29724196345E+04  0.29724196345E+04  0.00000000000E+00 0. -1.
         -2   -1    0    0    0  501 -0.00000000000E+00 -0.00000000000E+00 -0.10423833394E+04  0.10423833394E+04  0.00000000000E+00 0.  1.
         23    2    1    2    0    0 -0.15837489477E+04  0.43146705297E+03  0.96786381379E+03  0.19077981103E+04  0.92242726184E+02 0.  0.
        254    2    1    2    0    0  0.15837489477E+04 -0.43146705297E+03  0.96217248134E+03  0.21070048636E+04  0.90513483217E+03 0.  0.
        -24    2    4    4    0    0  0.44003312335E+03  0.12170584246E+03 -0.69781957027E+02  0.46829727747E+03  0.77403855396E+02 0.  0.
         24    2    4    4    0    0  0.11437158243E+04 -0.55317289543E+03  0.10319544384E+04  0.16387075862E+04  0.79664615604E+02 0.  0.
         11    1    3    3    0    0 -0.11068925274E+04  0.34121720939E+03  0.66168769066E+03  0.13339680848E+04  0.00000000000E+00 0.  1.
        -11    1    3    3    0    0 -0.47685642030E+03  0.90249843577E+02  0.30617612313E+03  0.57383002555E+03  0.00000000000E+00 0. -1.
          2    1    6    6  502    0  0.67402245626E+03 -0.29886458124E+03  0.63790365799E+03  0.97496019731E+03  0.00000000000E+00 0. -1.
          1    1    5    5  503    0  0.17676168336E+02  0.98277627810E+01 -0.20174873817E+02  0.28566718080E+02  0.00000000000E+00 0. -1.
         -2    1    5    5    0  503  0.42235695501E+03  0.11187807968E+03 -0.49607083210E+02  0.43973055939E+03  0.00000000000E+00 0.  1.
         -1    1    6    6    0  502  0.46969336809E+03 -0.25430831419E+03  0.39405078038E+03  0.66374738885E+03  0.00000000000E+00 0.  1.
<mgrwt>
<rscale>  0 0.35204549E+04</rscale>
<asrwt>0</asrwt>
<pdfrwt beam="1">  1        2 0.45729533E+00 0.35204549E+04</pdfrwt>
<pdfrwt beam="2">  1       -2 0.16036667E+00 0.35204549E+04</pdfrwt>
<totfact> 0.37179460E-01</totfact>
</mgrwt>
</event>
<event>
12    1  0.2433511E-007  0.3115780E+04  0.7818608E-02  0.8211420E-01
          2   -1    0    0  501    0  0.00000000000E+00  0.00000000000E+00  0.14153740419E+04  0.14153740419E+04  0.00000000000E+00 0. -1.
         -2   -1    0    0    0  501 -0.00000000000E+00 -0.00000000000E+00 -0.17147564797E+04  0.17147564797E+04  0.00000000000E+00 0.  1.
         23    2    1    2    0    0  0.35402439893E+03  0.12292104568E+04 -0.77187798444E+03  0.14971309996E+04  0.96508989425E+02 0.  0.
        254    2    1    2    0    0 -0.35402439893E+03 -0.12292104568E+04  0.47249554656E+03  0.16329995219E+04  0.89841180699E+03 0.  0.
        -24    2    4    4    0    0 -0.11047517458E+03 -0.94390378841E+02  0.43883123820E+03  0.46906866109E+03  0.79613098032E+02 0.  0.
         24    2    4    4    0    0 -0.24354922435E+03 -0.11348200780E+04  0.33664308355E+02  0.11639308608E+04  0.80429653197E+02 0.  0.
         13    1    3    3    0    0  0.25978325604E+03  0.94631324858E+03 -0.63639664953E+03  0.11696139534E+04  0.00000000000E+00 0.  1.
        -13    1    3    3    0    0  0.94241142891E+02  0.28289720824E+03 -0.13548133491E+03  0.32751704620E+03  0.00000000000E+00 0. -1.
          2    1    6    6  502    0 -0.16428285864E+03 -0.60019700899E+03  0.38182044055E+02  0.62344460518E+03  0.00000000000E+00 0. -1.
          1    1    5    5  503    0 -0.69808409845E+02 -0.13392445187E+02  0.24484025183E+03  0.25494964325E+03  0.00000000000E+00 0. -1.
         -2    1    5    5    0  503 -0.40666764733E+02 -0.80997933654E+02  0.19399098637E+03  0.21411901785E+03  0.00000000000E+00 0.  1.
         -1    1    6    6    0  502 -0.79266365713E+02 -0.53462306899E+03 -0.45177357008E+01  0.54048625567E+03  0.00000000000E+00 0.  1.
<mgrwt>
<rscale>  0 0.31157804E+04</rscale>
<asrwt>0</asrwt>
<pdfrwt beam="1">  1        2 0.21774985E+00 0.31157804E+04</pdfrwt>
<pdfrwt beam="2">  1       -2 0.26380869E+00 0.31157804E+04</pdfrwt>
<totfact> 0.63580354E-01</totfact>
</mgrwt>
</event>
<event>
12    1  0.2433511E-007  0.2145064E+04  0.7818608E-02  0.8541648E-01
          2   -1    0    0  501    0  0.00000000000E+00  0.00000000000E+00  0.21321632930E+04  0.21321632930E+04  0.00000000000E+00 0. -1.
         -2   -1    0    0    0  501 -0.00000000000E+00 -0.00000000000E+00 -0.53951084804E+03  0.53951084804E+03  0.00000000000E+00 0.  1.
         23    2    1    2    0    0 -0.57189766594E+03  0.60961180273E+03  0.31177247899E+03  0.89667130037E+03  0.90132413256E+02 0.  0.
        254    2    1    2    0    0  0.57189766594E+03 -0.60961180273E+03  0.12808799659E+04  0.17750028406E+04  0.90071533061E+03 0.  0.
        -24    2    4    4    0    0 -0.14851176520E+03  0.70830543276E+02  0.42788840090E+02  0.18718223286E+03  0.78317259898E+02 0.  0.
         24    2    4    4    0    0  0.72040943114E+03 -0.68044234600E+03  0.12380911259E+04  0.15878206078E+04  0.79455093432E+02 0.  0.
         11    1    3    3    0    0 -0.15829145374E+03  0.22223158881E+03  0.79088070931E+02  0.28407391003E+03  0.00000000000E+00 0.  1.
        -11    1    3    3    0    0 -0.41360621220E+03  0.38738021391E+03  0.23268440806E+03  0.61259739035E+03  0.00000000000E+00 0. -1.
          4    1    6    6  502    0  0.27565410706E+02 -0.19705834224E+02  0.23371235298E+02  0.41162925178E+02  0.00000000000E+00 0. -1.
          3    1    5    5  503    0 -0.51257895231E+02  0.10230448124E+02 -0.20655081532E+02  0.56202013180E+02  0.00000000000E+00 0. -1.
         -4    1    5    5    0  503 -0.97253869969E+02  0.60600095152E+02  0.63443921622E+02  0.13098021968E+03  0.00000000000E+00 0.  1.
         -3    1    6    6    0  502  0.69284402044E+03 -0.66073651178E+03  0.12147198906E+04  0.15466576826E+04  0.00000000000E+00 0.  1.
<mgrwt>
<rscale>  0 0.21450643E+04</rscale>
<asrwt>0</asrwt>
<pdfrwt beam="1">  1        2 0.32802512E+00 0.21450643E+04</pdfrwt>
<pdfrwt beam="2">  1       -2 0.83001670E-01 0.21450643E+04</pdfrwt>
<totfact> 0.65824689E+00</totfact>
</mgrwt>
</event>
<event>
12    1  0.2433511E-007  0.2204882E+04  0.7818608E-02  0.8516399E-01
         -1   -1    0    0    0  501 -0.00000000000E+00  0.00000000000E+00  0.65603313971E+03  0.65603313971E+03  0.00000000000E+00 0.  1.
          1   -1    0    0  501    0  0.00000000000E+00 -0.00000000000E+00 -0.18526140254E+04  0.18526140254E+04  0.00000000000E+00 0. -1.
         23    2    1    2    0    0 -0.13671340748E+03  0.77779202089E+03  0.28355241583E+02  0.79574060456E+03  0.93531312832E+02 0.  0.
        254    2    1    2    0    0  0.13671340748E+03 -0.77779202089E+03 -0.12249361273E+04  0.17129065605E+04  0.89996076898E+03 0.  0.
        -24    2    4    4    0    0 -0.21436863978E+03 -0.32906440228E+02 -0.69069071923E+03  0.72820918987E+03  0.78728692741E+02 0.  0.
         24    2    4    4    0    0  0.35108204726E+03 -0.74488558066E+03 -0.53424540805E+03  0.98469737067E+03  0.78087281898E+02 0.  0.
         13    1    3    3    0    0 -0.56445451019E+02  0.28653730273E+03 -0.34268099631E+02  0.29404764487E+03  0.00000000000E+00 0. -1.
        -13    1    3    3    0    0 -0.80267956463E+02  0.49125471815E+03  0.62623341214E+02  0.50169295970E+03  0.00000000000E+00 0.  1.
          4    1    6    6  502    0 -0.22167969001E+01 -0.37083591021E+01 -0.90297532070E+01  0.10010122812E+02  0.00000000000E+00 0. -1.
          3    1    5    5  503    0 -0.35345608202E+02  0.47628736126E+01 -0.46842228313E+02  0.58874369105E+02  0.00000000000E+00 0. -1.
         -4    1    5    5    0  503 -0.17902303157E+03 -0.37669313841E+02 -0.64384849092E+03  0.66933482077E+03  0.00000000000E+00 0.  1.
         -3    1    6    6    0  502  0.35329884416E+03 -0.74117722156E+03 -0.52521565484E+03  0.97468724785E+03  0.00000000000E+00 0.  1.
<mgrwt>
<rscale>  0 0.22048820E+04</rscale>
<asrwt>0</asrwt>
<pdfrwt beam="1">  1        1 0.28501754E+00 0.22048820E+04</pdfrwt>
<pdfrwt beam="2">  1       -1 0.10092818E+00 0.22048820E+04</pdfrwt>
<totfact> 0.31901175E+00</totfact>
</mgrwt>
</event>
<event>
12    1  0.2433511E-007  0.3728750E+04  0.7818608E-02  0.8061620E-01
         -2   -1    0    0    0  501 -0.00000000000E+00  0.00000000000E+00  0.12896544419E+04  0.12896544419E+04  0.00000000000E+00 0.  1.
          2   -1    0    0  501    0  0.00000000000E+00 -0.00000000000E+00 -0.26952140498E+04  0.26952140498E+04  0.00000000000E+00 0. -1.
         23    2    1    2    0    0  0.13387506582E+04  0.10909049621E+04 -0.33137385167E+03  0.17609870012E+04  0.94549602994E+02 0.  0.
        254    2    1    2    0    0 -0.13387506582E+04 -0.10909049621E+04 -0.10741857562E+04  0.22238814906E+04  0.89969266088E+03 0.  0.
        -24    2    4    4    0    0 -0.28424276036E+03 -0.19254360555E+03 -0.70434085384E+03  0.78760941638E+03  0.79784506808E+02 0.  0.
         24    2    4    4    0    0 -0.10545078979E+04 -0.89836135656E+03 -0.36984490237E+03  0.14362720742E+04  0.83977292670E+02 0.  0.
         11    1    3    3    0    0  0.48484517156E+03  0.37276626569E+03 -0.15999040547E+03  0.63216015302E+03  0.00000000000E+00 0. -1.
        -11    1    3    3    0    0  0.85390548667E+03  0.71813869642E+03 -0.17138344620E+03  0.11288268481E+04  0.00000000000E+00 0.  1.
          2    1    6    6  502    0 -0.48507685988E+03 -0.39374517390E+03 -0.12639655607E+03  0.63742522020E+03  0.00000000000E+00 0. -1.
          3    1    5    5  503    0 -0.25381201312E+03 -0.18437575170E+03 -0.58074164592E+03  0.66005743320E+03  0.00000000000E+00 0. -1.
         -4    1    5    5    0  503 -0.30430747245E+02 -0.81678538479E+01 -0.12359920793E+03  0.12755198319E+03  0.00000000000E+00 0.  1.
         -1    1    6    6    0  502 -0.56943103799E+03 -0.50461618266E+03 -0.24344834629E+03  0.79884685400E+03  0.00000000000E+00 0.  1.
<mgrwt>
<rscale>  0 0.37287503E+04</rscale>
<asrwt>0</asrwt>
<pdfrwt beam="1">  1        2 0.41464831E+00 0.37287503E+04</pdfrwt>
<pdfrwt beam="2">  1       -2 0.19840838E+00 0.37287503E+04</pdfrwt>
<totfact> 0.29365488E-01</totfact>
</mgrwt>
</event>
<event>
12    1  0.3209042E-007  0.2699893E+04  0.7818608E-02  0.8335040E-01
          2   -1    0    0  501    0  0.00000000000E+00  0.00000000000E+00  0.14410407793E+04  0.14410407793E+04  0.00000000000E+00 0. -1.
         -2   -1    0    0    0  501 -0.00000000000E+00 -0.00000000000E+00 -0.12646104003E+04  0.12646104003E+04  0.00000000000E+00 0.  1.
         23    2    1    2    0    0 -0.11843646083E+04  0.17912521924E+03  0.41476903761E+02  0.12014789006E+04  0.83820316504E+02 0.  0.
        254    2    1    2    0    0  0.11843646083E+04 -0.17912521924E+03  0.13495347519E+03  0.15041722790E+04  0.89973131270E+03 0.  0.
        -24    2    4    4    0    0  0.12876633954E+04 -0.88828209042E+02  0.23874328240E+03  0.13150851141E+04  0.80517277400E+02 0.  0.
         24    2    4    4    0    0 -0.10329878710E+03 -0.90297010198E+02 -0.10378980721E+03  0.18908716492E+03  0.78469372294E+02 0.  0.
         13    1    3    3    0    0 -0.48655776600E+03  0.45820409888E+02 -0.13806722101E+02  0.48890550743E+03  0.00000000000E+00 0.  1.
        -13    1    3    3    0    0 -0.69780684228E+03  0.13330480935E+03  0.55283625862E+02  0.71257339315E+03  0.00000000000E+00 0. -1.
          4    1    6    6  502    0 -0.23728859119E+02 -0.59682258779E+02 -0.75805790680E+02  0.99355667522E+02  0.00000000000E+00 0. -1.
          1    1    5    5  503    0  0.27778639850E+03 -0.26834183861E+02  0.84686937345E+02  0.29164573368E+03  0.00000000000E+00 0. -1.
         -2    1    5    5    0  503  0.10098769969E+04 -0.61994025181E+02  0.15405634505E+03  0.10234393804E+04  0.00000000000E+00 0.  1.
         -3    1    6    6    0  502 -0.79569927985E+02 -0.30614751418E+02 -0.27984016533E+02  0.89731497398E+02  0.00000000000E+00 0.  1.
<mgrwt>
<rscale>  0 0.26998927E+04</rscale>
<asrwt>0</asrwt>
<pdfrwt beam="1">  1        2 0.22169858E+00 0.26998927E+04</pdfrwt>
<pdfrwt beam="2">  1       -2 0.19455545E+00 0.26998927E+04</pdfrwt>
<totfact> 0.17382174E+00</totfact>
</mgrwt>
</event>
<event>
12    1  0.2433511E-007  0.2356120E+04  0.7818608E-02  0.8456117E-01
         -2   -1    0    0    0  501 -0.00000000000E+00  0.00000000000E+00  0.44847471823E+03  0.44847471823E+03  0.00000000000E+00 0.  1.
          2   -1    0    0  501    0  0.00000000000E+00 -0.00000000000E+00 -0.30945443954E+04  0.30945443954E+04  0.00000000000E+00 0. -1.
         23    2    1    2    0    0 -0.67285881671E+03 -0.74397911355E+03 -0.11459504072E+04  0.15253117314E+04  0.84437157553E+02 0.  0.
        254    2    1    2    0    0  0.67285881671E+03  0.74397911355E+03 -0.15001192700E+04  0.20177073822E+04  0.90251944438E+03 0.  0.
        -24    2    4    4    0    0 -0.68903438830E+02  0.29192901997E+03 -0.32876654416E+02  0.31075830441E+03  0.74294096510E+02 0.  0.
         24    2    4    4    0    0  0.74176225554E+03  0.45205009359E+03 -0.14672426156E+04  0.17069490778E+04  0.79458985896E+02 0.  0.
         13    1    3    3    0    0 -0.59319639225E+03 -0.68595452406E+03 -0.10550336223E+04  0.13912266217E+04  0.00000000000E+00 0. -1.
        -13    1    3    3    0    0 -0.79662424465E+02 -0.58024589496E+02 -0.90916784871E+02  0.13408510965E+03  0.00000000000E+00 0.  1.
          2    1    6    6  502    0  0.71711738239E+03  0.42022995456E+03 -0.13821962798E+04  0.16128599166E+04  0.00000000000E+00 0. -1.
          3    1    5    5  503    0 -0.44322773058E+02  0.27570709540E+03 -0.33850387922E+02  0.28129123596E+03  0.00000000000E+00 0. -1.
         -4    1    5    5    0  503 -0.24580665772E+02  0.16221924568E+02  0.97373350666E+00  0.29467068457E+02  0.00000000000E+00 0.  1.
         -1    1    6    6    0  502  0.24644873150E+02  0.31820139024E+02 -0.85046335805E+02  0.94089161193E+02  0.00000000000E+00 0.  1.
<mgrwt>
<rscale>  0 0.23561196E+04</rscale>
<asrwt>0</asrwt>
<pdfrwt beam="1">  1        2 0.47608374E+00 0.23561196E+04</pdfrwt>
<pdfrwt beam="2">  1       -2 0.68996112E-01 0.23561196E+04</pdfrwt>
<totfact> 0.26286705E+00</totfact>
</mgrwt>
</event>
<event>
12    1  0.2433511E-007  0.2367630E+04  0.7818608E-02  0.8451723E-01
          2   -1    0    0  501    0  0.00000000000E+00  0.00000000000E+00  0.42768565165E+04  0.42768565165E+04  0.00000000000E+00 0. -1.
         -2   -1    0    0    0  501 -0.00000000000E+00 -0.00000000000E+00 -0.32767477258E+03  0.32767477258E+03  0.00000000000E+00 0.  1.
         23    2    1    2    0    0 -0.10006342096E+04 -0.38807826402E+02  0.19316450389E+04  0.21777318464E+04  0.92133433534E+02 0.  0.
        254    2    1    2    0    0  0.10006342096E+04  0.38807826402E+02  0.20175367050E+04  0.24267994427E+04  0.90339709434E+03 0.  0.
        -24    2    4    4    0    0 -0.13774871991E+03  0.12267970723E+03  0.37278026830E+03  0.42319353165E+03  0.78119244697E+02 0.  0.
         24    2    4    4    0    0  0.11383829295E+04 -0.83871880827E+02  0.16447564367E+04  0.20036059110E+04  0.79137373927E+02 0.  0.
         11    1    3    3    0    0 -0.91036283361E+02  0.22993621333E+02  0.17587255524E+03  0.19936766838E+03  0.00000000000E+00 0.  1.
        -11    1    3    3    0    0 -0.90959792627E+03 -0.61801447735E+02  0.17557724836E+04  0.19783641780E+04  0.00000000000E+00 0. -1.
          4    1    6    6  502    0  0.11376841583E+03 -0.15982271174E+02  0.12865731486E+03  0.17248591276E+03  0.00000000000E+00 0. -1.
          1    1    5    5  503    0 -0.39985418149E+02  0.49685276802E+02  0.21185227011E+03  0.22124385810E+03  0.00000000000E+00 0. -1.
         -2    1    5    5    0  503 -0.97763301766E+02  0.72994430427E+02  0.16092799818E+03  0.20194967354E+03  0.00000000000E+00 0.  1.
         -3    1    6    6    0  502  0.10246145137E+04 -0.67889609653E+02  0.15160991218E+04  0.18311199983E+04  0.00000000000E+00 0.  1.
<mgrwt>
<rscale>  0 0.23676300E+04</rscale>
<asrwt>0</asrwt>
<pdfrwt beam="1">  1        2 0.65797789E+00 0.23676300E+04</pdfrwt>
<pdfrwt beam="2">  1       -2 0.50411506E-01 0.23676300E+04</pdfrwt>
<totfact> 0.67210492E-01</totfact>
</mgrwt>
</event>
<event>
12    1  0.2433511E-007  0.3426364E+04  0.7818608E-02  0.8131466E-01
          1   -1    0    0  501    0  0.00000000000E+00  0.00000000000E+00  0.15140286003E+04  0.15140286003E+04  0.00000000000E+00 0. -1.
         -1   -1    0    0    0  501 -0.00000000000E+00 -0.00000000000E+00 -0.19385321264E+04  0.19385321264E+04  0.00000000000E+00 0.  1.
         23    2    1    2    0    0 -0.12262207650E+04  0.38758856334E+03 -0.11453754556E+04  0.17254815750E+04  0.10751498792E+03 0.  0.
        254    2    1    2    0    0  0.12262207650E+04 -0.38758856334E+03  0.72087192944E+03  0.17270791516E+04  0.89961313819E+03 0.  0.
        -24    2    4    4    0    0  0.48075434158E+03  0.24105405861E+03  0.61689982157E+02  0.54718808302E+03  0.79858300624E+02 0.  0.
         24    2    4    4    0    0  0.74546642343E+03 -0.62864262195E+03  0.65918194729E+03  0.11798910686E+04  0.81916784588E+02 0.  0.
         11    1    3    3    0    0 -0.10071660209E+04  0.28470058387E+03 -0.96542600570E+03  0.14238978856E+04  0.00000000000E+00 0.  1.
        -11    1    3    3    0    0 -0.21905474410E+03  0.10288797946E+03 -0.17994944986E+03  0.30158368943E+03  0.00000000000E+00 0. -1.
          4    1    6    6  502    0  0.71117627490E+03 -0.60338439256E+03  0.60811124478E+03  0.11133928800E+04  0.00000000000E+00 0. -1.
          1    1    5    5  503    0  0.38924033321E+03  0.22690211059E+03  0.60397829461E+02  0.45457727901E+03  0.00000000000E+00 0. -1.
         -2    1    5    5    0  503  0.91514008366E+02  0.14151948019E+02  0.12921526960E+01  0.92610804006E+02  0.00000000000E+00 0.  1.
         -3    1    6    6    0  502  0.34290148532E+02 -0.25258229384E+02  0.51070702508E+02  0.66498188642E+02  0.00000000000E+00 0.  1.
<mgrwt>
<rscale>  0 0.34263643E+04</rscale>
<asrwt>0</asrwt>
<pdfrwt beam="1">  1        1 0.23292748E+00 0.34263643E+04</pdfrwt>
<pdfrwt beam="2">  1       -1 0.29823571E+00 0.34263643E+04</pdfrwt>
<totfact> 0.17801965E-01</totfact>
</mgrwt>
</event>
<event>
12    1  0.2433511E-007  0.3489806E+04  0.7818608E-02  0.8116210E-01
         -1   -1    0    0    0  501 -0.00000000000E+00  0.00000000000E+00  0.15168728610E+04  0.15168728610E+04  0.00000000000E+00 0.  1.
          1   -1    0    0  501    0  0.00000000000E+00 -0.00000000000E+00 -0.20072124323E+04  0.20072124323E+04  0.00000000000E+00 0. -1.
         23    2    1    2    0    0 -0.72079626545E+03  0.14308834079E+04 -0.51940887066E+03  0.16866892197E+04  0.90334741326E+02 0.  0.
        254    2    1    2    0    0  0.72079626545E+03 -0.14308834079E+04  0.29069299334E+02  0.18373960736E+04  0.89900207106E+03 0.  0.
        -24    2    4    4    0    0  0.79901015312E+03 -0.62486463690E+03 -0.56943779850E+02  0.10190557269E+04  0.79742969436E+02 0.  0.
         24    2    4    4    0    0 -0.78213887676E+02 -0.80601877101E+03  0.86013079185E+02  0.81834034672E+03  0.80616386858E+02 0.  0.
         11    1    3    3    0    0 -0.35919036271E+03  0.61603815668E+03 -0.21980474040E+03  0.74621367654E+03  0.00000000000E+00 0.  1.
        -11    1    3    3    0    0 -0.36160590273E+03  0.81484525123E+03 -0.29960413027E+03  0.94047554312E+03  0.00000000000E+00 0. -1.
          2    1    6    6  502    0 -0.26663509233E+01 -0.13736629976E+03  0.43407246558E+02  0.14408608118E+03  0.00000000000E+00 0. -1.
          1    1    5    5  503    0  0.47257923082E+03 -0.32304333069E+03 -0.46927806717E+02  0.57436081164E+03  0.00000000000E+00 0. -1.
         -2    1    5    5    0  503  0.32643092230E+03 -0.30182130622E+03 -0.10015973133E+02  0.44469491524E+03  0.00000000000E+00 0.  1.
         -1    1    6    6    0  502 -0.75547536753E+02 -0.66865247125E+03  0.42605832626E+02  0.67425426553E+03  0.00000000000E+00 0.  1.
<mgrwt>
<rscale>  0 0.34898058E+04</rscale>
<asrwt>0</asrwt>
<pdfrwt beam="1">  1        1 0.30880191E+00 0.34898058E+04</pdfrwt>
<pdfrwt beam="2">  1       -1 0.23336506E+00 0.34898058E+04</pdfrwt>
<totfact> 0.21575836E-01</totfact>
</mgrwt>
</event>
<event>
12    1  0.2433511E-007  0.2439695E+04  0.7818608E-02  0.8424790E-01
          2   -1    0    0  501    0  0.00000000000E+00  0.00000000000E+00  0.61562393857E+03  0.61562393857E+03  0.00000000000E+00 0. -1.
         -2   -1    0    0    0  501 -0.00000000000E+00 -0.00000000000E+00 -0.24171048779E+04  0.24171048779E+04  0.00000000000E+00 0.  1.
         23    2    1    2    0    0  0.18523191465E+01  0.71417579671E+03  0.18037026748E+03  0.74218606736E+03  0.90863774417E+02 0.  0.
        254    2    1    2    0    0 -0.18523191465E+01 -0.71417579671E+03 -0.19818512068E+04  0.22905427491E+04  0.89933385344E+03 0.  0.
        -24    2    4    4    0    0 -0.20120484603E+03  0.98718391717E+02 -0.16729596947E+03  0.29073874917E+03  0.79450411813E+02 0.  0.
         24    2    4    4    0    0  0.19935252689E+03 -0.81289418842E+03 -0.18145552373E+04  0.19998039999E+04  0.77890547130E+02 0.  0.
         11    1    3    3    0    0 -0.20903236568E+02  0.19427065949E+03  0.85166915663E+02  0.21314651759E+03  0.00000000000E+00 0. -1.
        -11    1    3    3    0    0  0.22755555715E+02  0.51990513721E+03  0.95203351814E+02  0.52903954976E+03  0.00000000000E+00 0.  1.
          4    1    6    6  502    0  0.96147895851E+02 -0.38550221623E+03 -0.95420820831E+03  0.10336196986E+04  0.00000000000E+00 0. -1.
          1    1    5    5  503    0 -0.11237239554E+03  0.21300443818E+02 -0.51163830206E+02  0.12529565718E+03  0.00000000000E+00 0. -1.
         -2    1    5    5    0  503 -0.88832450492E+02  0.77417947900E+02 -0.11613213927E+03  0.16544309199E+03  0.00000000000E+00 0.  1.
         -3    1    6    6    0  502  0.10320463104E+03 -0.42739197219E+03 -0.86034702902E+03  0.96618430131E+03  0.00000000000E+00 0.  1.
<mgrwt>
<rscale>  0 0.24396948E+04</rscale>
<asrwt>0</asrwt>
<pdfrwt beam="1">  1        2 0.94711375E-01 0.24396948E+04</pdfrwt>
<pdfrwt beam="2">  1       -2 0.37186229E+00 0.24396948E+04</pdfrwt>
<totfact> 0.48699572E-01</totfact>
</mgrwt>
</event>
<event>
12    1  0.2433511E-007  0.2239095E+04  0.7818608E-02  0.8502330E-01
         -2   -1    0    0    0  501 -0.00000000000E+00  0.00000000000E+00  0.12247485638E+04  0.12247485638E+04  0.00000000000E+00 0.  1.
          2   -1    0    0  501    0  0.00000000000E+00 -0.00000000000E+00 -0.10233830870E+04  0.10233830870E+04  0.00000000000E+00 0. -1.
         23    2    1    2    0    0 -0.87577332810E+03  0.26115172408E+03  0.30337563274E+03  0.96716307890E+03  0.90490338949E+02 0.  0.
        254    2    1    2    0    0  0.87577332810E+03 -0.26115172408E+03 -0.10201015590E+03  0.12809685719E+04  0.89179328611E+03 0.  0.
        -24    2    4    4    0    0  0.79399241550E+03 -0.50610543281E+03  0.90345450238E+02  0.94931374400E+03  0.80421509355E+02 0.  0.
         24    2    4    4    0    0  0.81780912595E+02  0.24495370873E+03 -0.19235560614E+03  0.33165482793E+03  0.79396527565E+02 0.  0.
         13    1    3    3    0    0 -0.53022550050E+03  0.20298648294E+03  0.17804230257E+03  0.59501399575E+03  0.00000000000E+00 0. -1.
        -13    1    3    3    0    0 -0.34554782759E+03  0.58165241146E+02  0.12533333017E+03  0.37214908314E+03  0.00000000000E+00 0.  1.
          2    1    6    6  502    0  0.24521175810E+02  0.16702508389E+03 -0.91866295923E+02  0.19219282775E+03  0.00000000000E+00 0. -1.
          1    1    5    5  503    0  0.77890437226E+03 -0.49794682861E+03  0.77168864498E+02  0.92768426682E+03  0.00000000000E+00 0. -1.
         -2    1    5    5    0  503  0.15088043237E+02 -0.81586042044E+01  0.13176585740E+02  0.21629477179E+02  0.00000000000E+00 0.  1.
         -1    1    6    6    0  502  0.57259736785E+02  0.77928624839E+02 -0.10048931022E+03  0.13946200018E+03  0.00000000000E+00 0.  1.
<mgrwt>
<rscale>  0 0.22390953E+04</rscale>
<asrwt>0</asrwt>
<pdfrwt beam="1">  1        2 0.15744355E+00 0.22390953E+04</pdfrwt>
<pdfrwt beam="2">  1       -2 0.18842286E+00 0.22390953E+04</pdfrwt>
<totfact> 0.35210598E+00</totfact>
</mgrwt>
</event>
<event>
12    1  0.3359207E-007  0.2282865E+04  0.7818608E-02  0.8484708E-01
          1   -1    0    0  501    0  0.00000000000E+00  0.00000000000E+00  0.97714275746E+03  0.97714275746E+03  0.00000000000E+00 0. -1.
         -1   -1    0    0    0  501 -0.00000000000E+00 -0.00000000000E+00 -0.13333446916E+04  0.13333446916E+04  0.00000000000E+00 0.  1.
         23    2    1    2    0    0  0.14080190740E+01  0.85483302392E+03  0.29480683850E+03  0.90889880620E+03  0.91893887580E+02 0.  0.
        254    2    1    2    0    0 -0.14080190740E+01 -0.85483302392E+03 -0.65100877264E+03  0.14015886429E+04  0.89994267620E+03 0.  0.
        -24    2    4    4    0    0 -0.24951259328E+03 -0.64480339059E+03 -0.30783643760E+02  0.69691697708E+03  0.81961536737E+02 0.  0.
         24    2    4    4    0    0  0.24810457420E+03 -0.21002963333E+03 -0.62022512888E+03  0.70467166578E+03  0.78832857625E+02 0.  0.
         13    1    3    3    0    0 -0.27020527401E+02  0.30302982541E+03  0.68713821949E+02  0.31189545254E+03  0.00000000000E+00 0.  1.
        -13    1    3    3    0    0  0.28428546475E+02  0.55180319851E+03  0.22609301655E+03  0.59700335365E+03  0.00000000000E+00 0. -1.
          2    1    6    6  502    0  0.22373247539E+03 -0.20961208032E+03 -0.59639850092E+03  0.67058527918E+03  0.00000000000E+00 0. -1.
          1    1    5    5  503    0 -0.25383491884E+03 -0.64241902873E+03 -0.28151157709E+02  0.69132254569E+03  0.00000000000E+00 0. -1.
         -2    1    5    5    0  503  0.43223255673E+01 -0.23843618563E+01 -0.26324860509E+01  0.55944313903E+01  0.00000000000E+00 0.  1.
         -1    1    6    6    0  502  0.24372098817E+02 -0.41755300879E+00 -0.23826627965E+02  0.34086386600E+02  0.00000000000E+00 0.  1.
<mgrwt>
<rscale>  0 0.22828650E+04</rscale>
<asrwt>0</asrwt>
<pdfrwt beam="1">  1        1 0.15032966E+00 0.22828650E+04</pdfrwt>
<pdfrwt beam="2">  1       -1 0.20512995E+00 0.22828650E+04</pdfrwt>
<totfact> 0.19809789E+00</totfact>
</mgrwt>
</event>
<event>
12    1  0.2433511E-007  0.2959065E+04  0.7818608E-02  0.8255518E-01
         -2   -1    0    0    0  501 -0.00000000000E+00  0.00000000000E+00  0.12245638803E+04  0.12245638803E+04  0.00000000000E+00 0.  1.
          2   -1    0    0  501    0  0.00000000000E+00 -0.00000000000E+00 -0.17875883306E+04  0.17875883306E+04  0.00000000000E+00 0. -1.
         23    2    1    2    0    0 -0.11515498723E+04 -0.38820374202E+03  0.32130536816E+03  0.12602658780E+04  0.90904840069E+02 0.  0.
        254    2    1    2    0    0  0.11515498723E+04  0.38820374202E+03 -0.88432981845E+03  0.17518863329E+04  0.90016511915E+03 0.  0.
        -24    2    4    4    0    0  0.52400616779E+03 -0.37406322463E+02 -0.83203520882E+03  0.98718308332E+03  0.79159045186E+02 0.  0.
         24    2    4    4    0    0  0.62754370452E+03  0.42561006448E+03 -0.52294609634E+02  0.76470324954E+03  0.84150493726E+02 0.  0.
         11    1    3    3    0    0 -0.99478307490E+03 -0.36487488186E+03  0.29199762683E+03  0.10990858290E+04  0.00000000000E+00 0. -1.
        -11    1    3    3    0    0 -0.15676679740E+03 -0.23328860161E+02  0.29307741325E+02  0.16118004897E+03  0.00000000000E+00 0.  1.
          2    1    6    6  502    0  0.24841068047E+03  0.18538448934E+03  0.17610701305E+02  0.31046000042E+03  0.00000000000E+00 0. -1.
          3    1    5    5  503    0  0.25333457423E+02  0.66684064234E+01 -0.18918278213E+02  0.32313355750E+02  0.00000000000E+00 0. -1.
         -4    1    5    5    0  503  0.49867271036E+03 -0.44074728886E+02 -0.81311693060E+03  0.95486972757E+03  0.00000000000E+00 0.  1.
         -1    1    6    6    0  502  0.37913302405E+03  0.24022557514E+03 -0.69905310939E+02  0.45424324912E+03  0.00000000000E+00 0.  1.
<mgrwt>
<rscale>  0 0.29590648E+04</rscale>
<asrwt>0</asrwt>
<pdfrwt beam="1">  1        2 0.27501359E+00 0.29590648E+04</pdfrwt>
<pdfrwt beam="2">  1       -2 0.18839444E+00 0.29590648E+04</pdfrwt>
<totfact> 0.11966796E+00</totfact>
</mgrwt>
</event>
<event>
12    1  0.2433511E-007  0.2516634E+04  0.7818608E-02  0.8397083E-01
          1   -1    0    0  501    0  0.00000000000E+00  0.00000000000E+00  0.23904159120E+04  0.23904159120E+04  0.00000000000E+00 0. -1.
         -1   -1    0    0    0  501 -0.00000000000E+00 -0.00000000000E+00 -0.66237913883E+03  0.66237913883E+03  0.00000000000E+00 0.  1.
         23    2    1    2    0    0  0.68824298760E+03  0.83773185996E+03  0.62481265041E+03  0.12546415980E+04  0.90893410274E+02 0.  0.
        254    2    1    2    0    0 -0.68824298760E+03 -0.83773185996E+03  0.11032241228E+04  0.17981534529E+04  0.91694018121E+03 0.  0.
        -24    2    4    4    0    0 -0.39908476031E+03 -0.76509387810E+03  0.11950644975E+04  0.14762208143E+04  0.80071537728E+02 0.  0.
         24    2    4    4    0    0 -0.28915822729E+03 -0.72637981855E+02 -0.91840374765E+02  0.32193263857E+03  0.79480894071E+02 0.  0.
         11    1    3    3    0    0  0.31515414438E+02  0.61932171540E+02  0.60028265218E+02  0.91827053987E+02  0.00000000000E+00 0. -1.
        -11    1    3    3    0    0  0.65672757317E+03  0.77579968842E+03  0.56478438519E+03  0.11628145440E+04  0.00000000000E+00 0.  1.
          2    1    6    6  502    0 -0.25820531770E+03 -0.63349950015E+02 -0.52459158329E+02  0.27098923512E+03  0.00000000000E+00 0. -1.
          1    1    5    5  503    0 -0.32072865940E+03 -0.60517199084E+03  0.10003005655E+04  0.12123123495E+04  0.00000000000E+00 0. -1.
         -2    1    5    5    0  503 -0.78356100915E+02 -0.15992188726E+03  0.19476393207E+03  0.26390846483E+03  0.00000000000E+00 0.  1.
         -1    1    6    6    0  502 -0.30952909588E+02 -0.92880318400E+01 -0.39381216436E+02  0.50943403453E+02  0.00000000000E+00 0.  1.
<mgrwt>
<rscale>  0 0.25166340E+04</rscale>
<asrwt>0</asrwt>
<pdfrwt beam="1">  1        1 0.36775629E+00 0.25166340E+04</pdfrwt>
<pdfrwt beam="2">  1       -1 0.10190448E+00 0.25166340E+04</pdfrwt>
<totfact> 0.13054961E+00</totfact>
</mgrwt>
</event>
<event>
12    1  0.2433511E-007  0.5195548E+04  0.7818608E-02  0.7799030E-01
          2   -1    0    0  501    0  0.00000000000E+00  0.00000000000E+00  0.36125164002E+04  0.36125164002E+04  0.00000000000E+00 0.  1.
         -2   -1    0    0    0  501 -0.00000000000E+00 -0.00000000000E+00 -0.18680686677E+04  0.18680686677E+04  0.00000000000E+00 0. -1.
         23    2    1    2    0    0  0.21342750835E+04  0.12011478786E+04  0.14676466906E+04  0.28566039373E+04  0.91175040781E+02 0.  0.
        254    2    1    2    0    0 -0.21342750835E+04 -0.12011478786E+04  0.27680104191E+03  0.26239811306E+04  0.90042867509E+03 0.  0.
        -24    2    4    4    0    0 -0.11555862260E+04 -0.11101630839E+04  0.32346795673E+03  0.16367298068E+04  0.80070860095E+02 0.  0.
         24    2    4    4    0    0 -0.97868885747E+03 -0.90984794670E+02 -0.46666914824E+02  0.98725132388E+03  0.79857767083E+02 0.  0.
         11    1    3    3    0    0  0.19268813604E+04  0.10891559205E+04  0.13566117259E+04  0.25960600477E+04  0.00000000000E+00 0.  1.
        -11    1    3    3    0    0  0.20739372307E+03  0.11199195814E+03  0.11103496468E+03  0.26054388966E+03  0.00000000000E+00 0. -1.
          2    1    6    6  502    0 -0.56420013679E+03 -0.85099047412E+02 -0.46927329311E+01  0.57060114263E+03  0.00000000000E+00 0. -1.
          1    1    5    5  503    0 -0.51720419599E+03 -0.44200653696E+03  0.13760426688E+03  0.69412167041E+03  0.00000000000E+00 0. -1.
         -2    1    5    5    0  503 -0.63838203002E+03 -0.66815654698E+03  0.18586368985E+03  0.94260813636E+03  0.00000000000E+00 0.  1.
         -1    1    6    6    0  502 -0.41448872068E+03 -0.58857472580E+01 -0.41974181893E+02  0.41665018125E+03  0.00000000000E+00 0.  1.
<mgrwt>
<rscale>  0 0.51955476E+04</rscale>
<asrwt>0</asrwt>
<pdfrwt beam="1">  1        2 0.55577175E+00 0.51955476E+04</pdfrwt>
<pdfrwt beam="2">  1       -2 0.28739518E+00 0.51955476E+04</pdfrwt>
<totfact> 0.18351815E-02</totfact>
</mgrwt>
</event>
<event>
12    1  0.2433511E-007  0.1756239E+04  0.7818608E-02  0.8729923E-01
         -1   -1    0    0    0  501 -0.00000000000E+00  0.00000000000E+00  0.65422279231E+03  0.65422279231E+03  0.00000000000E+00 0.  1.
          1   -1    0    0  501    0  0.00000000000E+00 -0.00000000000E+00 -0.11786416736E+04  0.11786416736E+04  0.00000000000E+00 0. -1.
         23    2    1    2    0    0  0.54743954441E+03 -0.33775741891E+03 -0.21167309218E+03  0.68192768222E+03  0.80310254728E+02 0.  0.
        254    2    1    2    0    0 -0.54743954441E+03  0.33775741891E+03 -0.31274578912E+03  0.11509367837E+04  0.90170694942E+03 0.  0.
        -24    2    4    4    0    0 -0.56467105376E+03  0.30443189112E+03 -0.58056113332E+03  0.86877169712E+03  0.78618426038E+02 0.  0.
         24    2    4    4    0    0  0.17231509347E+02  0.33325527791E+02  0.26781534420E+03  0.28216508657E+03  0.80526776733E+02 0.  0.
         11    1    3    3    0    0  0.31456832631E+03 -0.20495041916E+03 -0.16374316995E+03  0.40959703604E+03  0.00000000000E+00 0. -1.
        -11    1    3    3    0    0  0.23287121810E+03 -0.13280699975E+03 -0.47929922229E+02  0.27233064618E+03  0.00000000000E+00 0.  1.
          2    1    6    6  502    0  0.36323263786E+02  0.10020599234E+02  0.23341867387E+03  0.23644041366E+03  0.00000000000E+00 0. -1.
          3    1    5    5  503    0 -0.35644777428E+03  0.23437477534E+03 -0.38034884456E+03  0.57153459621E+03  0.00000000000E+00 0. -1.
         -4    1    5    5    0  503 -0.20822327948E+03  0.70057115778E+02 -0.20021228876E+03  0.29723710091E+03  0.00000000000E+00 0.  1.
         -1    1    6    6    0  502 -0.19091754439E+02  0.23304928556E+02  0.34396670337E+02  0.45724672911E+02  0.00000000000E+00 0.  1.
<mgrwt>
<rscale>  0 0.17562394E+04</rscale>
<asrwt>0</asrwt>
<pdfrwt beam="1">  1        1 0.18132949E+00 0.17562394E+04</pdfrwt>
<pdfrwt beam="2">  1       -1 0.10064966E+00 0.17562394E+04</pdfrwt>
<totfact> 0.98544636E+00</totfact>
</mgrwt>
</event>
<event>
12    1  0.2433511E-007  0.2481101E+04  0.7818608E-02  0.8409750E-01
          2   -1    0    0  501    0  0.00000000000E+00  0.00000000000E+00  0.46398546819E+04  0.46398546819E+04  0.00000000000E+00 0. -1.
         -2   -1    0    0    0  501 -0.00000000000E+00 -0.00000000000E+00 -0.33168394051E+03  0.33168394051E+03  0.00000000000E+00 0.  1.
         23    2    1    2    0    0  0.74180093640E+03 -0.11163966841E+03  0.32989473940E+03  0.82437004980E+03  0.89573406316E+02 0.  0.
        254    2    1    2    0    0 -0.74180093640E+03  0.11163966841E+03  0.39782760020E+04  0.41471685726E+04  0.89977507011E+03 0.  0.
        -24    2    4    4    0    0 -0.93183389642E+03 -0.43674715597E+01  0.31777984435E+04  0.33124412258E+04  0.74366938752E+02 0.  0.
         24    2    4    4    0    0  0.19003296002E+03  0.11600713997E+03  0.80047755848E+03  0.83472734679E+03  0.80219944109E+02 0.  0.
         11    1    3    3    0    0  0.40964064067E+03 -0.93395619592E+02  0.21837265832E+03  0.47351326713E+03  0.00000000000E+00 0. -1.
        -11    1    3    3    0    0  0.33216029573E+03 -0.18244048822E+02  0.11152208107E+03  0.35085678267E+03  0.00000000000E+00 0.  1.
          4    1    6    6  502    0  0.69258198976E+02  0.84625257713E+00  0.21050028448E+03  0.22160276180E+03  0.00000000000E+00 0. -1.
          3    1    5    5  503    0 -0.67741731011E+03  0.22945962394E+02  0.23775977106E+04  0.24723251410E+04  0.00000000000E+00 0. -1.
         -4    1    5    5    0  503 -0.25441658631E+03 -0.27313433954E+02  0.80020073293E+03  0.84011608486E+03  0.00000000000E+00 0.  1.
         -3    1    6    6    0  502  0.12077476104E+03  0.11516088740E+03  0.58997727399E+03  0.61312458499E+03  0.00000000000E+00 0.  1.
<mgrwt>
<rscale>  0 0.24811008E+04</rscale>
<asrwt>0</asrwt>
<pdfrwt beam="1">  1        2 0.71382375E+00 0.24811008E+04</pdfrwt>
<pdfrwt beam="2">  1       -2 0.51028302E-01 0.24811008E+04</pdfrwt>
<totfact> 0.29023075E-01</totfact>
</mgrwt>
</event>
<event>
12    1  0.2433511E-007  0.2511167E+04  0.7818608E-02  0.8399018E-01
         -2   -1    0    0    0  501 -0.00000000000E+00  0.00000000000E+00  0.80720472903E+03  0.80720472903E+03  0.00000000000E+00 0.  1.
          2   -1    0    0  501    0  0.00000000000E+00 -0.00000000000E+00 -0.19530236728E+04  0.19530236728E+04  0.00000000000E+00 0. -1.
         23    2    1    2    0    0  0.81915685097E+03  0.30138561146E+03  0.22216414338E+03  0.90486087721E+03  0.86977394817E+02 0.  0.
        254    2    1    2    0    0 -0.81915685097E+03 -0.30138561146E+03 -0.13679830871E+04  0.18553675246E+04  0.89953304074E+03 0.  0.
        -24    2    4    4    0    0 -0.30002051690E+03 -0.55631177293E+03 -0.92134482725E+03  0.11202173759E+04  0.80719138015E+02 0.  0.
         24    2    4    4    0    0 -0.51913633407E+03  0.25492616146E+03 -0.44663825989E+03  0.73515014874E+03  0.80437086243E+02 0.  0.
         13    1    3    3    0    0  0.66215624424E+03  0.20611069564E+03  0.17297750150E+03  0.71474032114E+03  0.00000000000E+00 0. -1.
        -13    1    3    3    0    0  0.15700060673E+03  0.95274915825E+02  0.49186641880E+02  0.19012055607E+03  0.00000000000E+00 0.  1.
          4    1    6    6  502    0 -0.49260590632E+03  0.21883093343E+03 -0.40874385840E+03  0.67647549707E+03  0.00000000000E+00 0. -1.
          3    1    5    5  503    0 -0.13951066929E+03 -0.32427906039E+03 -0.55619755840E+03  0.65876844173E+03  0.00000000000E+00 0. -1.
         -4    1    5    5    0  503 -0.16050984761E+03 -0.23203271253E+03 -0.36514726885E+03  0.46144893414E+03  0.00000000000E+00 0.  1.
         -3    1    6    6    0  502 -0.26530427753E+02  0.36095228033E+02 -0.37894401491E+02  0.58674651664E+02  0.00000000000E+00 0.  1.
<mgrwt>
<rscale>  0 0.25111670E+04</rscale>
<asrwt>0</asrwt>
<pdfrwt beam="1">  1        2 0.30046518E+00 0.25111670E+04</pdfrwt>
<pdfrwt beam="2">  1       -2 0.12418534E+00 0.25111670E+04</pdfrwt>
<totfact> 0.30818049E+00</totfact>
</mgrwt>
</event>
<event>
12    1  0.2433511E-007  0.4166881E+04  0.7818608E-02  0.7971702E-01
          2   -1    0    0  501    0  0.00000000000E+00  0.00000000000E+00  0.29321549862E+04  0.29321549862E+04  0.00000000000E+00 0. -1.
         -2   -1    0    0    0  501 -0.00000000000E+00 -0.00000000000E+00 -0.14803867874E+04  0.14803867874E+04  0.00000000000E+00 0.  1.
         23    2    1    2    0    0 -0.50378848453E+03  0.16109387907E+04  0.18019092823E+04  0.24705702579E+04  0.88959054690E+02 0.  0.
        254    2    1    2    0    0  0.50378848453E+03 -0.16109387907E+04 -0.35014108347E+03  0.19419715157E+04  0.89427510597E+03 0.  0.
        -24    2    4    4    0    0 -0.20341882696E+03 -0.80818265133E+03 -0.16734671945E+03  0.85380474326E+03  0.80244613726E+02 0.  0.
         24    2    4    4    0    0  0.70720731149E+03 -0.80275613934E+03 -0.18279436403E+03  0.10881667725E+04  0.78316949179E+02 0.  0.
         13    1    3    3    0    0 -0.16889019543E+03  0.66003202626E+03  0.76325457801E+03  0.10230951689E+04  0.00000000000E+00 0.  1.
        -13    1    3    3    0    0 -0.33489828911E+03  0.95090676440E+03  0.10386547043E+04  0.14474750890E+04  0.00000000000E+00 0. -1.
          2    1    6    6  502    0  0.16680987933E+03 -0.14879344615E+03 -0.55551488536E+02  0.23032801249E+03  0.00000000000E+00 0. -1.
          3    1    5    5  503    0 -0.64161118453E+00 -0.93397612316E+02 -0.66666715917E+01  0.93637439955E+02  0.00000000000E+00 0. -1.
         -4    1    5    5    0  503 -0.20277721577E+03 -0.71478503901E+03 -0.16068004786E+03  0.76016730330E+03  0.00000000000E+00 0.  1.
         -1    1    6    6    0  502  0.54039743216E+03 -0.65396269319E+03 -0.12724287549E+03  0.85783875999E+03  0.00000000000E+00 0.  1.
<mgrwt>
<rscale>  0 0.41668806E+04</rscale>
<asrwt>0</asrwt>
<pdfrwt beam="1">  1        2 0.45110077E+00 0.41668806E+04</pdfrwt>
<pdfrwt beam="2">  1       -2 0.22775181E+00 0.41668806E+04</pdfrwt>
<totfact> 0.13187287E-01</totfact>
</mgrwt>
</event>
<event>
12    1  0.2433511E-007  0.1324113E+04  0.7818608E-02  0.9010659E-01
         -1   -1    0    0    0  501 -0.00000000000E+00  0.00000000000E+00  0.31052329366E+03  0.31052329366E+03  0.00000000000E+00 0.  1.
          1   -1    0    0  501    0  0.00000000000E+00 -0.00000000000E+00 -0.14115489106E+04  0.14115489106E+04  0.00000000000E+00 0. -1.
         23    2    1    2    0    0 -0.32022942236E+03 -0.11002820944E+03 -0.42026182855E+03  0.54490972705E+03  0.75189868216E+02 0.  0.
        254    2    1    2    0    0  0.32022942236E+03  0.11002820944E+03 -0.68076378838E+03  0.11771624772E+04  0.89867628897E+03 0.  0.
        -24    2    4    4    0    0 -0.12402028303E+03  0.20734231502E+03 -0.66882036143E+03  0.71506572408E+03  0.75009650660E+02 0.  0.
         24    2    4    4    0    0  0.44424970539E+03 -0.97314105576E+02 -0.11943426952E+02  0.46209675313E+03  0.81011899865E+02 0.  0.
         11    1    3    3    0    0 -0.18566258299E+03 -0.36946305986E+02 -0.27487697637E+03  0.33375586345E+03  0.00000000000E+00 0.  1.
        -11    1    3    3    0    0 -0.13456683938E+03 -0.73081903457E+02 -0.14538485218E+03  0.21115386360E+03  0.00000000000E+00 0. -1.
          4    1    6    6  502    0  0.36489939539E+02 -0.43191414971E+01 -0.23659643108E+02  0.43702967667E+02  0.00000000000E+00 0. -1.
          1    1    5    5  503    0 -0.23260701267E+02  0.10778185641E+03 -0.32562017737E+03  0.34378261838E+03  0.00000000000E+00 0. -1.
         -2    1    5    5    0  503 -0.10075958176E+03  0.99560458611E+02 -0.34320018407E+03  0.37128310570E+03  0.00000000000E+00 0.  1.
         -3    1    6    6    0  502  0.40775976585E+03 -0.92994964079E+02  0.11716216156E+02  0.41839378546E+03  0.00000000000E+00 0.  1.
<mgrwt>
<rscale>  0 0.13241130E+04</rscale>
<asrwt>0</asrwt>
<pdfrwt beam="1">  1        1 0.21716137E+00 0.13241130E+04</pdfrwt>
<pdfrwt beam="2">  1       -1 0.47772816E-01 0.13241130E+04</pdfrwt>
<totfact> 0.32361556E+01</totfact>
</mgrwt>
</event>
<event>
12    1  0.2433511E-007  0.1444964E+04  0.7818608E-02  0.8921899E-01
         -2   -1    0    0    0  501 -0.00000000000E+00  0.00000000000E+00  0.73131907630E+03  0.73131907630E+03  0.00000000000E+00 0.  1.
          2   -1    0    0  501    0  0.00000000000E+00 -0.00000000000E+00 -0.71375201131E+03  0.71375201131E+03  0.00000000000E+00 0. -1.
         23    2    1    2    0    0  0.20679511805E+03 -0.12744186127E+02 -0.37734703288E+03  0.44127280853E+03  0.96975631933E+02 0.  0.
        254    2    1    2    0    0 -0.20679511805E+03  0.12744186127E+02  0.39491409787E+03  0.10037982791E+04  0.89929261382E+03 0.  0.
        -24    2    4    4    0    0  0.33622523878E+03  0.47033662918E+02  0.42592262177E+02  0.35059085033E+03  0.76421638922E+02 0.  0.
         24    2    4    4    0    0 -0.54302035683E+03 -0.34289476791E+02  0.35232183569E+03  0.65320742876E+03  0.80637416390E+02 0.  0.
         11    1    3    3    0    0  0.85437545460E+01 -0.24411294016E+02 -0.76811261443E+02  0.81048608265E+02  0.00000000000E+00 0.  1.
        -11    1    3    3    0    0  0.19825136351E+03  0.11667107889E+02 -0.30053577144E+03  0.36022420026E+03  0.00000000000E+00 0. -1.
          2    1    6    6  502    0 -0.45555137192E+03 -0.56877382331E+01  0.26906348688E+03  0.52910732635E+03  0.00000000000E+00 0. -1.
          1    1    5    5  503    0  0.33226788373E+03  0.56764247284E+02  0.38328143786E+02  0.33925384734E+03  0.00000000000E+00 0. -1.
         -2    1    5    5    0  503  0.39573550496E+01 -0.97305843659E+01  0.42641183916E+01  0.11337002988E+02  0.00000000000E+00 0.  1.
         -1    1    6    6    0  502 -0.87468984916E+02 -0.28601738558E+02  0.83258348816E+02  0.12410010241E+03  0.00000000000E+00 0.  1.
<mgrwt>
<rscale>  0 0.14449643E+04</rscale>
<asrwt>0</asrwt>
<pdfrwt beam="1">  1        2 0.10980800E+00 0.14449643E+04</pdfrwt>
<pdfrwt beam="2">  1       -2 0.11251063E+00 0.14449643E+04</pdfrwt>
<totfact> 0.24118913E+01</totfact>
</mgrwt>
</event>
<event>
12    1  0.2433511E-007  0.2296855E+04  0.7818608E-02  0.8479162E-01
         -2   -1    0    0    0  501 -0.00000000000E+00  0.00000000000E+00  0.63346111359E+03  0.63346111359E+03  0.00000000000E+00 0.  1.
          2   -1    0    0  501    0  0.00000000000E+00 -0.00000000000E+00 -0.20820307660E+04  0.20820307660E+04  0.00000000000E+00 0. -1.
         23    2    1    2    0    0 -0.55073618911E+03 -0.61442000255E+03 -0.12175382007E+02  0.83036277090E+03  0.92367753222E+02 0.  0.
        254    2    1    2    0    0  0.55073618911E+03  0.61442000255E+03 -0.14363942704E+04  0.18851291087E+04  0.89981162855E+03 0.  0.
        -24    2    4    4    0    0  0.59618525470E+03  0.61391695515E+03 -0.60982270698E+03  0.10534365950E+04  0.74256581491E+02 0.  0.
         24    2    4    4    0    0 -0.45449065592E+02  0.50304740264E+00 -0.82657156343E+03  0.83169251375E+03  0.80162443416E+02 0.  0.
         11    1    3    3    0    0 -0.78804626929E+02 -0.92465381740E+02  0.30944011186E+02  0.12536964495E+03  0.00000000000E+00 0.  1.
        -11    1    3    3    0    0 -0.47193156218E+03 -0.52195462081E+03 -0.43119393193E+02  0.70499312595E+03  0.00000000000E+00 0. -1.
          2    1    6    6  502    0 -0.54372711496E+02  0.12408998906E+02 -0.31462353420E+03  0.31952831374E+03  0.00000000000E+00 0. -1.
          3    1    5    5  503    0  0.59228771019E+03  0.59926414937E+03 -0.60581265752E+03  0.10377529708E+04  0.00000000000E+00 0. -1.
         -4    1    5    5    0  503  0.38975445163E+01  0.14652805778E+02 -0.40100494599E+01  0.15683624170E+02  0.00000000000E+00 0.  1.
         -1    1    6    6    0  502  0.89236459042E+01 -0.11905951503E+02 -0.51194802924E+03  0.51216420002E+03  0.00000000000E+00 0.  1.
<mgrwt>
<rscale>  0 0.22968548E+04</rscale>
<asrwt>0</asrwt>
<pdfrwt beam="1">  1        2 0.32031242E+00 0.22968548E+04</pdfrwt>
<pdfrwt beam="2">  1       -2 0.97455557E-01 0.22968548E+04</pdfrwt>
<totfact> 0.47865425E+00</totfact>
</mgrwt>
</event>
<event>
12    1  0.2433511E-007  0.1549159E+04  0.7818608E-02  0.8852405E-01
         -1   -1    0    0    0  501 -0.00000000000E+00  0.00000000000E+00  0.72830536507E+03  0.72830536507E+03  0.00000000000E+00 0.  1.
          1   -1    0    0  501    0  0.00000000000E+00 -0.00000000000E+00 -0.82379401396E+03  0.82379401396E+03  0.00000000000E+00 0. -1.
         23    2    1    2    0    0  0.16786823311E+03  0.37017280273E+03 -0.34065313450E+03  0.53790659155E+03  0.89951629334E+02 0.  0.
        254    2    1    2    0    0 -0.16786823311E+03 -0.37017280273E+03  0.24516448561E+03  0.10141927875E+04  0.89625539753E+03 0.  0.
        -24    2    4    4    0    0 -0.17049203189E+03 -0.15721552129E+03  0.56820286561E+03  0.61904392786E+03  0.81096455307E+02 0.  0.
         24    2    4    4    0    0  0.26237987846E+01 -0.21295728144E+03 -0.32303838000E+03  0.39514885962E+03  0.80194378013E+02 0.  0.
         13    1    3    3    0    0  0.67057558079E+02  0.17699815391E+03 -0.21472671347E+03  0.28623875360E+03  0.00000000000E+00 0. -1.
        -13    1    3    3    0    0  0.10081067503E+03  0.19317464882E+03 -0.12592642103E+03  0.25166783795E+03  0.00000000000E+00 0.  1.
          4    1    6    6  502    0 -0.36002214343E+02 -0.14398548116E+03 -0.20509111857E+03  0.25316071010E+03  0.00000000000E+00 0. -1.
          1    1    5    5  503    0 -0.12801655623E+02 -0.10616060100E+02  0.71616600817E+01  0.18107249760E+02  0.00000000000E+00 0. -1.
         -2    1    5    5    0  503 -0.15769037627E+03 -0.14659946119E+03  0.56104120553E+03  0.60093667810E+03  0.00000000000E+00 0.  1.
         -3    1    6    6    0  502  0.38626013128E+02 -0.68971800278E+02 -0.11794726143E+03  0.14198814951E+03  0.00000000000E+00 0.  1.
<mgrwt>
<rscale>  0 0.15491593E+04</rscale>
<asrwt>0</asrwt>
<pdfrwt beam="1">  1        1 0.12673754E+00 0.15491593E+04</pdfrwt>
<pdfrwt beam="2">  1       -1 0.11204698E+00 0.15491593E+04</pdfrwt>
<totfact> 0.14844557E+01</totfact>
</mgrwt>
</event>
<event>
12    1  0.2433511E-007  0.1403734E+04  0.7818608E-02  0.8951120E-01
          1   -1    0    0  501    0  0.00000000000E+00  0.00000000000E+00  0.37640355886E+03  0.37640355886E+03  0.00000000000E+00 0. -1.
         -1   -1    0    0    0  501 -0.00000000000E+00 -0.00000000000E+00 -0.13087477606E+04  0.13087477606E+04  0.00000000000E+00 0.  1.
         23    2    1    2    0    0  0.29185895045E+03  0.15355164881E+03  0.25083432160E+01  0.34138725262E+03  0.88199822291E+02 0.  0.
        254    2    1    2    0    0 -0.29185895045E+03 -0.15355164881E+03 -0.93485254495E+03  0.13437640668E+04  0.90718952303E+03 0.  0.
        -24    2    4    4    0    0 -0.43195534732E+03 -0.20913345860E+03 -0.10364107316E+04  0.11449585357E+04  0.80377971553E+02 0.  0.
         24    2    4    4    0    0  0.14009639687E+03  0.55581809785E+02  0.10155818666E+03  0.19880553112E+03  0.80580617603E+02 0.  0.
         13    1    3    3    0    0  0.22658963149E+03  0.85645912385E+02 -0.24320154936E+02  0.24345339049E+03  0.00000000000E+00 0.  1.
        -13    1    3    3    0    0  0.65269318967E+02  0.67905736428E+02  0.26828498152E+02  0.97933862128E+02  0.00000000000E+00 0. -1.
          4    1    6    6  502    0  0.40492658776E+02  0.15285973146E+02  0.77396091562E+02  0.88676216534E+02  0.00000000000E+00 0. -1.
          1    1    5    5  503    0 -0.15482651112E+02  0.44716112416E+01 -0.18131303442E+02  0.24258028714E+02  0.00000000000E+00 0. -1.
         -2    1    5    5    0  503 -0.41647269621E+03 -0.21360506984E+03 -0.10182794282E+04  0.11207005070E+04  0.00000000000E+00 0.  1.
         -3    1    6    6    0  502  0.99603738093E+02  0.40295836639E+02  0.24162095097E+02  0.11012931459E+03  0.00000000000E+00 0.  1.
<mgrwt>
<rscale>  0 0.14037340E+04</rscale>
<asrwt>0</asrwt>
<pdfrwt beam="1">  1        1 0.57908239E-01 0.14037340E+04</pdfrwt>
<pdfrwt beam="2">  1       -1 0.20134581E+00 0.14037340E+04</pdfrwt>
<totfact> 0.93412054E+00</totfact>
</mgrwt>
</event>
<event>
12    1  0.2433511E-007  0.3348544E+04  0.7818608E-02  0.8150652E-01
         -1   -1    0    0    0  501 -0.00000000000E+00  0.00000000000E+00  0.15902525599E+04  0.15902525599E+04  0.00000000000E+00 0.  1.
          1   -1    0    0  501    0  0.00000000000E+00 -0.00000000000E+00 -0.17627305009E+04  0.17627305009E+04  0.00000000000E+00 0. -1.
         23    2    1    2    0    0  0.83998846100E+03 -0.18950355695E+03 -0.13724239360E+04  0.16228088501E+04  0.92026577618E+02 0.  0.
        254    2    1    2    0    0 -0.83998846100E+03  0.18950355695E+03  0.11999459950E+04  0.17301742107E+04  0.90118821331E+03 0.  0.
        -24    2    4    4    0    0 -0.33515146464E+03 -0.20652369792E+02 -0.63629073568E+02  0.35094558401E+03  0.79756625475E+02 0.  0.
         24    2    4    4    0    0 -0.50483699637E+03  0.21015592674E+03  0.12635750686E+04  0.13792286267E+04  0.81386389375E+02 0.  0.
         11    1    3    3    0    0  0.51084537519E+03 -0.76066873314E+02 -0.86435045023E+03  0.10069016175E+04  0.00000000000E+00 0. -1.
        -11    1    3    3    0    0  0.32914308581E+03 -0.11343668364E+03 -0.50807348577E+03  0.61590723252E+03  0.00000000000E+00 0.  1.
          2    1    6    6  502    0 -0.21779822525E+03  0.11844745351E+03  0.64934782884E+03  0.69506724062E+03  0.00000000000E+00 0. -1.
          3    1    5    5  503    0 -0.17518499100E+03 -0.20051622605E+02  0.61159313056E+01  0.17643484139E+03  0.00000000000E+00 0. -1.
         -4    1    5    5    0  503 -0.15996647364E+03 -0.60074718711E+00 -0.69745004874E+02  0.17451074262E+03  0.00000000000E+00 0.  1.
         -1    1    6    6    0  502 -0.28703877112E+03  0.91708473231E+02  0.61422723973E+03  0.68416138609E+03  0.00000000000E+00 0.  1.
<mgrwt>
<rscale>  0 0.33485440E+04</rscale>
<asrwt>0</asrwt>
<pdfrwt beam="1">  1        1 0.27118931E+00 0.33485440E+04</pdfrwt>
<pdfrwt beam="2">  1       -1 0.24465424E+00 0.33485440E+04</pdfrwt>
<totfact> 0.26968228E-01</totfact>
</mgrwt>
</event>
<event>
12    1  0.2433511E-007  0.3777831E+04  0.7818608E-02  0.8050929E-01
         -1   -1    0    0    0  501 -0.00000000000E+00  0.00000000000E+00  0.16190069947E+04  0.16190069947E+04  0.00000000000E+00 0.  1.
          1   -1    0    0  501    0  0.00000000000E+00 -0.00000000000E+00 -0.22038212481E+04  0.22038212481E+04  0.00000000000E+00 0. -1.
         23    2    1    2    0    0 -0.18360276609E+02  0.16367889191E+04  0.43307311949E+03  0.16956659027E+04  0.91189152516E+02 0.  0.
        254    2    1    2    0    0  0.18360276609E+02 -0.16367889191E+04 -0.10178873729E+04  0.21271623401E+04  0.89961650265E+03 0.  0.
        -24    2    4    4    0    0  0.29431237172E+03 -0.55349889311E+03 -0.73974450147E+03  0.97254288462E+03  0.75079545501E+02 0.  0.
         24    2    4    4    0    0 -0.27595209512E+03 -0.10832900260E+04 -0.27814287139E+03  0.11546194555E+04  0.78203521928E+02 0.  0.
         11    1    3    3    0    0 -0.34560744397E+02  0.11406908595E+04  0.26456067266E+03  0.11714787371E+04  0.00000000000E+00 0. -1.
        -11    1    3    3    0    0  0.16200467788E+02  0.49609805960E+03  0.16851244683E+03  0.52418716565E+03  0.00000000000E+00 0.  1.
          4    1    6    6  502    0 -0.16151049169E+03 -0.49394535990E+03 -0.11048571181E+03  0.53129535101E+03  0.00000000000E+00 0. -1.
          3    1    5    5  503    0  0.39139914315E+02 -0.14087127989E+03 -0.17105319023E+03  0.22502409711E+03  0.00000000000E+00 0. -1.
         -4    1    5    5    0  503  0.25517245741E+03 -0.41262761322E+03 -0.56869131123E+03  0.74751878751E+03  0.00000000000E+00 0.  1.
         -3    1    6    6    0  502 -0.11444160343E+03 -0.58934466607E+03 -0.16765715958E+03  0.62332410444E+03  0.00000000000E+00 0.  1.
<mgrwt>
<rscale>  0 0.37778311E+04</rscale>
<asrwt>0</asrwt>
<pdfrwt beam="1">  1        1 0.33904942E+00 0.37778311E+04</pdfrwt>
<pdfrwt beam="2">  1       -1 0.24907800E+00 0.37778311E+04</pdfrwt>
<totfact> 0.12204102E-01</totfact>
</mgrwt>
</event>
<event>
12    1  0.2433511E-007  0.2646108E+04  0.7818608E-02  0.8352706E-01
         -2   -1    0    0    0  501 -0.00000000000E+00  0.00000000000E+00  0.55896191883E+03  0.55896191883E+03  0.00000000000E+00 0.  1.
          2   -1    0    0  501    0  0.00000000000E+00 -0.00000000000E+00 -0.31316488930E+04  0.31316488930E+04  0.00000000000E+00 0. -1.
         23    2    1    2    0    0  0.33645231518E+03 -0.59925485992E+03  0.17901281870E+03  0.71592204047E+03  0.90510945415E+02 0.  0.
        254    2    1    2    0    0 -0.33645231518E+03  0.59925485992E+03 -0.27516997929E+04  0.29746887714E+04  0.89700333825E+03 0.  0.
        -24    2    4    4    0    0 -0.16393375798E+03  0.79673200746E+03 -0.16771075250E+04  0.18656587354E+04  0.79603378012E+02 0.  0.
         24    2    4    4    0    0 -0.17251855719E+03 -0.19747714755E+03 -0.10745922679E+04  0.11090300360E+04  0.80244639283E+02 0.  0.
         13    1    3    3    0    0  0.31743269332E+02 -0.11205729694E+03  0.97518162631E+01  0.11687416681E+03  0.00000000000E+00 0. -1.
        -13    1    3    3    0    0  0.30470904584E+03 -0.48719756298E+03  0.16926100244E+03  0.59904787366E+03  0.00000000000E+00 0.  1.
          2    1    6    6  502    0 -0.86531169035E+02 -0.43168708450E+02 -0.42346285970E+03  0.43436387298E+03  0.00000000000E+00 0. -1.
          3    1    5    5  503    0 -0.78888478225E+02  0.55643646249E+03 -0.11807319936E+04  0.13076593476E+04  0.00000000000E+00 0. -1.
         -4    1    5    5    0  503 -0.85045279757E+02  0.24029554497E+03 -0.49637553144E+03  0.55799938778E+03  0.00000000000E+00 0.  1.
         -1    1    6    6    0  502 -0.85987388159E+02 -0.15430843910E+03 -0.65112940818E+03  0.67466616300E+03  0.00000000000E+00 0.  1.
<mgrwt>
<rscale>  0 0.26461084E+04</rscale>
<asrwt>0</asrwt>
<pdfrwt beam="1">  1        2 0.48179215E+00 0.26461084E+04</pdfrwt>
<pdfrwt beam="2">  1       -2 0.85994139E-01 0.26461084E+04</pdfrwt>
<totfact> 0.14847337E+00</totfact>
</mgrwt>
</event>
<event>
12    1  0.2433511E-007  0.1058531E+04  0.7818608E-02  0.9246580E-01
         -1   -1    0    0    0  501 -0.00000000000E+00  0.00000000000E+00  0.30828990038E+03  0.30828990038E+03  0.00000000000E+00 0.  1.
          1   -1    0    0  501    0  0.00000000000E+00 -0.00000000000E+00 -0.90863196544E+03  0.90863196544E+03  0.00000000000E+00 0. -1.
         23    2    1    2    0    0  0.38173549416E+02 -0.27846683187E+02  0.42519868013E+02  0.11019855214E+03  0.90017354321E+02 0.  0.
        254    2    1    2    0    0 -0.38173549416E+02  0.27846683187E+02 -0.64286193308E+03  0.11067233137E+04  0.89962901821E+03 0.  0.
        -24    2    4    4    0    0  0.35880605089E+03  0.11725955629E+03 -0.56525173891E+03  0.68418529274E+03  0.78156258640E+02 0.  0.
         24    2    4    4    0    0 -0.39697960030E+03 -0.89412873099E+02 -0.77610194167E+02  0.42253802094E+03  0.83232036925E+02 0.  0.
         13    1    3    3    0    0 -0.19598938089E+02 -0.31233857056E+02 -0.23815254341E+01  0.36950559728E+02  0.00000000000E+00 0. -1.
        -13    1    3    3    0    0  0.57772487505E+02  0.33871738687E+01  0.44901393447E+02  0.73247992415E+02  0.00000000000E+00 0.  1.
          4    1    6    6  502    0 -0.46860454053E+02  0.10268470626E+02 -0.26873622433E+02  0.54986682257E+02  0.00000000000E+00 0. -1.
          3    1    5    5  503    0  0.18493157884E+02  0.11410167069E+02 -0.74969790739E+02  0.78055482348E+02  0.00000000000E+00 0. -1.
         -4    1    5    5    0  503  0.34031289300E+03  0.10584938922E+03 -0.49028194817E+03  0.60612981039E+03  0.00000000000E+00 0.  1.
         -3    1    6    6    0  502 -0.35011914625E+03 -0.99681343725E+02 -0.50736571734E+02  0.36755133868E+03  0.00000000000E+00 0.  1.
<mgrwt>
<rscale>  0 0.10585312E+04</rscale>
<asrwt>0</asrwt>
<pdfrwt beam="1">  1        1 0.13978953E+00 0.10585312E+04</pdfrwt>
<pdfrwt beam="2">  1       -1 0.47429216E-01 0.10585312E+04</pdfrwt>
<totfact> 0.79319171E+01</totfact>
</mgrwt>
</event>
<event>
12    1  0.2433511E-007  0.1595156E+04  0.7818608E-02  0.8823529E-01
         -2   -1    0    0    0  501 -0.00000000000E+00  0.00000000000E+00  0.28449570571E+03  0.28449570571E+03  0.00000000000E+00 0.  1.
          2   -1    0    0  501    0  0.00000000000E+00 -0.00000000000E+00 -0.22359934436E+04  0.22359934436E+04  0.00000000000E+00 0. -1.
         23    2    1    2    0    0 -0.43486266854E+03  0.31501445387E+03 -0.58680247216E+03  0.80023862170E+03  0.87778492142E+02 0.  0.
        254    2    1    2    0    0  0.43486266854E+03 -0.31501445387E+03 -0.13646952657E+04  0.17202505276E+04  0.89918244132E+03 0.  0.
        -24    2    4    4    0    0  0.58528077868E+03 -0.48421400697E+03 -0.79672511069E+03  0.11037795656E+04  0.80880362384E+02 0.  0.
         24    2    4    4    0    0 -0.15041811014E+03  0.16919955310E+03 -0.56797015502E+03  0.61647096198E+03  0.78690872044E+02 0.  0.
         13    1    3    3    0    0 -0.18674518924E+03  0.17050679979E+03 -0.32394952245E+03  0.41096183226E+03  0.00000000000E+00 0. -1.
        -13    1    3    3    0    0 -0.24811747930E+03  0.14450765408E+03 -0.26285294971E+03  0.38927678944E+03  0.00000000000E+00 0.  1.
          4    1    6    6  502    0 -0.13084353848E+03  0.91972565850E+02 -0.37173258419E+03  0.40467777129E+03  0.00000000000E+00 0. -1.
          3    1    5    5  503    0  0.58644324513E+03 -0.47788671862E+03 -0.79429448422E+03  0.10969025131E+04  0.00000000000E+00 0. -1.
         -4    1    5    5    0  503 -0.11624664569E+01 -0.63272883459E+01 -0.24306264698E+01  0.68770525018E+01  0.00000000000E+00 0.  1.
         -3    1    6    6    0  502 -0.19574571658E+02  0.77226987248E+02 -0.19623757084E+03  0.21179319069E+03  0.00000000000E+00 0.  1.
<mgrwt>
<rscale>  0 0.15951558E+04</rscale>
<asrwt>0</asrwt>
<pdfrwt beam="1">  1        2 0.34399897E+00 0.15951558E+04</pdfrwt>
<pdfrwt beam="2">  1       -2 0.43768572E-01 0.15951558E+04</pdfrwt>
<totfact> 0.23422840E+01</totfact>
</mgrwt>
</event>
<event>
12    1  0.2433511E-007  0.1609628E+04  0.7818608E-02  0.8814655E-01
          1   -1    0    0  501    0  0.00000000000E+00  0.00000000000E+00  0.39409436033E+03  0.39409436033E+03  0.00000000000E+00 0. -1.
         -1   -1    0    0    0  501 -0.00000000000E+00 -0.00000000000E+00 -0.16435801062E+04  0.16435801062E+04  0.00000000000E+00 0.  1.
         23    2    1    2    0    0 -0.30081937101E+02  0.32601115684E+03  0.12520837442E+03  0.36249744030E+03  0.92407033675E+02 0.  0.
        254    2    1    2    0    0  0.30081937101E+02 -0.32601115684E+03 -0.13746941203E+04  0.16751770262E+04  0.89958098444E+03 0.  0.
        -24    2    4    4    0    0  0.31513976157E+03 -0.22963840658E+03 -0.12939592435E+04  0.13537895923E+04  0.79805195494E+02 0.  0.
         24    2    4    4    0    0 -0.28505782447E+03 -0.96372750262E+02 -0.80734876763E+02  0.32138743393E+03  0.78905589648E+02 0.  0.
         11    1    3    3    0    0 -0.37541856155E+02  0.11054422594E+03  0.81864583457E+02  0.14258761123E+03  0.00000000000E+00 0. -1.
        -11    1    3    3    0    0  0.74599190546E+01  0.21546693090E+03  0.43343790961E+02  0.21990982907E+03  0.00000000000E+00 0.  1.
          2    1    6    6  502    0 -0.36488685650E+02 -0.33012578277E+01  0.14491936114E+02  0.39399729644E+02  0.00000000000E+00 0. -1.
          3    1    5    5  503    0  0.20797133525E+03 -0.19481503280E+03 -0.95291672463E+03  0.99461311945E+03  0.00000000000E+00 0. -1.
         -4    1    5    5    0  503  0.10716842633E+03 -0.34823373776E+02 -0.34104251889E+03  0.35917647286E+03  0.00000000000E+00 0.  1.
         -1    1    6    6    0  502 -0.24856913882E+03 -0.93071492434E+02 -0.95226812877E+02  0.28198770429E+03  0.00000000000E+00 0.  1.
<mgrwt>
<rscale>  0 0.16096281E+04</rscale>
<asrwt>0</asrwt>
<pdfrwt beam="1">  1        1 0.60629902E-01 0.16096281E+04</pdfrwt>
<pdfrwt beam="2">  1       -1 0.25285848E+00 0.16096281E+04</pdfrwt>
<totfact> 0.39204152E+00</totfact>
</mgrwt>
</event>
<event>
12    1  0.2433511E-007  0.1769573E+04  0.7818608E-02  0.8722650E-01
          2   -1    0    0  501    0  0.00000000000E+00  0.00000000000E+00  0.74532291125E+03  0.74532291125E+03  0.00000000000E+00 0. -1.
         -2   -1    0    0    0  501 -0.00000000000E+00 -0.00000000000E+00 -0.10503458088E+04  0.10503458088E+04  0.00000000000E+00 0.  1.
         23    2    1    2    0    0 -0.17849356475E+03 -0.47479969205E+03 -0.52880784552E+03  0.73854093963E+03  0.92251188622E+02 0.  0.
        254    2    1    2    0    0  0.17849356475E+03  0.47479969205E+03  0.22378494802E+03  0.10571277804E+04  0.90008040798E+03 0.  0.
        -24    2    4    4    0    0  0.40443374923E+03 -0.87733634512E+02  0.10228447484E+03  0.43374825618E+03  0.80072391015E+02 0.  0.
         24    2    4    4    0    0 -0.22594018448E+03  0.56253332656E+03  0.12150047318E+03  0.62337952418E+03  0.79667783538E+02 0.  0.
         13    1    3    3    0    0 -0.13702638913E+03 -0.27263302407E+03 -0.26927868615E+03  0.40695946720E+03  0.00000000000E+00 0.  1.
        -13    1    3    3    0    0 -0.41467175624E+02 -0.20216666798E+03 -0.25952915937E+03  0.33158147243E+03  0.00000000000E+00 0. -1.
          2    1    6    6  502    0 -0.11009100040E+03  0.36150013104E+03  0.96451830138E+02  0.39000683154E+03  0.00000000000E+00 0. -1.
          3    1    5    5  503    0  0.36797465395E+03 -0.98378896434E+02  0.10656924946E+03  0.39552592601E+03  0.00000000000E+00 0. -1.
         -4    1    5    5    0  503  0.36459095283E+02  0.10645261922E+02 -0.42847746233E+01  0.38222330172E+02  0.00000000000E+00 0.  1.
         -1    1    6    6    0  502 -0.11584918408E+03  0.20103319552E+03  0.25048643044E+02  0.23337269264E+03  0.00000000000E+00 0.  1.
<mgrwt>
<rscale>  0 0.17695726E+04</rscale>
<asrwt>0</asrwt>
<pdfrwt beam="1">  1        2 0.11466506E+00 0.17695726E+04</pdfrwt>
<pdfrwt beam="2">  1       -2 0.16159166E+00 0.17695726E+04</pdfrwt>
<totfact> 0.87667921E+00</totfact>
</mgrwt>
</event>
<event>
12    1  0.2433511E-007  0.2322481E+04  0.7818608E-02  0.8469110E-01
         -1   -1    0    0    0  501 -0.00000000000E+00  0.00000000000E+00  0.13226087725E+04  0.13226087725E+04  0.00000000000E+00 0.  1.
          1   -1    0    0  501    0  0.00000000000E+00 -0.00000000000E+00 -0.10195604241E+04  0.10195604241E+04  0.00000000000E+00 0. -1.
         23    2    1    2    0    0 -0.70188883366E+03  0.68300161559E+03  0.29053881340E+02  0.98390982289E+03  0.89973717472E+02 0.  0.
        254    2    1    2    0    0  0.70188883366E+03 -0.68300161559E+03  0.27399446705E+03  0.13582593738E+04  0.90036460213E+03 0.  0.
        -24    2    4    4    0    0  0.39011578265E+03  0.75260156767E+01  0.42262846555E+03  0.58181245589E+03  0.87429681134E+02 0.  0.
         24    2    4    4    0    0  0.31177305101E+03 -0.69052763127E+03 -0.14863399850E+03  0.77644691790E+03  0.82139551479E+02 0.  0.
         11    1    3    3    0    0 -0.19334364359E+03  0.23754457187E+03  0.31043217838E+02  0.30785202536E+03  0.00000000000E+00 0.  1.
        -11    1    3    3    0    0 -0.50854519007E+03  0.44545704372E+03 -0.19893364979E+01  0.67605779753E+03  0.00000000000E+00 0. -1.
          2    1    6    6  502    0  0.31192942753E+03 -0.68959080548E+03 -0.15283832351E+03  0.77213664587E+03  0.00000000000E+00 0. -1.
          3    1    5    5  503    0  0.28184385561E+03  0.18913225808E+02  0.35490464501E+03  0.45359781316E+03  0.00000000000E+00 0. -1.
         -4    1    5    5    0  503  0.10827192705E+03 -0.11387210131E+02  0.67723820544E+02  0.12821464273E+03  0.00000000000E+00 0.  1.
         -1    1    6    6    0  502 -0.15637651860E+00 -0.93682579164E+00  0.42043250091E+01  0.43102720287E+01  0.00000000000E+00 0.  1.
<mgrwt>
<rscale>  0 0.23224811E+04</rscale>
<asrwt>0</asrwt>
<pdfrwt beam="1">  1        1 0.15685545E+00 0.23224811E+04</pdfrwt>
<pdfrwt beam="2">  1       -1 0.20347827E+00 0.23224811E+04</pdfrwt>
<totfact> 0.18770868E+00</totfact>
</mgrwt>
</event>
<event>
12    1  0.2433511E-007  0.3512666E+04  0.7818608E-02  0.8110795E-01
         -2   -1    0    0    0  501 -0.00000000000E+00  0.00000000000E+00  0.95155308395E+03  0.95155308395E+03  0.00000000000E+00 0.  1.
          2   -1    0    0  501    0  0.00000000000E+00 -0.00000000000E+00 -0.32417588298E+04  0.32417588298E+04  0.00000000000E+00 0. -1.
         23    2    1    2    0    0 -0.13537841208E+04 -0.81751068178E+03 -0.55269535562E+03  0.16778133136E+04  0.92359074311E+02 0.  0.
        254    2    1    2    0    0  0.13537841208E+04  0.81751068178E+03 -0.17375103902E+04  0.25154986001E+04  0.89874116980E+03 0.  0.
        -24    2    4    4    0    0  0.90678207696E+03  0.47718964317E+03 -0.16454544321E+04  0.19401238465E+04  0.81219213611E+02 0.  0.
         24    2    4    4    0    0  0.44700204389E+03  0.34032103860E+03 -0.92055958037E+02  0.57537475362E+03  0.83382079214E+02 0.  0.
         13    1    3    3    0    0 -0.27551546067E+03 -0.12490170366E+03 -0.11341974878E+03  0.32306848199E+03  0.00000000000E+00 0. -1.
        -13    1    3    3    0    0 -0.10782686602E+04 -0.69260897812E+03 -0.43927560684E+03  0.13547448316E+04  0.00000000000E+00 0.  1.
          2    1    6    6  502    0  0.34679374751E+03  0.27650001004E+03 -0.10522763110E+03  0.45584099553E+03  0.00000000000E+00 0. -1.
          1    1    5    5  503    0  0.29217316271E+03  0.11349826719E+03 -0.52344101858E+03  0.61011270565E+03  0.00000000000E+00 0. -1.
         -2    1    5    5    0  503  0.61460891424E+03  0.36369137598E+03 -0.11220134136E+04  0.13300111408E+04  0.00000000000E+00 0.  1.
         -1    1    6    6    0  502  0.10020829638E+03  0.63821028562E+02  0.13171673062E+02  0.11953375808E+03  0.00000000000E+00 0.  1.
<mgrwt>
<rscale>  0 0.35126660E+04</rscale>
<asrwt>0</asrwt>
<pdfrwt beam="1">  1        2 0.49873211E+00 0.35126660E+04</pdfrwt>
<pdfrwt beam="2">  1       -2 0.14639279E+00 0.35126660E+04</pdfrwt>
<totfact> 0.31898462E-01</totfact>
</mgrwt>
</event>
<event>
12    1  0.2433511E-007  0.1403826E+04  0.7818608E-02  0.8951054E-01
         -1   -1    0    0    0  501 -0.00000000000E+00  0.00000000000E+00  0.60056006007E+03  0.60056006007E+03  0.00000000000E+00 0.  1.
          1   -1    0    0  501    0  0.00000000000E+00 -0.00000000000E+00 -0.82037039447E+03  0.82037039447E+03  0.00000000000E+00 0. -1.
         23    2    1    2    0    0  0.11869032204E+03 -0.22105187805E+03  0.25683931058E+03  0.37161576062E+03  0.95815013186E+02 0.  0.
        254    2    1    2    0    0 -0.11869032204E+03  0.22105187805E+03 -0.47664964498E+03  0.10493146939E+04  0.90050825508E+03 0.  0.
        -24    2    4    4    0    0  0.27045951709E+03  0.11524741539E+03 -0.55276173857E+03  0.63119087813E+03  0.80162758580E+02 0.  0.
         24    2    4    4    0    0 -0.38914983912E+03  0.10580446265E+03  0.76112093597E+02  0.41812381579E+03  0.80014329531E+02 0.  0.
         11    1    3    3    0    0  0.11938459807E+02 -0.12302064562E+03  0.11500679668E+03  0.16882881672E+03  0.00000000000E+00 0. -1.
        -11    1    3    3    0    0  0.10675186223E+03 -0.98031232432E+02  0.14183251390E+03  0.20278694391E+03  0.00000000000E+00 0.  1.
          4    1    6    6  502    0 -0.77177192402E+02  0.83054706792E+01 -0.14450339019E+02  0.78956394092E+02  0.00000000000E+00 0. -1.
          1    1    5    5  503    0  0.19138633257E+03  0.11136985552E+03 -0.35790763479E+03  0.42086796986E+03  0.00000000000E+00 0. -1.
         -2    1    5    5    0  503  0.79073184511E+02  0.38775598695E+01 -0.19485410379E+03  0.21032290827E+03  0.00000000000E+00 0.  1.
         -3    1    6    6    0  502 -0.31197264672E+03  0.97498991975E+02  0.90562432617E+02  0.33916742170E+03  0.00000000000E+00 0.  1.
<mgrwt>
<rscale>  0 0.14038258E+04</rscale>
<asrwt>0</asrwt>
<pdfrwt beam="1">  1        1 0.12621083E+00 0.14038258E+04</pdfrwt>
<pdfrwt beam="2">  1       -1 0.92393855E-01 0.14038258E+04</pdfrwt>
<totfact> 0.23589956E+01</totfact>
</mgrwt>
</event>
<event>
12    1  0.2433511E-007  0.1384488E+04  0.7818608E-02  0.8965124E-01
          1   -1    0    0  501    0  0.00000000000E+00  0.00000000000E+00  0.14610242096E+04  0.14610242096E+04  0.00000000000E+00 0. -1.
         -1   -1    0    0    0  501 -0.00000000000E+00 -0.00000000000E+00 -0.32799049682E+03  0.32799049682E+03  0.00000000000E+00 0.  1.
         23    2    1    2    0    0 -0.16003218145E+03 -0.35706440869E+03  0.36933142138E+03  0.54576234283E+03  0.91353954410E+02 0.  0.
        254    2    1    2    0    0  0.16003218145E+03  0.35706440869E+03  0.76370229140E+03  0.12432523636E+04  0.89962767777E+03 0.  0.
        -24    2    4    4    0    0  0.34180879711E+03  0.18887631901E+03  0.87435770063E+03  0.96081689801E+03  0.78486974665E+02 0.  0.
         24    2    4    4    0    0 -0.18177661566E+03  0.16818808968E+03 -0.11065540923E+03  0.28243546557E+03  0.78709599854E+02 0.  0.
         11    1    3    3    0    0 -0.32126426896E+01 -0.55125962195E+02  0.89825997465E+02  0.10544146529E+03  0.00000000000E+00 0. -1.
        -11    1    3    3    0    0 -0.15681953876E+03 -0.30193844650E+03  0.27950542391E+03  0.44032087755E+03  0.00000000000E+00 0.  1.
          2    1    6    6  502    0 -0.44399051390E+02  0.56641243874E+02 -0.70977007248E+02  0.10108037312E+03  0.00000000000E+00 0. -1.
          3    1    5    5  503    0  0.10415698243E+03  0.39675839552E+02  0.33131437279E+03  0.34955981298E+03  0.00000000000E+00 0. -1.
         -4    1    5    5    0  503  0.23765181468E+03  0.14920047946E+03  0.54304332783E+03  0.61125708503E+03  0.00000000000E+00 0.  1.
         -1    1    6    6    0  502 -0.13737756427E+03  0.11154684581E+03 -0.39678401980E+02  0.18135509245E+03  0.00000000000E+00 0.  1.
<mgrwt>
<rscale>  0 0.13844884E+04</rscale>
<asrwt>0</asrwt>
<pdfrwt beam="1">  1        1 0.22477295E+00 0.13844884E+04</pdfrwt>
<pdfrwt beam="2">  1       -1 0.50460077E-01 0.13844884E+04</pdfrwt>
<totfact> 0.26808966E+01</totfact>
</mgrwt>
</event>
<event>
12    1  0.2433511E-007  0.2340676E+04  0.7818608E-02  0.8462054E-01
          2   -1    0    0  501    0  0.00000000000E+00  0.00000000000E+00  0.30927980811E+04  0.30927980811E+04  0.00000000000E+00 0. -1.
         -2   -1    0    0    0  501 -0.00000000000E+00 -0.00000000000E+00 -0.44286471379E+03  0.44286471379E+03  0.00000000000E+00 0.  1.
         23    2    1    2    0    0 -0.42416446528E+02  0.87563212406E+03  0.18395407747E+04  0.20404858020E+04  0.10555223784E+03 0.  0.
        254    2    1    2    0    0  0.42416446528E+02 -0.87563212406E+03  0.81039259263E+03  0.14951769929E+04  0.90015960485E+03 0.  0.
        -24    2    4    4    0    0  0.36508636105E+03 -0.15149259816E+03  0.70716705515E+02  0.40796948852E+03  0.72112362371E+02 0.  0.
         24    2    4    4    0    0 -0.32266991452E+03 -0.72413952590E+03  0.73967588711E+03  0.10872075043E+04  0.80036321867E+02 0.  0.
         13    1    3    3    0    0  0.33159127499E+02  0.20170589873E+03  0.45329550726E+03  0.49725407411E+03  0.00000000000E+00 0. -1.
        -13    1    3    3    0    0 -0.75575574027E+02  0.67392622534E+03  0.13862452674E+04  0.15432317279E+04  0.00000000000E+00 0.  1.
          4    1    6    6  502    0 -0.22189228699E+03 -0.42999173730E+03  0.48752095768E+03  0.68688118722E+03  0.00000000000E+00 0. -1.
          1    1    5    5  503    0  0.73217301753E+02 -0.54461107216E+02 -0.43896939737E+01  0.91356745171E+02  0.00000000000E+00 0. -1.
         -2    1    5    5    0  503  0.29186905930E+03 -0.97031490945E+02  0.75106399489E+02  0.31661274335E+03  0.00000000000E+00 0.  1.
         -3    1    6    6    0  502 -0.10077762753E+03 -0.29414778860E+03  0.25215492943E+03  0.40032631713E+03  0.00000000000E+00 0.  1.
<mgrwt>
<rscale>  0 0.23406761E+04</rscale>
<asrwt>0</asrwt>
<pdfrwt beam="1">  1        2 0.47581508E+00 0.23406761E+04</pdfrwt>
<pdfrwt beam="2">  1       -2 0.68133035E-01 0.23406761E+04</pdfrwt>
<totfact> 0.27122316E+00</totfact>
</mgrwt>
</event>
<event>
12    1  0.2433511E-007  0.1572318E+04  0.7818608E-02  0.8837737E-01
         -2   -1    0    0    0  501 -0.00000000000E+00  0.00000000000E+00  0.88374162027E+03  0.88374162027E+03  0.00000000000E+00 0.  1.
          2   -1    0    0  501    0  0.00000000000E+00 -0.00000000000E+00 -0.69935120653E+03  0.69935120653E+03  0.00000000000E+00 0. -1.
         23    2    1    2    0    0  0.19904936032E+03 -0.36590628857E+03 -0.25842881247E+03  0.49764328649E+03  0.85763218252E+02 0.  0.
        254    2    1    2    0    0 -0.19904936032E+03  0.36590628857E+03  0.44281922622E+03  0.10854495403E+04  0.89922398633E+03 0.  0.
        -24    2    4    4    0    0  0.40253247486E+02  0.56465868002E+03  0.50050118163E+03  0.75974930728E+03  0.79106436171E+02 0.  0.
         24    2    4    4    0    0 -0.23930260781E+03 -0.19875239145E+03 -0.57681955412E+02  0.32570023303E+03  0.77363961923E+02 0.  0.
         11    1    3    3    0    0  0.17833074795E+03 -0.35087260707E+03 -0.26045608747E+03  0.47196484568E+03  0.00000000000E+00 0. -1.
        -11    1    3    3    0    0  0.20718612374E+02 -0.15033681498E+02  0.20272749985E+01  0.25678440802E+02  0.00000000000E+00 0.  1.
          4    1    6    6  502    0 -0.14198133974E+03 -0.14439960732E+03 -0.54075474201E+01  0.20258131453E+03  0.00000000000E+00 0. -1.
          1    1    5    5  503    0  0.52144975111E+02  0.45498937798E+03  0.36916236623E+03  0.58823063941E+03  0.00000000000E+00 0. -1.
         -2    1    5    5    0  503 -0.11891727625E+02  0.10966930204E+03  0.13133881540E+03  0.17151866787E+03  0.00000000000E+00 0.  1.
         -3    1    6    6    0  502 -0.97321268071E+02 -0.54352784131E+02 -0.52274407991E+02  0.12311891850E+03  0.00000000000E+00 0.  1.
<mgrwt>
<rscale>  0 0.15723177E+04</rscale>
<asrwt>0</asrwt>
<pdfrwt beam="1">  1        2 0.10759249E+00 0.15723177E+04</pdfrwt>
<pdfrwt beam="2">  1       -2 0.13596025E+00 0.15723177E+04</pdfrwt>
<totfact> 0.15265948E+01</totfact>
</mgrwt>
</event>
<event>
12    1  0.2433511E-007  0.1032841E+04  0.7818608E-02  0.9273241E-01
          2   -1    0    0  501    0  0.00000000000E+00  0.00000000000E+00  0.13911359640E+04  0.13911359640E+04  0.00000000000E+00 0.  1.
         -2   -1    0    0    0  501 -0.00000000000E+00 -0.00000000000E+00 -0.19170683054E+03  0.19170683054E+03  0.00000000000E+00 0. -1.
         23    2    1    2    0    0 -0.74482034452E+02 -0.49781686114E+02  0.17907477222E+03  0.21931995884E+03  0.89485644496E+02 0.  0.
        254    2    1    2    0    0  0.74482034452E+02  0.49781686114E+02  0.10203543613E+04  0.13635228357E+04  0.90002539479E+03 0.  0.
        -24    2    4    4    0    0 -0.23460945801E+03 -0.32685403402E+03  0.44619592671E+03  0.60628498705E+03  0.81335866423E+02 0.  0.
         24    2    4    4    0    0  0.30909149246E+03  0.37663572014E+03  0.57415843457E+03  0.75723784868E+03  0.79744812383E+02 0.  0.
         13    1    3    3    0    0  0.78782986788E+01  0.12276347296E+02  0.24454819460E+01  0.14790425111E+02  0.00000000000E+00 0. -1.
        -13    1    3    3    0    0 -0.82360333131E+02 -0.62058033411E+02  0.17662929027E+03  0.20452953373E+03  0.00000000000E+00 0.  1.
          4    1    6    6  502    0  0.24425590107E+03  0.28889947337E+03  0.39108215422E+03  0.54412232289E+03  0.00000000000E+00 0. -1.
          3    1    5    5  503    0 -0.17868272163E+02 -0.20119700876E+02  0.68673288796E+02  0.73757020734E+02  0.00000000000E+00 0. -1.
         -4    1    5    5    0  503 -0.21674118585E+03 -0.30673433315E+03  0.37752263792E+03  0.53252796632E+03  0.00000000000E+00 0.  1.
         -3    1    6    6    0  502  0.64835591389E+02  0.87736246768E+02  0.18307628035E+03  0.21311552579E+03  0.00000000000E+00 0.  1.
<mgrwt>
<rscale>  0 0.10328413E+04</rscale>
<asrwt>0</asrwt>
<pdfrwt beam="1">  1        2 0.21402091E+00 0.10328413E+04</pdfrwt>
<pdfrwt beam="2">  1       -2 0.29493359E-01 0.10328413E+04</pdfrwt>
<totfact> 0.15428654E+02</totfact>
</mgrwt>
</event>
<event>
12    1  0.2433511E-007  0.3482044E+04  0.7818608E-02  0.8118059E-01
          2   -1    0    0  501    0  0.00000000000E+00  0.00000000000E+00  0.33228900670E+04  0.33228900670E+04  0.00000000000E+00 0. -1.
         -2   -1    0    0    0  501 -0.00000000000E+00 -0.00000000000E+00 -0.91220517923E+03  0.91220517923E+03  0.00000000000E+00 0.  1.
         23    2    1    2    0    0  0.10309375766E+04  0.10222538931E+04  0.24289188336E+03  0.14747723124E+04  0.90119906619E+02 0.  0.
        254    2    1    2    0    0 -0.10309375766E+04 -0.10222538931E+04  0.21677930044E+04  0.27603229338E+04  0.90123297762E+03 0.  0.
        -24    2    4    4    0    0 -0.10589258718E+04 -0.10466994616E+04  0.16051078755E+04  0.21908149884E+04  0.79970347545E+02 0.  0.
         24    2    4    4    0    0  0.27988295236E+02  0.24445568466E+02  0.56268512885E+03  0.56950794533E+03  0.79648070130E+02 0.  0.
         11    1    3    3    0    0  0.24175608432E+03  0.22687363486E+03  0.18449955447E+02  0.33205127820E+03  0.00000000000E+00 0.  1.
        -11    1    3    3    0    0  0.78918149229E+03  0.79538025829E+03  0.22444192791E+03  0.11427210342E+04  0.00000000000E+00 0. -1.
          4    1    6    6  502    0  0.50330374862E+02 -0.45281724572E+01  0.36271244167E+03  0.36621573740E+03  0.00000000000E+00 0. -1.
          3    1    5    5  503    0 -0.13911524081E+03 -0.10517718885E+03  0.17136774490E+03  0.24450397803E+03  0.00000000000E+00 0. -1.
         -4    1    5    5    0  503 -0.91981063104E+03 -0.94152227276E+03  0.14337401306E+04  0.19463110104E+04  0.00000000000E+00 0.  1.
         -3    1    6    6    0  502 -0.22342079626E+02  0.28973740924E+02  0.19997268718E+03  0.20329220792E+03  0.00000000000E+00 0.  1.
<mgrwt>
<rscale>  0 0.34820440E+04</rscale>
<asrwt>0</asrwt>
<pdfrwt beam="1">  1        2 0.51121385E+00 0.34820440E+04</pdfrwt>
<pdfrwt beam="2">  1       -2 0.14033926E+00 0.34820440E+04</pdfrwt>
<totfact> 0.31540376E-01</totfact>
</mgrwt>
</event>
<event>
12    1  0.2433511E-007  0.1774093E+04  0.7818608E-02  0.8720199E-01
          2   -1    0    0  501    0  0.00000000000E+00  0.00000000000E+00  0.15025895279E+04  0.15025895279E+04  0.00000000000E+00 0. -1.
         -2   -1    0    0    0  501 -0.00000000000E+00 -0.00000000000E+00 -0.52366387914E+03  0.52366387914E+03  0.00000000000E+00 0.  1.
         23    2    1    2    0    0 -0.64604307654E+03 -0.28661470875E+02  0.24278389340E+03  0.69577081508E+03  0.83425844727E+02 0.  0.
        254    2    1    2    0    0  0.64604307654E+03  0.28661470875E+02  0.73614175533E+03  0.13304825919E+04  0.90004783583E+03 0.  0.
        -24    2    4    4    0    0 -0.10612634464E+03 -0.16418097834E+03  0.45249878942E+03  0.49950596283E+03  0.80826096021E+02 0.  0.
         24    2    4    4    0    0  0.75216942119E+03  0.19284244922E+03  0.28364296591E+03  0.83097662909E+03  0.84390625031E+02 0.  0.
         13    1    3    3    0    0 -0.20717516316E+03  0.28288522722E+02  0.66687660426E+02  0.21947444680E+03  0.00000000000E+00 0. -1.
        -13    1    3    3    0    0 -0.43886791339E+03 -0.56949993596E+02  0.17609623297E+03  0.47629636828E+03  0.00000000000E+00 0.  1.
          4    1    6    6  502    0  0.26888931814E+03  0.34349044608E+02  0.75175044234E+02  0.28130518934E+03  0.00000000000E+00 0. -1.
          3    1    5    5  503    0  0.29353457474E+01  0.74474695547E+01  0.21581649329E+02  0.23018441415E+02  0.00000000000E+00 0. -1.
         -4    1    5    5    0  503 -0.10906169039E+03 -0.17162844790E+03  0.43091714009E+03  0.47648752141E+03  0.00000000000E+00 0.  1.
         -3    1    6    6    0  502  0.48328010305E+03  0.15849340461E+03  0.20846792168E+03  0.54967143975E+03  0.00000000000E+00 0.  1.
<mgrwt>
<rscale>  0 0.17740934E+04</rscale>
<asrwt>0</asrwt>
<pdfrwt beam="1">  1        2 0.23116762E+00 0.17740934E+04</pdfrwt>
<pdfrwt beam="2">  1       -2 0.80563674E-01 0.17740934E+04</pdfrwt>
<totfact> 0.16283767E+01</totfact>
</mgrwt>
</event>
<event>
12    1  0.2433511E-007  0.2829682E+04  0.7818608E-02  0.8294112E-01
         -1   -1    0    0    0  501 -0.00000000000E+00  0.00000000000E+00  0.10848080225E+04  0.10848080225E+04  0.00000000000E+00 0.  1.
          1   -1    0    0  501    0  0.00000000000E+00 -0.00000000000E+00 -0.18452799012E+04  0.18452799012E+04  0.00000000000E+00 0. -1.
         23    2    1    2    0    0 -0.56785938633E+03 -0.99627394086E+03 -0.90633624842E+03  0.14644735411E+04  0.90616276599E+02 0.  0.
        254    2    1    2    0    0  0.56785938633E+03  0.99627394086E+03  0.14586436974E+03  0.14656143825E+04  0.90095674480E+03 0.  0.
        -24    2    4    4    0    0  0.60944240463E+03  0.19371780571E+03 -0.21811875707E+01  0.64448397438E+03  0.80051251278E+02 0.  0.
         24    2    4    4    0    0 -0.41583018305E+02  0.80255613514E+03  0.14804555731E+03  0.82113040814E+03  0.80697971859E+02 0.  0.
         11    1    3    3    0    0 -0.11079314728E+03 -0.27338336783E+03 -0.22522114026E+03  0.37113090589E+03  0.00000000000E+00 0.  1.
        -11    1    3    3    0    0 -0.45706623905E+03 -0.72289057303E+03 -0.68111510816E+03  0.10933426352E+04  0.00000000000E+00 0. -1.
          4    1    6    6  502    0 -0.14209853241E+02  0.42588739086E+03  0.38280168548E+02  0.42784034514E+03  0.00000000000E+00 0. -1.
          1    1    5    5  503    0  0.44157448218E+03  0.12274543495E+03  0.30466062100E+02  0.45932847294E+03  0.00000000000E+00 0. -1.
         -2    1    5    5    0  503  0.16786792246E+03  0.70972370765E+02 -0.32647249670E+02  0.18515550144E+03  0.00000000000E+00 0.  1.
         -3    1    6    6    0  502 -0.27373165064E+02  0.37666874428E+03  0.10976538876E+03  0.39329006300E+03  0.00000000000E+00 0.  1.
<mgrwt>
<rscale>  0 0.28296816E+04</rscale>
<asrwt>0</asrwt>
<pdfrwt beam="1">  1        1 0.28388921E+00 0.28296816E+04</pdfrwt>
<pdfrwt beam="2">  1       -1 0.16689354E+00 0.28296816E+04</pdfrwt>
<totfact> 0.85022919E-01</totfact>
</mgrwt>
</event>
<event>
12    1  0.2433511E-007  0.1857503E+04  0.7818608E-02  0.8676304E-01
          1   -1    0    0  501    0  0.00000000000E+00  0.00000000000E+00  0.13804078716E+04  0.13804078716E+04  0.00000000000E+00 0. -1.
         -1   -1    0    0    0  501 -0.00000000000E+00 -0.00000000000E+00 -0.62487249811E+03  0.62487249811E+03  0.00000000000E+00 0.  1.
         23    2    1    2    0    0  0.59910487415E+02  0.25060214683E+03 -0.42153546635E+03  0.50236079957E+03  0.91013850889E+02 0.  0.
        254    2    1    2    0    0 -0.59910487415E+02 -0.25060214683E+03  0.11770708398E+04  0.15029195701E+04  0.89826542281E+03 0.  0.
        -24    2    4    4    0    0 -0.36707164259E+03  0.12045936960E+03  0.28727700045E+03  0.48791741167E+03  0.79267112424E+02 0.  0.
         24    2    4    4    0    0  0.30716115517E+03 -0.37106151644E+03  0.88979383938E+03  0.10150021585E+04  0.80384580978E+02 0.  0.
         13    1    3    3    0    0  0.73819906414E+02  0.11785667874E+03 -0.23337531246E+03  0.27166820162E+03  0.00000000000E+00 0.  1.
        -13    1    3    3    0    0 -0.13909418999E+02  0.13274546809E+03 -0.18816015389E+03  0.23069259795E+03  0.00000000000E+00 0. -1.
          2    1    6    6  502    0  0.18930599936E+03 -0.17087139224E+03  0.49857735920E+03  0.56001176522E+03  0.00000000000E+00 0. -1.
          3    1    5    5  503    0 -0.35351332873E+03  0.98163726758E+02  0.25700075848E+03  0.44794774327E+03  0.00000000000E+00 0. -1.
         -4    1    5    5    0  503 -0.13558313852E+02  0.22295642846E+02  0.30276241969E+02  0.39969668402E+02  0.00000000000E+00 0.  1.
         -1    1    6    6    0  502  0.11785515581E+03 -0.20019012420E+03  0.39121648017E+03  0.45499039323E+03  0.00000000000E+00 0.  1.
<mgrwt>
<rscale>  0 0.18575025E+04</rscale>
<asrwt>0</asrwt>
<pdfrwt beam="1">  1        1 0.21237044E+00 0.18575025E+04</pdfrwt>
<pdfrwt beam="2">  1       -1 0.96134231E-01 0.18575025E+04</pdfrwt>
<totfact> 0.77636444E+00</totfact>
</mgrwt>
</event>
<event>
12    1  0.2433511E-007  0.1741616E+04  0.7818608E-02  0.8737979E-01
          2   -1    0    0  501    0  0.00000000000E+00  0.00000000000E+00  0.53859418557E+03  0.53859418557E+03  0.00000000000E+00 0. -1.
         -2   -1    0    0    0  501 -0.00000000000E+00 -0.00000000000E+00 -0.14079370475E+04  0.14079370475E+04  0.00000000000E+00 0.  1.
         23    2    1    2    0    0  0.21829044842E+03 -0.30218730019E+03  0.25451508036E+03  0.45927785862E+03  0.84795878535E+02 0.  0.
        254    2    1    2    0    0 -0.21829044842E+03  0.30218730019E+03 -0.11238579423E+04  0.14872533744E+04  0.89994335438E+03 0.  0.
        -24    2    4    4    0    0 -0.11480623198E+03 -0.30906663685E+03 -0.48954996624E+03  0.59617670039E+03  0.84052553374E+02 0.  0.
         24    2    4    4    0    0 -0.10348421644E+03  0.61125393705E+03 -0.63430797603E+03  0.89107667404E+03  0.85619343347E+02 0.  0.
         13    1    3    3    0    0  0.79306553775E+02 -0.15574153326E+03  0.15755135180E+03  0.23530274777E+03  0.00000000000E+00 0. -1.
        -13    1    3    3    0    0  0.13898389465E+03 -0.14644576693E+03  0.96963728562E+02  0.22397511085E+03  0.00000000000E+00 0.  1.
          4    1    6    6  502    0 -0.69064467976E+02  0.39561835812E+03 -0.35093315716E+03  0.53332716676E+03  0.00000000000E+00 0. -1.
          3    1    5    5  503    0 -0.91123775504E+02 -0.18116993323E+03 -0.35627874637E+03  0.40995198777E+03  0.00000000000E+00 0. -1.
         -4    1    5    5    0  503 -0.23682456474E+02 -0.12789670363E+03 -0.13327121987E+03  0.18622471262E+03  0.00000000000E+00 0.  1.
         -3    1    6    6    0  502 -0.34419748467E+02  0.21563557893E+03 -0.28337481888E+03  0.35774950728E+03  0.00000000000E+00 0.  1.
<mgrwt>
<rscale>  0 0.17416162E+04</rscale>
<asrwt>0</asrwt>
<pdfrwt beam="1">  1        2 0.82860644E-01 0.17416162E+04</pdfrwt>
<pdfrwt beam="2">  1       -2 0.21660570E+00 0.17416162E+04</pdfrwt>
<totfact> 0.55556117E+00</totfact>
</mgrwt>
</event>
<event>
12    1  0.2615147E-007  0.3327737E+04  0.7818608E-02  0.8155873E-01
         -2   -1    0    0    0  501 -0.00000000000E+00  0.00000000000E+00  0.20401173853E+04  0.20401173853E+04  0.00000000000E+00 0. -1.
          2   -1    0    0  501    0  0.00000000000E+00 -0.00000000000E+00 -0.13570093251E+04  0.13570093251E+04  0.00000000000E+00 0.  1.
         23    2    1    2    0    0  0.46476516271E+03 -0.14097869658E+04 -0.10391902608E+03  0.14906956836E+04  0.88704632728E+02 0.  0.
        254    2    1    2    0    0 -0.46476516271E+03  0.14097869658E+04  0.78702708630E+03  0.19064310268E+04  0.90086718226E+03 0.  0.
        -24    2    4    4    0    0  0.79085916261E+02  0.54576871139E+02 -0.12957281685E+03  0.18054719229E+03  0.81086107099E+02 0.  0.
         24    2    4    4    0    0 -0.54385107897E+03  0.13552100947E+04  0.91659990315E+03  0.17258838345E+04  0.78429784512E+02 0.  0.
         13    1    3    3    0    0  0.11348045446E+03 -0.47736300579E+03 -0.33218609195E+02  0.49178931346E+03  0.00000000000E+00 0. -1.
        -13    1    3    3    0    0  0.35128470825E+03 -0.93242396001E+03 -0.70700416887E+02  0.99890637019E+03  0.00000000000E+00 0.  1.
          4    1    6    6  502    0 -0.25965425108E+03  0.73383692283E+03  0.51412000816E+03  0.93287530903E+03  0.00000000000E+00 0. -1.
          3    1    5    5  503    0  0.67963218419E+00 -0.63952694249E+00 -0.64838692810E+02  0.64845408318E+02  0.00000000000E+00 0. -1.
         -4    1    5    5    0  503  0.78406284076E+02  0.55216398081E+02 -0.64734124037E+02  0.11570178397E+03  0.00000000000E+00 0.  1.
         -3    1    6    6    0  502 -0.28419682789E+03  0.62137317183E+03  0.40247989499E+03  0.79300852551E+03  0.00000000000E+00 0.  1.
<mgrwt>
<rscale>  0 0.33277370E+04</rscale>
<asrwt>0</asrwt>
<pdfrwt beam="1">  1        2 0.20877067E+00 0.33277370E+04</pdfrwt>
<pdfrwt beam="2">  1       -2 0.31386421E+00 0.33277370E+04</pdfrwt>
<totfact> 0.33342639E-01</totfact>
</mgrwt>
</event>
<event>
12    1  0.2433511E-007  0.1500566E+04  0.7818608E-02  0.8884077E-01
          2   -1    0    0  501    0  0.00000000000E+00  0.00000000000E+00  0.17367961434E+04  0.17367961434E+04  0.00000000000E+00 0. -1.
         -2   -1    0    0    0  501 -0.00000000000E+00 -0.00000000000E+00 -0.32411660933E+03  0.32411660933E+03  0.00000000000E+00 0.  1.
         23    2    1    2    0    0  0.44519089134E+03 -0.14517394071E+03  0.55636048460E+03  0.73306325273E+03  0.92597736940E+02 0.  0.
        254    2    1    2    0    0 -0.44519089134E+03  0.14517394071E+03  0.85631904950E+03  0.13278495000E+04  0.90035080797E+03 0.  0.
        -24    2    4    4    0    0 -0.12475490393E+03 -0.37168184567E+03  0.29691861578E+03  0.49800865072E+03  0.78363073813E+02 0.  0.
         24    2    4    4    0    0 -0.32043598741E+03  0.51685578639E+03  0.55940043372E+03  0.82984084932E+03  0.76732418158E+02 0.  0.
         11    1    3    3    0    0  0.69395780275E+02 -0.45730199359E+02  0.59530695010E+02  0.10222978579E+03  0.00000000000E+00 0.  1.
        -11    1    3    3    0    0  0.37579511106E+03 -0.99443741354E+02  0.49682978959E+03  0.63083346694E+03  0.00000000000E+00 0. -1.
          2    1    6    6  502    0 -0.29925758141E+03  0.50812492356E+03  0.54346972483E+03  0.80193851371E+03  0.00000000000E+00 0. -1.
          3    1    5    5  503    0 -0.78470901479E+02 -0.31142790685E+03  0.26160310210E+03  0.41422361904E+03  0.00000000000E+00 0. -1.
         -4    1    5    5    0  503 -0.46284002451E+02 -0.60253938826E+02  0.35315513674E+02  0.83785031677E+02  0.00000000000E+00 0.  1.
         -1    1    6    6    0  502 -0.21178405992E+02  0.87308628300E+01  0.15930708896E+02  0.27902335602E+02  0.00000000000E+00 0.  1.
<mgrwt>
<rscale>  0 0.15005659E+04</rscale>
<asrwt>0</asrwt>
<pdfrwt beam="1">  1        2 0.26719940E+00 0.15005659E+04</pdfrwt>
<pdfrwt beam="2">  1       -2 0.49864095E-01 0.15005659E+04</pdfrwt>
<totfact> 0.34392191E+01</totfact>
</mgrwt>
</event>
<event>
12    1  0.2685238E-007  0.2987865E+04  0.7818608E-02  0.8247205E-01
          2   -1    0    0  501    0  0.00000000000E+00  0.00000000000E+00  0.14568400964E+04  0.14568400964E+04  0.00000000000E+00 0. -1.
         -2   -1    0    0    0  501 -0.00000000000E+00 -0.00000000000E+00 -0.15319689738E+04  0.15319689738E+04  0.00000000000E+00 0.  1.
         23    2    1    2    0    0  0.75214567779E+02 -0.11828029848E+04  0.62587171446E+03  0.13434242586E+04  0.91614429278E+02 0.  0.
        254    2    1    2    0    0 -0.75214567779E+02  0.11828029848E+04 -0.70100059185E+03  0.16453848117E+04  0.90067153651E+03 0.  0.
        -24    2    4    4    0    0 -0.28258133966E+03  0.53728942739E+03  0.69174051427E+02  0.61594811697E+03  0.77941587734E+02 0.  0.
         24    2    4    4    0    0  0.20736677188E+03  0.64551355738E+03 -0.77017464328E+03  0.10294366947E+04  0.82959004293E+02 0.  0.
         13    1    3    3    0    0  0.64404944377E+02 -0.90208221657E+03  0.51994261324E+03  0.10431877316E+04  0.00000000000E+00 0. -1.
        -13    1    3    3    0    0  0.10809623402E+02 -0.28072076820E+03  0.10592910122E+03  0.30023652699E+03  0.00000000000E+00 0.  1.
          2    1    6    6  502    0  0.52669212881E+02  0.29032409956E+03 -0.35410363149E+03  0.46092462573E+03  0.00000000000E+00 0. -1.
          3    1    5    5  503    0 -0.34658637958E+02  0.68665747374E+02  0.35505191206E+02  0.84716141615E+02  0.00000000000E+00 0. -1.
         -4    1    5    5    0  503 -0.24792270170E+03  0.46862368001E+03  0.33668860222E+02  0.53123197535E+03  0.00000000000E+00 0.  1.
         -1    1    6    6    0  502  0.15469755900E+03  0.35518945782E+03 -0.41607101179E+03  0.56851206897E+03  0.00000000000E+00 0.  1.
<mgrwt>
<rscale>  0 0.29878647E+04</rscale>
<asrwt>0</asrwt>
<pdfrwt beam="1">  1        2 0.22412925E+00 0.29878647E+04</pdfrwt>
<pdfrwt beam="2">  1       -2 0.23568753E+00 0.29878647E+04</pdfrwt>
<totfact> 0.90664805E-01</totfact>
</mgrwt>
</event>
<event>
12    1  0.2433511E-007  0.2261971E+04  0.7818608E-02  0.8493068E-01
         -2   -1    0    0    0  501 -0.00000000000E+00  0.00000000000E+00  0.16667224509E+04  0.16667224509E+04  0.00000000000E+00 0.  1.
          2   -1    0    0  501    0  0.00000000000E+00 -0.00000000000E+00 -0.76745151867E+03  0.76745151867E+03  0.00000000000E+00 0. -1.
         23    2    1    2    0    0  0.35561236439E+03 -0.60567712106E+03  0.10637530274E+04  0.12779916468E+04  0.91581753041E+02 0.  0.
        254    2    1    2    0    0 -0.35561236439E+03  0.60567712106E+03 -0.16448209509E+03  0.11561823228E+04  0.90354760538E+03 0.  0.
        -24    2    4    4    0    0 -0.40727140379E+03  0.68577863776E+03  0.15253026613E+03  0.81580728228E+03  0.78190174473E+02 0.  0.
         24    2    4    4    0    0  0.51659039398E+02 -0.80101516705E+02 -0.31701236122E+03  0.34037504048E+03  0.79204934732E+02 0.  0.
         13    1    3    3    0    0  0.25253107180E+03 -0.38620649653E+03  0.62773957475E+03  0.77909201889E+03  0.00000000000E+00 0. -1.
        -13    1    3    3    0    0  0.10308129260E+03 -0.21947062453E+03  0.43601345262E+03  0.49889962796E+03  0.00000000000E+00 0.  1.
          2    1    6    6  502    0  0.41653257286E+01  0.19083949819E+01 -0.13580303662E+03  0.13588030272E+03  0.00000000000E+00 0. -1.
          3    1    5    5  503    0 -0.14056707303E+03  0.31240811389E+03  0.64098999287E+02  0.34852060678E+03  0.00000000000E+00 0. -1.
         -4    1    5    5    0  503 -0.26670433076E+03  0.37337052388E+03  0.88431266846E+02  0.46728667550E+03  0.00000000000E+00 0.  1.
         -1    1    6    6    0  502  0.47493713669E+02 -0.82009911687E+02 -0.18120932460E+03  0.20449473777E+03  0.00000000000E+00 0.  1.
<mgrwt>
<rscale>  0 0.22619714E+04</rscale>
<asrwt>0</asrwt>
<pdfrwt beam="1">  1        2 0.11806946E+00 0.22619714E+04</pdfrwt>
<pdfrwt beam="2">  1       -2 0.25641884E+00 0.22619714E+04</pdfrwt>
<totfact> 0.19418705E+00</totfact>
</mgrwt>
</event>
<event>
12    1  0.2433511E-007  0.1384572E+04  0.7818608E-02  0.8965063E-01
         -2   -1    0    0    0  501 -0.00000000000E+00  0.00000000000E+00  0.84553322206E+03  0.84553322206E+03  0.00000000000E+00 0.  1.
          2   -1    0    0  501    0  0.00000000000E+00 -0.00000000000E+00 -0.56681347865E+03  0.56681347865E+03  0.00000000000E+00 0. -1.
         23    2    1    2    0    0  0.34834116923E+03 -0.55016640120E+02  0.25803164224E+03  0.44601798064E+03  0.89349369274E+02 0.  0.
        254    2    1    2    0    0 -0.34834116923E+03  0.55016640120E+02  0.20688101171E+02  0.96632872008E+03  0.89944138044E+03 0.  0.
        -24    2    4    4    0    0  0.26080963564E+03 -0.14871655771E+03 -0.52707647711E+02  0.31496897524E+03  0.79303711502E+02 0.  0.
         24    2    4    4    0    0 -0.60915080487E+03  0.20373319783E+03  0.73395748882E+02  0.65135974484E+03  0.79439676946E+02 0.  0.
         13    1    3    3    0    0  0.30515398554E+03 -0.16208557793E+02  0.21197866858E+03  0.37190943544E+03  0.00000000000E+00 0. -1.
        -13    1    3    3    0    0  0.43187183684E+02 -0.38808082328E+02  0.46052973661E+02  0.74108545200E+02  0.00000000000E+00 0.  1.
          2    1    6    6  502    0 -0.32382634457E+03  0.70172341220E+02  0.21120006803E+02  0.33201462859E+03  0.00000000000E+00 0. -1.
          1    1    5    5  503    0  0.22060649839E+03 -0.90609697934E+02 -0.28061501786E+02  0.24013494617E+03  0.00000000000E+00 0. -1.
         -2    1    5    5    0  503  0.40203137252E+02 -0.58106859774E+02 -0.24646145924E+02  0.74834029068E+02  0.00000000000E+00 0.  1.
         -1    1    6    6    0  502 -0.28532446030E+03  0.13356085661E+03  0.52275742079E+02  0.31934511625E+03  0.00000000000E+00 0.  1.
<mgrwt>
<rscale>  0 0.13845716E+04</rscale>
<asrwt>0</asrwt>
<pdfrwt beam="1">  1        2 0.87202074E-01 0.13845716E+04</pdfrwt>
<pdfrwt beam="2">  1       -2 0.13008203E+00 0.13845716E+04</pdfrwt>
<totfact> 0.22429700E+01</totfact>
</mgrwt>
</event>
<event>
12    1  0.2433511E-007  0.2960857E+04  0.7818608E-02  0.8254997E-01
          1   -1    0    0  501    0  0.00000000000E+00  0.00000000000E+00  0.67172019543E+03  0.67172019543E+03  0.00000000000E+00 0. -1.
         -1   -1    0    0    0  501 -0.00000000000E+00 -0.00000000000E+00 -0.32627708332E+04  0.32627708332E+04  0.00000000000E+00 0.  1.
         23    2    1    2    0    0 -0.89309547398E+03  0.10006216598E+04 -0.12408427235E+04  0.18295150644E+04  0.92582259314E+02 0.  0.
        254    2    1    2    0    0  0.89309547398E+03 -0.10006216598E+04 -0.13502079143E+04  0.21049759642E+04  0.89944380962E+03 0.  0.
        -24    2    4    4    0    0  0.82957479681E+03 -0.95499896664E+03 -0.14698510065E+04  0.19409367747E+04  0.80970441392E+02 0.  0.
         24    2    4    4    0    0  0.63520677171E+02 -0.45622693117E+02  0.11964309225E+03  0.16403918951E+03  0.80486518225E+02 0.  0.
         13    1    3    3    0    0 -0.59689234707E+03  0.60525064519E+03 -0.76526829590E+03  0.11437851119E+04  0.00000000000E+00 0. -1.
        -13    1    3    3    0    0 -0.29620312690E+03  0.39537101457E+03 -0.47557442761E+03  0.68572995249E+03  0.00000000000E+00 0.  1.
          4    1    6    6  502    0  0.33865469925E+02 -0.47063448436E+02  0.12115088702E+03  0.13431074290E+03  0.00000000000E+00 0. -1.
          1    1    5    5  503    0  0.61664489112E+03 -0.67651292391E+03 -0.11062046271E+04  0.14358305384E+04  0.00000000000E+00 0. -1.
         -2    1    5    5    0  503  0.21292990568E+03 -0.27848604272E+03 -0.36364637944E+03  0.50510623636E+03  0.00000000000E+00 0.  1.
         -3    1    6    6    0  502  0.29655207246E+02  0.14407553194E+01 -0.15077947729E+01  0.29728446609E+02  0.00000000000E+00 0.  1.
<mgrwt>
<rscale>  0 0.29608573E+04</rscale>
<asrwt>0</asrwt>
<pdfrwt beam="1">  1        1 0.10334157E+00 0.29608573E+04</pdfrwt>
<pdfrwt beam="2">  1       -1 0.50196475E+00 0.29608573E+04</pdfrwt>
<totfact> 0.35730166E-02</totfact>
</mgrwt>
</event>
<event>
12    1  0.2433511E-007  0.1944983E+04  0.7818608E-02  0.8632784E-01
          2   -1    0    0  501    0  0.00000000000E+00  0.00000000000E+00  0.90037482942E+03  0.90037482942E+03  0.00000000000E+00 0. -1.
         -2   -1    0    0    0  501 -0.00000000000E+00 -0.00000000000E+00 -0.10503839401E+04  0.10503839401E+04  0.00000000000E+00 0.  1.
         23    2    1    2    0    0  0.69956361749E+03  0.26779863685E+03 -0.17364699318E+03  0.77440794101E+03  0.91918529399E+02 0.  0.
        254    2    1    2    0    0 -0.69956361749E+03 -0.26779863685E+03  0.23637882471E+02  0.11763508285E+04  0.90671779374E+03 0.  0.
        -24    2    4    4    0    0 -0.88625262111E+03 -0.85271699012E+02 -0.43117091086E+02  0.89473376598E+03  0.77294614070E+02 0.  0.
         24    2    4    4    0    0  0.18668900362E+03 -0.18252693783E+03  0.66754973557E+02  0.28161706256E+03  0.81750084540E+02 0.  0.
         11    1    3    3    0    0  0.45222574148E+03  0.17822326988E+03 -0.15707900901E+03  0.51082821991E+03  0.00000000000E+00 0.  1.
        -11    1    3    3    0    0  0.24733787602E+03  0.89575366962E+02 -0.16567984171E+02  0.26357972110E+03  0.00000000000E+00 0. -1.
          2    1    6    6  502    0  0.18323640336E+03 -0.17643147802E+03  0.44431810829E+02  0.25822050997E+03  0.00000000000E+00 0. -1.
          3    1    5    5  503    0 -0.74696613612E+03 -0.44028918037E+02 -0.29710966806E+02  0.74885225223E+03  0.00000000000E+00 0. -1.
         -4    1    5    5    0  503 -0.13928648499E+03 -0.41242780976E+02 -0.13406124280E+02  0.14588151375E+03  0.00000000000E+00 0.  1.
         -1    1    6    6    0  502  0.34526002533E+01 -0.60954598095E+01  0.22323162728E+02  0.23396552587E+02  0.00000000000E+00 0.  1.
<mgrwt>
<rscale>  0 0.19449825E+04</rscale>
<asrwt>0</asrwt>
<pdfrwt beam="1">  1        2 0.13851920E+00 0.19449825E+04</pdfrwt>
<pdfrwt beam="2">  1       -2 0.16159753E+00 0.19449825E+04</pdfrwt>
<totfact> 0.67020370E+00</totfact>
</mgrwt>
</event>
<event>
12    1  0.2433511E-007  0.1253870E+04  0.7818608E-02  0.9066968E-01
          3   -1    0    0  501    0  0.00000000000E+00  0.00000000000E+00  0.60400688515E+03  0.60400688515E+03  0.00000000000E+00 0. -1.
         -3   -1    0    0    0  501 -0.00000000000E+00 -0.00000000000E+00 -0.65073383377E+03  0.65073383377E+03  0.00000000000E+00 0.  1.
         23    2    1    2    0    0  0.66364578775E+02 -0.23022442271E+03 -0.17327446404E+03  0.31547310741E+03  0.10996226389E+03 0.  0.
        254    2    1    2    0    0 -0.66364578775E+02  0.23022442271E+03  0.12654751541E+03  0.93926761151E+03  0.89933410380E+03 0.  0.
        -24    2    4    4    0    0  0.23969624997E+03  0.44302815846E+02  0.40507766228E+03  0.47923114549E+03  0.78470036246E+02 0.  0.
         24    2    4    4    0    0 -0.30606082874E+03  0.18592160687E+03 -0.27853014687E+03  0.46003646603E+03  0.76252426644E+02 0.  0.
         13    1    3    3    0    0 -0.32605144741E+01 -0.39947653131E+02  0.11033108588E+02  0.41571329428E+02  0.00000000000E+00 0. -1.
        -13    1    3    3    0    0  0.69625093249E+02 -0.19027676958E+03 -0.18430757262E+03  0.27390177798E+03  0.00000000000E+00 0.  1.
          4    1    6    6  502    0 -0.19852099265E+03  0.14474493096E+03 -0.22461305924E+03  0.33288542464E+03  0.00000000000E+00 0. -1.
          1    1    5    5  503    0  0.17074203502E+03  0.47361144433E+02  0.34449722153E+03  0.38739418706E+03  0.00000000000E+00 0. -1.
         -2    1    5    5    0  503  0.68954214943E+02 -0.30583285864E+01  0.60580440753E+02  0.91836958431E+02  0.00000000000E+00 0.  1.
         -3    1    6    6    0  502 -0.10753983609E+03  0.41176675905E+02 -0.53917087631E+02  0.12715104138E+03  0.00000000000E+00 0.  1.
<mgrwt>
<rscale>  0 0.12538704E+04</rscale>
<asrwt>0</asrwt>
<pdfrwt beam="1">  1        3 0.92924136E-01 0.12538704E+04</pdfrwt>
<pdfrwt beam="2">  1       -3 0.10011290E+00 0.12538704E+04</pdfrwt>
<totfact> 0.23293865E+00</totfact>
</mgrwt>
</event>
<event>
12    1  0.2433511E-007  0.2314779E+04  0.7818608E-02  0.8472117E-01
         -1   -1    0    0    0  501 -0.00000000000E+00  0.00000000000E+00  0.10622387027E+04  0.10622387027E+04  0.00000000000E+00 0.  1.
          1   -1    0    0  501    0  0.00000000000E+00 -0.00000000000E+00 -0.12610632011E+04  0.12610632011E+04  0.00000000000E+00 0. -1.
         23    2    1    2    0    0  0.39166631968E+03 -0.89719611890E+03 -0.27205038198E+02  0.98361760246E+03  0.91652015932E+02 0.  0.
        254    2    1    2    0    0 -0.39166631968E+03  0.89719611890E+03 -0.17161946020E+03  0.13396843014E+04  0.89829694786E+03 0.  0.
        -24    2    4    4    0    0 -0.55619944127E+03  0.29129395051E+03 -0.28936971924E+03  0.69596153128E+03  0.80110140012E+02 0.  0.
         24    2    4    4    0    0  0.16453312159E+03  0.60590216839E+03  0.11775025904E+03  0.64372277012E+03  0.79531726353E+02 0.  0.
         13    1    3    3    0    0  0.95195100321E+02 -0.17688474268E+03  0.27567588697E+02  0.20275672927E+03  0.00000000000E+00 0.  1.
        -13    1    3    3    0    0  0.29647121936E+03 -0.72031137622E+03 -0.54772626895E+02  0.78086087319E+03  0.00000000000E+00 0. -1.
          4    1    6    6  502    0  0.17686113045E+02  0.87790767234E+02 -0.10425413004E+02  0.90159340296E+02  0.00000000000E+00 0. -1.
          3    1    5    5  503    0 -0.89284569485E+02  0.43798159427E+02 -0.15149693026E+02  0.10059585636E+03  0.00000000000E+00 0. -1.
         -4    1    5    5    0  503 -0.46691487178E+03  0.24749579108E+03 -0.27422002621E+03  0.59536567492E+03  0.00000000000E+00 0.  1.
         -3    1    6    6    0  502  0.14684700855E+03  0.51811140116E+03  0.12817567204E+03  0.55356342982E+03  0.00000000000E+00 0.  1.
<mgrwt>
<rscale>  0 0.23147787E+04</rscale>
<asrwt>0</asrwt>
<pdfrwt beam="1">  1        1 0.19400972E+00 0.23147787E+04</pdfrwt>
<pdfrwt beam="2">  1       -1 0.16342134E+00 0.23147787E+04</pdfrwt>
<totfact> 0.23985080E+00</totfact>
</mgrwt>
</event>
<event>
12    1  0.2433511E-007  0.1541613E+04  0.7818608E-02  0.8857243E-01
          1   -1    0    0  501    0  0.00000000000E+00  0.00000000000E+00  0.85714396294E+03  0.85714396294E+03  0.00000000000E+00 0. -1.
         -1   -1    0    0    0  501 -0.00000000000E+00 -0.00000000000E+00 -0.69316567736E+03  0.69316567736E+03  0.00000000000E+00 0.  1.
         23    2    1    2    0    0  0.37136947127E+03  0.23394002968E+03  0.29995313712E+03  0.53934199866E+03  0.90965297593E+02 0.  0.
        254    2    1    2    0    0 -0.37136947127E+03 -0.23394002968E+03 -0.13597485154E+03  0.10109676416E+04  0.90051273757E+03 0.  0.
        -24    2    4    4    0    0  0.22442105752E+03  0.56758303584E+02 -0.23065567940E+03  0.33658080474E+03  0.80611907258E+02 0.  0.
         24    2    4    4    0    0 -0.59579052880E+03 -0.29069833326E+03  0.94680827865E+02  0.67438683690E+03  0.79757579317E+02 0.  0.
         13    1    3    3    0    0  0.14217474712E+03  0.14229908140E+03  0.14363553079E+03  0.24717170751E+03  0.00000000000E+00 0.  1.
        -13    1    3    3    0    0  0.22919472416E+03  0.91640948276E+02  0.15631760633E+03  0.29217029115E+03  0.00000000000E+00 0. -1.
          4    1    6    6  502    0 -0.53676373118E+03 -0.25253147082E+03  0.10770378359E+03  0.60289928833E+03  0.00000000000E+00 0. -1.
          3    1    5    5  503    0  0.18086798292E+03  0.45873895359E+02 -0.22344890373E+03  0.29111347289E+03  0.00000000000E+00 0. -1.
         -4    1    5    5    0  503  0.43553074602E+02  0.10884408225E+02 -0.72067756758E+01  0.45467331848E+02  0.00000000000E+00 0.  1.
         -3    1    6    6    0  502 -0.59026797615E+02 -0.38166862445E+02 -0.13022955728E+02  0.71487548577E+02  0.00000000000E+00 0.  1.
<mgrwt>
<rscale>  0 0.15416131E+04</rscale>
<asrwt>0</asrwt>
<pdfrwt beam="1">  1        1 0.13186830E+00 0.15416131E+04</pdfrwt>
<pdfrwt beam="2">  1       -1 0.10664087E+00 0.15416131E+04</pdfrwt>
<totfact> 0.15639888E+01</totfact>
</mgrwt>
</event>
<event>
12    1  0.2433511E-007  0.2206568E+04  0.7818608E-02  0.8515699E-01
         -2   -1    0    0    0  501 -0.00000000000E+00  0.00000000000E+00  0.96036553499E+03  0.96036553499E+03  0.00000000000E+00 0.  1.
          2   -1    0    0  501    0  0.00000000000E+00 -0.00000000000E+00 -0.12674707128E+04  0.12674707128E+04  0.00000000000E+00 0. -1.
         23    2    1    2    0    0 -0.41851762308E+02 -0.62028992151E+03  0.55190489526E+03  0.83672072102E+03  0.94822965781E+02 0.  0.
        254    2    1    2    0    0  0.41851762308E+02  0.62028992151E+03 -0.85901007303E+03  0.13911155267E+04  0.90044041800E+03 0.  0.
        -24    2    4    4    0    0  0.46013183175E+03  0.33421216196E+03 -0.53225461834E+03  0.78298373253E+03  0.79683592255E+02 0.  0.
         24    2    4    4    0    0 -0.41828006944E+03  0.28607775955E+03 -0.32675545469E+03  0.60813179419E+03  0.79097730241E+02 0.  0.
         11    1    3    3    0    0 -0.54027213635E+02 -0.17333841565E+03  0.16925728266E+03  0.24822001105E+03  0.00000000000E+00 0.  1.
        -11    1    3    3    0    0  0.12175451327E+02 -0.44695150587E+03  0.38264761260E+03  0.58850070997E+03  0.00000000000E+00 0. -1.
          2    1    6    6  502    0 -0.31199777095E+03  0.23563535274E+03 -0.21662288060E+03  0.44698109685E+03  0.00000000000E+00 0. -1.
          3    1    5    5  503    0  0.41646719664E+02  0.50944614072E+02 -0.89727077435E+02  0.11126882487E+03  0.00000000000E+00 0. -1.
         -4    1    5    5    0  503  0.41848511208E+03  0.28326754789E+03 -0.44252754090E+03  0.67171490766E+03  0.00000000000E+00 0.  1.
         -1    1    6    6    0  502 -0.10628229849E+03  0.50442406813E+02 -0.11013257409E+03  0.16115069734E+03  0.00000000000E+00 0.  1.
<mgrwt>
<rscale>  0 0.22065676E+04</rscale>
<asrwt>0</asrwt>
<pdfrwt beam="1">  1        2 0.19499549E+00 0.22065676E+04</pdfrwt>
<pdfrwt beam="2">  1       -2 0.14774854E+00 0.22065676E+04</pdfrwt>
<totfact> 0.49217491E+00</totfact>
</mgrwt>
</event>
<event>
12    1  0.2433511E-007  0.1803325E+04  0.7818608E-02  0.8704533E-01
          1   -1    0    0  501    0  0.00000000000E+00  0.00000000000E+00  0.70515510662E+03  0.70515510662E+03  0.00000000000E+00 0. -1.
         -1   -1    0    0    0  501 -0.00000000000E+00 -0.00000000000E+00 -0.11529312248E+04  0.11529312248E+04  0.00000000000E+00 0.  1.
         23    2    1    2    0    0 -0.51507731251E+03 -0.10100248118E+03 -0.60477203005E+03  0.80615913523E+03  0.92936558510E+02 0.  0.
        254    2    1    2    0    0  0.51507731251E+03  0.10100248118E+03  0.15699591182E+03  0.10519271962E+04  0.89799608618E+03 0.  0.
        -24    2    4    4    0    0  0.25039138144E+03 -0.29095067275E+03  0.35809133834E+03  0.53111439112E+03  0.80653282580E+02 0.  0.
         24    2    4    4    0    0  0.26468593108E+03  0.39195315392E+03 -0.20109542652E+03  0.52081280512E+03  0.84384183571E+02 0.  0.
         13    1    3    3    0    0 -0.19586139023E+03  0.43188727418E+01 -0.19917500421E+03  0.27937612487E+03  0.00000000000E+00 0. -1.
        -13    1    3    3    0    0 -0.31921592228E+03 -0.10532135392E+03 -0.40559702584E+03  0.52678301036E+03  0.00000000000E+00 0.  1.
          2    1    6    6  502    0  0.13369716866E+03  0.25713389039E+03 -0.14835806040E+03  0.32558084185E+03  0.00000000000E+00 0. -1.
          1    1    5    5  503    0  0.23733742205E+03 -0.27163281986E+03  0.35740248136E+03  0.50778930120E+03  0.00000000000E+00 0. -1.
         -2    1    5    5    0  503  0.13053959389E+02 -0.19317852884E+02  0.68885697785E+00  0.23325089918E+02  0.00000000000E+00 0.  1.
         -1    1    6    6    0  502  0.13098876242E+03  0.13481926353E+03 -0.52737366116E+02  0.19523196327E+03  0.00000000000E+00 0.  1.
<mgrwt>
<rscale>  0 0.18033251E+04</rscale>
<asrwt>0</asrwt>
<pdfrwt beam="1">  1        1 0.10848540E+00 0.18033251E+04</pdfrwt>
<pdfrwt beam="2">  1       -1 0.17737403E+00 0.18033251E+04</pdfrwt>
<totfact> 0.55243450E+00</totfact>
</mgrwt>
</event>
<event>
12    1  0.2433511E-007  0.1257790E+04  0.7818608E-02  0.9063724E-01
          2   -1    0    0  501    0  0.00000000000E+00  0.00000000000E+00  0.22695068122E+04  0.22695068122E+04  0.00000000000E+00 0.  1.
         -2   -1    0    0    0  501 -0.00000000000E+00 -0.00000000000E+00 -0.17427099138E+03  0.17427099138E+03  0.00000000000E+00 0. -1.
         23    2    1    2    0    0 -0.24207208141E+03  0.16730971298E+03  0.58455847977E+03  0.66102661826E+03  0.93038385228E+02 0.  0.
        254    2    1    2    0    0  0.24207208141E+03 -0.16730971298E+03  0.15106773410E+04  0.17827511853E+04  0.89970235485E+03 0.  0.
        -24    2    4    4    0    0  0.32836289580E+03 -0.49249263894E+03  0.87730689919E+03  0.10612709962E+04  0.79104621991E+02 0.  0.
         24    2    4    4    0    0 -0.86290814390E+02  0.32518292596E+03  0.63337044183E+03  0.72148018912E+03  0.78647992439E+02 0.  0.
         13    1    3    3    0    0 -0.58272107829E+02  0.54455045172E+02  0.83246492577E+02  0.11528646504E+03  0.00000000000E+00 0. -1.
        -13    1    3    3    0    0 -0.18379997358E+03  0.11285466781E+03  0.50131198719E+03  0.54574015322E+03  0.00000000000E+00 0.  1.
          2    1    6    6  502    0 -0.11231323849E+02  0.19081498100E+03  0.33244623897E+03  0.38348011867E+03  0.00000000000E+00 0. -1.
          1    1    5    5  503    0 -0.19081163936E+00 -0.17452802222E+02  0.13124961192E+02  0.21838070446E+02  0.00000000000E+00 0. -1.
         -2    1    5    5    0  503  0.32855370744E+03 -0.47503983671E+03  0.86418193800E+03  0.10394329257E+04  0.00000000000E+00 0.  1.
         -1    1    6    6    0  502 -0.75059490540E+02  0.13436794496E+03  0.30092420287E+03  0.33800007045E+03  0.00000000000E+00 0.  1.
<mgrwt>
<rscale>  0 0.12577904E+04</rscale>
<asrwt>0</asrwt>
<pdfrwt beam="1">  1        2 0.34915487E+00 0.12577904E+04</pdfrwt>
<pdfrwt beam="2">  1       -2 0.26810923E-01 0.12577904E+04</pdfrwt>
<totfact> 0.58733027E+01</totfact>
</mgrwt>
</event>
<event>
12    1  0.2433511E-007  0.2418471E+04  0.7818608E-02  0.8432620E-01
         -1   -1    0    0    0  501 -0.00000000000E+00  0.00000000000E+00  0.11570005727E+04  0.11570005727E+04  0.00000000000E+00 0.  1.
          1   -1    0    0  501    0  0.00000000000E+00 -0.00000000000E+00 -0.12638290922E+04  0.12638290922E+04  0.00000000000E+00 0. -1.
         23    2    1    2    0    0 -0.24406597629E+03  0.10099979620E+04 -0.66052679168E+02  0.10452021989E+04  0.91763806225E+02 0.  0.
        254    2    1    2    0    0  0.24406597629E+03 -0.10099979620E+04 -0.40775840285E+02  0.13756274660E+04  0.90056880468E+03 0.  0.
        -24    2    4    4    0    0  0.39376759878E+03 -0.11043569776E+04 -0.63274142651E+02  0.11769193448E+04  0.80487707440E+02 0.  0.
         24    2    4    4    0    0 -0.14970162249E+03  0.94359015618E+02  0.22498302366E+02  0.19870812122E+03  0.87547382736E+02 0.  0.
         13    1    3    3    0    0 -0.18102417364E+03  0.72240081943E+03 -0.88218602502E+02  0.74994347600E+03  0.00000000000E+00 0. -1.
        -13    1    3    3    0    0 -0.63041802645E+02  0.28759714258E+03  0.22165923334E+02  0.29525872292E+03  0.00000000000E+00 0.  1.
          2    1    6    6  502    0  0.10871258882E+02 -0.36545942990E+00  0.28527117137E+01  0.11245256529E+02  0.00000000000E+00 0. -1.
          1    1    5    5  503    0  0.69060627861E+02 -0.15472214931E+03 -0.34388568667E+02  0.17288981306E+03  0.00000000000E+00 0. -1.
         -2    1    5    5    0  503  0.32470697092E+03 -0.94963482833E+03 -0.28885573984E+02  0.10040295317E+04  0.00000000000E+00 0.  1.
         -1    1    6    6    0  502 -0.16057288138E+03  0.94724475048E+02  0.19645590652E+02  0.18746286469E+03  0.00000000000E+00 0.  1.
<mgrwt>
<rscale>  0 0.24184714E+04</rscale>
<asrwt>0</asrwt>
<pdfrwt beam="1">  1        1 0.19443524E+00 0.24184714E+04</pdfrwt>
<pdfrwt beam="2">  1       -1 0.17800009E+00 0.24184714E+04</pdfrwt>
<totfact> 0.18485538E+00</totfact>
</mgrwt>
</event>
<event>
12    1  0.2433511E-007  0.1332295E+04  0.7818608E-02  0.9004340E-01
         -2   -1    0    0    0  501 -0.00000000000E+00  0.00000000000E+00  0.24659997050E+03  0.24659997050E+03  0.00000000000E+00 0.  1.
          2   -1    0    0  501    0  0.00000000000E+00 -0.00000000000E+00 -0.17994819478E+04  0.17994819478E+04  0.00000000000E+00 0. -1.
         23    2    1    2    0    0  0.30944644317E+03 -0.90907265947E+02 -0.20197954446E+03  0.39139312923E+03  0.91496519275E+02 0.  0.
        254    2    1    2    0    0 -0.30944644317E+03  0.90907265947E+02 -0.13509024328E+04  0.16546887890E+04  0.89946449257E+03 0.  0.
        -24    2    4    4    0    0  0.11250752179E+02 -0.37380506652E+03 -0.60595182069E+03  0.71653252141E+03  0.79902678682E+02 0.  0.
         24    2    4    4    0    0 -0.32069719535E+03  0.46471233247E+03 -0.74495061213E+03  0.93815626763E+03  0.79884447391E+02 0.  0.
         13    1    3    3    0    0  0.11942213166E+03 -0.65848840442E+02 -0.44882577486E+02  0.14356935982E+03  0.00000000000E+00 0.  1.
        -13    1    3    3    0    0  0.19002431150E+03 -0.25058425504E+02 -0.15709696697E+03  0.24782376941E+03  0.00000000000E+00 0. -1.
          4    1    6    6  502    0 -0.26660661350E+03  0.33555213362E+03 -0.52965267854E+03  0.68132685300E+03  0.00000000000E+00 0. -1.
          1    1    5    5  503    0  0.21103594024E+02 -0.35738597564E+03 -0.59519423057E+03  0.69456912497E+03  0.00000000000E+00 0. -1.
         -4    1    5    5    0  503 -0.98528418457E+01 -0.16419090881E+02 -0.10757590120E+02  0.21963396436E+02  0.00000000000E+00 0.  1.
         -3    1    6    6    0  502 -0.54090581848E+02  0.12916019884E+03 -0.21529793359E+03  0.25682941463E+03  0.00000000000E+00 0.  1.
<mgrwt>
<rscale>  0 0.13322946E+04</rscale>
<asrwt>0</asrwt>
<pdfrwt beam="1">  1        2 0.27684337E+00 0.13322946E+04</pdfrwt>
<pdfrwt beam="2">  1       -2 0.37938458E-01 0.13322946E+04</pdfrwt>
<totfact> 0.55378915E+01</totfact>
</mgrwt>
</event>
<event>
12    1  0.2433511E-007  0.2220755E+04  0.7818608E-02  0.8509839E-01
          2   -1    0    0  501    0  0.00000000000E+00  0.00000000000E+00  0.12020649031E+04  0.12020649031E+04  0.00000000000E+00 0. -1.
         -2   -1    0    0    0  501 -0.00000000000E+00 -0.00000000000E+00 -0.10256833343E+04  0.10256833343E+04  0.00000000000E+00 0.  1.
         23    2    1    2    0    0  0.48480111445E+03 -0.33577208613E+03  0.78227401024E+03  0.98398341550E+03  0.92172232733E+02 0.  0.
        254    2    1    2    0    0 -0.48480111445E+03  0.33577208613E+03 -0.60589244144E+03  0.12437648220E+04  0.91217885711E+03 0.  0.
        -24    2    4    4    0    0 -0.53661600416E+03  0.19315287940E+02 -0.71326403127E+03  0.89642062180E+03  0.80588687823E+02 0.  0.
         24    2    4    4    0    0  0.51814889719E+02  0.31645679819E+03  0.10737158983E+03  0.34734420016E+03  0.79307295780E+02 0.  0.
         11    1    3    3    0    0  0.35159412605E+03 -0.19271804440E+03  0.50741422721E+03  0.64670539822E+03  0.00000000000E+00 0.  1.
        -11    1    3    3    0    0  0.13320698839E+03 -0.14305404173E+03  0.27485978303E+03  0.33727801728E+03  0.00000000000E+00 0. -1.
          2    1    6    6  502    0  0.15533187002E+02  0.23416731450E+03  0.10572226170E+03  0.25739620762E+03  0.00000000000E+00 0. -1.
          1    1    5    5  503    0 -0.47441606503E+03  0.26272351566E+02 -0.66539514741E+03  0.81762555086E+03  0.00000000000E+00 0. -1.
         -2    1    5    5    0  503 -0.62199939132E+02 -0.69570636265E+01 -0.47868883859E+02  0.78795070939E+02  0.00000000000E+00 0.  1.
         -1    1    6    6    0  502  0.36281702717E+02  0.82289483693E+02  0.16493281255E+01  0.89947992539E+02  0.00000000000E+00 0.  1.
<mgrwt>
<rscale>  0 0.22207548E+04</rscale>
<asrwt>0</asrwt>
<pdfrwt beam="1">  1        2 0.18493306E+00 0.22207548E+04</pdfrwt>
<pdfrwt beam="2">  1       -2 0.15779744E+00 0.22207548E+04</pdfrwt>
<totfact> 0.45081583E+00</totfact>
</mgrwt>
</event>
<event>
12    1  0.2433511E-007  0.1149605E+04  0.7818608E-02  0.9158148E-01
         -2   -1    0    0    0  501 -0.00000000000E+00  0.00000000000E+00  0.85567261717E+02  0.85567261717E+02  0.00000000000E+00 0.  1.
          2   -1    0    0  501    0  0.00000000000E+00 -0.00000000000E+00 -0.38612667502E+04  0.38612667502E+04  0.00000000000E+00 0. -1.
         23    2    1    2    0    0 -0.42665905359E+02  0.17629629463E+03 -0.40017858626E+03  0.44858046165E+03  0.90447590833E+02 0.  0.
        254    2    1    2    0    0  0.42665905359E+02 -0.17629629463E+03 -0.33755209022E+04  0.34982535503E+04  0.90040867258E+03 0.  0.
        -24    2    4    4    0    0 -0.20234899976E+03  0.30225386672E+03 -0.14938306238E+04  0.15396388525E+04  0.81580303032E+02 0.  0.
         24    2    4    4    0    0  0.24501490512E+03 -0.47855016135E+03 -0.18816902784E+04  0.19586146978E+04  0.79816475701E+02 0.  0.
         11    1    3    3    0    0 -0.35644351644E+02  0.49847205451E+02 -0.21980163010E+03  0.22818418063E+03  0.00000000000E+00 0. -1.
        -11    1    3    3    0    0 -0.70215537144E+01  0.12644908918E+03 -0.18037695616E+03  0.22039628102E+03  0.00000000000E+00 0.  1.
          2    1    6    6  502    0  0.44985562083E+00 -0.91853376288E+01 -0.10233953824E+02  0.13758873803E+02  0.00000000000E+00 0. -1.
          1    1    5    5  503    0 -0.27211281633E+02  0.65077755113E+01 -0.14721730602E+03  0.14985239465E+03  0.00000000000E+00 0. -1.
         -2    1    5    5    0  503 -0.17513771813E+03  0.29574609121E+03 -0.13466133178E+04  0.13897864579E+04  0.00000000000E+00 0.  1.
         -1    1    6    6    0  502  0.24456504950E+03 -0.46936482373E+03 -0.18714563246E+04  0.19448558240E+04  0.00000000000E+00 0.  1.
<mgrwt>
<rscale>  0 0.11496052E+04</rscale>
<asrwt>0</asrwt>
<pdfrwt beam="1">  1        2 0.59404099E+00 0.11496052E+04</pdfrwt>
<pdfrwt beam="2">  1       -2 0.13164195E-01 0.11496052E+04</pdfrwt>
<totfact> 0.19848308E+01</totfact>
</mgrwt>
</event>
<event>
12    1  0.2433511E-007  0.4089674E+04  0.7818608E-02  0.7986697E-01
          2   -1    0    0  501    0  0.00000000000E+00  0.00000000000E+00  0.16837794475E+04  0.16837794475E+04  0.00000000000E+00 0. -1.
         -2   -1    0    0    0  501 -0.00000000000E+00 -0.00000000000E+00 -0.24833170932E+04  0.24833170932E+04  0.00000000000E+00 0.  1.
         23    2    1    2    0    0 -0.18284618550E+03  0.14135228699E+04  0.96780846423E+03  0.17252294230E+04  0.91014873899E+02 0.  0.
        254    2    1    2    0    0  0.18284618550E+03 -0.14135228699E+04 -0.17673461099E+04  0.24418671177E+04  0.89873417485E+03 0.  0.
        -24    2    4    4    0    0  0.39394010604E+03 -0.13162665885E+04 -0.12080212782E+04  0.18310278004E+04  0.74838880315E+02 0.  0.
         24    2    4    4    0    0 -0.21109392053E+03 -0.97256281398E+02 -0.55932483173E+03  0.61083931734E+03  0.79126333552E+02 0.  0.
         13    1    3    3    0    0 -0.10621226023E+03  0.49636720743E+03  0.32870792097E+03  0.60473989958E+03  0.00000000000E+00 0. -1.
        -13    1    3    3    0    0 -0.76633925275E+02  0.91715566251E+03  0.63910054326E+03  0.11204895235E+04  0.00000000000E+00 0.  1.
          4    1    6    6  502    0 -0.73236937975E+02 -0.76616214929E+02 -0.25177835532E+03  0.27317765956E+03  0.00000000000E+00 0. -1.
          1    1    5    5  503    0  0.50266069291E+02 -0.26302463542E+03 -0.21991732678E+03  0.34651445450E+03  0.00000000000E+00 0. -1.
         -2    1    5    5    0  503  0.34367403675E+03 -0.10532419531E+04 -0.98810395140E+03  0.14845133459E+04  0.00000000000E+00 0.  1.
         -3    1    6    6    0  502 -0.13785698256E+03 -0.20640066469E+02 -0.30754647640E+03  0.33766165778E+03  0.00000000000E+00 0.  1.
<mgrwt>
<rscale>  0 0.40896740E+04</rscale>
<asrwt>0</asrwt>
<pdfrwt beam="1">  1        2 0.25904299E+00 0.40896740E+04</pdfrwt>
<pdfrwt beam="2">  1       -2 0.38204878E+00 0.40896740E+04</pdfrwt>
<totfact> 0.76133693E-02</totfact>
</mgrwt>
</event>
<event>
12    1  0.2433511E-007  0.3494501E+04  0.7818608E-02  0.8115094E-01
          2   -1    0    0  501    0  0.00000000000E+00  0.00000000000E+00  0.22435385952E+04  0.22435385952E+04  0.00000000000E+00 0.  1.
         -2   -1    0    0    0  501 -0.00000000000E+00 -0.00000000000E+00 -0.13607449788E+04  0.13607449788E+04  0.00000000000E+00 0. -1.
         23    2    1    2    0    0 -0.10003188531E+04 -0.24918550100E+03  0.17145572846E+04  0.20027436912E+04  0.92435861241E+02 0.  0.
        254    2    1    2    0    0  0.10003188531E+04  0.24918550100E+03 -0.83176366826E+03  0.16015398828E+04  0.90020440713E+03 0.  0.
        -24    2    4    4    0    0  0.33891952678E+02  0.12629668900E+03 -0.56789170889E+03  0.58829037638E+03  0.80529844194E+02 0.  0.
         24    2    4    4    0    0  0.96642690043E+03  0.12288881201E+03 -0.26387195937E+03  0.10132495064E+04  0.89238653891E+02 0.  0.
         13    1    3    3    0    0 -0.75061826785E+03 -0.21978959856E+03  0.12505104555E+04  0.14749615761E+04  0.00000000000E+00 0. -1.
        -13    1    3    3    0    0 -0.24970058526E+03 -0.29395902441E+02  0.46404682909E+03  0.52778211503E+03  0.00000000000E+00 0.  1.
          4    1    6    6  502    0  0.12559194459E+02 -0.76638100785E+01  0.91348229632E+00  0.14741160073E+02  0.00000000000E+00 0. -1.
          1    1    5    5  503    0  0.46911437107E+02  0.54440619984E+02 -0.18441976917E+03  0.19792704539E+03  0.00000000000E+00 0. -1.
         -2    1    5    5    0  503 -0.13019484429E+02  0.71856069013E+02 -0.38347193972E+03  0.39036333099E+03  0.00000000000E+00 0.  1.
         -3    1    6    6    0  502  0.95386770597E+03  0.13055262209E+03 -0.26478544166E+03  0.99850834636E+03  0.00000000000E+00 0.  1.
<mgrwt>
<rscale>  0 0.34945008E+04</rscale>
<asrwt>0</asrwt>
<pdfrwt beam="1">  1        2 0.34515978E+00 0.34945008E+04</pdfrwt>
<pdfrwt beam="2">  1       -2 0.20934538E+00 0.34945008E+04</pdfrwt>
<totfact> 0.46387109E-01</totfact>
</mgrwt>
</event>
<event>
12    1  0.2433511E-007  0.1713892E+04  0.7818608E-02  0.8753480E-01
         -2   -1    0    0    0  501 -0.00000000000E+00  0.00000000000E+00  0.46650205704E+03  0.46650205704E+03  0.00000000000E+00 0. -1.
          2   -1    0    0  501    0  0.00000000000E+00 -0.00000000000E+00 -0.15741768089E+04  0.15741768089E+04  0.00000000000E+00 0.  1.
         23    2    1    2    0    0 -0.38050529633E+03 -0.37493466670E+02  0.17136182953E+03  0.43002618456E+03  0.96786374073E+02 0.  0.
        254    2    1    2    0    0  0.38050529633E+03  0.37493466670E+02 -0.12790365814E+04  0.16106526814E+04  0.90115339589E+03 0.  0.
        -24    2    4    4    0    0  0.29725147432E+03 -0.21306779649E+03 -0.12812408055E+04  0.13348083778E+04  0.79869136286E+02 0.  0.
         24    2    4    4    0    0  0.83253822006E+02  0.25056126316E+03  0.22042241302E+01  0.27584430354E+03  0.79831545887E+02 0.  0.
         11    1    3    3    0    0 -0.18239467379E+03 -0.57431861295E+02  0.53168527885E+02  0.19847702153E+03  0.00000000000E+00 0.  1.
        -11    1    3    3    0    0 -0.19811062254E+03  0.19938394625E+02  0.11819330165E+03  0.23154916302E+03  0.00000000000E+00 0. -1.
          4    1    6    6  502    0  0.15015836238E+02  0.19289163842E+02 -0.22793604747E+02  0.33422980074E+02  0.00000000000E+00 0. -1.
          3    1    5    5  503    0  0.28800897359E+02  0.37805219605E+01 -0.88203361031E+02  0.92863431619E+02  0.00000000000E+00 0. -1.
         -4    1    5    5    0  503  0.26845057696E+03 -0.21684831845E+03 -0.11930374445E+04  0.12419449462E+04  0.00000000000E+00 0.  1.
         -3    1    6    6    0  502  0.68237985768E+02  0.23127209932E+03  0.24997828877E+02  0.24242132347E+03  0.00000000000E+00 0.  1.
<mgrwt>
<rscale>  0 0.17138923E+04</rscale>
<asrwt>0</asrwt>
<pdfrwt beam="1">  1        2 0.24218105E+00 0.17138923E+04</pdfrwt>
<pdfrwt beam="2">  1       -2 0.71769546E-01 0.17138923E+04</pdfrwt>
<totfact> 0.19285872E+01</totfact>
</mgrwt>
</event>
<event>
12    1  0.2433511E-007  0.1725114E+04  0.7818608E-02  0.8747169E-01
          1   -1    0    0  501    0  0.00000000000E+00  0.00000000000E+00  0.34033211669E+03  0.34033211669E+03  0.00000000000E+00 0. -1.
         -1   -1    0    0    0  501 -0.00000000000E+00 -0.00000000000E+00 -0.21861127395E+04  0.21861127395E+04  0.00000000000E+00 0.  1.
         23    2    1    2    0    0 -0.12645517827E+03 -0.60826503362E+03 -0.59991646340E+03  0.86784087321E+03  0.85268721834E+02 0.  0.
        254    2    1    2    0    0  0.12645517827E+03  0.60826503362E+03 -0.12458641594E+04  0.16586039829E+04  0.90156109354E+03 0.  0.
        -24    2    4    4    0    0 -0.94809356978E+02 -0.15778133699E+03 -0.33513727469E+02  0.20530104490E+03  0.84507896873E+02 0.  0.
         24    2    4    4    0    0  0.22126453525E+03  0.76604637061E+03 -0.12123504319E+04  0.14533029380E+04  0.80689674006E+02 0.  0.
         13    1    3    3    0    0 -0.10058882257E+03 -0.36664817138E+03 -0.31801947034E+03  0.49566659794E+03  0.00000000000E+00 0.  1.
        -13    1    3    3    0    0 -0.25866355709E+02 -0.24161686224E+03 -0.28189699305E+03  0.37217427527E+03  0.00000000000E+00 0. -1.
          2    1    6    6  502    0  0.46795139167E+02  0.78488335736E+02 -0.11976808979E+03  0.15064726757E+03  0.00000000000E+00 0. -1.
          1    1    5    5  503    0 -0.77311435754E+02 -0.49267688056E+02 -0.25178510241E+02  0.95070082374E+02  0.00000000000E+00 0. -1.
         -4    1    5    5    0  503 -0.17497921224E+02 -0.10851364894E+03 -0.83352172274E+01  0.11023096253E+03  0.00000000000E+00 0.  1.
         -1    1    6    6    0  502  0.17446939609E+03  0.68755803488E+03 -0.10925823421E+04  0.13026556705E+04  0.00000000000E+00 0.  1.
<mgrwt>
<rscale>  0 0.17251138E+04</rscale>
<asrwt>0</asrwt>
<pdfrwt beam="1">  1        1 0.52358789E-01 0.17251138E+04</pdfrwt>
<pdfrwt beam="2">  1       -1 0.33632503E+00 0.17251138E+04</pdfrwt>
<totfact> 0.13534897E+00</totfact>
</mgrwt>
</event>
<event>
12    1  0.2433511E-007  0.1895796E+04  0.7818608E-02  0.8656952E-01
         -1   -1    0    0    0  501 -0.00000000000E+00  0.00000000000E+00  0.41275953714E+03  0.41275953714E+03  0.00000000000E+00 0.  1.
          1   -1    0    0  501    0  0.00000000000E+00 -0.00000000000E+00 -0.21768390503E+04  0.21768390503E+04  0.00000000000E+00 0. -1.
         23    2    1    2    0    0 -0.53292314133E+03  0.47690703760E+03 -0.89349814380E+03  0.11480722125E+04  0.91013597586E+02 0.  0.
        254    2    1    2    0    0  0.53292314133E+03 -0.47690703760E+03 -0.87058136935E+03  0.14415263750E+04  0.89924355545E+03 0.  0.
        -24    2    4    4    0    0 -0.17334889477E+03 -0.38720420248E+03 -0.31223130654E+03  0.53323046344E+03  0.82881871459E+02 0.  0.
         24    2    4    4    0    0  0.70627203610E+03 -0.89702835116E+02 -0.55835006281E+03  0.90829591153E+03  0.79874167672E+02 0.  0.
         13    1    3    3    0    0 -0.82879703658E+02  0.71934076037E+02 -0.89476099665E+02  0.14159635936E+03  0.00000000000E+00 0. -1.
        -13    1    3    3    0    0 -0.45004343767E+03  0.40497296156E+03 -0.80402204414E+03  0.10064758531E+04  0.00000000000E+00 0.  1.
          2    1    6    6  502    0  0.34987101046E+03 -0.11805417092E+02 -0.30307733120E+03  0.46303883263E+03  0.00000000000E+00 0. -1.
          1    1    5    5  503    0 -0.11006445708E+03 -0.16493460448E+03 -0.11377225295E+03  0.22860825446E+03  0.00000000000E+00 0. -1.
         -2    1    5    5    0  503 -0.63284437697E+02 -0.22226959800E+03 -0.19845905359E+03  0.30462220898E+03  0.00000000000E+00 0.  1.
         -1    1    6    6    0  502  0.35640102564E+03 -0.77897418024E+02 -0.25527273161E+03  0.44525707891E+03  0.00000000000E+00 0.  1.
<mgrwt>
<rscale>  0 0.18957965E+04</rscale>
<asrwt>0</asrwt>
<pdfrwt beam="1">  1        1 0.33489831E+00 0.18957965E+04</pdfrwt>
<pdfrwt beam="2">  1       -1 0.63501468E-01 0.18957965E+04</pdfrwt>
<totfact> 0.53192785E+00</totfact>
</mgrwt>
</event>
<event>
12    1  0.2433511E-007  0.2989099E+04  0.7818608E-02  0.8246851E-01
          2   -1    0    0  501    0  0.00000000000E+00  0.00000000000E+00  0.26740068605E+04  0.26740068605E+04  0.00000000000E+00 0. -1.
         -2   -1    0    0    0  501 -0.00000000000E+00 -0.00000000000E+00 -0.83532983393E+03  0.83532983393E+03  0.00000000000E+00 0.  1.
         23    2    1    2    0    0  0.43622980092E+03 -0.11566421951E+04  0.14960169407E+04  0.19427973053E+04  0.90978435721E+02 0.  0.
        254    2    1    2    0    0 -0.43622980092E+03  0.11566421951E+04  0.34266008593E+03  0.15665393892E+04  0.89917301821E+03 0.  0.
        -24    2    4    4    0    0 -0.12172475941E+03  0.11903612023E+04  0.31298816800E+03  0.12394535097E+04  0.80664120510E+02 0.  0.
         24    2    4    4    0    0 -0.31450504151E+03 -0.33719007140E+02  0.29671917930E+02  0.32708587956E+03  0.77809750792E+02 0.  0.
         13    1    3    3    0    0  0.36703906772E+03 -0.93825272753E+03  0.12686382498E+04  0.16200243414E+04  0.00000000000E+00 0.  1.
        -13    1    3    3    0    0  0.69190733201E+02 -0.21838946761E+03  0.22737869090E+03  0.32277296386E+03  0.00000000000E+00 0. -1.
          4    1    6    6  502    0 -0.23768601847E+02 -0.14807328190E+02  0.22037468032E+02  0.35635002444E+02  0.00000000000E+00 0. -1.
          3    1    5    5  503    0 -0.71410107537E+02  0.80914256097E+03  0.17504118063E+03  0.83093351259E+03  0.00000000000E+00 0. -1.
         -4    1    5    5    0  503 -0.50314651875E+02  0.38121864131E+03  0.13794698737E+03  0.40851999706E+03  0.00000000000E+00 0.  1.
         -3    1    6    6    0  502 -0.29073643966E+03 -0.18911678951E+02  0.76344498976E+01  0.29145087712E+03  0.00000000000E+00 0.  1.
<mgrwt>
<rscale>  0 0.29890987E+04</rscale>
<asrwt>0</asrwt>
<pdfrwt beam="1">  1        2 0.41138567E+00 0.29890987E+04</pdfrwt>
<pdfrwt beam="2">  1       -2 0.12851228E+00 0.29890987E+04</pdfrwt>
<totfact> 0.10538478E+00</totfact>
</mgrwt>
</event>
<event>
12    1  0.3226973E-007  0.3393070E+04  0.7818608E-02  0.8139609E-01
         -2   -1    0    0    0  501 -0.00000000000E+00  0.00000000000E+00  0.80538118926E+03  0.80538118926E+03  0.00000000000E+00 0.  1.
          2   -1    0    0  501    0  0.00000000000E+00 -0.00000000000E+00 -0.35737493044E+04  0.35737493044E+04  0.00000000000E+00 0. -1.
         23    2    1    2    0    0 -0.53330753631E+03 -0.13638609254E+04 -0.20390401377E+04  0.25120697922E+04  0.90974753501E+02 0.  0.
        254    2    1    2    0    0  0.53330753631E+03  0.13638609254E+04 -0.72932797743E+03  0.18670607014E+04  0.89970151262E+03 0.  0.
        -24    2    4    4    0    0  0.65560768354E+03  0.11446942100E+04 -0.85633136576E+03  0.15747389941E+04  0.79707105037E+02 0.  0.
         24    2    4    4    0    0 -0.12230014723E+03  0.21916671549E+03  0.12700338832E+03  0.29232170728E+03  0.79565977100E+02 0.  0.
         11    1    3    3    0    0 -0.36399365637E+03 -0.83616704132E+03 -0.12208391769E+04  0.15238487453E+04  0.00000000000E+00 0.  1.
        -11    1    3    3    0    0 -0.16931387994E+03 -0.52769388412E+03 -0.81820096080E+03  0.98822104690E+03  0.00000000000E+00 0. -1.
          4    1    6    6  502    0 -0.12925665476E+03  0.21949236890E+03  0.11744430581E+03  0.28049482664E+03  0.00000000000E+00 0. -1.
          1    1    5    5  503    0  0.60566311878E+03  0.10221712426E+04 -0.75057668878E+03  0.14053566197E+04  0.00000000000E+00 0. -1.
         -2    1    5    5    0  503  0.49944564764E+02  0.12252296734E+03 -0.10575467698E+03  0.16938237446E+03  0.00000000000E+00 0.  1.
         -3    1    6    6    0  502  0.69565075256E+01 -0.32565341674E+00  0.95590825176E+01  0.11826880640E+02  0.00000000000E+00 0.  1.
<mgrwt>
<rscale>  0 0.33930697E+04</rscale>
<asrwt>0</asrwt>
<pdfrwt beam="1">  1        2 0.54980758E+00 0.33930697E+04</pdfrwt>
<pdfrwt beam="2">  1       -2 0.12390480E+00 0.33930697E+04</pdfrwt>
<totfact> 0.29245983E-01</totfact>
</mgrwt>
</event>
<event>
12    1  0.2433511E-007  0.2030268E+04  0.7818608E-02  0.8592599E-01
         -2   -1    0    0    0  501 -0.00000000000E+00  0.00000000000E+00  0.28698069535E+03  0.28698069535E+03  0.00000000000E+00 0.  1.
          2   -1    0    0  501    0  0.00000000000E+00 -0.00000000000E+00 -0.35908235294E+04  0.35908235294E+04  0.00000000000E+00 0. -1.
         23    2    1    2    0    0  0.12959106467E+03  0.79405051206E+03 -0.11121080917E+04  0.13755148768E+04  0.89144315290E+02 0.  0.
        254    2    1    2    0    0 -0.12959106467E+03 -0.79405051206E+03 -0.21917347424E+04  0.25022893480E+04  0.90024482240E+03 0.  0.
        -24    2    4    4    0    0  0.92673914976E+02 -0.92619778378E+03 -0.16524819721E+04  0.18983159353E+04  0.80473181300E+02 0.  0.
         24    2    4    4    0    0 -0.22226497965E+03  0.13214727172E+03 -0.53925277038E+03  0.60397341275E+03  0.84413922729E+02 0.  0.
         11    1    3    3    0    0  0.91896609062E+02  0.34702271084E+03 -0.44806028921E+03  0.57413218980E+03  0.00000000000E+00 0.  1.
        -11    1    3    3    0    0  0.37694455612E+02  0.44702780122E+03 -0.66404780245E+03  0.80138268698E+03  0.00000000000E+00 0. -1.
          4    1    6    6  502    0 -0.18521403976E+03  0.13659064234E+03 -0.49639495851E+03  0.54714641453E+03  0.00000000000E+00 0. -1.
          1    1    5    5  503    0  0.19364358786E+02 -0.52479329933E+03 -0.97537171492E+03  0.11077603386E+04  0.00000000000E+00 0. -1.
         -2    1    5    5    0  503  0.73309556190E+02 -0.40140448445E+03 -0.67711025713E+03  0.79055559671E+03  0.00000000000E+00 0.  1.
         -3    1    6    6    0  502 -0.37050939888E+02 -0.44433706153E+01 -0.42857811870E+02  0.56826998225E+02  0.00000000000E+00 0.  1.
<mgrwt>
<rscale>  0 0.20302680E+04</rscale>
<asrwt>0</asrwt>
<pdfrwt beam="1">  1        2 0.55243439E+00 0.20302680E+04</pdfrwt>
<pdfrwt beam="2">  1       -2 0.44150876E-01 0.20302680E+04</pdfrwt>
<totfact> 0.31795844E+00</totfact>
</mgrwt>
</event>
<event>
12    1  0.2433511E-007  0.2693692E+04  0.7818608E-02  0.8337054E-01
          2   -1    0    0  501    0  0.00000000000E+00  0.00000000000E+00  0.10828272773E+04  0.10828272773E+04  0.00000000000E+00 0. -1.
         -2   -1    0    0    0  501 -0.00000000000E+00 -0.00000000000E+00 -0.16752392837E+04  0.16752392837E+04  0.00000000000E+00 0.  1.
         23    2    1    2    0    0 -0.34839605057E+03 -0.31449625124E+03  0.86099390680E+03  0.98484690187E+03  0.91242602329E+02 0.  0.
        254    2    1    2    0    0  0.34839605057E+03  0.31449625124E+03 -0.14534059132E+04  0.17732196592E+04  0.90090593910E+03 0.  0.
        -24    2    4    4    0    0  0.37696268092E+03 -0.15433599723E+03 -0.26376356831E+03  0.49170421587E+03  0.79254987770E+02 0.  0.
         24    2    4    4    0    0 -0.28566630352E+02  0.46883224847E+03 -0.11896423449E+04  0.12815154433E+04  0.80082414660E+02 0.  0.
         11    1    3    3    0    0 -0.11056388806E+03 -0.76071035012E+02  0.17392630631E+03  0.21968508310E+03  0.00000000000E+00 0. -1.
        -11    1    3    3    0    0 -0.23783216251E+03 -0.23842521623E+03  0.68706760049E+03  0.76516181877E+03  0.00000000000E+00 0.  1.
          2    1    6    6  502    0  0.16538584735E+02  0.23587018287E+02 -0.64647168617E+02  0.70775197823E+02  0.00000000000E+00 0. -1.
          1    1    5    5  503    0  0.37959359469E+02 -0.33660328659E+01 -0.31572895994E+01  0.38238875848E+02  0.00000000000E+00 0. -1.
         -2    1    5    5    0  503  0.33900332145E+03 -0.15096996437E+03 -0.26060627871E+03  0.45346534002E+03  0.00000000000E+00 0.  1.
         -1    1    6    6    0  502 -0.45105215087E+02  0.44524523018E+03 -0.11249951763E+04  0.12107402455E+04  0.00000000000E+00 0.  1.
<mgrwt>
<rscale>  0 0.26936925E+04</rscale>
<asrwt>0</asrwt>
<pdfrwt beam="1">  1        2 0.16658881E+00 0.26936925E+04</pdfrwt>
<pdfrwt beam="2">  1       -2 0.25772912E+00 0.26936925E+04</pdfrwt>
<totfact> 0.11289145E+00</totfact>
</mgrwt>
</event>
<event>
12    1  0.2433511E-007  0.3096524E+04  0.7818608E-02  0.8216693E-01
          1   -1    0    0  501    0  0.00000000000E+00  0.00000000000E+00  0.75687748416E+03  0.75687748416E+03  0.00000000000E+00 0. -1.
         -1   -1    0    0    0  501 -0.00000000000E+00 -0.00000000000E+00 -0.31671104237E+04  0.31671104237E+04  0.00000000000E+00 0.  1.
         23    2    1    2    0    0 -0.40153953339E+03  0.13500521521E+04 -0.12865303299E+04  0.19097360750E+04  0.89759546433E+02 0.  0.
        254    2    1    2    0    0  0.40153953339E+03 -0.13500521521E+04 -0.11237026096E+04  0.20142518328E+04  0.90034886622E+03 0.  0.
        -24    2    4    4    0    0  0.64542729294E+02 -0.28341615750E+03 -0.78802306660E+03  0.84369581361E+03  0.79698119032E+02 0.  0.
         24    2    4    4    0    0  0.33699680409E+03 -0.10666359946E+04 -0.33567954302E+03  0.11705560192E+04  0.79002832664E+02 0.  0.
         13    1    3    3    0    0 -0.23925486467E+03  0.68496384482E+03 -0.62239762453E+03  0.95592738323E+03  0.00000000000E+00 0. -1.
        -13    1    3    3    0    0 -0.16228466872E+03  0.66508830728E+03 -0.66413270538E+03  0.95380869179E+03  0.00000000000E+00 0.  1.
          2    1    6    6  502    0 -0.30151867757E+01 -0.12139415338E+02 -0.91033525709E+01  0.15470222496E+02  0.00000000000E+00 0. -1.
          3    1    5    5  503    0  0.26030598257E+02 -0.43093978358E+02 -0.75467682552E+02  0.90719645756E+02  0.00000000000E+00 0. -1.
         -4    1    5    5    0  503  0.38512131037E+02 -0.24032217915E+03 -0.71255538405E+03  0.75297616786E+03  0.00000000000E+00 0.  1.
         -1    1    6    6    0  502  0.34001199087E+03 -0.10544965793E+04 -0.32657619045E+03  0.11550857967E+04  0.00000000000E+00 0.  1.
<mgrwt>
<rscale>  0 0.30965236E+04</rscale>
<asrwt>0</asrwt>
<pdfrwt beam="1">  1        1 0.11644269E+00 0.30965236E+04</pdfrwt>
<pdfrwt beam="2">  1       -1 0.48724775E+00 0.30965236E+04</pdfrwt>
<totfact> 0.36745885E-02</totfact>
</mgrwt>
</event>
<event>
12    1  0.2433511E-007  0.2061357E+04  0.7818608E-02  0.8578460E-01
          2   -1    0    0  501    0  0.00000000000E+00  0.00000000000E+00  0.15260028618E+04  0.15260028618E+04  0.00000000000E+00 0. -1.
         -2   -1    0    0    0  501 -0.00000000000E+00 -0.00000000000E+00 -0.69613124205E+03  0.69613124205E+03  0.00000000000E+00 0.  1.
         23    2    1    2    0    0 -0.50640582475E+03 -0.64026334399E+03  0.50825325918E+03  0.96548062365E+03  0.86298610484E+02 0.  0.
        254    2    1    2    0    0  0.50640582475E+03  0.64026334399E+03  0.32161836052E+03  0.12566534802E+04  0.89964192341E+03 0.  0.
        -24    2    4    4    0    0  0.64136165116E+03  0.15097183796E+03  0.27415360854E+02  0.66441971802E+03  0.81022813081E+02 0.  0.
         24    2    4    4    0    0 -0.13495582641E+03  0.48929150603E+03  0.29420299967E+03  0.59223376213E+03  0.81031913723E+02 0.  0.
         13    1    3    3    0    0 -0.34246386811E+03 -0.36515270658E+03  0.30947571543E+03  0.58855179766E+03  0.00000000000E+00 0.  1.
        -13    1    3    3    0    0 -0.16394195664E+03 -0.27511063741E+03  0.19877754375E+03  0.37692882600E+03  0.00000000000E+00 0. -1.
          2    1    6    6  502    0 -0.56381091992E+02  0.22587745612E+03  0.89147319498E+02  0.24929239316E+03  0.00000000000E+00 0. -1.
          3    1    5    5  503    0  0.20865067642E+03  0.46298908930E+02 -0.28938373557E+02  0.21567596807E+03  0.00000000000E+00 0. -1.
         -4    1    5    5    0  503  0.43271097474E+03  0.10467292903E+03  0.56353734411E+02  0.44874374995E+03  0.00000000000E+00 0.  1.
         -1    1    6    6    0  502 -0.78574734419E+02  0.26341404992E+03  0.20505568017E+03  0.34294136897E+03  0.00000000000E+00 0.  1.
<mgrwt>
<rscale>  0 0.20613571E+04</rscale>
<asrwt>0</asrwt>
<pdfrwt beam="1">  1        2 0.23476967E+00 0.20613571E+04</pdfrwt>
<pdfrwt beam="2">  1       -2 0.10709711E+00 0.20613571E+04</pdfrwt>
<totfact> 0.79527271E+00</totfact>
</mgrwt>
</event>
<event>
12    1  0.2433511E-007  0.2599572E+04  0.7818608E-02  0.8368347E-01
          2   -1    0    0  501    0  0.00000000000E+00  0.00000000000E+00  0.26533497383E+04  0.26533497383E+04  0.00000000000E+00 0. -1.
         -2   -1    0    0    0  501 -0.00000000000E+00 -0.00000000000E+00 -0.63672081235E+03  0.63672081235E+03  0.00000000000E+00 0.  1.
         23    2    1    2    0    0  0.87613399671E+03  0.52087215590E+03  0.15376305215E+04  0.18472556380E+04  0.95536319394E+02 0.  0.
        254    2    1    2    0    0 -0.87613399671E+03 -0.52087215590E+03  0.47899840442E+03  0.14428149127E+04  0.90186297063E+03 0.  0.
        -24    2    4    4    0    0 -0.10338818884E+04 -0.34200603524E+03  0.47594298890E+03  0.11911201861E+04  0.79785222267E+02 0.  0.
         24    2    4    4    0    0  0.15774789167E+03 -0.17886612066E+03  0.30554155185E+01  0.25169472661E+03  0.80395356773E+02 0.  0.
         11    1    3    3    0    0  0.48289675515E+03  0.23730911227E+03  0.84682003284E+03  0.10032990875E+04  0.00000000000E+00 0. -1.
        -11    1    3    3    0    0  0.39323724156E+03  0.28356304363E+03  0.69081048870E+03  0.84395655051E+03  0.00000000000E+00 0.  1.
          2    1    6    6  502    0  0.61557010885E+02 -0.70857344801E+02 -0.38132224515E+02  0.10131187220E+03  0.00000000000E+00 0. -1.
          3    1    5    5  503    0 -0.50266936154E+03 -0.19058734830E+03  0.27024853160E+03  0.60169285620E+03  0.00000000000E+00 0. -1.
         -4    1    5    5    0  503 -0.53121252684E+03 -0.15141868694E+03  0.20569445729E+03  0.58942732986E+03  0.00000000000E+00 0.  1.
         -1    1    6    6    0  502  0.96190880789E+02 -0.10800877586E+03  0.41187640034E+02  0.15038285441E+03  0.00000000000E+00 0.  1.
<mgrwt>
<rscale>  0 0.25995715E+04</rscale>
<asrwt>0</asrwt>
<pdfrwt beam="1">  1        2 0.40820765E+00 0.25995715E+04</pdfrwt>
<pdfrwt beam="2">  1       -2 0.97957050E-01 0.25995715E+04</pdfrwt>
<totfact> 0.21710802E+00</totfact>
</mgrwt>
</event>
<event>
12    1  0.2433511E-007  0.2293063E+04  0.7818608E-02  0.8480661E-01
          2   -1    0    0  501    0  0.00000000000E+00  0.00000000000E+00  0.34343030766E+04  0.34343030766E+04  0.00000000000E+00 0. -1.
         -2   -1    0    0    0  501 -0.00000000000E+00 -0.00000000000E+00 -0.38276595042E+03  0.38276595042E+03  0.00000000000E+00 0.  1.
         23    2    1    2    0    0  0.43655083427E+02 -0.91313353669E+03  0.18193966417E+04  0.20383266927E+04  0.94090085935E+02 0.  0.
        254    2    1    2    0    0 -0.43655083427E+02  0.91313353669E+03  0.12321404845E+04  0.17787423344E+04  0.90001971993E+03 0.  0.
        -24    2    4    4    0    0 -0.26139449910E+03  0.53666232766E+03  0.11898801680E+04  0.13336055731E+04  0.79721215461E+02 0.  0.
         24    2    4    4    0    0  0.21773941567E+03  0.37647120903E+03  0.42260316519E+02  0.44513676129E+03  0.84969274044E+02 0.  0.
         11    1    3    3    0    0  0.68041508204E+02 -0.44021456195E+03  0.87577088589E+03  0.98254422392E+03  0.00000000000E+00 0. -1.
        -11    1    3    3    0    0 -0.24386424777E+02 -0.47291897474E+03  0.94362575579E+03  0.10557824688E+04  0.00000000000E+00 0.  1.
          4    1    6    6  502    0  0.18222152378E+03  0.32190197732E+03  0.66178011419E+02  0.37577266522E+03  0.00000000000E+00 0. -1.
          1    1    5    5  503    0 -0.18447958357E+02  0.13696605730E+02  0.74795544605E+02  0.78245112747E+02  0.00000000000E+00 0. -1.
         -2    1    5    5    0  503 -0.24294654074E+03  0.52296572193E+03  0.11150846234E+04  0.12553604603E+04  0.00000000000E+00 0.  1.
         -3    1    6    6    0  502  0.35517891894E+02  0.54569231711E+02 -0.23917694901E+02  0.69364096069E+02  0.00000000000E+00 0.  1.
<mgrwt>
<rscale>  0 0.22930628E+04</rscale>
<asrwt>0</asrwt>
<pdfrwt beam="1">  1        2 0.52835430E+00 0.22930628E+04</pdfrwt>
<pdfrwt beam="2">  1       -2 0.58887071E-01 0.22930628E+04</pdfrwt>
<totfact> 0.22127157E+00</totfact>
</mgrwt>
</event>
<event>
12    1  0.2433511E-007  0.1441558E+04  0.7818608E-02  0.8924274E-01
         -1   -1    0    0    0  501 -0.00000000000E+00  0.00000000000E+00  0.16817423865E+03  0.16817423865E+03  0.00000000000E+00 0.  1.
          1   -1    0    0  501    0  0.00000000000E+00 -0.00000000000E+00 -0.30891914700E+04  0.30891914700E+04  0.00000000000E+00 0. -1.
         23    2    1    2    0    0  0.38261760392E+03 -0.17934594186E+03 -0.67689014131E+03  0.80308684770E+03  0.90592625856E+02 0.  0.
        254    2    1    2    0    0 -0.38261760392E+03  0.17934594186E+03 -0.22441270901E+04  0.24542788610E+04  0.89934261180E+03 0.  0.
        -24    2    4    4    0    0  0.67922422744E+02  0.38450425742E+03 -0.15341596196E+04  0.15850077507E+04  0.78401859922E+02 0.  0.
         24    2    4    4    0    0 -0.45054002666E+03 -0.20515831556E+03 -0.70996747044E+03  0.86927111033E+03  0.80636245608E+02 0.  0.
         13    1    3    3    0    0  0.54183119008E+02 -0.25979464946E+02 -0.46765987118E+02  0.76143289497E+02  0.00000000000E+00 0.  1.
        -13    1    3    3    0    0  0.32843448491E+03 -0.15336647692E+03 -0.63012415419E+03  0.72694355821E+03  0.00000000000E+00 0. -1.
          4    1    6    6  502    0 -0.38907347852E+03 -0.14417486969E+03 -0.59253692829E+03  0.72337028978E+03  0.00000000000E+00 0. -1.
          3    1    5    5  503    0  0.74750328596E+02  0.20711640120E+03 -0.80817955009E+03  0.83763894398E+03  0.00000000000E+00 0. -1.
         -4    1    5    5    0  503 -0.68279058522E+01  0.17738785622E+03 -0.72598006954E+03  0.74736880668E+03  0.00000000000E+00 0.  1.
         -3    1    6    6    0  502 -0.61466548145E+02 -0.60983445863E+02 -0.11743054215E+03  0.14590082056E+03  0.00000000000E+00 0.  1.
<mgrwt>
<rscale>  0 0.14415581E+04</rscale>
<asrwt>0</asrwt>
<pdfrwt beam="1">  1        1 0.47526027E+00 0.14415581E+04</pdfrwt>
<pdfrwt beam="2">  1       -1 0.25872957E-01 0.14415581E+04</pdfrwt>
<totfact> 0.66499085E+00</totfact>
</mgrwt>
</event>
<event>
12    1  0.2433511E-007  0.3276376E+04  0.7818608E-02  0.8168933E-01
         -2   -1    0    0    0  501 -0.00000000000E+00  0.00000000000E+00  0.14249066149E+04  0.14249066149E+04  0.00000000000E+00 0. -1.
          2   -1    0    0  501    0  0.00000000000E+00 -0.00000000000E+00 -0.18833932504E+04  0.18833932504E+04  0.00000000000E+00 0.  1.
         23    2    1    2    0    0  0.12901121281E+04 -0.37173173711E+03  0.49291112158E+03  0.14329803651E+04  0.88868248105E+02 0.  0.
        254    2    1    2    0    0 -0.12901121281E+04  0.37173173711E+03 -0.95139775713E+03  0.18753195002E+04  0.89949527407E+03 0.  0.
        -24    2    4    4    0    0  0.11140330088E+03  0.89181174773E+02 -0.20254043552E+03  0.25944521376E+03  0.76975408692E+02 0.  0.
         24    2    4    4    0    0 -0.14015154290E+04  0.28255056233E+03 -0.74885732161E+03  0.16158742864E+04  0.78626353534E+02 0.  0.
         13    1    3    3    0    0  0.35458103423E+03 -0.13765485540E+03  0.16185174020E+03  0.41336733647E+03  0.00000000000E+00 0. -1.
        -13    1    3    3    0    0  0.93553109384E+03 -0.23407688171E+03  0.33105938138E+03  0.10196130286E+04  0.00000000000E+00 0.  1.
          2    1    6    6  502    0 -0.12348911422E+04  0.26290166454E+03 -0.68446133150E+03  0.14361618059E+04  0.00000000000E+00 0. -1.
          3    1    5    5  503    0  0.10736614450E+03  0.98613052596E+02 -0.20207996044E+03  0.24917530684E+03  0.00000000000E+00 0. -1.
         -4    1    5    5    0  503  0.40371563792E+01 -0.94318778232E+01 -0.46047507901E+00  0.10269906923E+02  0.00000000000E+00 0.  1.
         -3    1    6    6    0  502 -0.16662428675E+03  0.19648897796E+02 -0.64395990107E+02  0.17971248054E+03  0.00000000000E+00 0.  1.
<mgrwt>
<rscale>  0 0.32763757E+04</rscale>
<asrwt>0</asrwt>
<pdfrwt beam="1">  1        2 0.28975281E+00 0.32763757E+04</pdfrwt>
<pdfrwt beam="2">  1       -2 0.21921640E+00 0.32763757E+04</pdfrwt>
<totfact> 0.64894271E-01</totfact>
</mgrwt>
</event>
<event>
12    1  0.2433511E-007  0.1743005E+04  0.7818608E-02  0.8737210E-01
          2   -1    0    0  501    0  0.00000000000E+00  0.00000000000E+00  0.23342352690E+04  0.23342352690E+04  0.00000000000E+00 0. -1.
         -2   -1    0    0    0  501 -0.00000000000E+00 -0.00000000000E+00 -0.32538140627E+03  0.32538140627E+03  0.00000000000E+00 0.  1.
         23    2    1    2    0    0  0.61951127416E+03 -0.11331461950E+03  0.70402102373E+03  0.94930176416E+03  0.94307029320E+02 0.  0.
        254    2    1    2    0    0 -0.61951127416E+03  0.11331461950E+03  0.13048328390E+04  0.17103149111E+04  0.90882007880E+03 0.  0.
        -24    2    4    4    0    0 -0.21578413917E+03  0.18177263357E+03  0.12567763344E+04  0.12902235427E+04  0.74739216488E+02 0.  0.
         24    2    4    4    0    0 -0.40372713499E+03 -0.68458014070E+02  0.48056504608E+02  0.42009136838E+03  0.80530931547E+02 0.  0.
         13    1    3    3    0    0  0.22770582694E+03 -0.82444981964E+02  0.23596962933E+03  0.33812539780E+03  0.00000000000E+00 0.  1.
        -13    1    3    3    0    0  0.39180544723E+03 -0.30869637533E+02  0.46805139440E+03  0.61117636636E+03  0.00000000000E+00 0. -1.
          4    1    6    6  502    0 -0.42877735800E+02 -0.21589907779E+02  0.28185005821E+02  0.55668832378E+02  0.00000000000E+00 0. -1.
          3    1    5    5  503    0 -0.74096579464E+02  0.86984179781E+02  0.37120126356E+03  0.38839017584E+03  0.00000000000E+00 0. -1.
         -4    1    5    5    0  503 -0.14168755971E+03  0.94788453786E+02  0.88557507086E+03  0.90183336691E+03  0.00000000000E+00 0.  1.
         -3    1    6    6    0  502 -0.36084939919E+03 -0.46868106291E+02  0.19871498787E+02  0.36442253601E+03  0.00000000000E+00 0.  1.
<mgrwt>
<rscale>  0 0.17430052E+04</rscale>
<asrwt>0</asrwt>
<pdfrwt beam="1">  1        2 0.35911311E+00 0.17430052E+04</pdfrwt>
<pdfrwt beam="2">  1       -2 0.50058679E-01 0.17430052E+04</pdfrwt>
<totfact> 0.15532001E+01</totfact>
</mgrwt>
</event>
<event>
12    1  0.2433511E-007  0.2824099E+04  0.7818608E-02  0.8295826E-01
          2   -1    0    0  501    0  0.00000000000E+00  0.00000000000E+00  0.33832226700E+04  0.33832226700E+04  0.00000000000E+00 0. -1.
         -2   -1    0    0    0  501 -0.00000000000E+00 -0.00000000000E+00 -0.58934441762E+03  0.58934441762E+03  0.00000000000E+00 0.  1.
         23    2    1    2    0    0 -0.83058530376E+03 -0.19417936260E+02 -0.85373075913E+02  0.84388847480E+03  0.12087263019E+03 0.  0.
        254    2    1    2    0    0  0.83058530376E+03  0.19417936260E+02  0.28792513283E+04  0.31286786128E+04  0.89905097061E+03 0.  0.
        -24    2    4    4    0    0  0.31794323555E+03  0.90001389925E+02  0.23832651971E+04  0.24074373237E+04  0.81322300998E+02 0.  0.
         24    2    4    4    0    0  0.51264206821E+03 -0.70583453666E+02  0.49598613116E+03  0.72124128908E+03  0.80017752691E+02 0.  0.
         13    1    3    3    0    0 -0.82556211726E+02 -0.61439401267E+01  0.27591049996E+02  0.87261343874E+02  0.00000000000E+00 0. -1.
        -13    1    3    3    0    0 -0.74802909204E+03 -0.13273996133E+02 -0.11296412591E+03  0.75662713092E+03  0.00000000000E+00 0.  1.
          2    1    6    6  502    0  0.29806619226E+03 -0.12867736158E+02  0.32249672618E+03  0.43933264391E+03  0.00000000000E+00 0. -1.
          3    1    5    5  503    0  0.30362413990E+03  0.84882007311E+02  0.23474754782E+04  0.23685509693E+04  0.00000000000E+00 0. -1.
         -4    1    5    5    0  503  0.14319095653E+02  0.51193826146E+01  0.35789718876E+02  0.38886354366E+02  0.00000000000E+00 0.  1.
         -1    1    6    6    0  502  0.21457587595E+03 -0.57715717507E+02  0.17348940498E+03  0.28190864518E+03  0.00000000000E+00 0.  1.
<mgrwt>
<rscale>  0 0.28240987E+04</rscale>
<asrwt>0</asrwt>
<pdfrwt beam="1">  1        2 0.52049578E+00 0.28240987E+04</pdfrwt>
<pdfrwt beam="2">  1       -2 0.90668374E-01 0.28240987E+04</pdfrwt>
<totfact> 0.88283954E-01</totfact>
</mgrwt>
</event>
<event>
12    1  0.2433511E-007  0.2462329E+04  0.7818608E-02  0.8416530E-01
          2   -1    0    0  501    0  0.00000000000E+00  0.00000000000E+00  0.19043339913E+04  0.19043339913E+04  0.00000000000E+00 0. -1.
         -2   -1    0    0    0  501 -0.00000000000E+00 -0.00000000000E+00 -0.79595622347E+03  0.79595622347E+03  0.00000000000E+00 0.  1.
         23    2    1    2    0    0 -0.98536286234E+03 -0.24841189336E+03  0.82788973120E+03  0.13135166295E+04  0.85299998359E+02 0.  0.
        254    2    1    2    0    0  0.98536286234E+03  0.24841189336E+03  0.28048803659E+03  0.13867735852E+04  0.90100998815E+03 0.  0.
        -24    2    4    4    0    0  0.14377395964E+03  0.21410108035E+03 -0.26606110774E+03  0.37915847948E+03  0.80389149963E+02 0.  0.
         24    2    4    4    0    0  0.84158890270E+03  0.34310813013E+02  0.54654914433E+03  0.10076151057E+04  0.84398584808E+02 0.  0.
         11    1    3    3    0    0 -0.30487730227E+03 -0.63239659051E+02  0.30229265629E+03  0.43397036069E+03  0.00000000000E+00 0. -1.
        -11    1    3    3    0    0 -0.68048556007E+03 -0.18517223431E+03  0.52559707491E+03  0.87954626881E+03  0.00000000000E+00 0.  1.
          2    1    6    6  502    0  0.46959864446E+03  0.41810986772E+02  0.26327654386E+03  0.53998665172E+03  0.00000000000E+00 0. -1.
          1    1    5    5  503    0  0.99793647845E+02  0.20062517172E+03 -0.21765768428E+03  0.31238453739E+03  0.00000000000E+00 0. -1.
         -2    1    5    5    0  503  0.43980311795E+02  0.13475908634E+02 -0.48403423461E+02  0.66773942087E+02  0.00000000000E+00 0.  1.
         -1    1    6    6    0  502  0.37199025824E+03 -0.75001737597E+01  0.28327260047E+03  0.46762845402E+03  0.00000000000E+00 0.  1.
<mgrwt>
<rscale>  0 0.24623294E+04</rscale>
<asrwt>0</asrwt>
<pdfrwt beam="1">  1        2 0.29297446E+00 0.24623294E+04</pdfrwt>
<pdfrwt beam="2">  1       -2 0.12245480E+00 0.24623294E+04</pdfrwt>
<totfact> 0.34108794E+00</totfact>
</mgrwt>
</event>
<event>
12    1  0.2433511E-007  0.1728189E+04  0.7818608E-02  0.8745449E-01
         -2   -1    0    0    0  501 -0.00000000000E+00  0.00000000000E+00  0.67153757173E+03  0.67153757173E+03  0.00000000000E+00 0.  1.
          2   -1    0    0  501    0  0.00000000000E+00 -0.00000000000E+00 -0.11118650294E+04  0.11118650294E+04  0.00000000000E+00 0. -1.
         23    2    1    2    0    0 -0.56919072788E+03  0.90409576053E+02  0.90086100564E+02  0.59045415867E+03  0.91480226449E+02 0.  0.
        254    2    1    2    0    0  0.56919072788E+03 -0.90409576053E+02 -0.53041355824E+03  0.11929484425E+04  0.89979745914E+03 0.  0.
        -24    2    4    4    0    0  0.20173914903E+03 -0.33990441031E+03  0.10206132983E+03  0.41590031685E+03  0.79516451826E+02 0.  0.
         24    2    4    4    0    0  0.36745157885E+03  0.24949483425E+03 -0.63247488807E+03  0.77704812562E+03  0.80690584198E+02 0.  0.
         11    1    3    3    0    0 -0.24065111804E+03 -0.71719422500E+01  0.33058256148E+02  0.24301696581E+03  0.00000000000E+00 0. -1.
        -11    1    3    3    0    0 -0.32853960984E+03  0.97581518303E+02  0.57027844415E+02  0.34743719286E+03  0.00000000000E+00 0.  1.
          2    1    6    6  502    0  0.37902676130E+02  0.40287836330E+02 -0.12598687462E+03  0.13759511325E+03  0.00000000000E+00 0. -1.
          1    1    5    5  503    0  0.10161338374E+03 -0.13935611568E+03  0.75413741461E+01  0.17263336600E+03  0.00000000000E+00 0. -1.
         -2    1    5    5    0  503  0.10012576529E+03 -0.20054829463E+03  0.94519955682E+02  0.24326695085E+03  0.00000000000E+00 0.  1.
         -1    1    6    6    0  502  0.32954890272E+03  0.20920699792E+03 -0.50648801345E+03  0.63945301237E+03  0.00000000000E+00 0.  1.
<mgrwt>
<rscale>  0 0.17281888E+04</rscale>
<asrwt>0</asrwt>
<pdfrwt beam="1">  1        2 0.17105616E+00 0.17281888E+04</pdfrwt>
<pdfrwt beam="2">  1       -2 0.10331347E+00 0.17281888E+04</pdfrwt>
<totfact> 0.15545978E+01</totfact>
</mgrwt>
</event>
<event>
12    1  0.2433511E-007  0.2553632E+04  0.7818608E-02  0.8384124E-01
          2   -1    0    0  501    0  0.00000000000E+00  0.00000000000E+00  0.13015498125E+04  0.13015498125E+04  0.00000000000E+00 0. -1.
         -2   -1    0    0    0  501 -0.00000000000E+00 -0.00000000000E+00 -0.12525522911E+04  0.12525522911E+04  0.00000000000E+00 0.  1.
         23    2    1    2    0    0  0.85493276201E+03 -0.70306028890E+03  0.17022378391E+03  0.11236286875E+04  0.91441202192E+02 0.  0.
        254    2    1    2    0    0 -0.85493276201E+03  0.70306028890E+03 -0.12122626244E+03  0.14304734161E+04  0.89797248847E+03 0.  0.
        -24    2    4    4    0    0 -0.80989462955E+03  0.28762012373E+03  0.21353360522E+03  0.88912355849E+03  0.79306085214E+02 0.  0.
         24    2    4    4    0    0 -0.45038132457E+02  0.41544016517E+03 -0.33475986766E+03  0.54134985760E+03  0.79853209824E+02 0.  0.
         11    1    3    3    0    0  0.18741630738E+03 -0.17961744924E+03  0.63418705936E+01  0.25966809520E+03  0.00000000000E+00 0.  1.
        -11    1    3    3    0    0  0.66751645463E+03 -0.52344283966E+03  0.16388191331E+03  0.86396059233E+03  0.00000000000E+00 0. -1.
          2    1    6    6  502    0 -0.49696715762E+02  0.41562729398E+03 -0.32306436518E+03  0.52875929789E+03  0.00000000000E+00 0. -1.
          3    1    5    5  503    0 -0.50493829894E+03  0.13835911173E+03  0.12621178897E+03  0.53854929692E+03  0.00000000000E+00 0. -1.
         -4    1    5    5    0  503 -0.30495633061E+03  0.14926101200E+03  0.87321816252E+02  0.35057426157E+03  0.00000000000E+00 0.  1.
         -1    1    6    6    0  502  0.46585833057E+01 -0.18712880804E+00 -0.11695502478E+02  0.12590559711E+02  0.00000000000E+00 0.  1.
<mgrwt>
<rscale>  0 0.25536321E+04</rscale>
<asrwt>0</asrwt>
<pdfrwt beam="1">  1        2 0.20023843E+00 0.25536321E+04</pdfrwt>
<pdfrwt beam="2">  1       -2 0.19270035E+00 0.25536321E+04</pdfrwt>
<totfact> 0.21780060E+00</totfact>
</mgrwt>
</event>
<event>
12    1  0.2433511E-007  0.1845447E+04  0.7818608E-02  0.8682498E-01
         -1   -1    0    0    0  501 -0.00000000000E+00  0.00000000000E+00  0.45470511430E+03  0.45470511430E+03  0.00000000000E+00 0.  1.
          1   -1    0    0  501    0  0.00000000000E+00 -0.00000000000E+00 -0.18724640558E+04  0.18724640558E+04  0.00000000000E+00 0. -1.
         23    2    1    2    0    0 -0.51428490359E+03 -0.28212455427E+03 -0.10160306677E+04  0.11771004158E+04  0.95727974768E+02 0.  0.
        254    2    1    2    0    0  0.51428490359E+03  0.28212455427E+03 -0.40172827384E+03  0.11500687543E+04  0.90398523624E+03 0.  0.
        -24    2    4    4    0    0 -0.40859668295E+02 -0.27174682528E+03 -0.15098346348E+03  0.32278595528E+03  0.76674096899E+02 0.  0.
         24    2    4    4    0    0  0.55514457188E+03  0.55387137955E+03 -0.25074481035E+03  0.82728279898E+03  0.81023877912E+02 0.  0.
         11    1    3    3    0    0 -0.46326715565E+03 -0.22638035780E+03 -0.84141531530E+03  0.98683547602E+03  0.00000000000E+00 0.  1.
        -11    1    3    3    0    0 -0.51017747935E+02 -0.55744196468E+02 -0.17461535235E+03  0.19026493981E+03  0.00000000000E+00 0. -1.
          2    1    6    6  502    0  0.18224744271E+02  0.12558867460E+02  0.57413035531E+01  0.22865454776E+02  0.00000000000E+00 0. -1.
          3    1    5    5  503    0  0.14838419730E+02 -0.12713435299E+02 -0.16910230159E+02  0.25841169114E+02  0.00000000000E+00 0. -1.
         -4    1    5    5    0  503 -0.55698088025E+02 -0.25903338998E+03 -0.13407323333E+03  0.29694478616E+03  0.00000000000E+00 0.  1.
         -1    1    6    6    0  502  0.53691982761E+03  0.54131251209E+03 -0.25648611391E+03  0.80441734420E+03  0.00000000000E+00 0.  1.
<mgrwt>
<rscale>  0 0.18454474E+04</rscale>
<asrwt>0</asrwt>
<pdfrwt beam="1">  1        1 0.28807139E+00 0.18454474E+04</pdfrwt>
<pdfrwt beam="2">  1       -1 0.69954634E-01 0.18454474E+04</pdfrwt>
<totfact> 0.70632328E+00</totfact>
</mgrwt>
</event>
<event>
12    1  0.2433511E-007  0.1322837E+04  0.7818608E-02  0.9011649E-01
         -1   -1    0    0    0  501 -0.00000000000E+00  0.00000000000E+00  0.24028056742E+03  0.24028056742E+03  0.00000000000E+00 0.  1.
          1   -1    0    0  501    0  0.00000000000E+00 -0.00000000000E+00 -0.18206816654E+04  0.18206816654E+04  0.00000000000E+00 0. -1.
         23    2    1    2    0    0 -0.13450202042E+03 -0.18905088197E+03 -0.83155711493E+03  0.86805215292E+03  0.90533282994E+02 0.  0.
        254    2    1    2    0    0  0.13450202042E+03  0.18905088197E+03 -0.74884398308E+03  0.11929100799E+04  0.89913075708E+03 0.  0.
        -24    2    4    4    0    0  0.41412179814E+03  0.25220462941E+03 -0.74806858604E+03  0.89507053842E+03  0.80253476797E+02 0.  0.
         24    2    4    4    0    0 -0.27961977772E+03 -0.63153747442E+02 -0.77539703338E+00  0.29783954150E+03  0.80821874111E+02 0.  0.
         11    1    3    3    0    0 -0.14462061871E+03 -0.16409208412E+03 -0.68604838637E+03  0.72007202686E+03  0.00000000000E+00 0. -1.
        -11    1    3    3    0    0  0.10118598290E+02 -0.24958797844E+02 -0.14550872856E+03  0.14798012606E+03  0.00000000000E+00 0.  1.
          2    1    6    6  502    0 -0.21011812395E+03 -0.33211364885E+02 -0.33575497870E+02  0.21536001213E+03  0.00000000000E+00 0. -1.
          3    1    5    5  503    0  0.39159030533E+03  0.25252425492E+03 -0.68820415066E+03  0.83110554055E+03  0.00000000000E+00 0. -1.
         -4    1    5    5    0  503  0.22531492811E+02 -0.31962551382E+00 -0.59864435384E+02  0.63964997871E+02  0.00000000000E+00 0.  1.
         -3    1    6    6    0  502 -0.69501653769E+02 -0.29942382557E+02  0.32800100837E+02  0.82479529368E+02  0.00000000000E+00 0.  1.
<mgrwt>
<rscale>  0 0.13228370E+04</rscale>
<asrwt>0</asrwt>
<pdfrwt beam="1">  1        1 0.28010487E+00 0.13228370E+04</pdfrwt>
<pdfrwt beam="2">  1       -1 0.36966241E-01 0.13228370E+04</pdfrwt>
<totfact> 0.27217566E+01</totfact>
</mgrwt>
</event>
<event>
12    1  0.2433511E-007  0.2570328E+04  0.7818608E-02  0.8378351E-01
          2   -1    0    0  501    0  0.00000000000E+00  0.00000000000E+00  0.32967098678E+04  0.32967098678E+04  0.00000000000E+00 0. -1.
         -2   -1    0    0    0  501 -0.00000000000E+00 -0.00000000000E+00 -0.50099842539E+03  0.50099842539E+03  0.00000000000E+00 0.  1.
         23    2    1    2    0    0 -0.31404687940E+03  0.10661127581E+04  0.14833852458E+04  0.18560734766E+04  0.96721804886E+02 0.  0.
        254    2    1    2    0    0  0.31404687940E+03 -0.10661127581E+04  0.13123261966E+04  0.19416348166E+04  0.90140105348E+03 0.  0.
        -24    2    4    4    0    0 -0.53625759861E+01 -0.51546008894E+03  0.11747819837E+04  0.12854949686E+04  0.81588875609E+02 0.  0.
         24    2    4    4    0    0  0.31940945539E+03 -0.55065266918E+03  0.13754421294E+03  0.65613984800E+03  0.79751660474E+02 0.  0.
         13    1    3    3    0    0 -0.24793118127E+03  0.69291137541E+03  0.10091161839E+04  0.12489641778E+04  0.00000000000E+00 0. -1.
        -13    1    3    3    0    0 -0.66115698134E+02  0.37320138271E+03  0.47426906186E+03  0.60710929875E+03  0.00000000000E+00 0.  1.
          4    1    6    6  502    0  0.27436293500E+02 -0.20922516889E+02  0.20248265955E+02  0.40006176875E+02  0.00000000000E+00 0. -1.
          3    1    5    5  503    0 -0.33497048370E+02 -0.23540328942E+03  0.47383945085E+03  0.53015147467E+03  0.00000000000E+00 0. -1.
         -4    1    5    5    0  503  0.28134472384E+02 -0.28005679952E+03  0.70094253283E+03  0.75534349393E+03  0.00000000000E+00 0.  1.
         -3    1    6    6    0  502  0.29197316189E+03 -0.52973015229E+03  0.11729594698E+03  0.61613367112E+03  0.00000000000E+00 0.  1.
<mgrwt>
<rscale>  0 0.25703280E+04</rscale>
<asrwt>0</asrwt>
<pdfrwt beam="1">  1        2 0.50718612E+00 0.25703280E+04</pdfrwt>
<pdfrwt beam="2">  1       -2 0.77076683E-01 0.25703280E+04</pdfrwt>
<totfact> 0.14922579E+00</totfact>
</mgrwt>
</event>
<event>
12    1  0.2433511E-007  0.1885304E+04  0.7818608E-02  0.8662206E-01
         -1   -1    0    0    0  501 -0.00000000000E+00  0.00000000000E+00  0.95991227441E+03  0.95991227441E+03  0.00000000000E+00 0.  1.
          1   -1    0    0  501    0  0.00000000000E+00 -0.00000000000E+00 -0.92570206229E+03  0.92570206229E+03  0.00000000000E+00 0. -1.
         23    2    1    2    0    0  0.66542362751E+03 -0.24900914128E+03  0.15627783705E+03  0.73292050500E+03  0.89193877662E+02 0.  0.
        254    2    1    2    0    0 -0.66542362751E+03  0.24900914128E+03 -0.12206762493E+03  0.11526938317E+04  0.89944894691E+03 0.  0.
        -24    2    4    4    0    0 -0.62637269170E+03 -0.21364660973E+03 -0.12834875599E-01  0.66597856717E+03  0.74430027533E+02 0.  0.
         24    2    4    4    0    0 -0.39050935803E+02  0.46265575101E+03 -0.12205479005E+03  0.48671526453E+03  0.80119020348E+02 0.  0.
         11    1    3    3    0    0  0.57397010796E+03 -0.22238609601E+03  0.10400896057E+03  0.62427167516E+03  0.00000000000E+00 0. -1.
        -11    1    3    3    0    0  0.91453519546E+02 -0.26623045270E+02  0.52268876479E+02  0.10864882984E+03  0.00000000000E+00 0.  1.
          4    1    6    6  502    0 -0.16634819512E+02  0.37407311698E+03 -0.12649636113E+03  0.39523251821E+03  0.00000000000E+00 0. -1.
          1    1    5    5  503    0 -0.25356218097E+03 -0.49298969214E+02 -0.87176970719E+01  0.25845728124E+03  0.00000000000E+00 0. -1.
         -2    1    5    5    0  503 -0.37281051074E+03 -0.16434764052E+03  0.87048621963E+01  0.40752128593E+03  0.00000000000E+00 0.  1.
         -3    1    6    6    0  502 -0.22416116291E+02  0.88582634032E+02  0.44415710801E+01  0.91482746325E+02  0.00000000000E+00 0.  1.
<mgrwt>
<rscale>  0 0.18853040E+04</rscale>
<asrwt>0</asrwt>
<pdfrwt beam="1">  1        1 0.14241570E+00 0.18853040E+04</pdfrwt>
<pdfrwt beam="2">  1       -1 0.14767881E+00 0.18853040E+04</pdfrwt>
<totfact> 0.59105235E+00</totfact>
</mgrwt>
</event>
<event>
12    1  0.2433511E-007  0.2147076E+04  0.7818608E-02  0.8540785E-01
          2   -1    0    0  501    0  0.00000000000E+00  0.00000000000E+00  0.93967593486E+03  0.93967593486E+03  0.00000000000E+00 0. -1.
         -2   -1    0    0    0  501 -0.00000000000E+00 -0.00000000000E+00 -0.12264696852E+04  0.12264696852E+04  0.00000000000E+00 0.  1.
         23    2    1    2    0    0 -0.66007383004E+03 -0.24876576948E+03  0.41370980987E+03  0.82310583203E+03  0.93624434657E+02 0.  0.
        254    2    1    2    0    0  0.66007383004E+03  0.24876576948E+03 -0.70050356024E+03  0.13430397881E+04  0.90303309199E+03 0.  0.
        -24    2    4    4    0    0  0.29300334832E+03  0.36695208995E+01 -0.82344194883E+03  0.87775099431E+03  0.80782036381E+02 0.  0.
         24    2    4    4    0    0  0.36707048172E+03  0.24509624858E+03  0.12293838859E+03  0.46528879375E+03  0.81036439871E+02 0.  0.
         11    1    3    3    0    0 -0.25803699242E+03 -0.65140297774E+02  0.19527506163E+03  0.33008892370E+03  0.00000000000E+00 0. -1.
        -11    1    3    3    0    0 -0.40203683762E+03 -0.18362547170E+03  0.21843474824E+03  0.49301690833E+03  0.00000000000E+00 0.  1.
          4    1    6    6  502    0  0.33343900345E+03  0.21277829901E+03  0.13349770527E+03  0.41746593977E+03  0.00000000000E+00 0. -1.
          3    1    5    5  503    0  0.25429839022E+03  0.29826596930E+02 -0.72240317705E+03  0.76643567725E+03  0.00000000000E+00 0. -1.
         -4    1    5    5    0  503  0.38704958104E+02 -0.26157076030E+02 -0.10103877178E+03  0.11131531705E+03  0.00000000000E+00 0.  1.
         -3    1    6    6    0  502  0.33631478268E+02  0.32317949568E+02 -0.10559316680E+02  0.47822853988E+02  0.00000000000E+00 0.  1.
<mgrwt>
<rscale>  0 0.21470762E+04</rscale>
<asrwt>0</asrwt>
<pdfrwt beam="1">  1        2 0.14456553E+00 0.21470762E+04</pdfrwt>
<pdfrwt beam="2">  1       -2 0.18868764E+00 0.21470762E+04</pdfrwt>
<totfact> 0.40038343E+00</totfact>
</mgrwt>
</event>
<event>
12    1  0.2433512E-007  0.3818319E+04  0.7818608E-02  0.8042235E-01
          1   -1    0    0  501    0  0.00000000000E+00  0.00000000000E+00  0.25122223791E+04  0.25122223791E+04  0.00000000000E+00 0. -1.
         -1   -1    0    0    0  501 -0.00000000000E+00 -0.00000000000E+00 -0.14508629124E+04  0.14508629124E+04  0.00000000000E+00 0.  1.
         23    2    1    2    0    0  0.16005293056E+04  0.49689865957E+03  0.11883144066E+04  0.20564235418E+04  0.90467223339E+02 0.  0.
        254    2    1    2    0    0 -0.16005293056E+04 -0.49689865957E+03 -0.12695493994E+03  0.19066617497E+04  0.90035500511E+03 0.  0.
        -24    2    4    4    0    0  0.12177119754E+02 -0.25537218162E+03 -0.48188532974E+02  0.27213152188E+03  0.79813514520E+02 0.  0.
         24    2    4    4    0    0 -0.16127064253E+04 -0.24152647795E+03 -0.78766406968E+02  0.16345302278E+04  0.79547879000E+02 0.  0.
         13    1    3    3    0    0  0.80917715193E+03  0.24783324115E+03  0.65532546323E+03  0.10703459447E+04  0.00000000000E+00 0. -1.
        -13    1    3    3    0    0  0.79135215363E+03  0.24906541842E+03  0.53298894340E+03  0.98607759709E+03  0.00000000000E+00 0.  1.
          2    1    6    6  502    0 -0.66401625543E+03 -0.69104955636E+02 -0.57345822959E+02  0.67006091199E+03  0.00000000000E+00 0. -1.
          1    1    5    5  503    0 -0.31002802658E+02 -0.15282945059E+03 -0.18941767256E+02  0.15708852691E+03  0.00000000000E+00 0. -1.
         -2    1    5    5    0  503  0.43179922412E+02 -0.10254273103E+03 -0.29246765717E+02  0.11504299497E+03  0.00000000000E+00 0.  1.
         -1    1    6    6    0  502 -0.94869016988E+03 -0.17242152231E+03 -0.21420584009E+02  0.96446931584E+03  0.00000000000E+00 0.  1.
<mgrwt>
<rscale>  0 0.38183191E+04</rscale>
<asrwt>0</asrwt>
<pdfrwt beam="1">  1        1 0.38649575E+00 0.38183191E+04</pdfrwt>
<pdfrwt beam="2">  1       -1 0.22320968E+00 0.38183191E+04</pdfrwt>
<totfact> 0.11054361E-01</totfact>
</mgrwt>
</event>
<event>
12    1  0.2433511E-007  0.2001778E+04  0.7818608E-02  0.8605790E-01
          1   -1    0    0  501    0  0.00000000000E+00  0.00000000000E+00  0.10849272083E+04  0.10849272083E+04  0.00000000000E+00 0. -1.
         -1   -1    0    0    0  501 -0.00000000000E+00 -0.00000000000E+00 -0.92336082469E+03  0.92336082469E+03  0.00000000000E+00 0.  1.
         23    2    1    2    0    0 -0.63401427963E+03 -0.47860958245E+03  0.25373077363E+02  0.79992870894E+03  0.90558860136E+02 0.  0.
        254    2    1    2    0    0  0.63401427963E+03  0.47860958245E+03  0.13619330628E+03  0.12083593241E+04  0.90030128303E+03 0.  0.
        -24    2    4    4    0    0  0.13537463159E+03  0.60200149065E+03 -0.11257021605E+03  0.63202199160E+03  0.77766694103E+02 0.  0.
         24    2    4    4    0    0  0.49863964804E+03 -0.12339190820E+03  0.24876352233E+03  0.57633733247E+03  0.80089756879E+02 0.  0.
         11    1    3    3    0    0 -0.51633777120E+03 -0.42258158881E+03  0.42000057958E+02  0.66853862868E+03  0.00000000000E+00 0.  1.
        -11    1    3    3    0    0 -0.11767650843E+03 -0.56027993635E+02 -0.16626980595E+02  0.13139008026E+03  0.00000000000E+00 0. -1.
          2    1    6    6  502    0  0.48359884768E+03 -0.13358431979E+03  0.23950423270E+03  0.55594504535E+03  0.00000000000E+00 0. -1.
          1    1    5    5  503    0  0.13868331756E+03  0.50726046663E+03 -0.10960211679E+03  0.53717675636E+03  0.00000000000E+00 0. -1.
         -2    1    5    5    0  503 -0.33086859671E+01  0.94741024017E+02 -0.29680992638E+01  0.94845235241E+02  0.00000000000E+00 0.  1.
         -1    1    6    6    0  502  0.15040800362E+02  0.10192411596E+02  0.92592896299E+01  0.20392287124E+02  0.00000000000E+00 0.  1.
<mgrwt>
<rscale>  0 0.20017785E+04</rscale>
<asrwt>0</asrwt>
<pdfrwt beam="1">  1        1 0.16691188E+00 0.20017785E+04</pdfrwt>
<pdfrwt beam="2">  1       -1 0.14205551E+00 0.20017785E+04</pdfrwt>
<totfact> 0.48705514E+00</totfact>
</mgrwt>
</event>
<event>
12    1  0.2433511E-007  0.2808975E+04  0.7818608E-02  0.8300488E-01
          2   -1    0    0  501    0  0.00000000000E+00  0.00000000000E+00  0.16229528324E+04  0.16229528324E+04  0.00000000000E+00 0. -1.
         -2   -1    0    0    0  501 -0.00000000000E+00 -0.00000000000E+00 -0.12154293364E+04  0.12154293364E+04  0.00000000000E+00 0.  1.
         23    2    1    2    0    0  0.10071174952E+04 -0.72067999358E+03  0.40762643573E+03  0.13069445169E+04  0.90990970527E+02 0.  0.
        254    2    1    2    0    0 -0.10071174952E+04  0.72067999358E+03 -0.10293976600E+00  0.15314376519E+04  0.90090841300E+03 0.  0.
        -24    2    4    4    0    0 -0.26409470654E+03  0.69897466132E+03 -0.15599251999E+03  0.76753173498E+03  0.80372300702E+02 0.  0.
         24    2    4    4    0    0 -0.74302278871E+03  0.21705332259E+02  0.15588958022E+03  0.76390591690E+03  0.81833383556E+02 0.  0.
         13    1    3    3    0    0  0.71697733149E+02 -0.72383382201E+02  0.53120990965E+02  0.11489890617E+03  0.00000000000E+00 0. -1.
        -13    1    3    3    0    0  0.93541976210E+03 -0.64829661138E+03  0.35450544477E+03  0.11920456107E+04  0.00000000000E+00 0.  1.
          2    1    6    6  502    0 -0.67030911106E+03 -0.28145564486E+01  0.15034968650E+03  0.68696961674E+03  0.00000000000E+00 0. -1.
          1    1    5    5  503    0 -0.21742493891E+03  0.48706137644E+03 -0.91672433512E+02  0.54120811482E+03  0.00000000000E+00 0. -1.
         -2    1    5    5    0  503 -0.46669767636E+02  0.21191328488E+03 -0.64320086476E+02  0.22632362016E+03  0.00000000000E+00 0.  1.
         -1    1    6    6    0  502 -0.72713677649E+02  0.24519888707E+02  0.55398937255E+01  0.76936300157E+02  0.00000000000E+00 0.  1.
<mgrwt>
<rscale>  0 0.28089745E+04</rscale>
<asrwt>0</asrwt>
<pdfrwt beam="1">  1        2 0.24968505E+00 0.28089745E+04</pdfrwt>
<pdfrwt beam="2">  1       -2 0.18698913E+00 0.28089745E+04</pdfrwt>
<totfact> 0.15292774E+00</totfact>
</mgrwt>
</event>
<event>
12    1  0.2433511E-007  0.2028254E+04  0.7818608E-02  0.8593524E-01
         -1   -1    0    0    0  501 -0.00000000000E+00  0.00000000000E+00  0.61448753160E+03  0.61448753160E+03  0.00000000000E+00 0.  1.
          1   -1    0    0  501    0  0.00000000000E+00 -0.00000000000E+00 -0.16736760738E+04  0.16736760738E+04  0.00000000000E+00 0. -1.
         23    2    1    2    0    0  0.24983252420E+03 -0.75557236930E+03 -0.60728066390E+03  0.10050968406E+04  0.90133006128E+02 0.  0.
        254    2    1    2    0    0 -0.24983252420E+03  0.75557236930E+03 -0.45190787829E+03  0.12830667648E+04  0.89929622321E+03 0.  0.
        -24    2    4    4    0    0  0.32147688930E+03  0.38184615915E+03 -0.12000673866E+03  0.51962595346E+03  0.80346963677E+02 0.  0.
         24    2    4    4    0    0 -0.57130941351E+03  0.37372621015E+03 -0.33190113964E+03  0.76344081134E+03  0.81349737654E+02 0.  0.
         13    1    3    3    0    0  0.22329383100E+03 -0.58810636247E+03 -0.50831046778E+03  0.80876990559E+03  0.00000000000E+00 0. -1.
        -13    1    3    3    0    0  0.26538693208E+02 -0.16746600683E+03 -0.98970196123E+02  0.19632693499E+03  0.00000000000E+00 0.  1.
          4    1    6    6  502    0 -0.14572881320E+03  0.88902762205E+02 -0.12285754649E+03  0.21032014847E+03  0.00000000000E+00 0. -1.
          3    1    5    5  503    0  0.14057057583E+03  0.15305607121E+03 -0.10508864038E+02  0.20807855235E+03  0.00000000000E+00 0. -1.
         -4    1    5    5    0  503  0.18090631347E+03  0.22879008794E+03 -0.10949787462E+03  0.31154740112E+03  0.00000000000E+00 0.  1.
         -1    1    6    6    0  502 -0.42558060031E+03  0.28482344794E+03 -0.20904359315E+03  0.55312066287E+03  0.00000000000E+00 0.  1.
<mgrwt>
<rscale>  0 0.20282535E+04</rscale>
<asrwt>0</asrwt>
<pdfrwt beam="1">  1        1 0.25748862E+00 0.20282535E+04</pdfrwt>
<pdfrwt beam="2">  1       -1 0.94536545E-01 0.20282535E+04</pdfrwt>
<totfact> 0.49761440E+00</totfact>
</mgrwt>
</event>
<event>
12    1  0.2433511E-007  0.2915721E+04  0.7818608E-02  0.8268215E-01
          2   -1    0    0  501    0  0.00000000000E+00  0.00000000000E+00  0.21745019111E+04  0.21745019111E+04  0.00000000000E+00 0. -1.
         -2   -1    0    0    0  501 -0.00000000000E+00 -0.00000000000E+00 -0.97739932817E+03  0.97739932817E+03  0.00000000000E+00 0.  1.
         23    2    1    2    0    0  0.58196850059E+03 -0.11551827045E+04  0.80857606726E+03  0.15291581380E+04  0.10674707535E+03 0.  0.
        254    2    1    2    0    0 -0.58196850059E+03  0.11551827045E+04  0.38852651564E+03  0.16227431012E+04  0.89955983836E+03 0.  0.
        -24    2    4    4    0    0 -0.56398647320E+03  0.48111413482E+03 -0.14391407296E+03  0.75976549173E+03  0.83551118189E+02 0.  0.
         24    2    4    4    0    0 -0.17982027385E+02  0.67406856967E+03  0.53244058860E+03  0.86297760949E+03  0.80904784550E+02 0.  0.
         13    1    3    3    0    0  0.45647386921E+03 -0.86851541491E+03  0.66191735961E+03  0.11835632683E+04  0.00000000000E+00 0. -1.
        -13    1    3    3    0    0  0.12549463138E+03 -0.28666728959E+03  0.14665870765E+03  0.34559486969E+03  0.00000000000E+00 0.  1.
          4    1    6    6  502    0 -0.17771031045E+02  0.10156788563E+03  0.11494674288E+03  0.15441696356E+03  0.00000000000E+00 0. -1.
          3    1    5    5  503    0 -0.21461801029E+03  0.13780756007E+03 -0.29382586302E+02  0.25673946002E+03  0.00000000000E+00 0. -1.
         -4    1    5    5    0  503 -0.34936846292E+03  0.34330657475E+03 -0.11453148666E+03  0.50302603171E+03  0.00000000000E+00 0.  1.
         -3    1    6    6    0  502 -0.21099634009E+00  0.57250068404E+03  0.41749384572E+03  0.70856064593E+03  0.00000000000E+00 0.  1.
<mgrwt>
<rscale>  0 0.29157206E+04</rscale>
<asrwt>0</asrwt>
<pdfrwt beam="1">  1        2 0.33453875E+00 0.29157206E+04</pdfrwt>
<pdfrwt beam="2">  1       -2 0.15036913E+00 0.29157206E+04</pdfrwt>
<totfact> 0.13693786E+00</totfact>
</mgrwt>
</event>
<event>
12    1  0.2433511E-007  0.4673288E+04  0.7818608E-02  0.7880982E-01
          4   -1    0    0  501    0  0.00000000000E+00  0.00000000000E+00  0.19191566454E+04  0.19191566454E+04  0.00000000000E+00 0. -1.
         -4   -1    0    0    0  501 -0.00000000000E+00 -0.00000000000E+00 -0.28449504975E+04  0.28449504975E+04  0.00000000000E+00 0.  1.
         23    2    1    2    0    0 -0.16922671104E+04 -0.23289680550E+03  0.10454769888E+04  0.20048472430E+04  0.91550196505E+02 0.  0.
        254    2    1    2    0    0  0.16922671104E+04  0.23289680550E+03 -0.19712708410E+04  0.27592598999E+04  0.89977640118E+03 0.  0.
        -24    2    4    4    0    0 -0.50748283774E+02  0.15640176477E+03 -0.19649564418E+03  0.26925960449E+03  0.82784636877E+02 0.  0.
         24    2    4    4    0    0  0.17430153942E+04  0.76495040733E+02 -0.17747751968E+04  0.24900002955E+04  0.79500419516E+02 0.  0.
         13    1    3    3    0    0 -0.20638626900E+03 -0.13757072253E+02  0.96789173814E+02  0.22836964167E+03  0.00000000000E+00 0.  1.
        -13    1    3    3    0    0 -0.14858808414E+04 -0.21913973325E+03  0.94868781503E+03  0.17764776013E+04  0.00000000000E+00 0. -1.
          4    1    6    6  502    0  0.46529000341E+02  0.31708786990E+01 -0.30796158695E+02  0.55887438077E+02  0.00000000000E+00 0. -1.
          3    1    5    5  503    0 -0.12941189902E+02  0.56511799059E+01 -0.62428928846E+02  0.64006104297E+02  0.00000000000E+00 0. -1.
         -4    1    5    5    0  503 -0.37807093872E+02  0.15075058486E+03 -0.13406671533E+03  0.20525350020E+03  0.00000000000E+00 0.  1.
         -3    1    6    6    0  502  0.16964863938E+04  0.73324162034E+02 -0.17439790381E+04  0.24341128574E+04  0.00000000000E+00 0.  1.
<mgrwt>
<rscale>  0 0.46732882E+04</rscale>
<asrwt>0</asrwt>
<pdfrwt beam="1">  1        4 0.29525487E+00 0.46732882E+04</pdfrwt>
<pdfrwt beam="2">  1       -4 0.43768469E+00 0.46732882E+04</pdfrwt>
<totfact> 0.17478589E-04</totfact>
</mgrwt>
</event>
<event>
12    1  0.2433511E-007  0.3881896E+04  0.7818608E-02  0.8028805E-01
          1   -1    0    0  501    0  0.00000000000E+00  0.00000000000E+00  0.13740538844E+04  0.13740538844E+04  0.00000000000E+00 0. -1.
         -1   -1    0    0    0  501 -0.00000000000E+00 -0.00000000000E+00 -0.27417257693E+04  0.27417257693E+04  0.00000000000E+00 0.  1.
         23    2    1    2    0    0 -0.55487980539E+03  0.15193759123E+04 -0.15703138462E+04  0.22562528470E+04  0.91632816425E+02 0.  0.
        254    2    1    2    0    0  0.55487980539E+03 -0.15193759123E+04  0.20264196134E+03  0.18595268067E+04  0.89464038534E+03 0.  0.
        -24    2    4    4    0    0  0.49620235852E+03 -0.12887074509E+04  0.49915285297E+03  0.14705302821E+04  0.79511416769E+02 0.  0.
         24    2    4    4    0    0  0.58677446875E+02 -0.23066846132E+03 -0.29651089163E+03  0.38899652453E+03  0.82149896031E+02 0.  0.
         11    1    3    3    0    0 -0.24349289045E+03  0.62932899525E+03 -0.59505830807E+03  0.89968781361E+03  0.00000000000E+00 0.  1.
        -11    1    3    3    0    0 -0.31138691495E+03  0.89004691700E+03 -0.97525553812E+03  0.13565650334E+04  0.00000000000E+00 0. -1.
          4    1    6    6  502    0  0.50949827510E+02 -0.18100726968E+03 -0.27761009172E+03  0.33530117749E+03  0.00000000000E+00 0. -1.
          1    1    5    5  503    0  0.47988076565E+03 -0.12435915067E+04  0.46543939687E+03  0.14118920699E+04  0.00000000000E+00 0. -1.
         -2    1    5    5    0  503  0.16321592873E+02 -0.45115944214E+02  0.33713456100E+02  0.58638212272E+02  0.00000000000E+00 0.  1.
         -3    1    6    6    0  502  0.77276193648E+01 -0.49661191640E+02 -0.18900799910E+02  0.53695347036E+02  0.00000000000E+00 0.  1.
<mgrwt>
<rscale>  0 0.38818959E+04</rscale>
<asrwt>0</asrwt>
<pdfrwt beam="1">  1        1 0.21139291E+00 0.38818959E+04</pdfrwt>
<pdfrwt beam="2">  1       -1 0.42180396E+00 0.38818959E+04</pdfrwt>
<totfact> 0.32061697E-02</totfact>
</mgrwt>
</event>
<event>
12    1  0.3909383E-007  0.3279433E+04  0.7818608E-02  0.8168148E-01
         -2   -1    0    0    0  501 -0.00000000000E+00  0.00000000000E+00  0.11237924634E+04  0.11237924634E+04  0.00000000000E+00 0.  1.
          2   -1    0    0  501    0  0.00000000000E+00 -0.00000000000E+00 -0.23924974469E+04  0.23924974469E+04  0.00000000000E+00 0. -1.
         23    2    1    2    0    0  0.68316053327E+03 -0.13479092486E+04 -0.47424879011E+03  0.15864578936E+04  0.91482657353E+02 0.  0.
        254    2    1    2    0    0 -0.68316053327E+03  0.13479092486E+04 -0.79445619343E+03  0.19298320167E+04  0.89973513482E+03 0.  0.
        -24    2    4    4    0    0 -0.29323556880E+03  0.59348989094E+03  0.12191407365E+03  0.67759979571E+03  0.77853017552E+02 0.  0.
         24    2    4    4    0    0 -0.38992496447E+03  0.75441935761E+03 -0.91637026708E+03  0.12522322210E+04  0.84622832761E+02 0.  0.
         11    1    3    3    0    0  0.31797342284E+03 -0.56129122338E+03 -0.23797136520E+03  0.68759385231E+03  0.00000000000E+00 0. -1.
        -11    1    3    3    0    0  0.36518711043E+03 -0.78661802517E+03 -0.23627742490E+03  0.89886404126E+03  0.00000000000E+00 0.  1.
          4    1    6    6  502    0 -0.55219592723E+01  0.13810077338E+01 -0.16645227342E+02  0.17591555071E+02  0.00000000000E+00 0. -1.
          3    1    5    5  503    0 -0.85362197535E+02  0.18360879872E+03  0.14214083655E+01  0.20248682954E+03  0.00000000000E+00 0. -1.
         -4    1    5    5    0  503 -0.20787337126E+03  0.40988109221E+03  0.12049266528E+03  0.47511296617E+03  0.00000000000E+00 0.  1.
         -3    1    6    6    0  502 -0.38440300520E+03  0.75303834988E+03 -0.89972503974E+03  0.12346406659E+04  0.00000000000E+00 0.  1.
<mgrwt>
<rscale>  0 0.32794332E+04</rscale>
<asrwt>0</asrwt>
<pdfrwt beam="1">  1        2 0.36807653E+00 0.32794332E+04</pdfrwt>
<pdfrwt beam="2">  1       -2 0.17289115E+00 0.32794332E+04</pdfrwt>
<totfact> 0.68287532E-01</totfact>
</mgrwt>
</event>
<event>
12    1  0.2433511E-007  0.3106888E+04  0.7818608E-02  0.8213850E-01
         -2   -1    0    0    0  501 -0.00000000000E+00  0.00000000000E+00  0.12950853519E+04  0.12950853519E+04  0.00000000000E+00 0.  1.
          2   -1    0    0  501    0  0.00000000000E+00 -0.00000000000E+00 -0.18633433366E+04  0.18633433366E+04  0.00000000000E+00 0. -1.
         23    2    1    2    0    0 -0.85224659289E+03  0.27462676205E+03  0.86186474708E+03  0.12461919221E+04  0.91865940221E+02 0.  0.
        254    2    1    2    0    0  0.85224659289E+03 -0.27462676205E+03 -0.14301227318E+04  0.19122367664E+04  0.89980792892E+03 0.  0.
        -24    2    4    4    0    0  0.23406572754E+02 -0.31676140566E+03 -0.80844174256E+03  0.87227304236E+03  0.79978456766E+02 0.  0.
         24    2    4    4    0    0  0.82884002013E+03  0.42134643605E+02 -0.62168098928E+03  0.10399637240E+04  0.79285481866E+02 0.  0.
         11    1    3    3    0    0 -0.41865940983E+03  0.16484012845E+03  0.38232341482E+03  0.59043980464E+03  0.00000000000E+00 0.  1.
        -11    1    3    3    0    0 -0.43358718306E+03  0.10978663360E+03  0.47954133226E+03  0.65575211748E+03  0.00000000000E+00 0. -1.
          2    1    6    6  502    0  0.48169589543E+03  0.43742460078E+02 -0.31909422521E+03  0.57945272719E+03  0.00000000000E+00 0. -1.
          1    1    5    5  503    0  0.42866011369E+02 -0.97458958871E+02 -0.23389459298E+03  0.25698720633E+03  0.00000000000E+00 0. -1.
         -2    1    5    5    0  503 -0.19459438615E+02 -0.21930244678E+03 -0.57454714958E+03  0.61528583602E+03  0.00000000000E+00 0.  1.
         -1    1    6    6    0  502  0.34714412471E+03 -0.16078164723E+01 -0.30258676407E+03  0.46051099681E+03  0.00000000000E+00 0.  1.
<mgrwt>
<rscale>  0 0.31068883E+04</rscale>
<asrwt>0</asrwt>
<pdfrwt beam="1">  1        2 0.28666821E+00 0.31068883E+04</pdfrwt>
<pdfrwt beam="2">  1       -2 0.19924390E+00 0.31068883E+04</pdfrwt>
<totfact> 0.90850645E-01</totfact>
</mgrwt>
</event>
<event>
12    1  0.2433511E-007  0.3258896E+04  0.7818608E-02  0.8173434E-01
         -2   -1    0    0    0  501 -0.00000000000E+00  0.00000000000E+00  0.12644457743E+04  0.12644457743E+04  0.00000000000E+00 0.  1.
          2   -1    0    0  501    0  0.00000000000E+00 -0.00000000000E+00 -0.20998138548E+04  0.20998138548E+04  0.00000000000E+00 0. -1.
         23    2    1    2    0    0 -0.13488650408E+04 -0.15793216051E+03 -0.10532507300E+04  0.17210201663E+04  0.90519870548E+02 0.  0.
        254    2    1    2    0    0  0.13488650408E+04  0.15793216051E+03  0.21788264948E+03  0.16432394628E+04  0.89910156118E+03 0.  0.
        -24    2    4    4    0    0  0.14276346461E+04  0.52279068336E+01  0.24498602903E+03  0.14507420109E+04  0.80412772355E+02 0.  0.
         24    2    4    4    0    0 -0.78769605236E+02  0.15270425367E+03 -0.27103379552E+02  0.19249745191E+03  0.82446564562E+02 0.  0.
         13    1    3    3    0    0 -0.30305692042E+03 -0.72899155815E+02 -0.25134925649E+03  0.40041757288E+03  0.00000000000E+00 0.  1.
        -13    1    3    3    0    0 -0.10458081204E+04 -0.85033004694E+02 -0.80190147353E+03  0.13206025935E+04  0.00000000000E+00 0. -1.
          2    1    6    6  502    0 -0.55508443153E+02  0.73613584309E+02 -0.52674144501E+02  0.10618244937E+03  0.00000000000E+00 0. -1.
          1    1    5    5  503    0  0.11114371358E+03 -0.20511557426E+02  0.24942320126E+02  0.11574008981E+03  0.00000000000E+00 0. -1.
         -2    1    5    5    0  503  0.13164909325E+04  0.25739464260E+02  0.22004370891E+03  0.13350019210E+04  0.00000000000E+00 0.  1.
         -1    1    6    6    0  502 -0.23261162083E+02  0.79090669366E+02  0.25570764950E+02  0.86315002533E+02  0.00000000000E+00 0.  1.
<mgrwt>
<rscale>  0 0.32588960E+04</rscale>
<asrwt>0</asrwt>
<pdfrwt beam="1">  1        2 0.32304828E+00 0.32588960E+04</pdfrwt>
<pdfrwt beam="2">  1       -2 0.19453012E+00 0.32588960E+04</pdfrwt>
<totfact> 0.71199646E-01</totfact>
</mgrwt>
</event>
<event>
12    1  0.2433511E-007  0.3258394E+04  0.7818608E-02  0.8173563E-01
          2   -1    0    0  501    0  0.00000000000E+00  0.00000000000E+00  0.34058160239E+04  0.34058160239E+04  0.00000000000E+00 0. -1.
         -2   -1    0    0    0  501 -0.00000000000E+00 -0.00000000000E+00 -0.77933829037E+03  0.77933829037E+03  0.00000000000E+00 0.  1.
         23    2    1    2    0    0  0.93743524822E+03 -0.41993964773E+03  0.26221745911E+04  0.28176885330E+04  0.91841875739E+02 0.  0.
        254    2    1    2    0    0 -0.93743524822E+03  0.41993964773E+03  0.43031424160E+01  0.13674657813E+04  0.90266826338E+03 0.  0.
        -24    2    4    4    0    0 -0.17129372327E+03  0.43668327850E+03 -0.27323806725E+03  0.54862217734E+03  0.79331120773E+02 0.  0.
         24    2    4    4    0    0 -0.76614152495E+03 -0.16743630767E+02  0.27754120967E+03  0.81884360398E+03  0.78883073538E+02 0.  0.
         13    1    3    3    0    0  0.64163326169E+03 -0.27887048330E+03  0.18971227467E+04  0.20220130328E+04  0.00000000000E+00 0. -1.
        -13    1    3    3    0    0  0.29580198653E+03 -0.14106916443E+03  0.72505184445E+03  0.79567550015E+03  0.00000000000E+00 0.  1.
          2    1    6    6  502    0 -0.45604608189E+03  0.25215049086E+02  0.18191706431E+03  0.49163771803E+03  0.00000000000E+00 0. -1.
          1    1    5    5  503    0 -0.16641409619E+03  0.42852890358E+03 -0.27876888263E+03  0.53762697341E+03  0.00000000000E+00 0. -1.
         -2    1    5    5    0  503 -0.48796270843E+01  0.81543749142E+01  0.55308153777E+01  0.10995203930E+02  0.00000000000E+00 0.  1.
         -1    1    6    6    0  502 -0.31009544306E+03 -0.41958679853E+02  0.95624145361E+02  0.32720588594E+03  0.00000000000E+00 0.  1.
<mgrwt>
<rscale>  0 0.32583940E+04</rscale>
<asrwt>0</asrwt>
<pdfrwt beam="1">  1        2 0.52397169E+00 0.32583940E+04</pdfrwt>
<pdfrwt beam="2">  1       -2 0.11989820E+00 0.32583940E+04</pdfrwt>
<totfact> 0.42075873E-01</totfact>
</mgrwt>
</event>
<event>
12    1  0.2433511E-007  0.1620138E+04  0.7818608E-02  0.8808271E-01
         -1   -1    0    0    0  501 -0.00000000000E+00  0.00000000000E+00  0.13447497580E+04  0.13447497580E+04  0.00000000000E+00 0.  1.
          1   -1    0    0  501    0  0.00000000000E+00 -0.00000000000E+00 -0.48798069830E+03  0.48798069830E+03  0.00000000000E+00 0. -1.
         23    2    1    2    0    0 -0.13226994218E+03 -0.53538613420E+03  0.34337696544E+03  0.65682903829E+03  0.96865860127E+02 0.  0.
        254    2    1    2    0    0  0.13226994218E+03  0.53538613420E+03  0.51339209430E+03  0.11759014180E+04  0.90279513300E+03 0.  0.
        -24    2    4    4    0    0  0.44087363233E+02 -0.19585215276E+02  0.59519288554E+03  0.60245443532E+03  0.79809143536E+02 0.  0.
         24    2    4    4    0    0  0.88182578944E+02  0.55497134947E+03 -0.81800791233E+02  0.57344698272E+03  0.79879325102E+02 0.  0.
         11    1    3    3    0    0 -0.52972889502E+02 -0.11245594139E+03  0.11656969779E+03  0.17041408457E+03  0.00000000000E+00 0.  1.
        -11    1    3    3    0    0 -0.79297052675E+02 -0.42293019280E+03  0.22680726764E+03  0.48641495372E+03  0.00000000000E+00 0. -1.
          2    1    6    6  502    0  0.14356535113E+01  0.22123880100E+03 -0.11573387082E+02  0.22154595789E+03  0.00000000000E+00 0. -1.
          1    1    5    5  503    0 -0.20640269352E+02 -0.15851974736E+02  0.23862098518E+03  0.24003599811E+03  0.00000000000E+00 0. -1.
         -2    1    5    5    0  503  0.64727632586E+02 -0.37332405398E+01  0.35657190036E+03  0.36241843721E+03  0.00000000000E+00 0.  1.
         -1    1    6    6    0  502  0.86746925432E+02  0.33373254848E+03 -0.70227404152E+02  0.35190102483E+03  0.00000000000E+00 0.  1.
<mgrwt>
<rscale>  0 0.16201382E+04</rscale>
<asrwt>0</asrwt>
<pdfrwt beam="1">  1        1 0.75073954E-01 0.16201382E+04</pdfrwt>
<pdfrwt beam="2">  1       -1 0.20688458E+00 0.16201382E+04</pdfrwt>
<totfact> 0.59262402E+00</totfact>
</mgrwt>
</event>
<event>
12    1  0.2433511E-007  0.1835469E+04  0.7818608E-02  0.8687662E-01
         -1   -1    0    0    0  501 -0.00000000000E+00  0.00000000000E+00  0.66573430798E+03  0.66573430798E+03  0.00000000000E+00 0.  1.
          1   -1    0    0  501    0  0.00000000000E+00 -0.00000000000E+00 -0.12651242825E+04  0.12651242825E+04  0.00000000000E+00 0. -1.
         23    2    1    2    0    0 -0.43155587244E+03  0.47474495774E+02 -0.79629982504E+03  0.91371818337E+03  0.11087474233E+03 0.  0.
        254    2    1    2    0    0  0.43155587244E+03 -0.47474495774E+02  0.19690985047E+03  0.10171404072E+04  0.89850254305E+03 0.  0.
        -24    2    4    4    0    0  0.14166423846E+03  0.13266935742E+03  0.50755410682E+03  0.54884925359E+03  0.77164868681E+02 0.  0.
         24    2    4    4    0    0  0.28989163398E+03 -0.18014385319E+03 -0.31064425635E+03  0.46829115356E+03  0.79421553781E+02 0.  0.
         13    1    3    3    0    0 -0.28871675935E+03  0.81329837508E+02 -0.56705126457E+03  0.64149750292E+03  0.00000000000E+00 0.  1.
        -13    1    3    3    0    0 -0.14283911308E+03 -0.33855341734E+02 -0.22924856047E+03  0.27222068045E+03  0.00000000000E+00 0. -1.
          4    1    6    6  502    0  0.14512861848E+03 -0.13459774147E+03 -0.19070283092E+03  0.27485712221E+03  0.00000000000E+00 0. -1.
          3    1    5    5  503    0  0.14275089803E+03  0.13500979828E+03  0.44744099073E+03  0.48868077996E+03  0.00000000000E+00 0. -1.
         -4    1    5    5    0  503 -0.10866595667E+01 -0.23404408614E+01  0.60113116093E+02  0.60168473629E+02  0.00000000000E+00 0.  1.
         -3    1    6    6    0  502  0.14476301550E+03 -0.45546111727E+02 -0.11994142544E+03  0.19343403135E+03  0.00000000000E+00 0.  1.
<mgrwt>
<rscale>  0 0.18354690E+04</rscale>
<asrwt>0</asrwt>
<pdfrwt beam="1">  1        1 0.19463451E+00 0.18354690E+04</pdfrwt>
<pdfrwt beam="2">  1       -1 0.10242066E+00 0.18354690E+04</pdfrwt>
<totfact> 0.81322238E+00</totfact>
</mgrwt>
</event>
<event>
12    1  0.2433511E-007  0.2801050E+04  0.7818608E-02  0.8302943E-01
          2   -1    0    0  501    0  0.00000000000E+00  0.00000000000E+00  0.26485719714E+04  0.26485719714E+04  0.00000000000E+00 0. -1.
         -2   -1    0    0    0  501 -0.00000000000E+00 -0.00000000000E+00 -0.74057634504E+03  0.74057634504E+03  0.00000000000E+00 0.  1.
         23    2    1    2    0    0 -0.77466518074E+03 -0.58659892098E+03  0.18099184594E+04  0.20567625004E+04  0.10130506993E+03 0.  0.
        254    2    1    2    0    0  0.77466518074E+03  0.58659892098E+03  0.98077166966E+02  0.13323858160E+04  0.90632687021E+03 0.  0.
        -24    2    4    4    0    0  0.39890046752E+03 -0.21521149400E+02 -0.30347666966E+03  0.50833369570E+03  0.81977523087E+02 0.  0.
         24    2    4    4    0    0  0.37576471321E+03  0.60812007039E+03  0.40155383663E+03  0.82405212030E+03  0.82506203184E+02 0.  0.
         13    1    3    3    0    0 -0.12228429021E+03 -0.13566059823E+03  0.29937756021E+03  0.35069098806E+03  0.00000000000E+00 0.  1.
        -13    1    3    3    0    0 -0.65238089053E+03 -0.45093832275E+03  0.15105408992E+04  0.17060715124E+04  0.00000000000E+00 0. -1.
          2    1    6    6  502    0  0.82405987527E+02  0.82980455323E+02  0.82803919254E+02  0.14329337664E+03  0.00000000000E+00 0. -1.
          1    1    5    5  503    0  0.21507606545E+02  0.45229016936E+00 -0.46480829563E+02  0.51217665142E+02  0.00000000000E+00 0. -1.
         -2    1    5    5    0  503  0.37739286098E+03 -0.21973439569E+02 -0.25699584010E+03  0.45711603056E+03  0.00000000000E+00 0.  1.
         -3    1    6    6    0  502  0.29335872569E+03  0.52513961506E+03  0.31874991737E+03  0.68075874366E+03  0.00000000000E+00 0.  1.
<mgrwt>
<rscale>  0 0.28010496E+04</rscale>
<asrwt>0</asrwt>
<pdfrwt beam="1">  1        2 0.40747261E+00 0.28010496E+04</pdfrwt>
<pdfrwt beam="2">  1       -2 0.11393482E+00 0.28010496E+04</pdfrwt>
<totfact> 0.14947831E+00</totfact>
</mgrwt>
</event>
<event>
12    1  0.2433511E-007  0.2012378E+04  0.7818608E-02  0.8600856E-01
         -1   -1    0    0    0  501 -0.00000000000E+00  0.00000000000E+00  0.20814924412E+04  0.20814924412E+04  0.00000000000E+00 0.  1.
          1   -1    0    0  501    0  0.00000000000E+00 -0.00000000000E+00 -0.48638943056E+03  0.48638943056E+03  0.00000000000E+00 0. -1.
         23    2    1    2    0    0 -0.47472153166E+03  0.45384134744E+03  0.12234374469E+04  0.13916449871E+04  0.92434205684E+02 0.  0.
        254    2    1    2    0    0  0.47472153166E+03 -0.45384134744E+03  0.37166556375E+03  0.11762368847E+04  0.90225573775E+03 0.  0.
        -24    2    4    4    0    0 -0.99841838865E+02  0.22327757093E+02  0.40392822730E+03  0.42487973675E+03  0.83053334488E+02 0.  0.
         24    2    4    4    0    0  0.57456337052E+03 -0.47616910453E+03 -0.32262663546E+02  0.75135714791E+03  0.81465338642E+02 0.  0.
         11    1    3    3    0    0 -0.30513133554E+03  0.32866131524E+03  0.90066424857E+03  0.10061408851E+04  0.00000000000E+00 0.  1.
        -11    1    3    3    0    0 -0.16959019612E+03  0.12518003221E+03  0.32277319831E+03  0.38550410196E+03  0.00000000000E+00 0. -1.
          2    1    6    6  502    0  0.31735101990E+03 -0.24022218537E+03  0.19520763514E+02  0.39849645969E+03  0.00000000000E+00 0. -1.
          3    1    5    5  503    0 -0.83692108418E+02  0.44629154802E+02  0.23006122934E+03  0.24884593570E+03  0.00000000000E+00 0. -1.
         -4    1    5    5    0  503 -0.16149730447E+02 -0.22301397709E+02  0.17386699796E+03  0.17603380105E+03  0.00000000000E+00 0.  1.
         -3    1    6    6    0  502  0.25721235062E+03 -0.23594691916E+03 -0.51783427060E+02  0.35286068822E+03  0.00000000000E+00 0.  1.
<mgrwt>
<rscale>  0 0.20123776E+04</rscale>
<asrwt>0</asrwt>
<pdfrwt beam="1">  1        1 0.74829144E-01 0.20123776E+04</pdfrwt>
<pdfrwt beam="2">  1       -1 0.32022960E+00 0.20123776E+04</pdfrwt>
<totfact> 0.10417386E+00</totfact>
</mgrwt>
</event>
<event>
12    1  0.2433511E-007  0.2168784E+04  0.7818608E-02  0.8531534E-01
         -2   -1    0    0    0  501 -0.00000000000E+00  0.00000000000E+00  0.58709006657E+03  0.58709006657E+03  0.00000000000E+00 0.  1.
          2   -1    0    0  501    0  0.00000000000E+00 -0.00000000000E+00 -0.20029403213E+04  0.20029403213E+04  0.00000000000E+00 0. -1.
         23    2    1    2    0    0 -0.12794307261E+03  0.85476879561E+03 -0.86645738361E+03  0.12272167428E+04  0.91177916746E+02 0.  0.
        254    2    1    2    0    0  0.12794307261E+03 -0.85476879561E+03 -0.54939287116E+03  0.13628136451E+04  0.89912701026E+03 0.  0.
        -24    2    4    4    0    0 -0.34758123418E+03 -0.54896652862E+03 -0.16700654316E+03  0.67562544547E+03  0.80009956906E+02 0.  0.
         24    2    4    4    0    0  0.47552430679E+03 -0.30580226699E+03 -0.38238632800E+03  0.68718819962E+03  0.79811809959E+02 0.  0.
         11    1    3    3    0    0 -0.47297995090E+02  0.56912910446E+03 -0.53930589248E+03  0.78549085516E+03  0.00000000000E+00 0.  1.
        -11    1    3    3    0    0 -0.80645077519E+02  0.28563969114E+03 -0.32715149113E+03  0.44172588767E+03  0.00000000000E+00 0. -1.
          2    1    6    6  502    0  0.39250783166E+02 -0.45070591297E+01 -0.15573501794E+02  0.42467299411E+02  0.00000000000E+00 0. -1.
          1    1    5    5  503    0 -0.13527919038E+03 -0.14576753193E+03 -0.56542708373E+02  0.20675035812E+03  0.00000000000E+00 0. -1.
         -2    1    5    5    0  503 -0.21230204380E+03 -0.40319899669E+03 -0.11046383479E+03  0.46887508734E+03  0.00000000000E+00 0.  1.
         -1    1    6    6    0  502  0.43627352363E+03 -0.30129520786E+03 -0.36681282620E+03  0.64472090021E+03  0.00000000000E+00 0.  1.
<mgrwt>
<rscale>  0 0.21687843E+04</rscale>
<asrwt>0</asrwt>
<pdfrwt beam="1">  1        2 0.30814467E+00 0.21687843E+04</pdfrwt>
<pdfrwt beam="2">  1       -2 0.90321548E-01 0.21687843E+04</pdfrwt>
<totfact> 0.63925687E+00</totfact>
</mgrwt>
</event>
<event>
12    1  0.2433511E-007  0.2012936E+04  0.7818608E-02  0.8600596E-01
         -2   -1    0    0    0  501 -0.00000000000E+00  0.00000000000E+00  0.43234587815E+03  0.43234587815E+03  0.00000000000E+00 0.  1.
          2   -1    0    0  501    0  0.00000000000E+00 -0.00000000000E+00 -0.23429813329E+04  0.23429813329E+04  0.00000000000E+00 0. -1.
         23    2    1    2    0    0 -0.60074144313E+03  0.49464951561E+03 -0.49847056553E+03  0.92860475602E+03  0.90914593989E+02 0.  0.
        254    2    1    2    0    0  0.60074144313E+03 -0.49464951561E+03 -0.14121648892E+04  0.18467224550E+04  0.90033645201E+03 0.  0.
        -24    2    4    4    0    0  0.55065053929E+03 -0.30893772752E+02 -0.28626417384E+03  0.62551754997E+03  0.71795448798E+02 0.  0.
         24    2    4    4    0    0  0.50090903839E+02 -0.46375574286E+03 -0.11259007154E+04  0.12212049051E+04  0.78169761582E+02 0.  0.
         13    1    3    3    0    0 -0.48748034217E+03  0.35279167458E+03 -0.37396457294E+03  0.70848327537E+03  0.00000000000E+00 0. -1.
        -13    1    3    3    0    0 -0.11326110096E+03  0.14185784103E+03 -0.12450599259E+03  0.22012148065E+03  0.00000000000E+00 0.  1.
          2    1    6    6  502    0  0.57584977145E+01 -0.20638006821E+03 -0.40775970310E+03  0.45704908743E+03  0.00000000000E+00 0. -1.
          3    1    5    5  503    0  0.30443848638E+03 -0.40148955878E+02 -0.18932494904E+03  0.36074737279E+03  0.00000000000E+00 0. -1.
         -4    1    5    5    0  503  0.24621205292E+03  0.92551831255E+01 -0.96939224808E+02  0.26477017718E+03  0.00000000000E+00 0.  1.
         -1    1    6    6    0  502  0.44332406124E+02 -0.25737567465E+03 -0.71814101226E+03  0.76415581763E+03  0.00000000000E+00 0.  1.
<mgrwt>
<rscale>  0 0.20129365E+04</rscale>
<asrwt>0</asrwt>
<pdfrwt beam="1">  1        2 0.36045866E+00 0.20129365E+04</pdfrwt>
<pdfrwt beam="2">  1       -2 0.66514752E-01 0.20129365E+04</pdfrwt>
<totfact> 0.82635148E+00</totfact>
</mgrwt>
</event>
<event>
12    1  0.2433511E-007  0.2268401E+04  0.7818608E-02  0.8490486E-01
          1   -1    0    0  501    0  0.00000000000E+00  0.00000000000E+00  0.78749221734E+03  0.78749221734E+03  0.00000000000E+00 0. -1.
         -1   -1    0    0    0  501 -0.00000000000E+00 -0.00000000000E+00 -0.16335530813E+04  0.16335530813E+04  0.00000000000E+00 0.  1.
         23    2    1    2    0    0  0.48081492434E+03  0.78434191088E+03 -0.62344473248E+03  0.11148735578E+04  0.88794655824E+02 0.  0.
        254    2    1    2    0    0 -0.48081492434E+03 -0.78434191088E+03 -0.22261613148E+03  0.13061717408E+04  0.90008413487E+03 0.  0.
        -24    2    4    4    0    0 -0.36284611573E+03 -0.96739449873E+03 -0.95669412063E+02  0.10403951031E+04  0.75894099124E+02 0.  0.
         24    2    4    4    0    0 -0.11796880861E+03  0.18305258785E+03 -0.12694671942E+03  0.26577663770E+03  0.84242874184E+02 0.  0.
         13    1    3    3    0    0  0.10428331915E+03  0.13952896332E+03 -0.82007905896E+02  0.19253217624E+03  0.00000000000E+00 0.  1.
        -13    1    3    3    0    0  0.37653160519E+03  0.64481294755E+03 -0.54143682658E+03  0.92234138161E+03  0.00000000000E+00 0. -1.
          2    1    6    6  502    0 -0.58174638506E+02  0.43679003731E+02 -0.82946833948E+01  0.73218479258E+02  0.00000000000E+00 0. -1.
          1    1    5    5  503    0 -0.44412407265E+02 -0.17374621967E+03 -0.37932223670E+02  0.18330047562E+03  0.00000000000E+00 0. -1.
         -2    1    5    5    0  503 -0.31843370847E+03 -0.79364827906E+03 -0.57737188392E+02  0.85709462748E+03  0.00000000000E+00 0.  1.
         -1    1    6    6    0  502 -0.59794170104E+02  0.13937358412E+03 -0.11865203602E+03  0.19255815844E+03  0.00000000000E+00 0.  1.
<mgrwt>
<rscale>  0 0.22684006E+04</rscale>
<asrwt>0</asrwt>
<pdfrwt beam="1">  1        1 0.12115265E+00 0.22684006E+04</pdfrwt>
<pdfrwt beam="2">  1       -1 0.25131585E+00 0.22684006E+04</pdfrwt>
<totfact> 0.14046906E+00</totfact>
</mgrwt>
</event>
<event>
12    1  0.2433511E-007  0.1720752E+04  0.7818608E-02  0.8749617E-01
         -1   -1    0    0    0  501 -0.00000000000E+00  0.00000000000E+00  0.73386030644E+03  0.73386030644E+03  0.00000000000E+00 0.  1.
          1   -1    0    0  501    0  0.00000000000E+00 -0.00000000000E+00 -0.10087022442E+04  0.10087022442E+04  0.00000000000E+00 0. -1.
         23    2    1    2    0    0  0.17017094987E+03  0.25466239410E+03 -0.64768407739E+03  0.72210641426E+03  0.90177171571E+02 0.  0.
        254    2    1    2    0    0 -0.17017094987E+03 -0.25466239410E+03  0.37284213961E+03  0.10204561364E+04  0.89917093931E+03 0.  0.
        -24    2    4    4    0    0  0.78477546289E+02 -0.17608640902E+03  0.61896009769E+03  0.65322007435E+03  0.80123119550E+02 0.  0.
         24    2    4    4    0    0 -0.24864849616E+03 -0.78575985082E+02 -0.24611795808E+03  0.36723606205E+03  0.79297010724E+02 0.  0.
         11    1    3    3    0    0  0.89762087938E+02  0.15165837590E+03 -0.46680828403E+03  0.49896640112E+03  0.00000000000E+00 0. -1.
        -11    1    3    3    0    0  0.80408861929E+02  0.10300401819E+03 -0.18087579336E+03  0.22314001314E+03  0.00000000000E+00 0.  1.
          4    1    6    6  502    0 -0.26022020302E+02 -0.13031241408E+02 -0.70288518834E+02  0.76075190917E+02  0.00000000000E+00 0. -1.
          1    1    5    5  503    0  0.10049738553E+02 -0.11945747867E+03  0.34718790470E+03  0.36730168476E+03  0.00000000000E+00 0. -1.
         -2    1    5    5    0  503  0.68427807737E+02 -0.56628930349E+02  0.27177219299E+03  0.28591838959E+03  0.00000000000E+00 0.  1.
         -3    1    6    6    0  502 -0.22262647585E+03 -0.65544743675E+02 -0.17582943925E+03  0.29116087113E+03  0.00000000000E+00 0.  1.
<mgrwt>
<rscale>  0 0.17207516E+04</rscale>
<asrwt>0</asrwt>
<pdfrwt beam="1">  1        1 0.15518496E+00 0.17207516E+04</pdfrwt>
<pdfrwt beam="2">  1       -1 0.11290159E+00 0.17207516E+04</pdfrwt>
<totfact> 0.10153013E+01</totfact>
</mgrwt>
</event>
<event>
12    1  0.2433511E-007  0.1272462E+04  0.7818608E-02  0.9051692E-01
          2   -1    0    0  501    0  0.00000000000E+00  0.00000000000E+00  0.54525872345E+03  0.54525872345E+03  0.00000000000E+00 0. -1.
         -2   -1    0    0    0  501 -0.00000000000E+00 -0.00000000000E+00 -0.74238187135E+03  0.74238187135E+03  0.00000000000E+00 0.  1.
         23    2    1    2    0    0  0.18208544763E+03  0.22758753250E+03  0.51521340468E+02  0.30923035963E+03  0.89542010294E+02 0.  0.
        254    2    1    2    0    0 -0.18208544763E+03 -0.22758753250E+03 -0.24864448837E+03  0.97841023517E+03  0.90028401713E+03 0.  0.
        -24    2    4    4    0    0  0.22473705892E+03  0.10133878509E+03  0.16432007250E+03  0.30708262887E+03  0.80761127487E+02 0.  0.
         24    2    4    4    0    0 -0.40682250655E+03 -0.32892631759E+03 -0.41296456087E+03  0.67132760630E+03  0.80274231231E+02 0.  0.
         13    1    3    3    0    0  0.16406208818E+03  0.14173918899E+03  0.29674150119E+02  0.21883080601E+03  0.00000000000E+00 0. -1.
        -13    1    3    3    0    0  0.18023359449E+02  0.85848343508E+02  0.21847190349E+02  0.90399553622E+02  0.00000000000E+00 0.  1.
          2    1    6    6  502    0 -0.45868737535E+02 -0.24504203757E+02 -0.15892203614E+02  0.54377929535E+02  0.00000000000E+00 0. -1.
          3    1    5    5  503    0  0.61419626923E+02  0.50857301409E+02  0.17260967406E+02  0.81589072024E+02  0.00000000000E+00 0. -1.
         -4    1    5    5    0  503  0.16331743199E+03  0.50481483685E+02  0.14705910510E+03  0.22549355685E+03  0.00000000000E+00 0.  1.
         -1    1    6    6    0  502 -0.36095376901E+03 -0.30442211384E+03 -0.39707235726E+03  0.61694967676E+03  0.00000000000E+00 0.  1.
<mgrwt>
<rscale>  0 0.12724625E+04</rscale>
<asrwt>0</asrwt>
<pdfrwt beam="1">  1        2 0.83885957E-01 0.12724625E+04</pdfrwt>
<pdfrwt beam="2">  1       -2 0.11421260E+00 0.12724625E+04</pdfrwt>
<totfact> 0.32747882E+01</totfact>
</mgrwt>
</event>
<event>
12    1  0.2433511E-007  0.4863010E+04  0.7818608E-02  0.7849994E-01
          2   -1    0    0  501    0  0.00000000000E+00  0.00000000000E+00  0.19900015868E+04  0.19900015868E+04  0.00000000000E+00 0.  1.
         -2   -1    0    0    0  501 -0.00000000000E+00 -0.00000000000E+00 -0.29709611293E+04  0.29709611293E+04  0.00000000000E+00 0. -1.
         23    2    1    2    0    0 -0.78697898556E+03 -0.21413001306E+04  0.93912078561E+02  0.22851458776E+04  0.92574458812E+02 0.  0.
        254    2    1    2    0    0  0.78697898556E+03  0.21413001306E+04 -0.10748716211E+04  0.26758168386E+04  0.89450800942E+03 0.  0.
        -24    2    4    4    0    0  0.53953428470E+03  0.51348813430E+03 -0.60190843318E+03  0.96093252083E+03  0.79562800425E+02 0.  0.
         24    2    4    4    0    0  0.24744470086E+03  0.16278119963E+04 -0.47296318788E+03  0.17148843177E+04  0.78315202699E+02 0.  0.
         13    1    3    3    0    0 -0.30448590957E+03 -0.95728194164E+03  0.29590483165E+02  0.10049756124E+04  0.00000000000E+00 0. -1.
        -13    1    3    3    0    0 -0.48249307600E+03 -0.11840181889E+04  0.64321595396E+02  0.12801702651E+04  0.00000000000E+00 0.  1.
          2    1    6    6  502    0  0.45014556479E+02  0.47503179996E+03 -0.11292184428E+03  0.49033953969E+03  0.00000000000E+00 0. -1.
          1    1    5    5  503    0  0.10007148578E+03  0.13768695656E+03 -0.12077700410E+03  0.20870813350E+03  0.00000000000E+00 0. -1.
         -2    1    5    5    0  503  0.43946279893E+03  0.37580117774E+03 -0.48113142908E+03  0.75222438732E+03  0.00000000000E+00 0.  1.
         -1    1    6    6    0  502  0.20243014438E+03  0.11527801963E+04 -0.36004134360E+03  0.12245447780E+04  0.00000000000E+00 0.  1.
<mgrwt>
<rscale>  0 0.48630103E+04</rscale>
<asrwt>0</asrwt>
<pdfrwt beam="1">  1        2 0.30615409E+00 0.48630103E+04</pdfrwt>
<pdfrwt beam="2">  1       -2 0.45707094E+00 0.48630103E+04</pdfrwt>
<totfact> 0.15568115E-02</totfact>
</mgrwt>
</event>
<event>
12    1  0.2433511E-007  0.1285942E+04  0.7818608E-02  0.9040788E-01
          2   -1    0    0  501    0  0.00000000000E+00  0.00000000000E+00  0.75660354017E+03  0.75660354017E+03  0.00000000000E+00 0. -1.
         -2   -1    0    0    0  501 -0.00000000000E+00 -0.00000000000E+00 -0.54640430196E+03  0.54640430196E+03  0.00000000000E+00 0.  1.
         23    2    1    2    0    0 -0.12186018112E+03  0.20313361233E+03 -0.16191642668E+03  0.29964169934E+03  0.86342634616E+02 0.  0.
        254    2    1    2    0    0  0.12186018112E+03 -0.20313361233E+03  0.37211566488E+03  0.10033661428E+04  0.90119941203E+03 0.  0.
        -24    2    4    4    0    0  0.42871014524E+03  0.13025899856E+03  0.27931570662E+03  0.53411185483E+03  0.80612741956E+02 0.  0.
         24    2    4    4    0    0 -0.30684996412E+03 -0.33339261089E+03  0.92799958266E+02  0.46925428797E+03  0.79247845693E+02 0.  0.
         13    1    3    3    0    0 -0.10759818620E+02  0.54497220347E+01  0.95202963666E+01  0.15365845564E+02  0.00000000000E+00 0. -1.
        -13    1    3    3    0    0 -0.11110036250E+03  0.19768389029E+03 -0.17143672305E+03  0.28427585377E+03  0.00000000000E+00 0.  1.
          2    1    6    6  502    0 -0.16118075254E+03 -0.22528155700E+03  0.75008621253E+02  0.28697963025E+03  0.00000000000E+00 0. -1.
          3    1    5    5  503    0  0.20111315459E+03  0.10004849604E+03  0.15616271034E+03  0.27357447726E+03  0.00000000000E+00 0. -1.
         -4    1    5    5    0  503  0.22759699065E+03  0.30210502522E+02  0.12315299627E+03  0.26053737757E+03  0.00000000000E+00 0.  1.
         -1    1    6    6    0  502 -0.14566921158E+03 -0.10811105389E+03  0.17791337013E+02  0.18227465772E+03  0.00000000000E+00 0.  1.
<mgrwt>
<rscale>  0 0.12859416E+04</rscale>
<asrwt>0</asrwt>
<pdfrwt beam="1">  1        2 0.11640055E+00 0.12859416E+04</pdfrwt>
<pdfrwt beam="2">  1       -2 0.84062200E-01 0.12859416E+04</pdfrwt>
<totfact> 0.44968085E+01</totfact>
</mgrwt>
</event>
<event>
12    1  0.2433511E-007  0.1795347E+04  0.7818608E-02  0.8708778E-01
          2   -1    0    0  501    0  0.00000000000E+00  0.00000000000E+00  0.14034803958E+04  0.14034803958E+04  0.00000000000E+00 0. -1.
         -2   -1    0    0    0  501 -0.00000000000E+00 -0.00000000000E+00 -0.57415701922E+03  0.57415701922E+03  0.00000000000E+00 0.  1.
         23    2    1    2    0    0  0.42357133314E+03  0.49917063847E+03  0.17776296734E+03  0.68707259788E+03  0.10901872146E+03 0.  0.
        254    2    1    2    0    0 -0.42357133314E+03 -0.49917063847E+03  0.65156040920E+03  0.12905648171E+04  0.90135596727E+03 0.  0.
        -24    2    4    4    0    0 -0.12753562436E+03 -0.65955647474E+03  0.65943815556E+03  0.94456869982E+03  0.77918347052E+02 0.  0.
         24    2    4    4    0    0 -0.29603570878E+03  0.16038583628E+03 -0.78777463634E+01  0.34599611728E+03  0.79312653059E+02 0.  0.
         11    1    3    3    0    0  0.35454684667E+03  0.45542668292E+03  0.12731981519E+03  0.59103914027E+03  0.00000000000E+00 0.  1.
        -11    1    3    3    0    0  0.69024486473E+02  0.43743955550E+02  0.50443152156E+02  0.96033457604E+02  0.00000000000E+00 0. -1.
          4    1    6    6  502    0 -0.44781226221E+02 -0.56454012273E+00  0.13694940753E+02  0.46831915716E+02  0.00000000000E+00 0. -1.
          1    1    5    5  503    0 -0.32534056596E+02 -0.25429986850E+03  0.20450480599E+03  0.32794680000E+03  0.00000000000E+00 0. -1.
         -2    1    5    5    0  503 -0.95001567761E+02 -0.40525660624E+03  0.45493334957E+03  0.61662189981E+03  0.00000000000E+00 0.  1.
         -3    1    6    6    0  502 -0.25125448256E+03  0.16095037640E+03 -0.21572687116E+02  0.29916420157E+03  0.00000000000E+00 0.  1.
<mgrwt>
<rscale>  0 0.17953475E+04</rscale>
<asrwt>0</asrwt>
<pdfrwt beam="1">  1        2 0.21592006E+00 0.17953475E+04</pdfrwt>
<pdfrwt beam="2">  1       -2 0.88331850E-01 0.17953475E+04</pdfrwt>
<totfact> 0.15011127E+01</totfact>
</mgrwt>
</event>
<event>
12    1  0.2433511E-007  0.2386330E+04  0.7818608E-02  0.8444639E-01
         -2   -1    0    0    0  501 -0.00000000000E+00  0.00000000000E+00  0.50615862982E+03  0.50615862982E+03  0.00000000000E+00 0.  1.
          2   -1    0    0  501    0  0.00000000000E+00 -0.00000000000E+00 -0.28126402639E+04  0.28126402639E+04  0.00000000000E+00 0. -1.
         23    2    1    2    0    0 -0.91467250083E+02  0.59923543687E+03  0.15185431448E+03  0.63159063423E+03  0.91638582388E+02 0.  0.
        254    2    1    2    0    0  0.91467250083E+02 -0.59923543687E+03 -0.24583359486E+04  0.26872082595E+04  0.90012400661E+03 0.  0.
        -24    2    4    4    0    0  0.50575963342E+02 -0.49212891855E+03 -0.24931626177E+04  0.25430137443E+04  0.79437175648E+02 0.  0.
         24    2    4    4    0    0  0.40891286741E+02 -0.10710651832E+03  0.34826669161E+02  0.14419451517E+03  0.80220058103E+02 0.  0.
         11    1    3    3    0    0 -0.80280277157E+02  0.49400507141E+03  0.16004051871E+03  0.52545114055E+03  0.00000000000E+00 0.  1.
        -11    1    3    3    0    0 -0.11186972926E+02  0.10523036546E+03 -0.81862042333E+01  0.10613949368E+03  0.00000000000E+00 0. -1.
          2    1    6    6  502    0  0.25658027414E+02 -0.11622061467E+03  0.19226244569E+02  0.12056207582E+03  0.00000000000E+00 0. -1.
          1    1    5    5  503    0  0.32246474582E+02 -0.39592358399E+03 -0.21383205409E+04  0.21749046083E+04  0.00000000000E+00 0. -1.
         -2    1    5    5    0  503  0.18329488761E+02 -0.96205334564E+02 -0.35484207684E+03  0.36810913606E+03  0.00000000000E+00 0.  1.
         -1    1    6    6    0  502  0.15233259326E+02  0.91140963545E+01  0.15600424592E+02  0.23632439348E+02  0.00000000000E+00 0.  1.
<mgrwt>
<rscale>  0 0.23863295E+04</rscale>
<asrwt>0</asrwt>
<pdfrwt beam="1">  1        2 0.43271388E+00 0.23863295E+04</pdfrwt>
<pdfrwt beam="2">  1       -2 0.77870559E-01 0.23863295E+04</pdfrwt>
<totfact> 0.30042719E+00</totfact>
</mgrwt>
</event>
<event>
12    1  0.2433511E-007  0.1608134E+04  0.7818608E-02  0.8815566E-01
         -2   -1    0    0    0  501 -0.00000000000E+00  0.00000000000E+00  0.36160543470E+03  0.36160543470E+03  0.00000000000E+00 0.  1.
          2   -1    0    0  501    0  0.00000000000E+00 -0.00000000000E+00 -0.17879263584E+04  0.17879263584E+04  0.00000000000E+00 0. -1.
         23    2    1    2    0    0  0.41532342981E+03  0.51272457440E+02 -0.96975964787E+03  0.10603008492E+04  0.93175639924E+02 0.  0.
        254    2    1    2    0    0 -0.41532342981E+03 -0.51272457440E+02 -0.45656127580E+03  0.10892309439E+04  0.89602088945E+03 0.  0.
        -24    2    4    4    0    0 -0.13950763327E+03 -0.46057007461E+03 -0.25055696665E+03  0.54840168535E+03  0.79865146276E+02 0.  0.
         24    2    4    4    0    0 -0.27581579654E+03  0.40929761717E+03 -0.20600430915E+03  0.54082925855E+03  0.80371751684E+02 0.  0.
         13    1    3    3    0    0  0.38303065941E+03  0.31063715500E+02 -0.81704345664E+03  0.90290500636E+03  0.00000000000E+00 0.  1.
        -13    1    3    3    0    0  0.32292770401E+02  0.20208741939E+02 -0.15271619124E+03  0.15739584282E+03  0.00000000000E+00 0. -1.
          4    1    6    6  502    0 -0.14262508430E+03  0.18071078473E+03 -0.13512231821E+03  0.26693883807E+03  0.00000000000E+00 0. -1.
          1    1    5    5  503    0 -0.29862840802E+02 -0.37838876390E+02 -0.80573230602E+01  0.48872183112E+02  0.00000000000E+00 0. -1.
         -2    1    5    5    0  503 -0.10964479247E+03 -0.42273119822E+03 -0.24249964359E+03  0.49952950224E+03  0.00000000000E+00 0.  1.
         -3    1    6    6    0  502 -0.13319071225E+03  0.22858683244E+03 -0.70881990944E+02  0.27389042048E+03  0.00000000000E+00 0.  1.
<mgrwt>
<rscale>  0 0.16081342E+04</rscale>
<asrwt>0</asrwt>
<pdfrwt beam="1">  1        2 0.27506560E+00 0.16081342E+04</pdfrwt>
<pdfrwt beam="2">  1       -2 0.55631605E-01 0.16081342E+04</pdfrwt>
<totfact> 0.25493189E+01</totfact>
</mgrwt>
</event>
<event>
12    1  0.2433511E-007  0.1702129E+04  0.7818608E-02  0.8760151E-01
          2   -1    0    0  501    0  0.00000000000E+00  0.00000000000E+00  0.16137525511E+04  0.16137525511E+04  0.00000000000E+00 0. -1.
         -2   -1    0    0    0  501 -0.00000000000E+00 -0.00000000000E+00 -0.44883653756E+03  0.44883653756E+03  0.00000000000E+00 0.  1.
         23    2    1    2    0    0 -0.29009187532E+03  0.32775258431E+03 -0.90829417649E+02  0.45606939579E+03  0.90411603339E+02 0.  0.
        254    2    1    2    0    0  0.29009187532E+03 -0.32775258431E+03  0.12557454312E+04  0.16065196929E+04  0.90135114299E+03 0.  0.
        -24    2    4    4    0    0  0.43910197139E+03  0.16014252622E+03  0.47520402329E+03  0.67077324685E+03  0.75244368319E+02 0.  0.
         24    2    4    4    0    0 -0.14901009607E+03 -0.48789511053E+03  0.78054140789E+03  0.93574644600E+03  0.78299898920E+02 0.  0.
         11    1    3    3    0    0 -0.46513406705E+02  0.30473379577E+02  0.14705059645E+02  0.57518367895E+02  0.00000000000E+00 0. -1.
        -11    1    3    3    0    0 -0.24357846861E+03  0.29727920473E+03 -0.10553447729E+03  0.39855102789E+03  0.00000000000E+00 0.  1.
          2    1    6    6  502    0 -0.56462701932E+01 -0.54673048811E+02  0.12974013312E+03  0.14090253644E+03  0.00000000000E+00 0. -1.
          3    1    5    5  503    0  0.87432984307E+02  0.59429847833E+02  0.13257628267E+03  0.16956681363E+03  0.00000000000E+00 0. -1.
         -4    1    5    5    0  503  0.35166898708E+03  0.10071267838E+03  0.34262774062E+03  0.50120643322E+03  0.00000000000E+00 0.  1.
         -1    1    6    6    0  502 -0.14336382588E+03 -0.43322206172E+03  0.65080127477E+03  0.79484390956E+03  0.00000000000E+00 0.  1.
<mgrwt>
<rscale>  0 0.17021294E+04</rscale>
<asrwt>0</asrwt>
<pdfrwt beam="1">  1        2 0.24826962E+00 0.17021294E+04</pdfrwt>
<pdfrwt beam="2">  1       -2 0.69051776E-01 0.17021294E+04</pdfrwt>
<totfact> 0.19960114E+01</totfact>
</mgrwt>
</event>
<event>
12    1  0.2433511E-007  0.3489216E+04  0.7818608E-02  0.8116350E-01
         -1   -1    0    0    0  501 -0.00000000000E+00  0.00000000000E+00  0.22476324060E+04  0.22476324060E+04  0.00000000000E+00 0.  1.
          1   -1    0    0  501    0  0.00000000000E+00 -0.00000000000E+00 -0.13541615672E+04  0.13541615672E+04  0.00000000000E+00 0. -1.
         23    2    1    2    0    0  0.49976346371E+03  0.94487956639E+03  0.16838823430E+04  0.19965767105E+04  0.91092816466E+02 0.  0.
        254    2    1    2    0    0 -0.49976346371E+03 -0.94487956639E+03 -0.79041150422E+03  0.16052172628E+04  0.89967282942E+03 0.  0.
        -24    2    4    4    0    0 -0.29479694284E+03 -0.44055692292E+03  0.11299558534E+03  0.54739965064E+03  0.76698992027E+02 0.  0.
         24    2    4    4    0    0 -0.20496652088E+03 -0.50432264347E+03 -0.90340708956E+03  0.10578176121E+04  0.80505450953E+02 0.  0.
         11    1    3    3    0    0  0.31026800263E+03  0.58629969414E+03  0.96122543387E+03  0.11678903628E+04  0.00000000000E+00 0. -1.
        -11    1    3    3    0    0  0.18949546109E+03  0.35857987225E+03  0.72265690914E+03  0.82868634771E+03  0.00000000000E+00 0.  1.
          4    1    6    6  502    0 -0.12209666182E+03 -0.24841437904E+03 -0.52565380899E+03  0.59407846742E+03  0.00000000000E+00 0. -1.
          3    1    5    5  503    0 -0.20504885978E+03 -0.26753496051E+03  0.40759610458E+02  0.33953105283E+03  0.00000000000E+00 0. -1.
         -4    1    5    5    0  503 -0.89748083058E+02 -0.17302196241E+03  0.72235974882E+02  0.20786859781E+03  0.00000000000E+00 0.  1.
         -3    1    6    6    0  502 -0.82869859058E+02 -0.25590826443E+03 -0.37775328057E+03  0.46373914469E+03  0.00000000000E+00 0.  1.
<mgrwt>
<rscale>  0 0.34892162E+04</rscale>
<asrwt>0</asrwt>
<pdfrwt beam="1">  1        1 0.20833255E+00 0.34892162E+04</pdfrwt>
<pdfrwt beam="2">  1       -1 0.34578960E+00 0.34892162E+04</pdfrwt>
<totfact> 0.11193573E-01</totfact>
</mgrwt>
</event>
<event>
12    1  0.2433511E-007  0.1615585E+04  0.7818608E-02  0.8811031E-01
          2   -1    0    0  501    0  0.00000000000E+00  0.00000000000E+00  0.17950360014E+04  0.17950360014E+04  0.00000000000E+00 0. -1.
         -2   -1    0    0    0  501 -0.00000000000E+00 -0.00000000000E+00 -0.36351824015E+03  0.36351824015E+03  0.00000000000E+00 0.  1.
         23    2    1    2    0    0  0.35460970986E+02 -0.50366605994E+03  0.21147524922E+03  0.55863433192E+03  0.11141613605E+03 0.  0.
        254    2    1    2    0    0 -0.35460970986E+02  0.50366605994E+03  0.12200425120E+04  0.15999199096E+04  0.90349488413E+03 0.  0.
        -24    2    4    4    0    0  0.28364500387E+03 -0.10235752620E+03  0.58293118813E+03  0.66103909595E+03  0.78945328535E+02 0.  0.
         24    2    4    4    0    0 -0.31910597485E+03  0.60602358614E+03  0.63711132392E+03  0.93888081368E+03  0.80579979438E+02 0.  0.
         13    1    3    3    0    0  0.53085819008E+02 -0.48548091813E+03  0.18566842869E+03  0.52247735976E+03  0.00000000000E+00 0.  1.
        -13    1    3    3    0    0 -0.17624848022E+02 -0.18185141811E+02  0.25806820525E+02  0.36156972164E+02  0.00000000000E+00 0. -1.
          2    1    6    6  502    0 -0.19048041218E+03  0.39145105654E+03  0.35421554985E+03  0.56123557696E+03  0.00000000000E+00 0. -1.
          1    1    5    5  503    0  0.13016651892E+03 -0.29721111524E+02  0.33412965903E+03  0.35981842110E+03  0.00000000000E+00 0. -1.
         -2    1    5    5    0  503  0.15347848494E+03 -0.72636414677E+02  0.24880152909E+03  0.30122067485E+03  0.00000000000E+00 0.  1.
         -1    1    6    6    0  502 -0.12862556267E+03  0.21457252960E+03  0.28289577407E+03  0.37764523672E+03  0.00000000000E+00 0.  1.
<mgrwt>
<rscale>  0 0.16155845E+04</rscale>
<asrwt>0</asrwt>
<pdfrwt beam="1">  1        2 0.27615938E+00 0.16155845E+04</pdfrwt>
<pdfrwt beam="2">  1       -2 0.55925884E-01 0.16155845E+04</pdfrwt>
<totfact> 0.24971644E+01</totfact>
</mgrwt>
</event>
<event>
12    1  0.2433511E-007  0.1989837E+04  0.7818608E-02  0.8611387E-01
          1   -1    0    0  501    0  0.00000000000E+00  0.00000000000E+00  0.10710392096E+04  0.10710392096E+04  0.00000000000E+00 0. -1.
         -1   -1    0    0    0  501 -0.00000000000E+00 -0.00000000000E+00 -0.92420794934E+03  0.92420794934E+03  0.00000000000E+00 0.  1.
         23    2    1    2    0    0 -0.60691768735E+03 -0.77961200987E+02  0.55681826654E+03  0.83221486202E+03  0.90044247617E+02 0.  0.
        254    2    1    2    0    0  0.60691768735E+03  0.77961200987E+02 -0.40998700629E+03  0.11630322969E+04  0.90007096958E+03 0.  0.
        -24    2    4    4    0    0 -0.21396895600E+03 -0.47635262084E+02 -0.18815523363E+03  0.29979108518E+03  0.80127838357E+02 0.  0.
         24    2    4    4    0    0  0.82088664335E+03  0.12559646307E+03 -0.22183177266E+03  0.86324121175E+03  0.79666188160E+02 0.  0.
         13    1    3    3    0    0 -0.20714837341E+03 -0.34497209284E+02  0.13620689005E+03  0.25030545929E+03  0.00000000000E+00 0.  1.
        -13    1    3    3    0    0 -0.39976931393E+03 -0.43463991703E+02  0.42061137650E+03  0.58190940272E+03  0.00000000000E+00 0. -1.
          4    1    6    6  502    0  0.36156932080E+03  0.27647341520E+02 -0.12620987407E+03  0.38396052082E+03  0.00000000000E+00 0. -1.
          1    1    5    5  503    0 -0.97145575982E+02  0.18027946677E+02 -0.90327352551E+02  0.13387046132E+03  0.00000000000E+00 0. -1.
         -2    1    5    5    0  503 -0.11682338002E+03 -0.65663208762E+02 -0.97827881082E+02  0.16592062386E+03  0.00000000000E+00 0.  1.
         -3    1    6    6    0  502  0.45931732255E+03  0.97949121552E+02 -0.95621898593E+02  0.47928069093E+03  0.00000000000E+00 0.  1.
<mgrwt>
<rscale>  0 0.19898371E+04</rscale>
<asrwt>0</asrwt>
<pdfrwt beam="1">  1        1 0.16477526E+00 0.19898371E+04</pdfrwt>
<pdfrwt beam="2">  1       -1 0.14218584E+00 0.19898371E+04</pdfrwt>
<totfact> 0.49834124E+00</totfact>
</mgrwt>
</event>
<event>
12    1  0.2433511E-007  0.2308354E+04  0.7818608E-02  0.8474634E-01
         -2   -1    0    0    0  501 -0.00000000000E+00  0.00000000000E+00  0.36504094876E+03  0.36504094876E+03  0.00000000000E+00 0.  1.
          2   -1    0    0  501    0  0.00000000000E+00 -0.00000000000E+00 -0.36492480845E+04  0.36492480845E+04  0.00000000000E+00 0. -1.
         23    2    1    2    0    0  0.43022685354E+03  0.78734364818E+03 -0.72698398547E+03  0.11589112889E+04  0.97798233619E+02 0.  0.
        254    2    1    2    0    0 -0.43022685354E+03 -0.78734364818E+03 -0.25572231502E+04  0.28553777444E+04  0.89932566798E+03 0.  0.
        -24    2    4    4    0    0 -0.14655053766E+03  0.11443711852E+03 -0.10869446225E+04  0.11056127704E+04  0.79737515728E+02 0.  0.
         24    2    4    4    0    0 -0.28367631587E+03 -0.90178076670E+03 -0.14702785277E+04  0.17497649740E+04  0.79232012195E+02 0.  0.
         11    1    3    3    0    0  0.25146607265E+03  0.49717170106E+03 -0.39363242482E+03  0.68217400412E+03  0.00000000000E+00 0.  1.
        -11    1    3    3    0    0  0.17876078088E+03  0.29017194712E+03 -0.33335156065E+03  0.47673728475E+03  0.00000000000E+00 0. -1.
          4    1    6    6  502    0 -0.21109342951E+03 -0.59128394137E+03 -0.10271964631E+04  0.12038727960E+04  0.00000000000E+00 0. -1.
          3    1    5    5  503    0 -0.18890306597E+02  0.31726136632E+02 -0.92428675061E+02  0.99531157947E+02  0.00000000000E+00 0. -1.
         -4    1    5    5    0  503 -0.12766023106E+03  0.82710981888E+02 -0.99451594745E+03  0.10060816124E+04  0.00000000000E+00 0.  1.
         -1    1    6    6    0  502 -0.72582886366E+02 -0.31049682534E+03 -0.44308206465E+03  0.54589217795E+03  0.00000000000E+00 0.  1.
<mgrwt>
<rscale>  0 0.23083544E+04</rscale>
<asrwt>0</asrwt>
<pdfrwt beam="1">  1        2 0.56142280E+00 0.23083544E+04</pdfrwt>
<pdfrwt beam="2">  1       -2 0.56160144E-01 0.23083544E+04</pdfrwt>
<totfact> 0.17209066E+00</totfact>
</mgrwt>
</event>
<event>
12    1  0.2433511E-007  0.1413465E+04  0.7818608E-02  0.8944129E-01
          2   -1    0    0  501    0  0.00000000000E+00  0.00000000000E+00  0.15092823844E+04  0.15092823844E+04  0.00000000000E+00 0. -1.
         -2   -1    0    0    0  501 -0.00000000000E+00 -0.00000000000E+00 -0.33093284849E+03  0.33093284849E+03  0.00000000000E+00 0.  1.
         23    2    1    2    0    0  0.35376367716E+03 -0.18777318805E+03  0.22058881209E+03  0.46609617856E+03  0.90436243952E+02 0.  0.
        254    2    1    2    0    0 -0.35376367716E+03  0.18777318805E+03  0.95776072385E+03  0.13741190544E+04  0.90027221549E+03 0.  0.
        -24    2    4    4    0    0 -0.41509505918E+03  0.30328381578E+03  0.13497684355E+03  0.53721488944E+03  0.78077577303E+02 0.  0.
         24    2    4    4    0    0  0.61331382014E+02 -0.11551062772E+03  0.82278388030E+03  0.83690416492E+03  0.79567732395E+02 0.  0.
         13    1    3    3    0    0  0.19187868159E+03 -0.65809430911E+02  0.14679553793E+03  0.25039416847E+03  0.00000000000E+00 0. -1.
        -13    1    3    3    0    0  0.16188499558E+03 -0.12196375714E+03  0.73793274151E+02  0.21570201010E+03  0.00000000000E+00 0.  1.
          2    1    6    6  502    0  0.36326511985E+02 -0.86734058345E+02  0.73771213545E+03  0.74368111926E+03  0.00000000000E+00 0. -1.
          1    1    5    5  503    0 -0.27531169055E+03  0.20294495112E+03  0.51210009604E+02  0.34584049102E+03  0.00000000000E+00 0. -1.
         -2    1    5    5    0  503 -0.13978336863E+03  0.10033886465E+03  0.83766833946E+02  0.19137439843E+03  0.00000000000E+00 0.  1.
         -1    1    6    6    0  502  0.25004870029E+02 -0.28776569378E+02  0.85071744848E+02  0.93223045659E+02  0.00000000000E+00 0.  1.
<mgrwt>
<rscale>  0 0.14134654E+04</rscale>
<asrwt>0</asrwt>
<pdfrwt beam="1">  1        2 0.23219729E+00 0.14134654E+04</pdfrwt>
<pdfrwt beam="2">  1       -2 0.50912747E-01 0.14134654E+04</pdfrwt>
<totfact> 0.44461354E+01</totfact>
</mgrwt>
</event>
<event>
12    1  0.2433511E-007  0.3430229E+04  0.7818608E-02  0.8130527E-01
          2   -1    0    0  501    0  0.00000000000E+00  0.00000000000E+00  0.30480085273E+04  0.30480085273E+04  0.00000000000E+00 0. -1.
         -2   -1    0    0    0  501 -0.00000000000E+00 -0.00000000000E+00 -0.96509501256E+03  0.96509501256E+03  0.00000000000E+00 0.  1.
         23    2    1    2    0    0  0.83702027589E+03  0.90639523202E+03 -0.21355505927E+03  0.12553541687E+04  0.90294334094E+02 0.  0.
        254    2    1    2    0    0 -0.83702027589E+03 -0.90639523202E+03  0.22964685740E+04  0.27577493711E+04  0.89958791877E+03 0.  0.
        -24    2    4    4    0    0 -0.81545271555E+03 -0.27619431611E+03  0.10655268465E+04  0.13723324674E+04  0.81868852838E+02 0.  0.
         24    2    4    4    0    0 -0.21567560342E+02 -0.63020091591E+03  0.12309417275E+04  0.13854169037E+04  0.80895650972E+02 0.  0.
         11    1    3    3    0    0  0.39926312798E+03  0.49881442912E+03 -0.10850936283E+03  0.64807496625E+03  0.00000000000E+00 0. -1.
        -11    1    3    3    0    0  0.43775714792E+03  0.40758080290E+03 -0.10504569644E+03  0.60727920250E+03  0.00000000000E+00 0.  1.
          4    1    6    6  502    0 -0.58456192688E+01 -0.71627855812E+02  0.91655447626E+02  0.11647077776E+03  0.00000000000E+00 0. -1.
          1    1    5    5  503    0 -0.96973697374E+02 -0.29196790543E+02  0.87168507954E+02  0.13362147784E+03  0.00000000000E+00 0. -1.
         -2    1    5    5    0  503 -0.71847901818E+03 -0.24699752556E+03  0.97835833851E+03  0.12387109896E+04  0.00000000000E+00 0.  1.
         -3    1    6    6    0  502 -0.15721941074E+02 -0.55857306010E+03  0.11392862799E+04  0.12689461259E+04  0.00000000000E+00 0.  1.
<mgrwt>
<rscale>  0 0.34302290E+04</rscale>
<asrwt>0</asrwt>
<pdfrwt beam="1">  1        2 0.46892438E+00 0.34302290E+04</pdfrwt>
<pdfrwt beam="2">  1       -2 0.14847616E+00 0.34302290E+04</pdfrwt>
<totfact> 0.41280415E-01</totfact>
</mgrwt>
</event>
<event>
12    1  0.2433511E-007  0.1720080E+04  0.7818608E-02  0.8749994E-01
          2   -1    0    0  501    0  0.00000000000E+00  0.00000000000E+00  0.10438213070E+04  0.10438213070E+04  0.00000000000E+00 0. -1.
         -2   -1    0    0    0  501 -0.00000000000E+00 -0.00000000000E+00 -0.70861643311E+03  0.70861643311E+03  0.00000000000E+00 0.  1.
         23    2    1    2    0    0  0.51077742829E+03  0.31350055373E+03  0.30322732646E+03  0.67756233519E+03  0.89262131474E+02 0.  0.
        254    2    1    2    0    0 -0.51077742829E+03 -0.31350055373E+03  0.31977547410E+02  0.10748754049E+04  0.89171654358E+03 0.  0.
        -24    2    4    4    0    0 -0.34981162789E+03 -0.61416987416E+03  0.98755848251E+02  0.71823227601E+03  0.80821255913E+02 0.  0.
         24    2    4    4    0    0 -0.16096580040E+03  0.30066932043E+03 -0.66778300841E+02  0.35664312890E+03  0.80143314004E+02 0.  0.
         11    1    3    3    0    0  0.18633427675E+03  0.10878445836E+03  0.15772098456E+03  0.26726471904E+03  0.00000000000E+00 0. -1.
        -11    1    3    3    0    0  0.32444315154E+03  0.20471609537E+03  0.14550634190E+03  0.41029761615E+03  0.00000000000E+00 0.  1.
          2    1    6    6  502    0  0.86391731854E+01  0.71091133195E+01 -0.37591387569E+01  0.11802793301E+02  0.00000000000E+00 0. -1.
          1    1    5    5  503    0 -0.18328618652E+03 -0.24369676843E+03  0.52718184685E+02  0.30945298206E+03  0.00000000000E+00 0. -1.
         -2    1    5    5    0  503 -0.16652544137E+03 -0.37047310573E+03  0.46037663566E+02  0.40877929395E+03  0.00000000000E+00 0.  1.
         -1    1    6    6    0  502 -0.16960497359E+03  0.29356020711E+03 -0.63019162084E+02  0.34484033560E+03  0.00000000000E+00 0.  1.
<mgrwt>
<rscale>  0 0.17200802E+04</rscale>
<asrwt>0</asrwt>
<pdfrwt beam="1">  1        2 0.16058789E+00 0.17200802E+04</pdfrwt>
<pdfrwt beam="2">  1       -2 0.10901791E+00 0.17200802E+04</pdfrwt>
<totfact> 0.15069273E+01</totfact>
</mgrwt>
</event>
<event>
12    1  0.2433511E-007  0.3754504E+04  0.7818608E-02  0.8055989E-01
          2   -1    0    0  501    0  0.00000000000E+00  0.00000000000E+00  0.18949928857E+04  0.18949928857E+04  0.00000000000E+00 0. -1.
         -2   -1    0    0    0  501 -0.00000000000E+00 -0.00000000000E+00 -0.18596768725E+04  0.18596768725E+04  0.00000000000E+00 0.  1.
         23    2    1    2    0    0 -0.17234428630E+04  0.30121576391E+03  0.26972269864E+03  0.17726590227E+04  0.92646845471E+02 0.  0.
        254    2    1    2    0    0  0.17234428630E+04 -0.30121576391E+03 -0.23440668545E+03  0.19820107356E+04  0.90135110996E+03 0.  0.
        -24    2    4    4    0    0  0.17309538716E+01  0.11690498708E+03  0.10286008403E+03  0.17683352098E+03  0.83786186501E+02 0.  0.
         24    2    4    4    0    0  0.17217119091E+04 -0.41812075099E+03 -0.33726676948E+03  0.18051772146E+04  0.76151441079E+02 0.  0.
         13    1    3    3    0    0 -0.14230945329E+04  0.21443482913E+03  0.21068332576E+03  0.14544991609E+04  0.00000000000E+00 0.  1.
        -13    1    3    3    0    0 -0.30034833013E+03  0.86780934780E+02  0.59039372887E+02  0.31815986171E+03  0.00000000000E+00 0. -1.
          2    1    6    6  502    0  0.15881615167E+04 -0.40526487043E+03 -0.30511354405E+03  0.16672105126E+04  0.00000000000E+00 0. -1.
          3    1    5    5  503    0 -0.37423960355E+02  0.62375857498E+02  0.32772687768E+02  0.79783140266E+02  0.00000000000E+00 0. -1.
         -4    1    5    5    0  503  0.39154914226E+02  0.54529129585E+02  0.70087396261E+02  0.97050380710E+02  0.00000000000E+00 0.  1.
         -1    1    6    6    0  502  0.13355039240E+03 -0.12855880567E+02 -0.32153225425E+02  0.13796670207E+03  0.00000000000E+00 0.  1.
<mgrwt>
<rscale>  0 0.37545037E+04</rscale>
<asrwt>0</asrwt>
<pdfrwt beam="1">  1        2 0.29153737E+00 0.37545037E+04</pdfrwt>
<pdfrwt beam="2">  1       -2 0.28610413E+00 0.37545037E+04</pdfrwt>
<totfact> 0.23772676E-01</totfact>
</mgrwt>
</event>
<event>
12    1  0.2433511E-007  0.2967277E+04  0.7818608E-02  0.8253137E-01
         -1   -1    0    0    0  501 -0.00000000000E+00  0.00000000000E+00  0.54854603357E+03  0.54854603357E+03  0.00000000000E+00 0.  1.
          1   -1    0    0  501    0  0.00000000000E+00 -0.00000000000E+00 -0.40127603942E+04  0.40127603942E+04  0.00000000000E+00 0. -1.
         23    2    1    2    0    0  0.31711372919E+03 -0.93820980348E+03 -0.29744045803E+04  0.31362816816E+04  0.91550132535E+02 0.  0.
        254    2    1    2    0    0 -0.31711372919E+03  0.93820980348E+03 -0.48980978035E+03  0.14250247461E+04  0.89999064081E+03 0.  0.
        -24    2    4    4    0    0 -0.23049703108E+03 -0.22328188269E+02 -0.37870518147E+03  0.45090151667E+03  0.79165231830E+02 0.  0.
         24    2    4    4    0    0 -0.86616698116E+02  0.96053799175E+03 -0.11110459888E+03  0.97412322946E+03  0.80225608677E+02 0.  0.
         11    1    3    3    0    0  0.27965452057E+03 -0.86920486938E+03 -0.26654979434E+04  0.28175526689E+04  0.00000000000E+00 0.  1.
        -11    1    3    3    0    0  0.37459208624E+02 -0.69004934099E+02 -0.30890663688E+03  0.31872901272E+03  0.00000000000E+00 0. -1.
          4    1    6    6  502    0 -0.82844654036E+01  0.51262214457E+03 -0.45552176999E+02  0.51470874900E+03  0.00000000000E+00 0. -1.
          1    1    5    5  503    0 -0.22821020997E+03 -0.24203413495E+02 -0.38251681471E+03  0.44607714434E+03  0.00000000000E+00 0. -1.
         -2    1    5    5    0  503 -0.22868211081E+01  0.18752252263E+01  0.38116332410E+01  0.48243723315E+01  0.00000000000E+00 0.  1.
         -3    1    6    6    0  502 -0.78332232713E+02  0.44791584718E+03 -0.65552421878E+02  0.45941448046E+03  0.00000000000E+00 0.  1.
<mgrwt>
<rscale>  0 0.29672774E+04</rscale>
<asrwt>0</asrwt>
<pdfrwt beam="1">  1        1 0.61734774E+00 0.29672774E+04</pdfrwt>
<pdfrwt beam="2">  1       -1 0.84391699E-01 0.29672774E+04</pdfrwt>
<totfact> 0.11089942E-01</totfact>
</mgrwt>
</event>
<event>
12    1  0.2433511E-007  0.3221196E+04  0.7818608E-02  0.8183242E-01
          1   -1    0    0  501    0  0.00000000000E+00  0.00000000000E+00  0.18124637387E+04  0.18124637387E+04  0.00000000000E+00 0. -1.
         -1   -1    0    0    0  501 -0.00000000000E+00 -0.00000000000E+00 -0.14312152365E+04  0.14312152365E+04  0.00000000000E+00 0.  1.
         23    2    1    2    0    0 -0.12015126501E+04  0.85272580481E+03  0.34922988305E+03  0.15170189615E+04  0.92795861682E+02 0.  0.
        254    2    1    2    0    0  0.12015126501E+04 -0.85272580481E+03  0.32018619163E+02  0.17266600137E+04  0.89975311304E+03 0.  0.
        -24    2    4    4    0    0  0.75936925736E+03 -0.26701508057E+03 -0.36635173725E+03  0.88791301025E+03  0.78975921089E+02 0.  0.
         24    2    4    4    0    0  0.44214339270E+03 -0.58571072423E+03  0.39837035641E+03  0.83874700343E+03  0.79055440680E+02 0.  0.
         13    1    3    3    0    0 -0.31064372318E+03  0.17938313161E+03  0.62943739648E+02  0.36419739842E+03  0.00000000000E+00 0.  1.
        -13    1    3    3    0    0 -0.89086892688E+03  0.67334267319E+03  0.28628614340E+03  0.11528215631E+04  0.00000000000E+00 0. -1.
          4    1    6    6  502    0  0.37859970316E+03 -0.52244665350E+03  0.37426249425E+03  0.74589587449E+03  0.00000000000E+00 0. -1.
          1    1    5    5  503    0  0.35775274264E+03 -0.15003179465E+03 -0.21162649911E+03  0.44190761410E+03  0.00000000000E+00 0. -1.
         -2    1    5    5    0  503  0.40161651472E+03 -0.11698328592E+03 -0.15472523814E+03  0.44600539615E+03  0.00000000000E+00 0.  1.
         -3    1    6    6    0  502  0.63543689538E+02 -0.63264070736E+02  0.24107862159E+02  0.92851128933E+02  0.00000000000E+00 0.  1.
<mgrwt>
<rscale>  0 0.32211959E+04</rscale>
<asrwt>0</asrwt>
<pdfrwt beam="1">  1        1 0.27884058E+00 0.32211959E+04</pdfrwt>
<pdfrwt beam="2">  1       -1 0.22018696E+00 0.32211959E+04</pdfrwt>
<totfact> 0.36616463E-01</totfact>
</mgrwt>
</event>
<event>
12    1  0.2433511E-007  0.1682001E+04  0.7818608E-02  0.8771697E-01
          2   -1    0    0  501    0  0.00000000000E+00  0.00000000000E+00  0.39010654365E+04  0.39010654365E+04  0.00000000000E+00 0. -1.
         -2   -1    0    0    0  501 -0.00000000000E+00 -0.00000000000E+00 -0.18130482420E+03  0.18130482420E+03  0.00000000000E+00 0.  1.
         23    2    1    2    0    0 -0.22766114270E+03  0.54517400003E+03  0.11572082401E+04  0.13024372151E+04  0.90374232562E+02 0.  0.
        254    2    1    2    0    0  0.22766114270E+03 -0.54517400003E+03  0.25625523722E+04  0.27799330456E+04  0.90128174948E+03 0.  0.
        -24    2    4    4    0    0  0.44246378965E+03 -0.13835728713E+03  0.59982063006E+03  0.76227957214E+03  0.79802342037E+02 0.  0.
         24    2    4    4    0    0 -0.21480264695E+03 -0.40681671290E+03  0.19627317421E+04  0.20176534735E+04  0.83484325832E+02 0.  0.
         11    1    3    3    0    0 -0.40330757439E+01  0.91530103060E+02  0.19233127064E+03  0.21303836071E+03  0.00000000000E+00 0.  1.
        -11    1    3    3    0    0 -0.22362806696E+03  0.45364389697E+03  0.96487696951E+03  0.10893988544E+04  0.00000000000E+00 0. -1.
          2    1    6    6  502    0 -0.94508403237E+02 -0.25212359937E+03  0.10348455258E+04  0.10693004301E+04  0.00000000000E+00 0. -1.
          3    1    5    5  503    0  0.34511906979E+02 -0.80504507062E+01  0.17741967381E+02  0.39631539037E+02  0.00000000000E+00 0. -1.
         -4    1    5    5    0  503  0.40795188267E+03 -0.13030683643E+03  0.58207866268E+03  0.72264803310E+03  0.00000000000E+00 0.  1.
         -1    1    6    6    0  502 -0.12029424371E+03 -0.15469311353E+03  0.92788621634E+03  0.94835304340E+03  0.00000000000E+00 0.  1.
<mgrwt>
<rscale>  0 0.16820012E+04</rscale>
<asrwt>0</asrwt>
<pdfrwt beam="1">  1        2 0.60016385E+00 0.16820012E+04</pdfrwt>
<pdfrwt beam="2">  1       -2 0.27893053E-01 0.16820012E+04</pdfrwt>
<totfact> 0.46641914E+00</totfact>
</mgrwt>
</event>
<event>
12    1  0.2433511E-007  0.1767169E+04  0.7818608E-02  0.8723956E-01
          2   -1    0    0  501    0  0.00000000000E+00  0.00000000000E+00  0.17991397594E+04  0.17991397594E+04  0.00000000000E+00 0.  1.
         -2   -1    0    0    0  501 -0.00000000000E+00 -0.00000000000E+00 -0.43394169881E+03  0.43394169881E+03  0.00000000000E+00 0. -1.
         23    2    1    2    0    0 -0.56663734317E+03 -0.22568206192E+03  0.22164132907E+03  0.65514749127E+03  0.89905977623E+02 0.  0.
        254    2    1    2    0    0  0.56663734317E+03  0.22568206192E+03  0.11435567316E+04  0.15779339670E+04  0.90007962653E+03 0.  0.
        -24    2    4    4    0    0  0.84358596154E+02  0.49280068575E+03  0.38147215279E+03  0.63378330618E+03  0.78685368516E+02 0.  0.
         24    2    4    4    0    0  0.48227874702E+03 -0.26711862383E+03  0.76208457877E+03  0.94415066079E+03  0.81868284794E+02 0.  0.
         13    1    3    3    0    0 -0.71663855278E+02 -0.63131182608E+02  0.36703255099E+02  0.10231511768E+03  0.00000000000E+00 0.  1.
        -13    1    3    3    0    0 -0.49497348790E+03 -0.16255087931E+03  0.18493807397E+03  0.55283237359E+03  0.00000000000E+00 0. -1.
          2    1    6    6  502    0  0.39448860618E+03 -0.19908121286E+03  0.65312674300E+03  0.78856143207E+03  0.00000000000E+00 0. -1.
          1    1    5    5  503    0  0.31832837642E+02  0.26477375183E+03  0.15666316370E+03  0.30929244425E+03  0.00000000000E+00 0. -1.
         -2    1    5    5    0  503  0.52525758512E+02  0.22802693392E+03  0.22480898909E+03  0.32449086193E+03  0.00000000000E+00 0.  1.
         -1    1    6    6    0  502  0.87790140844E+02 -0.68037410973E+02  0.10895783576E+03  0.15558922873E+03  0.00000000000E+00 0.  1.
<mgrwt>
<rscale>  0 0.17671692E+04</rscale>
<asrwt>0</asrwt>
<pdfrwt beam="1">  1        2 0.27679073E+00 0.17671692E+04</pdfrwt>
<pdfrwt beam="2">  1       -2 0.66760262E-01 0.17671692E+04</pdfrwt>
<totfact> 0.16848221E+01</totfact>
</mgrwt>
</event>
<event>
12    1  0.3118975E-007  0.3216502E+04  0.7818608E-02  0.8184473E-01
          2   -1    0    0  501    0  0.00000000000E+00  0.00000000000E+00  0.17277136280E+04  0.17277136280E+04  0.00000000000E+00 0. -1.
         -2   -1    0    0    0  501 -0.00000000000E+00 -0.00000000000E+00 -0.14970486641E+04  0.14970486641E+04  0.00000000000E+00 0.  1.
         23    2    1    2    0    0  0.36864868680E+03  0.14334195764E+04  0.30598216707E+02  0.14832624098E+04  0.92399075309E+02 0.  0.
        254    2    1    2    0    0 -0.36864868680E+03 -0.14334195764E+04  0.20006674718E+03  0.17414998823E+04  0.89565707742E+03 0.  0.
        -24    2    4    4    0    0 -0.21221251367E+03 -0.63545811898E+03  0.53239442951E+03  0.85939584213E+03  0.79222553283E+02 0.  0.
         24    2    4    4    0    0 -0.15643617314E+03 -0.79796145742E+03 -0.33232768233E+03  0.88210404014E+03  0.80318649179E+02 0.  0.
         13    1    3    3    0    0  0.54844612487E+02  0.36674381510E+03  0.19400616881E+02  0.37132915502E+03  0.00000000000E+00 0. -1.
        -13    1    3    3    0    0  0.31380407431E+03  0.10666757613E+04  0.11197599826E+02  0.11119332548E+04  0.00000000000E+00 0.  1.
          4    1    6    6  502    0 -0.13298115781E+03 -0.76041018188E+03 -0.30465588470E+03  0.82989327092E+03  0.00000000000E+00 0. -1.
          1    1    5    5  503    0 -0.12469245893E+03 -0.35255225122E+03  0.34611068388E+03  0.50954283887E+03  0.00000000000E+00 0. -1.
         -2    1    5    5    0  503 -0.87520054740E+02 -0.28290586776E+03  0.18628374564E+03  0.34985300325E+03  0.00000000000E+00 0.  1.
         -1    1    6    6    0  502 -0.23455015327E+02 -0.37551275532E+02 -0.27671797634E+02  0.52210769218E+02  0.00000000000E+00 0.  1.
<mgrwt>
<rscale>  0 0.32165021E+04</rscale>
<asrwt>0</asrwt>
<pdfrwt beam="1">  1        2 0.26580210E+00 0.32165021E+04</pdfrwt>
<pdfrwt beam="2">  1       -2 0.23031518E+00 0.32165021E+04</pdfrwt>
<totfact> 0.67745896E-01</totfact>
</mgrwt>
</event>
<event>
12    1  0.2433511E-007  0.1373666E+04  0.7818608E-02  0.8973104E-01
         -1   -1    0    0    0  501 -0.00000000000E+00  0.00000000000E+00  0.29109057759E+03  0.29109057759E+03  0.00000000000E+00 0.  1.
          1   -1    0    0  501    0  0.00000000000E+00 -0.00000000000E+00 -0.16205936698E+04  0.16205936698E+04  0.00000000000E+00 0. -1.
         23    2    1    2    0    0  0.79252918431E+02 -0.36034111921E+03 -0.52363975044E+03  0.64710424525E+03  0.91752758569E+02 0.  0.
        254    2    1    2    0    0 -0.79252918431E+02  0.36034111921E+03 -0.80586334172E+03  0.12645800021E+04  0.90200892950E+03 0.  0.
        -24    2    4    4    0    0 -0.22158352265E+03  0.51914788382E+03 -0.85933680060E+03  0.10306308081E+04  0.71598483800E+02 0.  0.
         24    2    4    4    0    0  0.14233060422E+03 -0.15880676461E+03  0.53473458882E+02  0.23394919403E+03  0.79970151930E+02 0.  0.
         13    1    3    3    0    0  0.49373504455E+02 -0.22711495126E+03 -0.40145306195E+03  0.46387876107E+03  0.00000000000E+00 0. -1.
        -13    1    3    3    0    0  0.29879413977E+02 -0.13322616796E+03 -0.12218668849E+03  0.18322548418E+03  0.00000000000E+00 0.  1.
          2    1    6    6  502    0  0.12813220829E+03 -0.12934947421E+03  0.72663736067E+02  0.19603358849E+03  0.00000000000E+00 0. -1.
          3    1    5    5  503    0 -0.16580159193E+03  0.39144371885E+03 -0.69977771235E+03  0.81878397616E+03  0.00000000000E+00 0. -1.
         -4    1    5    5    0  503 -0.55781930726E+02  0.12770416497E+03 -0.15955908826E+03  0.21184683191E+03  0.00000000000E+00 0.  1.
         -1    1    6    6    0  502  0.14198395933E+02 -0.29457290399E+02 -0.19190277185E+02  0.37915605536E+02  0.00000000000E+00 0.  1.
<mgrwt>
<rscale>  0 0.13736660E+04</rscale>
<asrwt>0</asrwt>
<pdfrwt beam="1">  1        1 0.24932210E+00 0.13736660E+04</pdfrwt>
<pdfrwt beam="2">  1       -1 0.44783167E-01 0.13736660E+04</pdfrwt>
<totfact> 0.26080695E+01</totfact>
</mgrwt>
</event>
<event>
12    1  0.2433511E-007  0.1313080E+04  0.7818608E-02  0.9019257E-01
         -2   -1    0    0    0  501 -0.00000000000E+00  0.00000000000E+00  0.64644397041E+03  0.64644397041E+03  0.00000000000E+00 0.  1.
          2   -1    0    0  501    0  0.00000000000E+00 -0.00000000000E+00 -0.66679350173E+03  0.66679350173E+03  0.00000000000E+00 0. -1.
         23    2    1    2    0    0 -0.27519066513E+03  0.42675674438E+02  0.19090408641E+03  0.34969735853E+03  0.91064575938E+02 0.  0.
        254    2    1    2    0    0  0.27519066513E+03 -0.42675674438E+02 -0.21125361774E+03  0.96354011361E+03  0.89790330446E+03 0.  0.
        -24    2    4    4    0    0  0.30170603350E+03 -0.10237097094E+03 -0.53298782598E+03  0.62615378093E+03  0.80536875919E+02 0.  0.
         24    2    4    4    0    0 -0.26515368371E+02  0.59695296498E+02  0.32173420824E+03  0.33738633269E+03  0.77782025858E+02 0.  0.
         11    1    3    3    0    0 -0.20178731618E+03  0.70951691317E+02  0.13102263821E+03  0.25083698929E+03  0.00000000000E+00 0.  1.
        -11    1    3    3    0    0 -0.73403348946E+02 -0.28276016879E+02  0.59881448210E+02  0.98860369243E+02  0.00000000000E+00 0. -1.
          4    1    6    6  502    0 -0.35430049242E+02  0.34825412688E+02  0.29722752811E+03  0.30135079430E+03  0.00000000000E+00 0. -1.
          3    1    5    5  503    0  0.14507906076E+03 -0.81343226173E+01 -0.21858322611E+03  0.26247424219E+03  0.00000000000E+00 0. -1.
         -4    1    5    5    0  503  0.15662697273E+03 -0.94236648318E+02 -0.31440459987E+03  0.36367953873E+03  0.00000000000E+00 0.  1.
         -3    1    6    6    0  502  0.89146808711E+01  0.24869883810E+02  0.24506680130E+02  0.36035538386E+02  0.00000000000E+00 0.  1.
<mgrwt>
<rscale>  0 0.13130798E+04</rscale>
<asrwt>0</asrwt>
<pdfrwt beam="1">  1        2 0.10258362E+00 0.13130798E+04</pdfrwt>
<pdfrwt beam="2">  1       -2 0.99452919E-01 0.13130798E+04</pdfrwt>
<totfact> 0.35703826E+01</totfact>
</mgrwt>
</event>
<event>
12    1  0.2433511E-007  0.1509503E+04  0.7818608E-02  0.8878158E-01
          1   -1    0    0  501    0  0.00000000000E+00  0.00000000000E+00  0.63260087369E+03  0.63260087369E+03  0.00000000000E+00 0. -1.
         -1   -1    0    0    0  501 -0.00000000000E+00 -0.00000000000E+00 -0.90048891306E+03  0.90048891306E+03  0.00000000000E+00 0.  1.
         23    2    1    2    0    0  0.24408350282E+03 -0.18041851394E+03 -0.46491073171E+03  0.56358016084E+03  0.96710975133E+02 0.  0.
        254    2    1    2    0    0 -0.24408350282E+03  0.18041851394E+03  0.19702269235E+03  0.96950962590E+03  0.89944615008E+03 0.  0.
        -24    2    4    4    0    0  0.29315739745E+03  0.14083351648E+03  0.25734884487E+03  0.42175784488E+03  0.76654502260E+02 0.  0.
         24    2    4    4    0    0 -0.53724090027E+03  0.39584997461E+02 -0.60326152525E+02  0.54775178103E+03  0.78727453885E+02 0.  0.
         11    1    3    3    0    0  0.23052543008E+03 -0.14570267270E+03 -0.44338895248E+03  0.52054299143E+03  0.00000000000E+00 0.  1.
        -11    1    3    3    0    0  0.13558072741E+02 -0.34715841245E+02 -0.21521779233E+02  0.43037169414E+02  0.00000000000E+00 0. -1.
          2    1    6    6  502    0 -0.31418668407E+03  0.32154936248E+02 -0.73211072485E+02  0.32420221083E+03  0.00000000000E+00 0. -1.
          1    1    5    5  503    0  0.28138912779E+03  0.12106350189E+03  0.25510502679E+03  0.39864117628E+03  0.00000000000E+00 0. -1.
         -2    1    5    5    0  503  0.11768269659E+02  0.19770014588E+02  0.22438180755E+01  0.23116668600E+02  0.00000000000E+00 0.  1.
         -1    1    6    6    0  502 -0.22305421620E+03  0.74300612122E+01  0.12884919960E+02  0.22354957020E+03  0.00000000000E+00 0.  1.
<mgrwt>
<rscale>  0 0.15095033E+04</rscale>
<asrwt>0</asrwt>
<pdfrwt beam="1">  1        1 0.97323211E-01 0.15095033E+04</pdfrwt>
<pdfrwt beam="2">  1       -1 0.13853676E+00 0.15095033E+04</pdfrwt>
<totfact> 0.13204651E+01</totfact>
</mgrwt>
</event>
<event>
12    1  0.2433511E-007  0.2675670E+04  0.7818608E-02  0.8342943E-01
         -2   -1    0    0    0  501 -0.00000000000E+00  0.00000000000E+00  0.67357676764E+03  0.67357676764E+03  0.00000000000E+00 0.  1.
          2   -1    0    0  501    0  0.00000000000E+00 -0.00000000000E+00 -0.26571609688E+04  0.26571609688E+04  0.00000000000E+00 0. -1.
         23    2    1    2    0    0  0.24188604032E+03 -0.91619063800E+03  0.62998829169E+01  0.95061825285E+03  0.75638829056E+02 0.  0.
        254    2    1    2    0    0 -0.24188604032E+03  0.91619063800E+03 -0.19898840841E+04  0.23801194836E+04  0.89856326795E+03 0.  0.
        -24    2    4    4    0    0 -0.54779438973E+03  0.48846597287E+03 -0.87561201744E+03  0.11454246702E+04  0.81385317889E+02 0.  0.
         24    2    4    4    0    0  0.30590834940E+03  0.42772466513E+03 -0.11142720667E+04  0.12346948134E+04  0.79628740709E+02 0.  0.
         13    1    3    3    0    0  0.53194816443E+02 -0.29231824559E+03 -0.24349451958E+02  0.29811497951E+03  0.00000000000E+00 0.  1.
        -13    1    3    3    0    0  0.18869122388E+03 -0.62387239241E+03  0.30649334875E+02  0.65250327333E+03  0.00000000000E+00 0. -1.
          4    1    6    6  502    0  0.60157003712E+02  0.88655966514E+02 -0.30900125167E+03  0.32704819068E+03  0.00000000000E+00 0. -1.
          3    1    5    5  503    0 -0.11552616989E+03  0.14825237327E+03 -0.23971836421E+03  0.30461443867E+03  0.00000000000E+00 0. -1.
         -4    1    5    5    0  503 -0.43226821983E+03  0.34021359960E+03 -0.63589365324E+03  0.84081023154E+03  0.00000000000E+00 0.  1.
         -3    1    6    6    0  502  0.24575134569E+03  0.33906869862E+03 -0.80527081498E+03  0.90764662273E+03  0.00000000000E+00 0.  1.
<mgrwt>
<rscale>  0 0.26756696E+04</rscale>
<asrwt>0</asrwt>
<pdfrwt beam="1">  1        2 0.40879399E+00 0.26756696E+04</pdfrwt>
<pdfrwt beam="2">  1       -2 0.10362720E+00 0.26756696E+04</pdfrwt>
<totfact> 0.18773584E+00</totfact>
</mgrwt>
</event>
<event>
12    1  0.2433511E-007  0.1499868E+04  0.7818608E-02  0.8884541E-01
          2   -1    0    0  501    0  0.00000000000E+00  0.00000000000E+00  0.27495213616E+03  0.27495213616E+03  0.00000000000E+00 0.  1.
         -2   -1    0    0    0  501 -0.00000000000E+00 -0.00000000000E+00 -0.20454501349E+04  0.20454501349E+04  0.00000000000E+00 0. -1.
         23    2    1    2    0    0  0.13296376345E+03  0.38180825234E+03 -0.18556564892E+03  0.45394968783E+03  0.90436746263E+02 0.  0.
        254    2    1    2    0    0 -0.13296376345E+03 -0.38180825234E+03 -0.15849323499E+04  0.18664525833E+04  0.89898709003E+03 0.  0.
        -24    2    4    4    0    0  0.30410581774E+03 -0.27148567099E+03 -0.32973890967E+03  0.53081007140E+03  0.82745183613E+02 0.  0.
         24    2    4    4    0    0 -0.43706958118E+03 -0.11032258135E+03 -0.12551934402E+04  0.13356425119E+04  0.72314981101E+02 0.  0.
         13    1    3    3    0    0  0.10246440299E+03  0.34836189593E+03 -0.13845895034E+03  0.38862043866E+03  0.00000000000E+00 0. -1.
        -13    1    3    3    0    0  0.30499360459E+02  0.33446356407E+02 -0.47106698578E+02  0.65329249163E+02  0.00000000000E+00 0.  1.
          2    1    6    6  502    0 -0.33839049570E+03 -0.53303173566E+02 -0.93791285796E+03  0.99851383818E+03  0.00000000000E+00 0. -1.
          3    1    5    5  503    0  0.18578201496E+03 -0.13506718324E+03 -0.22752955954E+03  0.32330759585E+03  0.00000000000E+00 0. -1.
         -4    1    5    5    0  503  0.11832380277E+03 -0.13641848775E+03 -0.10220935013E+03  0.20750247554E+03  0.00000000000E+00 0.  1.
         -1    1    6    6    0  502 -0.98679085483E+02 -0.57019407788E+02 -0.31728058222E+03  0.33712867370E+03  0.00000000000E+00 0.  1.
<mgrwt>
<rscale>  0 0.14998678E+04</rscale>
<asrwt>0</asrwt>
<pdfrwt beam="1">  1        2 0.42300329E-01 0.14998678E+04</pdfrwt>
<pdfrwt beam="2">  1       -2 0.31468463E+00 0.14998678E+04</pdfrwt>
<totfact> 0.30336064E+00</totfact>
</mgrwt>
</event>
<event>
12    1  0.2433511E-007  0.3941435E+04  0.7818608E-02  0.8016466E-01
         -2   -1    0    0    0  501 -0.00000000000E+00  0.00000000000E+00  0.16068384092E+04  0.16068384092E+04  0.00000000000E+00 0.  1.
          2   -1    0    0  501    0  0.00000000000E+00 -0.00000000000E+00 -0.24169991684E+04  0.24169991684E+04  0.00000000000E+00 0. -1.
         23    2    1    2    0    0  0.14277386611E+04  0.11239175714E+04  0.51746733798E+02  0.18199810701E+04  0.89582248792E+02 0.  0.
        254    2    1    2    0    0 -0.14277386611E+04 -0.11239175714E+04 -0.86190749295E+03  0.22038565075E+04  0.90137150353E+03 0.  0.
        -24    2    4    4    0    0 -0.78932166353E+03 -0.48830464974E+03 -0.90452382923E+03  0.12984214503E+04  0.79150398483E+02 0.  0.
         24    2    4    4    0    0 -0.63841699755E+03 -0.63561292171E+03  0.42616336271E+02  0.90543505714E+03  0.80102693963E+02 0.  0.
         13    1    3    3    0    0  0.74774351784E+02  0.80612508269E+02 -0.96132365973E+01  0.11037207297E+03  0.00000000000E+00 0.  1.
        -13    1    3    3    0    0  0.13529643093E+04  0.10433050632E+04  0.61359970396E+02  0.17096089971E+04  0.00000000000E+00 0. -1.
          2    1    6    6  502    0 -0.66866222568E+02 -0.91631599121E+02 -0.14356834525E+02  0.11433967105E+03  0.00000000000E+00 0. -1.
          3    1    5    5  503    0 -0.10813141824E+03 -0.62367828754E+02 -0.16138589945E+03  0.20402832699E+03  0.00000000000E+00 0. -1.
         -4    1    5    5    0  503 -0.68119024529E+03 -0.42593682099E+03 -0.74313792978E+03  0.10943931233E+04  0.00000000000E+00 0.  1.
         -1    1    6    6    0  502 -0.57155077498E+03 -0.54398132259E+03  0.56973170795E+02  0.79109538609E+03  0.00000000000E+00 0.  1.
<mgrwt>
<rscale>  0 0.39414348E+04</rscale>
<asrwt>0</asrwt>
<pdfrwt beam="1">  1        2 0.37184603E+00 0.39414348E+04</pdfrwt>
<pdfrwt beam="2">  1       -2 0.24720591E+00 0.39414348E+04</pdfrwt>
<totfact> 0.20600606E-01</totfact>
</mgrwt>
</event>
<event>
12    1  0.2433511E-007  0.2352533E+04  0.7818608E-02  0.8457491E-01
          2   -1    0    0  501    0  0.00000000000E+00  0.00000000000E+00  0.22914474583E+04  0.22914474583E+04  0.00000000000E+00 0. -1.
         -2   -1    0    0    0  501 -0.00000000000E+00 -0.00000000000E+00 -0.60381176028E+03  0.60381176028E+03  0.00000000000E+00 0.  1.
         23    2    1    2    0    0 -0.41169584449E+03 -0.33058526109E+03  0.17772571256E+04  0.18563699628E+04  0.93201207258E+02 0.  0.
        254    2    1    2    0    0  0.41169584449E+03  0.33058526109E+03 -0.89621427577E+02  0.10388892558E+04  0.89021278485E+03 0.  0.
        -24    2    4    4    0    0  0.67752937751E+03  0.27318183356E+03  0.20015176471E+02  0.73509423837E+03  0.79300443933E+02 0.  0.
         24    2    4    4    0    0 -0.26583353303E+03  0.57403427523E+02 -0.10963660405E+03  0.30379501743E+03  0.79426739179E+02 0.  0.
         11    1    3    3    0    0 -0.85480414886E+02 -0.39579152021E+02  0.42066499798E+03  0.43108288197E+03  0.00000000000E+00 0. -1.
        -11    1    3    3    0    0 -0.32621542960E+03 -0.29100610907E+03  0.13565921276E+04  0.14252870808E+04  0.00000000000E+00 0.  1.
          4    1    6    6  502    0 -0.18770378390E+03  0.37827621870E+02 -0.11450499428E+03  0.22310318954E+03  0.00000000000E+00 0. -1.
          1    1    5    5  503    0  0.46583414007E+03  0.21915176479E+03  0.35732613330E+02  0.51604821647E+03  0.00000000000E+00 0. -1.
         -2    1    5    5    0  503  0.21169523744E+03  0.54030068774E+02 -0.15717436859E+02  0.21904602190E+03  0.00000000000E+00 0.  1.
         -3    1    6    6    0  502 -0.78129749127E+02  0.19575805652E+02  0.48683902317E+01  0.80691827895E+02  0.00000000000E+00 0.  1.
<mgrwt>
<rscale>  0 0.23525330E+04</rscale>
<asrwt>0</asrwt>
<pdfrwt beam="1">  1        2 0.35253037E+00 0.23525330E+04</pdfrwt>
<pdfrwt beam="2">  1       -2 0.92894118E-01 0.23525330E+04</pdfrwt>
<totfact> 0.40637582E+00</totfact>
</mgrwt>
</event>
<event>
12    1  0.2433511E-007  0.1978067E+04  0.7818608E-02  0.8616944E-01
         -1   -1    0    0    0  501 -0.00000000000E+00  0.00000000000E+00  0.47745046501E+03  0.47745046501E+03  0.00000000000E+00 0.  1.
          1   -1    0    0  501    0  0.00000000000E+00 -0.00000000000E+00 -0.20487720272E+04  0.20487720272E+04  0.00000000000E+00 0. -1.
         23    2    1    2    0    0  0.27094784325E+03  0.70576479508E+03 -0.87753172844E+03  0.11617818582E+04  0.90324260200E+02 0.  0.
        254    2    1    2    0    0 -0.27094784325E+03 -0.70576479508E+03 -0.69378983379E+03  0.13644406340E+04  0.89935378495E+03 0.  0.
        -24    2    4    4    0    0  0.61090644761E+02 -0.72052206104E+03 -0.18411987769E+03  0.75069396650E+03  0.82202157255E+02 0.  0.
         24    2    4    4    0    0 -0.33203848801E+03  0.14757265960E+02 -0.50966995610E+03  0.61374666750E+03  0.80337869654E+02 0.  0.
         11    1    3    3    0    0  0.27912837676E+02  0.10788391728E+03 -0.87743879778E+02  0.14183460281E+03  0.00000000000E+00 0.  1.
        -11    1    3    3    0    0  0.24303500557E+03  0.59788087780E+03 -0.78978784866E+03  0.10199472554E+04  0.00000000000E+00 0. -1.
          4    1    6    6  502    0 -0.12308660587E+03  0.44296388057E+02 -0.18808732439E+03  0.22910548692E+03  0.00000000000E+00 0. -1.
          1    1    5    5  503    0  0.43240498644E+02 -0.39785426910E+03 -0.14275517131E+03  0.42489622157E+03  0.00000000000E+00 0. -1.
         -2    1    5    5    0  503  0.17850146117E+02 -0.32266779194E+03 -0.41364706384E+02  0.32579774494E+03  0.00000000000E+00 0.  1.
         -3    1    6    6    0  502 -0.20895188214E+03 -0.29539122097E+02 -0.32158263171E+03  0.38464118058E+03  0.00000000000E+00 0.  1.
<mgrwt>
<rscale>  0 0.19780669E+04</rscale>
<asrwt>0</asrwt>
<pdfrwt beam="1">  1        1 0.31519570E+00 0.19780669E+04</pdfrwt>
<pdfrwt beam="2">  1       -1 0.73453917E-01 0.19780669E+04</pdfrwt>
<totfact> 0.47921331E+00</totfact>
</mgrwt>
</event>
<event>
12    1  0.2433511E-007  0.2166609E+04  0.7818608E-02  0.8532456E-01
         -1   -1    0    0    0  501 -0.00000000000E+00  0.00000000000E+00  0.60698831515E+03  0.60698831515E+03  0.00000000000E+00 0.  1.
          1   -1    0    0  501    0  0.00000000000E+00 -0.00000000000E+00 -0.19333949873E+04  0.19333949873E+04  0.00000000000E+00 0. -1.
         23    2    1    2    0    0 -0.46713175670E+03 -0.64857426725E+03 -0.10184879533E+04  0.12980106459E+04  0.93022940865E+02 0.  0.
        254    2    1    2    0    0  0.46713175670E+03  0.64857426725E+03 -0.30791871890E+03  0.12423726566E+04  0.89989733981E+03 0.  0.
        -24    2    4    4    0    0  0.72750762476E+02  0.32810492910E+03 -0.56945982757E+03  0.66607154543E+03  0.80132955018E+02 0.  0.
         24    2    4    4    0    0  0.39438099422E+03  0.32046933815E+03  0.26154110867E+03  0.57630111118E+03  0.74042244233E+02 0.  0.
         13    1    3    3    0    0 -0.30488178609E+03 -0.34455470346E+03 -0.58236844841E+03  0.74217508505E+03  0.00000000000E+00 0.  1.
        -13    1    3    3    0    0 -0.16224997061E+03 -0.30401956379E+03 -0.43611950486E+03  0.55583556080E+03  0.00000000000E+00 0. -1.
          4    1    6    6  502    0  0.47399171207E+02  0.11268600280E+02  0.27336763243E+02  0.55865565494E+02  0.00000000000E+00 0. -1.
          3    1    5    5  503    0  0.32698059511E+02  0.42450927760E+02 -0.12760734845E+03  0.13840115513E+03  0.00000000000E+00 0. -1.
         -4    1    5    5    0  503  0.40052702965E+02  0.28565400134E+03 -0.44185247912E+03  0.52767039030E+03  0.00000000000E+00 0.  1.
         -3    1    6    6    0  502  0.34698182301E+03  0.30920073787E+03  0.23420434543E+03  0.52043554569E+03  0.00000000000E+00 0.  1.
<mgrwt>
<rscale>  0 0.21666086E+04</rscale>
<asrwt>0</asrwt>
<pdfrwt beam="1">  1        1 0.29744538E+00 0.21666086E+04</pdfrwt>
<pdfrwt beam="2">  1       -1 0.93382818E-01 0.21666086E+04</pdfrwt>
<totfact> 0.33643273E+00</totfact>
</mgrwt>
</event>
<event>
12    1  0.2433511E-007  0.2207859E+04  0.7818608E-02  0.8515164E-01
         -1   -1    0    0    0  501 -0.00000000000E+00  0.00000000000E+00  0.71752038004E+03  0.71752038004E+03  0.00000000000E+00 0.  1.
          1   -1    0    0  501    0  0.00000000000E+00 -0.00000000000E+00 -0.16984326498E+04  0.16984326498E+04  0.00000000000E+00 0. -1.
         23    2    1    2    0    0  0.43197722438E+03 -0.42336039699E+03 -0.11653425650E+04  0.13160305582E+04  0.89859824874E+02 0.  0.
        254    2    1    2    0    0 -0.43197722438E+03  0.42336039699E+03  0.18443029528E+03  0.10999224716E+04  0.89998697860E+03 0.  0.
        -24    2    4    4    0    0 -0.37700025533E+03  0.49502548624E+03  0.47375711454E+03  0.78610558891E+03  0.79603823929E+02 0.  0.
         24    2    4    4    0    0 -0.54976969042E+02 -0.71665089255E+02 -0.28932681926E+03  0.31381688272E+03  0.81318358304E+02 0.  0.
         11    1    3    3    0    0  0.29305814796E+03 -0.24160528496E+03 -0.66379756825E+03  0.76477670167E+03  0.00000000000E+00 0. -1.
        -11    1    3    3    0    0  0.13891907641E+03 -0.18175511203E+03 -0.50154499678E+03  0.55125385652E+03  0.00000000000E+00 0.  1.
          4    1    6    6  502    0  0.40046130944E+01 -0.24235945928E+00 -0.12590785370E+03  0.12597175591E+03  0.00000000000E+00 0. -1.
          1    1    5    5  503    0 -0.59327069513E+01  0.32765143899E+02  0.14855860735E+02  0.36461599864E+02  0.00000000000E+00 0. -1.
         -2    1    5    5    0  503 -0.37106754838E+03  0.46226034235E+03  0.45890125380E+03  0.74964398904E+03  0.00000000000E+00 0.  1.
         -3    1    6    6    0  502 -0.58981582137E+02 -0.71422729796E+02 -0.16341896556E+03  0.18784512681E+03  0.00000000000E+00 0.  1.
<mgrwt>
<rscale>  0 0.22078587E+04</rscale>
<asrwt>0</asrwt>
<pdfrwt beam="1">  1        1 0.26129733E+00 0.22078587E+04</pdfrwt>
<pdfrwt beam="2">  1       -1 0.11038775E+00 0.22078587E+04</pdfrwt>
<totfact> 0.32942328E+00</totfact>
</mgrwt>
</event>
<event>
12    1  0.2433511E-007  0.2103355E+04  0.7818608E-02  0.8559767E-01
          2   -1    0    0  501    0  0.00000000000E+00  0.00000000000E+00  0.12683717107E+04  0.12683717107E+04  0.00000000000E+00 0. -1.
         -2   -1    0    0    0  501 -0.00000000000E+00 -0.00000000000E+00 -0.87200455758E+03  0.87200455758E+03  0.00000000000E+00 0.  1.
         23    2    1    2    0    0  0.56922341421E+03  0.47304909572E+03  0.60060833560E+03  0.95744360686E+03  0.90427569280E+02 0.  0.
        254    2    1    2    0    0 -0.56922341421E+03 -0.47304909572E+03 -0.20424118246E+03  0.11829326614E+04  0.89990248286E+03 0.  0.
        -24    2    4    4    0    0 -0.15263893353E+03  0.19769847143E+02 -0.45451297313E+03  0.48626618334E+03  0.78633755052E+02 0.  0.
         24    2    4    4    0    0 -0.41658448068E+03 -0.49281894286E+03  0.25027179067E+03  0.69666647811E+03  0.79341493091E+02 0.  0.
         11    1    3    3    0    0  0.31525554236E+02  0.44296324782E+02  0.21811957497E+02  0.58581451407E+02  0.00000000000E+00 0.  1.
        -11    1    3    3    0    0  0.53769785997E+03  0.42875277094E+03  0.57879637810E+03  0.89886215545E+03  0.00000000000E+00 0. -1.
          4    1    6    6  502    0 -0.63341116946E+02 -0.12436187421E+03  0.47347439818E+02  0.14737622912E+03  0.00000000000E+00 0. -1.
          1    1    5    5  503    0 -0.34923551188E+02 -0.14601760889E+02 -0.45090905111E+02  0.58873216086E+02  0.00000000000E+00 0. -1.
         -2    1    5    5    0  503 -0.11771538234E+03  0.34371608033E+02 -0.40942206802E+03  0.42739296725E+03  0.00000000000E+00 0.  1.
         -3    1    6    6    0  502 -0.35324336373E+03 -0.36845706866E+03  0.20292435085E+03  0.54929024899E+03  0.00000000000E+00 0.  1.
<mgrwt>
<rscale>  0 0.21033553E+04</rscale>
<asrwt>0</asrwt>
<pdfrwt beam="1">  1        2 0.19513411E+00 0.21033553E+04</pdfrwt>
<pdfrwt beam="2">  1       -2 0.13415455E+00 0.21033553E+04</pdfrwt>
<totfact> 0.63730258E+00</totfact>
</mgrwt>
</event>
<event>
12    1  0.2433511E-007  0.1550154E+04  0.7818608E-02  0.8851769E-01
         -1   -1    0    0    0  501 -0.00000000000E+00  0.00000000000E+00  0.38653794225E+03  0.38653794225E+03  0.00000000000E+00 0.  1.
          1   -1    0    0  501    0  0.00000000000E+00 -0.00000000000E+00 -0.15541670151E+04  0.15541670151E+04  0.00000000000E+00 0. -1.
         23    2    1    2    0    0 -0.50298290104E+03 -0.48509952074E+02 -0.31477300813E+03  0.60217994661E+03  0.90518656983E+02 0.  0.
        254    2    1    2    0    0  0.50298290104E+03  0.48509952074E+02 -0.85285606468E+03  0.13385250107E+04  0.89941132026E+03 0.  0.
        -24    2    4    4    0    0  0.69948384069E+03  0.10739746295E+03 -0.86195911410E+03  0.11180950460E+04  0.79694159183E+02 0.  0.
         24    2    4    4    0    0 -0.19650093964E+03 -0.58887510880E+02  0.91030494161E+01  0.22042996474E+03  0.80163243609E+02 0.  0.
         13    1    3    3    0    0 -0.25506121318E+03  0.18537563407E+02 -0.17383689236E+03  0.30922342873E+03  0.00000000000E+00 0. -1.
        -13    1    3    3    0    0 -0.24792168786E+03 -0.67047515481E+02 -0.14093611577E+03  0.29295651788E+03  0.00000000000E+00 0.  1.
          2    1    6    6  502    0 -0.41130506745E+02 -0.19186601125E+02  0.35869932135E+02  0.57848909058E+02  0.00000000000E+00 0. -1.
          1    1    5    5  503    0  0.21243127967E+03  0.17376026388E+02 -0.31344500821E+03  0.37904715807E+03  0.00000000000E+00 0. -1.
         -2    1    5    5    0  503  0.48705256102E+03  0.90021436566E+02 -0.54851410589E+03  0.73904788789E+03  0.00000000000E+00 0.  1.
         -1    1    6    6    0  502 -0.15537043290E+03 -0.39700909755E+02 -0.26766882719E+02  0.16258105568E+03  0.00000000000E+00 0.  1.
<mgrwt>
<rscale>  0 0.15501542E+04</rscale>
<asrwt>0</asrwt>
<pdfrwt beam="1">  1        1 0.23910261E+00 0.15501542E+04</pdfrwt>
<pdfrwt beam="2">  1       -1 0.59467377E-01 0.15501542E+04</pdfrwt>
<totfact> 0.16572705E+01</totfact>
</mgrwt>
</event>
<event>
12    1  0.2433511E-007  0.3170356E+04  0.7818608E-02  0.8196690E-01
          1   -1    0    0  501    0  0.00000000000E+00  0.00000000000E+00  0.37396619040E+04  0.37396619040E+04  0.00000000000E+00 0. -1.
         -1   -1    0    0    0  501 -0.00000000000E+00 -0.00000000000E+00 -0.67192973811E+03  0.67192973811E+03  0.00000000000E+00 0.  1.
         23    2    1    2    0    0 -0.11124692744E+04  0.66870911086E+03  0.23288205766E+04  0.26676781256E+04  0.91332045454E+02 0.  0.
        254    2    1    2    0    0  0.11124692744E+04 -0.66870911086E+03  0.73891158924E+03  0.17439135164E+04  0.90026899017E+03 0.  0.
        -24    2    4    4    0    0  0.39558525334E+03  0.16908628227E+03  0.38603949628E+03  0.58342189153E+03  0.79225925772E+02 0.  0.
         24    2    4    4    0    0  0.71688402105E+03 -0.83779539313E+03  0.35287209296E+03  0.11604916249E+04  0.79989231170E+02 0.  0.
         11    1    3    3    0    0 -0.41109436743E+03  0.29898061938E+03  0.90371473599E+03  0.10368646555E+04  0.00000000000E+00 0. -1.
        -11    1    3    3    0    0 -0.70137490697E+03  0.36972849148E+03  0.14251058406E+04  0.16308134702E+04  0.00000000000E+00 0.  1.
          4    1    6    6  502    0  0.49582969414E+03 -0.52489257108E+03  0.24498031346E+03  0.76247927890E+03  0.00000000000E+00 0. -1.
          1    1    5    5  503    0  0.96617040115E+02  0.74025530432E+02  0.83600934746E+02  0.14766092200E+03  0.00000000000E+00 0. -1.
         -2    1    5    5    0  503  0.29896821323E+03  0.95060751834E+02  0.30243856153E+03  0.43576096953E+03  0.00000000000E+00 0.  1.
         -3    1    6    6    0  502  0.22105432691E+03 -0.31290282204E+03  0.10789177951E+03  0.39801234600E+03  0.00000000000E+00 0.  1.
<mgrwt>
<rscale>  0 0.31703565E+04</rscale>
<asrwt>0</asrwt>
<pdfrwt beam="1">  1        1 0.57533259E+00 0.31703565E+04</pdfrwt>
<pdfrwt beam="2">  1       -1 0.10337381E+00 0.31703565E+04</pdfrwt>
<totfact> 0.11833388E-01</totfact>
</mgrwt>
</event>
<event>
12    1  0.2433511E-007  0.3058925E+04  0.7818608E-02  0.8227102E-01
         -1   -1    0    0    0  501 -0.00000000000E+00  0.00000000000E+00  0.45164388456E+04  0.45164388456E+04  0.00000000000E+00 0.  1.
          1   -1    0    0  501    0  0.00000000000E+00 -0.00000000000E+00 -0.51794262980E+03  0.51794262980E+03  0.00000000000E+00 0. -1.
         23    2    1    2    0    0  0.15133757254E+03 -0.13786326255E+04  0.20788295571E+04  0.25008015397E+04  0.94578202798E+02 0.  0.
        254    2    1    2    0    0 -0.15133757254E+03  0.13786326255E+04  0.19196666587E+04  0.25335799357E+04  0.90020899425E+03 0.  0.
        -24    2    4    4    0    0  0.23069264151E+03  0.26808902554E+03  0.11722201309E+03  0.38083877376E+03  0.78780395958E+02 0.  0.
         24    2    4    4    0    0 -0.38203021405E+03  0.11105435999E+04  0.18024446456E+04  0.21527411619E+04  0.78953392271E+02 0.  0.
         11    1    3    3    0    0  0.15814877523E+03 -0.11327417991E+04  0.16869515255E+04  0.20381168926E+04  0.00000000000E+00 0. -1.
        -11    1    3    3    0    0 -0.68112026850E+01 -0.24589082640E+03  0.39187803161E+03  0.46268464709E+03  0.00000000000E+00 0.  1.
          4    1    6    6  502    0 -0.37948546450E+02  0.16885360856E+03  0.30435768827E+03  0.35012174413E+03  0.00000000000E+00 0. -1.
          1    1    5    5  503    0  0.13450445545E+03  0.20296061974E+03  0.57319514065E+02  0.25013993762E+03  0.00000000000E+00 0. -1.
         -2    1    5    5    0  503  0.96188186060E+02  0.65128405804E+02  0.59902499027E+02  0.13069883615E+03  0.00000000000E+00 0.  1.
         -3    1    6    6    0  502 -0.34408166760E+03  0.94168999137E+03  0.14980869573E+04  0.18026194178E+04  0.00000000000E+00 0.  1.
<mgrwt>
<rscale>  0 0.30589254E+04</rscale>
<asrwt>0</asrwt>
<pdfrwt beam="1">  1        1 0.79683485E-01 0.30589254E+04</pdfrwt>
<pdfrwt beam="2">  1       -1 0.69483672E+00 0.30589254E+04</pdfrwt>
<totfact> 0.73971608E-03</totfact>
</mgrwt>
</event>
<event>
12    1  0.2433511E-007  0.1679972E+04  0.7818608E-02  0.8772870E-01
          1   -1    0    0  501    0  0.00000000000E+00  0.00000000000E+00  0.12386161704E+04  0.12386161704E+04  0.00000000000E+00 0. -1.
         -1   -1    0    0    0  501 -0.00000000000E+00 -0.00000000000E+00 -0.56964898376E+03  0.56964898376E+03  0.00000000000E+00 0.  1.
         23    2    1    2    0    0 -0.17669938970E+03 -0.42622220522E+03 -0.16567639170E+03  0.49906594062E+03  0.93435024326E+02 0.  0.
        254    2    1    2    0    0  0.17669938970E+03  0.42622220522E+03  0.83464357832E+03  0.13091992135E+04  0.89693067476E+03 0.  0.
        -24    2    4    4    0    0 -0.17757696270E+02 -0.19085415391E+03  0.56810249245E+03  0.60489905067E+03  0.80135982755E+02 0.  0.
         24    2    4    4    0    0  0.19445708597E+03  0.61707635914E+03  0.26654108587E+03  0.70430016286E+03  0.79986109153E+02 0.  0.
         11    1    3    3    0    0 -0.87982690585E+02 -0.11908297232E+03 -0.79054684282E+02  0.16784323414E+03  0.00000000000E+00 0.  1.
        -11    1    3    3    0    0 -0.88716699117E+02 -0.30713923291E+03 -0.86621707417E+02  0.33122270648E+03  0.00000000000E+00 0. -1.
          4    1    6    6  502    0  0.12907986836E+03  0.34702658044E+03  0.18968257503E+03  0.41601507090E+03  0.00000000000E+00 0. -1.
          1    1    5    5  503    0 -0.37616830361E+02 -0.18089038094E+03  0.52172852724E+03  0.55347720096E+03  0.00000000000E+00 0. -1.
         -2    1    5    5    0  503  0.19859134091E+02 -0.99637729700E+01  0.46373965213E+02  0.51421849716E+02  0.00000000000E+00 0.  1.
         -3    1    6    6    0  502  0.65377217614E+02  0.27004977869E+03  0.76858510840E+02  0.28828509196E+03  0.00000000000E+00 0.  1.
<mgrwt>
<rscale>  0 0.16799720E+04</rscale>
<asrwt>0</asrwt>
<pdfrwt beam="1">  1        1 0.19055633E+00 0.16799720E+04</pdfrwt>
<pdfrwt beam="2">  1       -1 0.87638305E-01 0.16799720E+04</pdfrwt>
<totfact> 0.12227822E+01</totfact>
</mgrwt>
</event>
<event>
12    1  0.2433511E-007  0.1220936E+04  0.7818608E-02  0.9094726E-01
          2   -1    0    0  501    0  0.00000000000E+00  0.00000000000E+00  0.10331622935E+04  0.10331622935E+04  0.00000000000E+00 0. -1.
         -2   -1    0    0    0  501 -0.00000000000E+00 -0.00000000000E+00 -0.36070928403E+03  0.36070928403E+03  0.00000000000E+00 0.  1.
         23    2    1    2    0    0 -0.74249341682E+02 -0.16902249381E+03 -0.68531412499E+02  0.21527244118E+03  0.86971841877E+02 0.  0.
        254    2    1    2    0    0  0.74249341682E+02  0.16902249381E+03  0.74098442193E+03  0.11785991363E+04  0.89775076853E+03 0.  0.
        -24    2    4    4    0    0 -0.15344451369E+03 -0.32123581393E+03  0.23507807348E+03  0.43394754612E+03  0.79442464836E+02 0.  0.
         24    2    4    4    0    0  0.22769385537E+03  0.49025830774E+03  0.50590634845E+03  0.74465159018E+03  0.79793842346E+02 0.  0.
         11    1    3    3    0    0 -0.46551363852E+02 -0.98880319557E+02 -0.84549339842E+02  0.13817719761E+03  0.00000000000E+00 0.  1.
        -11    1    3    3    0    0 -0.27697977830E+02 -0.70142174254E+02  0.16017927343E+02  0.77095243571E+02  0.00000000000E+00 0. -1.
          2    1    6    6  502    0  0.99877352345E+02  0.15905709091E+03  0.13551503538E+03  0.23160088189E+03  0.00000000000E+00 0. -1.
          3    1    5    5  503    0 -0.43707559536E+01  0.21433627486E+01 -0.28935919121E+01  0.56630721019E+01  0.00000000000E+00 0. -1.
         -4    1    5    5    0  503 -0.14907375773E+03 -0.32337917668E+03  0.23797166539E+03  0.42828447401E+03  0.00000000000E+00 0.  1.
         -1    1    6    6    0  502  0.12781650302E+03  0.33120121683E+03  0.37039131308E+03  0.51305070829E+03  0.00000000000E+00 0.  1.
<mgrwt>
<rscale>  0 0.12209361E+04</rscale>
<asrwt>0</asrwt>
<pdfrwt beam="1">  1        2 0.15894804E+00 0.12209361E+04</pdfrwt>
<pdfrwt beam="2">  1       -2 0.55493737E-01 0.12209361E+04</pdfrwt>
<totfact> 0.72135807E+01</totfact>
</mgrwt>
</event>
<event>
12    1  0.2433511E-007  0.2501392E+04  0.7818608E-02  0.8402490E-01
          1   -1    0    0  501    0  0.00000000000E+00  0.00000000000E+00  0.15207190877E+04  0.15207190877E+04  0.00000000000E+00 0. -1.
         -1   -1    0    0    0  501 -0.00000000000E+00 -0.00000000000E+00 -0.10286188989E+04  0.10286188989E+04  0.00000000000E+00 0.  1.
         23    2    1    2    0    0  0.10583956284E+04 -0.96014768745E+01  0.46432703518E+03  0.11596748716E+04  0.94618801633E+02 0.  0.
        254    2    1    2    0    0 -0.10583956284E+04  0.96014768745E+01  0.27773153574E+02  0.13896631150E+04  0.90005484861E+03 0.  0.
        -24    2    4    4    0    0 -0.99759868659E+03  0.24902871823E+03 -0.19280944779E+03  0.10491493297E+04  0.79500886417E+02 0.  0.
         24    2    4    4    0    0 -0.60796941804E+02 -0.23942724135E+03  0.22058260136E+03  0.34051378524E+03  0.79191425562E+02 0.  0.
         13    1    3    3    0    0  0.15284766652E+03  0.95616751213E+01  0.33902860567E+02  0.15685419582E+03  0.00000000000E+00 0.  1.
        -13    1    3    3    0    0  0.90554796187E+03 -0.19163151996E+02  0.43042417462E+03  0.10028206758E+04  0.00000000000E+00 0. -1.
          2    1    6    6  502    0 -0.68110770959E+02 -0.13145108986E+03  0.15310130647E+03  0.21297529478E+03  0.00000000000E+00 0. -1.
          3    1    5    5  503    0 -0.96606277195E+03  0.23408682445E+03 -0.19890489135E+03  0.10137243592E+04  0.00000000000E+00 0. -1.
         -4    1    5    5    0  503 -0.31535914636E+02  0.14941893775E+02  0.60954435650E+01  0.35424970483E+02  0.00000000000E+00 0.  1.
         -1    1    6    6    0  502  0.73138291553E+01 -0.10797615149E+03  0.67481294893E+02  0.12753849046E+03  0.00000000000E+00 0.  1.
<mgrwt>
<rscale>  0 0.25013919E+04</rscale>
<asrwt>0</asrwt>
<pdfrwt beam="1">  1        1 0.23395678E+00 0.25013919E+04</pdfrwt>
<pdfrwt beam="2">  1       -1 0.15824906E+00 0.25013919E+04</pdfrwt>
<totfact> 0.16941822E+00</totfact>
</mgrwt>
</event>
<event>
12    1  0.2433511E-007  0.1423334E+04  0.7818608E-02  0.8937099E-01
         -1   -1    0    0    0  501 -0.00000000000E+00  0.00000000000E+00  0.27292266913E+03  0.27292266913E+03  0.00000000000E+00 0.  1.
          1   -1    0    0  501    0  0.00000000000E+00 -0.00000000000E+00 -0.18557269312E+04  0.18557269312E+04  0.00000000000E+00 0. -1.
         23    2    1    2    0    0 -0.11704328855E+03  0.35192482776E+03 -0.79940526196E+03  0.88588287448E+03  0.90495738352E+02 0.  0.
        254    2    1    2    0    0  0.11704328855E+03 -0.35192482776E+03 -0.78339900014E+03  0.12427667259E+04  0.89062052847E+03 0.  0.
        -24    2    4    4    0    0  0.18074656676E+03  0.26973688760E+03 -0.28363101728E+03  0.43860469769E+03  0.80623922945E+02 0.  0.
         24    2    4    4    0    0 -0.63703278205E+02 -0.62166171536E+03 -0.49976798286E+03  0.80416202819E+03  0.79919552570E+02 0.  0.
         13    1    3    3    0    0  0.25363548011E+01  0.11908464213E+03 -0.22258280073E+03  0.25244937763E+03  0.00000000000E+00 0.  1.
        -13    1    3    3    0    0 -0.11957964335E+03  0.23284018564E+03 -0.57682246123E+03  0.63343349685E+03  0.00000000000E+00 0. -1.
          4    1    6    6  502    0  0.13202420251E+02 -0.22704913129E+03 -0.16473607513E+03  0.28082661264E+03  0.00000000000E+00 0. -1.
          1    1    5    5  503    0  0.12444165186E+03  0.19188583287E+03 -0.24469956313E+03  0.33493846266E+03  0.00000000000E+00 0. -1.
         -2    1    5    5    0  503  0.56304914891E+02  0.77851054730E+02 -0.38931454150E+02  0.10366623503E+03  0.00000000000E+00 0.  1.
         -3    1    6    6    0  502 -0.76905698455E+02 -0.39461258407E+03 -0.33503190773E+03  0.52333541554E+03  0.00000000000E+00 0.  1.
<mgrwt>
<rscale>  0 0.14233340E+04</rscale>
<asrwt>0</asrwt>
<pdfrwt beam="1">  1        1 0.28549643E+00 0.14233340E+04</pdfrwt>
<pdfrwt beam="2">  1       -1 0.41988105E-01 0.14233340E+04</pdfrwt>
<totfact> 0.20252583E+01</totfact>
</mgrwt>
</event>
<event>
12    1  0.2433511E-007  0.2296296E+04  0.7818608E-02  0.8479383E-01
         -2   -1    0    0    0  501 -0.00000000000E+00  0.00000000000E+00  0.53612738694E+03  0.53612738694E+03  0.00000000000E+00 0. -1.
          2   -1    0    0  501    0  0.00000000000E+00 -0.00000000000E+00 -0.24588261985E+04  0.24588261985E+04  0.00000000000E+00 0.  1.
         23    2    1    2    0    0 -0.51619810294E+03 -0.42484333344E+03  0.10118984780E+03  0.68144846638E+03  0.84736577609E+02 0.  0.
        254    2    1    2    0    0  0.51619810294E+03  0.42484333344E+03 -0.20238886594E+04  0.23135051191E+04  0.89957117062E+03 0.  0.
        -24    2    4    4    0    0  0.63253195893E+03  0.83639236136E+02 -0.75430454671E+03  0.99131094937E+03  0.81423880176E+02 0.  0.
         24    2    4    4    0    0 -0.11633385599E+03  0.34120409731E+03 -0.12695841127E+04  0.13221941697E+04  0.79998757537E+02 0.  0.
         13    1    3    3    0    0 -0.30754268475E+03 -0.24175842087E+03  0.10034736479E+03  0.40385545759E+03  0.00000000000E+00 0. -1.
        -13    1    3    3    0    0 -0.20865541818E+03 -0.18308491258E+03  0.84248301011E+00  0.27759300879E+03  0.00000000000E+00 0.  1.
          4    1    6    6  502    0 -0.54228168042E+02  0.58756533187E+02 -0.28846414969E+03  0.29934025799E+03  0.00000000000E+00 0. -1.
          3    1    5    5  503    0  0.31237013963E+02  0.27846080915E+01 -0.70464194447E+02  0.77127866447E+02  0.00000000000E+00 0. -1.
         -4    1    5    5    0  503  0.60129494497E+03  0.80854628045E+02 -0.68384035226E+03  0.91418308292E+03  0.00000000000E+00 0.  1.
         -3    1    6    6    0  502 -0.62105687953E+02  0.28244756412E+03 -0.98111996300E+03  0.10228539117E+04  0.00000000000E+00 0.  1.
<mgrwt>
<rscale>  0 0.22962962E+04</rscale>
<asrwt>0</asrwt>
<pdfrwt beam="1">  1        2 0.37828096E+00 0.22962962E+04</pdfrwt>
<pdfrwt beam="2">  1       -2 0.82481136E-01 0.22962962E+04</pdfrwt>
<totfact> 0.43024535E+00</totfact>
</mgrwt>
</event>
<event>
12    1  0.2433511E-007  0.2838191E+04  0.7818608E-02  0.8291509E-01
         -2   -1    0    0    0  501 -0.00000000000E+00  0.00000000000E+00  0.10890848579E+04  0.10890848579E+04  0.00000000000E+00 0.  1.
          2   -1    0    0  501    0  0.00000000000E+00 -0.00000000000E+00 -0.18491051768E+04  0.18491051768E+04  0.00000000000E+00 0. -1.
         23    2    1    2    0    0  0.43844676472E+03  0.11034005307E+04 -0.82158754508E+03  0.14467523436E+04  0.91421839501E+02 0.  0.
        254    2    1    2    0    0 -0.43844676472E+03 -0.11034005307E+04  0.61567226222E+02  0.14914376911E+04  0.90048185238E+03 0.  0.
        -24    2    4    4    0    0 -0.41828602369E+03 -0.83933227030E+02 -0.12558358801E+03  0.45172089839E+03  0.79199420811E+02 0.  0.
         24    2    4    4    0    0 -0.20160741032E+02 -0.10194673037E+04  0.18715081423E+03  0.10397167927E+04  0.79155183411E+02 0.  0.
         13    1    3    3    0    0  0.13896200890E+03  0.44834423983E+03 -0.29289024557E+03  0.55327000033E+03  0.00000000000E+00 0. -1.
        -13    1    3    3    0    0  0.29948475582E+03  0.65505629085E+03 -0.52869729951E+03  0.89348234323E+03  0.00000000000E+00 0.  1.
          4    1    6    6  502    0 -0.58314251723E+01 -0.98679563828E+03  0.17639130825E+03  0.10024537550E+04  0.00000000000E+00 0. -1.
          3    1    5    5  503    0 -0.32070597115E+03 -0.31351942487E+02 -0.10553990545E+03  0.33907806752E+03  0.00000000000E+00 0. -1.
         -4    1    5    5    0  503 -0.97580052535E+02 -0.52581284543E+02 -0.20043682561E+02  0.11264283087E+03  0.00000000000E+00 0.  1.
         -1    1    6    6    0  502 -0.14329315860E+02 -0.32671665370E+02  0.10759505975E+02  0.37263037717E+02  0.00000000000E+00 0.  1.
<mgrwt>
<rscale>  0 0.28381913E+04</rscale>
<asrwt>0</asrwt>
<pdfrwt beam="1">  1        2 0.28447772E+00 0.28381913E+04</pdfrwt>
<pdfrwt beam="2">  1       -2 0.16755152E+00 0.28381913E+04</pdfrwt>
<totfact> 0.15601001E+00</totfact>
</mgrwt>
</event>
<event>
12    1  0.2433511E-007  0.2308021E+04  0.7818608E-02  0.8474765E-01
         -1   -1    0    0    0  501 -0.00000000000E+00  0.00000000000E+00  0.11832446648E+04  0.11832446648E+04  0.00000000000E+00 0.  1.
          1   -1    0    0  501    0  0.00000000000E+00 -0.00000000000E+00 -0.11254983652E+04  0.11254983652E+04  0.00000000000E+00 0. -1.
         23    2    1    2    0    0 -0.76857555400E+03 -0.59758575730E+03  0.53614086681E+02  0.97950833853E+03  0.93514680227E+02 0.  0.
        254    2    1    2    0    0  0.76857555400E+03  0.59758575730E+03  0.41322129180E+01  0.13292346916E+04  0.90500313289E+03 0.  0.
        -24    2    4    4    0    0  0.86744329239E+03  0.71704062379E+03  0.95282017563E+02  0.11324105527E+04  0.81669304090E+02 0.  0.
         24    2    4    4    0    0 -0.98867738394E+02 -0.11945486648E+03 -0.91149804645E+02  0.19682413890E+03  0.79919709376E+02 0.  0.
         11    1    3    3    0    0 -0.44430366170E+03 -0.31055507621E+03 -0.76840704424E+01  0.54213397246E+03  0.00000000000E+00 0.  1.
        -11    1    3    3    0    0 -0.32427189230E+03 -0.28703068109E+03  0.61298157123E+02  0.43737436606E+03  0.00000000000E+00 0. -1.
          2    1    6    6  502    0 -0.94512584312E+02 -0.62301798726E+02 -0.40173754698E+02  0.12011691506E+03  0.00000000000E+00 0. -1.
          1    1    5    5  503    0  0.18488570374E+03  0.12019773856E+03 -0.17761637547E+01  0.22052975890E+03  0.00000000000E+00 0. -1.
         -2    1    5    5    0  503  0.68255758866E+03  0.59684288522E+03  0.97058181318E+02  0.91188079376E+03  0.00000000000E+00 0.  1.
         -1    1    6    6    0  502 -0.43551540828E+01 -0.57153067758E+02 -0.50976049947E+02  0.76707223841E+02  0.00000000000E+00 0.  1.
<mgrwt>
<rscale>  0 0.23080207E+04</rscale>
<asrwt>0</asrwt>
<pdfrwt beam="1">  1        1 0.17315360E+00 0.23080207E+04</pdfrwt>
<pdfrwt beam="2">  1       -1 0.18203764E+00 0.23080207E+04</pdfrwt>
<totfact> 0.22051328E+00</totfact>
</mgrwt>
</event>
<event>
12    1  0.2433511E-007  0.1619521E+04  0.7818608E-02  0.8808645E-01
          1   -1    0    0  501    0  0.00000000000E+00  0.00000000000E+00  0.14382414871E+04  0.14382414871E+04  0.00000000000E+00 0. -1.
         -1   -1    0    0    0  501 -0.00000000000E+00 -0.00000000000E+00 -0.45591214183E+03  0.45591214183E+03  0.00000000000E+00 0.  1.
         23    2    1    2    0    0  0.41985913762E+03  0.38493489223E+02  0.76411864392E+03  0.87742640404E+03  0.90754329772E+02 0.  0.
        254    2    1    2    0    0 -0.41985913762E+03 -0.38493489223E+02  0.21821070140E+03  0.10167272249E+04  0.89908558855E+03 0.  0.
        -24    2    4    4    0    0 -0.10526627777E+03  0.40688761826E+03  0.10552728414E+02  0.42795366481E+03  0.79965342636E+02 0.  0.
         24    2    4    4    0    0 -0.31459285985E+03 -0.44538110748E+03  0.20765797299E+03  0.58877356012E+03  0.78736732073E+02 0.  0.
         11    1    3    3    0    0  0.37133382234E+03  0.45621592519E+01  0.64085486127E+03  0.74067845529E+03  0.00000000000E+00 0. -1.
        -11    1    3    3    0    0  0.48525315281E+02  0.33931329971E+02  0.12326378265E+03  0.13674794876E+03  0.00000000000E+00 0.  1.
          4    1    6    6  502    0 -0.52334545733E+02 -0.12326776696E+03  0.70488822206E+02  0.15133578924E+03  0.00000000000E+00 0. -1.
          3    1    5    5  503    0 -0.82409767767E+02  0.16512383337E+03 -0.50058978971E+01  0.18461394634E+03  0.00000000000E+00 0. -1.
         -4    1    5    5    0  503 -0.22856510002E+02  0.24176378489E+03  0.15558626311E+02  0.24333971847E+03  0.00000000000E+00 0.  1.
         -3    1    6    6    0  502 -0.26225831412E+03 -0.32211334052E+03  0.13716915078E+03  0.43743777088E+03  0.00000000000E+00 0.  1.
<mgrwt>
<rscale>  0 0.16195206E+04</rscale>
<asrwt>0</asrwt>
<pdfrwt beam="1">  1        1 0.22126792E+00 0.16195206E+04</pdfrwt>
<pdfrwt beam="2">  1       -1 0.70140330E-01 0.16195206E+04</pdfrwt>
<totfact> 0.14217179E+01</totfact>
</mgrwt>
</event>
<event>
12    1  0.2433511E-007  0.2738313E+04  0.7818608E-02  0.8322680E-01
         -2   -1    0    0    0  501 -0.00000000000E+00  0.00000000000E+00  0.14903034442E+04  0.14903034442E+04  0.00000000000E+00 0.  1.
          2   -1    0    0  501    0  0.00000000000E+00 -0.00000000000E+00 -0.12578572546E+04  0.12578572546E+04  0.00000000000E+00 0. -1.
         23    2    1    2    0    0 -0.39622566285E+03 -0.11280826234E+04 -0.13861282726E+03  0.12070394128E+04  0.90362862992E+02 0.  0.
        254    2    1    2    0    0  0.39622566285E+03  0.11280826234E+04  0.37105901687E+03  0.15411212861E+04  0.89877964107E+03 0.  0.
        -24    2    4    4    0    0 -0.75207129366E+02 -0.11754490331E+03  0.33648426972E+02  0.16483085223E+03  0.81018989177E+02 0.  0.
         24    2    4    4    0    0  0.47143279221E+03  0.12456275267E+04  0.33741058990E+03  0.13762904338E+04  0.80576914769E+02 0.  0.
         13    1    3    3    0    0 -0.22627692865E+03 -0.75348757812E+03 -0.67823538552E+02  0.78964853651E+03  0.00000000000E+00 0.  1.
        -13    1    3    3    0    0 -0.16994873420E+03 -0.37459504529E+03 -0.70789288706E+02  0.41739087629E+03  0.00000000000E+00 0. -1.
          2    1    6    6  502    0  0.18732793490E+03  0.55129060529E+03  0.18322657418E+03  0.61039746408E+03  0.00000000000E+00 0. -1.
          3    1    5    5  503    0 -0.18428558336E+02 -0.99310500378E+02  0.28631499811E+02  0.10498547532E+03  0.00000000000E+00 0. -1.
         -4    1    5    5    0  503 -0.56778571031E+02 -0.18234402928E+02  0.50169271610E+01  0.59845376902E+02  0.00000000000E+00 0.  1.
         -1    1    6    6    0  502  0.28410485731E+03  0.69433692144E+03  0.15418401572E+03  0.76589296975E+03  0.00000000000E+00 0.  1.
<mgrwt>
<rscale>  0 0.27383126E+04</rscale>
<asrwt>0</asrwt>
<pdfrwt beam="1">  1        2 0.19351650E+00 0.27383126E+04</pdfrwt>
<pdfrwt beam="2">  1       -2 0.22927745E+00 0.27383126E+04</pdfrwt>
<totfact> 0.13222400E+00</totfact>
</mgrwt>
</event>
<event>
12    1  0.2433511E-007  0.1588485E+04  0.7818608E-02  0.8827654E-01
         -2   -1    0    0    0  501 -0.00000000000E+00  0.00000000000E+00  0.76768438461E+03  0.76768438461E+03  0.00000000000E+00 0.  1.
          2   -1    0    0  501    0  0.00000000000E+00 -0.00000000000E+00 -0.82171926793E+03  0.82171926793E+03  0.00000000000E+00 0. -1.
         23    2    1    2    0    0  0.38474418326E+03 -0.11695811401E+03  0.33259731806E+03  0.52988956214E+03  0.91949361579E+02 0.  0.
        254    2    1    2    0    0 -0.38474418326E+03  0.11695811401E+03 -0.38663220138E+03  0.10595140904E+04  0.90076543098E+03 0.  0.
        -24    2    4    4    0    0 -0.38690684236E+03  0.28684266906E+03  0.13413534777E+03  0.50615404920E+03  0.78892385851E+02 0.  0.
         24    2    4    4    0    0  0.21626591026E+01 -0.16988455505E+03 -0.52076754915E+03  0.55336004121E+03  0.78377648694E+02 0.  0.
         11    1    3    3    0    0  0.20287312894E+03 -0.61549377982E+02  0.11592364972E+03  0.24162807151E+03  0.00000000000E+00 0. -1.
        -11    1    3    3    0    0  0.18187105432E+03 -0.55408736023E+02  0.21667366834E+03  0.28826149063E+03  0.00000000000E+00 0.  1.
          2    1    6    6  502    0 -0.57241154743E+01 -0.16836560672E+03 -0.51825010549E+03  0.54494303819E+03  0.00000000000E+00 0. -1.
          1    1    5    5  503    0 -0.34527082766E+03  0.28209332903E+03  0.11761653444E+03  0.46110979158E+03  0.00000000000E+00 0. -1.
         -2    1    5    5    0  503 -0.41636014706E+02  0.47493400255E+01  0.16518813330E+02  0.45044257626E+02  0.00000000000E+00 0.  1.
         -1    1    6    6    0  502  0.78867745768E+01 -0.15189483338E+01 -0.25174436579E+01  0.84170030199E+01  0.00000000000E+00 0.  1.
<mgrwt>
<rscale>  0 0.15884849E+04</rscale>
<asrwt>0</asrwt>
<pdfrwt beam="1">  1        2 0.12641835E+00 0.15884849E+04</pdfrwt>
<pdfrwt beam="2">  1       -2 0.11810529E+00 0.15884849E+04</pdfrwt>
<totfact> 0.17617439E+01</totfact>
</mgrwt>
</event>
<event>
12    1  0.2433511E-007  0.1667838E+04  0.7818608E-02  0.8779923E-01
         -2   -1    0    0    0  501 -0.00000000000E+00  0.00000000000E+00  0.76724374486E+03  0.76724374486E+03  0.00000000000E+00 0.  1.
          2   -1    0    0  501    0  0.00000000000E+00 -0.00000000000E+00 -0.90638803020E+03  0.90638803020E+03  0.00000000000E+00 0. -1.
         23    2    1    2    0    0 -0.31853618767E+03 -0.25917934278E+03 -0.45803784219E+03  0.62128920317E+03  0.86961914216E+02 0.  0.
        254    2    1    2    0    0  0.31853618767E+03  0.25917934278E+03  0.31889355685E+03  0.10523425719E+04  0.91492762195E+03 0.  0.
        -24    2    4    4    0    0  0.76523481466E+02 -0.28561439970E+03 -0.97201048284E+02  0.32095414319E+03  0.78307660599E+02 0.  0.
         24    2    4    4    0    0  0.24201270621E+03  0.54479374248E+03  0.41609460513E+03  0.73138842869E+03  0.80149494031E+02 0.  0.
         11    1    3    3    0    0 -0.17155459847E+01 -0.18619797045E+02 -0.71887614894E+01  0.20032928687E+02  0.00000000000E+00 0.  1.
        -11    1    3    3    0    0 -0.31682064169E+03 -0.24055954573E+03 -0.45084908070E+03  0.60125627449E+03  0.00000000000E+00 0. -1.
          4    1    6    6  502    0  0.53416682546E+01  0.10877232239E+02 -0.30870188949E+01  0.12505090427E+02  0.00000000000E+00 0. -1.
          1    1    5    5  503    0  0.70721557624E+02 -0.20980587980E+03 -0.38108989698E+02  0.22466050167E+03  0.00000000000E+00 0. -1.
         -2    1    5    5    0  503  0.58019238418E+01 -0.75808519899E+02 -0.59092058586E+02  0.96293641521E+02  0.00000000000E+00 0.  1.
         -1    1    6    6    0  502  0.23667103795E+03  0.53391651024E+03  0.41918162403E+03  0.71888333826E+03  0.00000000000E+00 0.  1.
<mgrwt>
<rscale>  0 0.16678376E+04</rscale>
<asrwt>0</asrwt>
<pdfrwt beam="1">  1        2 0.13944431E+00 0.16678376E+04</pdfrwt>
<pdfrwt beam="2">  1       -2 0.11803750E+00 0.16678376E+04</pdfrwt>
<totfact> 0.15319588E+01</totfact>
</mgrwt>
</event>
<event>
12    1  0.2433511E-007  0.4443058E+04  0.7818608E-02  0.7920682E-01
         -2   -1    0    0    0  501 -0.00000000000E+00  0.00000000000E+00  0.26831952074E+04  0.26831952074E+04  0.00000000000E+00 0.  1.
          2   -1    0    0  501    0  0.00000000000E+00 -0.00000000000E+00 -0.18392960855E+04  0.18392960855E+04  0.00000000000E+00 0. -1.
         23    2    1    2    0    0 -0.12028775159E+04 -0.17412732319E+04  0.65029495953E+03  0.22158605635E+04  0.90596445724E+02 0.  0.
        254    2    1    2    0    0  0.12028775159E+04  0.17412732319E+04  0.19360416238E+03  0.23066307293E+04  0.89672513246E+03 0.  0.
        -24    2    4    4    0    0  0.23930263796E+03  0.82087050901E+03 -0.25873655666E+03  0.89733948610E+03  0.84731354704E+02 0.  0.
         24    2    4    4    0    0  0.96357487797E+03  0.92040272293E+03  0.45234071905E+03  0.14092912432E+04  0.76628743176E+02 0.  0.
         13    1    3    3    0    0 -0.40772040666E+03 -0.63024317691E+03  0.26930251307E+03  0.79747491220E+03  0.00000000000E+00 0. -1.
        -13    1    3    3    0    0 -0.79515710927E+03 -0.11110300550E+04  0.38099244646E+03  0.14183856513E+04  0.00000000000E+00 0.  1.
          2    1    6    6  502    0  0.11127281302E+02  0.20147207135E+01  0.67715014884E+01  0.13180619148E+02  0.00000000000E+00 0. -1.
          1    1    5    5  503    0  0.53023110074E+02  0.30569709418E+03 -0.71349981807E+02  0.31835983336E+03  0.00000000000E+00 0. -1.
         -2    1    5    5    0  503  0.18627952788E+03  0.51517341483E+03 -0.18738657486E+03  0.57897965274E+03  0.00000000000E+00 0.  1.
         -1    1    6    6    0  502  0.95244759666E+03  0.91838800221E+03  0.44556921756E+03  0.13961106241E+04  0.00000000000E+00 0.  1.
<mgrwt>
<rscale>  0 0.44430577E+04</rscale>
<asrwt>0</asrwt>
<pdfrwt beam="1">  1        2 0.28296863E+00 0.44430577E+04</pdfrwt>
<pdfrwt beam="2">  1       -2 0.41279926E+00 0.44430577E+04</pdfrwt>
<totfact> 0.38215920E-02</totfact>
</mgrwt>
</event>
<event>
12    1  0.2433511E-007  0.1784890E+04  0.7818608E-02  0.8714376E-01
          2   -1    0    0  501    0  0.00000000000E+00  0.00000000000E+00  0.21196618062E+04  0.21196618062E+04  0.00000000000E+00 0. -1.
         -2   -1    0    0    0  501 -0.00000000000E+00 -0.00000000000E+00 -0.37574760817E+03  0.37574760817E+03  0.00000000000E+00 0.  1.
         23    2    1    2    0    0 -0.63250878619E+03  0.13278217774E+03  0.86226651909E+03  0.10793967886E+04  0.62413187582E+02 0.  0.
        254    2    1    2    0    0  0.63250878619E+03 -0.13278217774E+03  0.88164767897E+03  0.14160126258E+04  0.90005036263E+03 0.  0.
        -24    2    4    4    0    0  0.20004179625E+03 -0.49239848499E+03  0.47530332750E+03  0.71752625138E+03  0.80359691545E+02 0.  0.
         24    2    4    4    0    0  0.43246698994E+03  0.35961630725E+03  0.40634435147E+03  0.69848637442E+03  0.80099297469E+02 0.  0.
         11    1    3    3    0    0 -0.40716879407E+03  0.72510216792E+02  0.50525732866E+03  0.65293883831E+03  0.00000000000E+00 0.  1.
        -11    1    3    3    0    0 -0.22533999211E+03  0.60271960950E+02  0.35700919043E+03  0.42645795030E+03  0.00000000000E+00 0. -1.
          2    1    6    6  502    0  0.38475476344E+03  0.33246470048E+03  0.33695069945E+03  0.61000391713E+03  0.00000000000E+00 0. -1.
          3    1    5    5  503    0  0.19020370210E+03 -0.38420451799E+03  0.37177447083E+03  0.56745644511E+03  0.00000000000E+00 0. -1.
         -4    1    5    5    0  503  0.98380941506E+01 -0.10819396700E+03  0.10352885667E+03  0.15006980627E+03  0.00000000000E+00 0.  1.
         -1    1    6    6    0  502  0.47712226504E+02  0.27151606766E+02  0.69393652018E+02  0.88482457292E+02  0.00000000000E+00 0.  1.
<mgrwt>
<rscale>  0 0.17848897E+04</rscale>
<asrwt>0</asrwt>
<pdfrwt beam="1">  1        2 0.32610181E+00 0.17848897E+04</pdfrwt>
<pdfrwt beam="2">  1       -2 0.57807325E-01 0.17848897E+04</pdfrwt>
<totfact> 0.15172727E+01</totfact>
</mgrwt>
</event>
<event>
12    1  0.2433511E-007  0.3583064E+04  0.7818608E-02  0.8094382E-01
         -1   -1    0    0    0  501 -0.00000000000E+00  0.00000000000E+00  0.16129681670E+04  0.16129681670E+04  0.00000000000E+00 0.  1.
          1   -1    0    0  501    0  0.00000000000E+00 -0.00000000000E+00 -0.19898637540E+04  0.19898637540E+04  0.00000000000E+00 0. -1.
         23    2    1    2    0    0  0.12157939240E+04  0.25656980416E+03  0.95571097614E+03  0.15706284948E+04  0.97506249763E+02 0.  0.
        254    2    1    2    0    0 -0.12157939240E+04 -0.25656980416E+03 -0.13326065632E+04  0.20322034262E+04  0.90001532368E+03 0.  0.
        -24    2    4    4    0    0 -0.61003782235E+03 -0.39538294502E+03 -0.11788996002E+04  0.13871829664E+04  0.77449964967E+02 0.  0.
         24    2    4    4    0    0 -0.60575610169E+03  0.13881314086E+03 -0.15370696305E+03  0.64502045977E+03  0.78841741659E+02 0.  0.
         11    1    3    3    0    0  0.40511166445E+03  0.41729082281E+02  0.33272428450E+03  0.52589183914E+03  0.00000000000E+00 0.  1.
        -11    1    3    3    0    0  0.81068225959E+03  0.21484072188E+03  0.62298669164E+03  0.10447366557E+04  0.00000000000E+00 0. -1.
          2    1    6    6  502    0 -0.30354825952E+03  0.78721814614E+02 -0.37985594376E+02  0.31588221750E+03  0.00000000000E+00 0. -1.
          1    1    5    5  503    0 -0.30593203767E+03 -0.18318626143E+03 -0.50860763795E+03  0.62115484980E+03  0.00000000000E+00 0. -1.
         -2    1    5    5    0  503 -0.30410578468E+03 -0.21219668359E+03 -0.67029196220E+03  0.76602811658E+03  0.00000000000E+00 0.  1.
         -1    1    6    6    0  502 -0.30220784217E+03  0.60091326246E+02 -0.11572136867E+03  0.32913824227E+03  0.00000000000E+00 0.  1.
<mgrwt>
<rscale>  0 0.35830640E+04</rscale>
<asrwt>0</asrwt>
<pdfrwt beam="1">  1        1 0.30613288E+00 0.35830640E+04</pdfrwt>
<pdfrwt beam="2">  1       -1 0.24814895E+00 0.35830640E+04</pdfrwt>
<totfact> 0.17586478E-01</totfact>
</mgrwt>
</event>
<event>
12    1  0.2433511E-007  0.2773398E+04  0.7818608E-02  0.8311575E-01
          2   -1    0    0  501    0  0.00000000000E+00  0.00000000000E+00  0.19552008760E+04  0.19552008760E+04  0.00000000000E+00 0. -1.
         -2   -1    0    0    0  501 -0.00000000000E+00 -0.00000000000E+00 -0.98349681091E+03  0.98349681091E+03  0.00000000000E+00 0.  1.
         23    2    1    2    0    0 -0.28538099207E+03 -0.11825890705E+04  0.68338699192E+03  0.13983001506E+04  0.90919250035E+02 0.  0.
        254    2    1    2    0    0  0.28538099207E+03  0.11825890705E+04  0.28831707319E+03  0.15403975363E+04  0.89985477435E+03 0.  0.
        -24    2    4    4    0    0  0.21465591789E+03  0.12269492414E+04  0.46275237940E+03  0.13311905439E+04  0.80292561603E+02 0.  0.
         24    2    4    4    0    0  0.70725074181E+02 -0.44360170862E+02 -0.17443530621E+03  0.20920699246E+03  0.79812459960E+02 0.  0.
         13    1    3    3    0    0 -0.11786418639E+03 -0.32966035899E+03  0.17638781765E+03  0.39202114859E+03  0.00000000000E+00 0.  1.
        -13    1    3    3    0    0 -0.16751680568E+03 -0.85292871154E+03  0.50699917426E+03  0.10062790020E+04  0.00000000000E+00 0. -1.
          2    1    6    6  502    0  0.43485633637E+02  0.78771260789E+01 -0.30540854631E+02  0.53719579761E+02  0.00000000000E+00 0. -1.
          1    1    5    5  503    0  0.36256511314E+02  0.39037183312E+03  0.12439584008E+03  0.41131378257E+03  0.00000000000E+00 0. -1.
         -2    1    5    5    0  503  0.17839940657E+03  0.83657740828E+03  0.33835653933E+03  0.91987676132E+03  0.00000000000E+00 0.  1.
         -1    1    6    6    0  502  0.27239440544E+02 -0.52237296941E+02 -0.14389445158E+03  0.15548741270E+03  0.00000000000E+00 0.  1.
<mgrwt>
<rscale>  0 0.27733978E+04</rscale>
<asrwt>0</asrwt>
<pdfrwt beam="1">  1        2 0.30080013E+00 0.27733978E+04</pdfrwt>
<pdfrwt beam="2">  1       -2 0.15130720E+00 0.27733978E+04</pdfrwt>
<totfact> 0.18067947E+00</totfact>
</mgrwt>
</event>
<event>
12    1  0.2433511E-007  0.2609583E+04  0.7818608E-02  0.8364953E-01
         -1   -1    0    0    0  501 -0.00000000000E+00  0.00000000000E+00  0.10094513984E+04  0.10094513984E+04  0.00000000000E+00 0.  1.
          1   -1    0    0  501    0  0.00000000000E+00 -0.00000000000E+00 -0.16865406081E+04  0.16865406081E+04  0.00000000000E+00 0. -1.
         23    2    1    2    0    0  0.37184825242E+03 -0.10626149676E+04 -0.52805945019E+03  0.12468066411E+04  0.90875327421E+02 0.  0.
        254    2    1    2    0    0 -0.37184825242E+03  0.10626149676E+04 -0.14902975954E+03  0.14491853654E+04  0.90028143485E+03 0.  0.
        -24    2    4    4    0    0 -0.28759954691E+03  0.11079299723E+04 -0.36121594205E+03  0.12031330148E+04  0.82642431150E+02 0.  0.
         24    2    4    4    0    0 -0.84248705509E+02 -0.45315004757E+02  0.21218618251E+03  0.24605235065E+03  0.79796548639E+02 0.  0.
         11    1    3    3    0    0  0.91128368541E+02 -0.23930445109E+03 -0.79602872632E+02  0.26815595685E+03  0.00000000000E+00 0.  1.
        -11    1    3    3    0    0  0.28071988388E+03 -0.82331051650E+03 -0.44845657756E+03  0.97865068423E+03  0.00000000000E+00 0. -1.
          4    1    6    6  502    0 -0.87670386951E+01  0.16249816267E-01 -0.60981381966E+01  0.10679350215E+02  0.00000000000E+00 0. -1.
          3    1    5    5  503    0 -0.15955484873E+03  0.72909794143E+03 -0.20684607410E+03  0.77448489741E+03  0.00000000000E+00 0. -1.
         -4    1    5    5    0  503 -0.12804469818E+03  0.37883203092E+03 -0.15436986795E+03  0.42864811736E+03  0.00000000000E+00 0.  1.
         -3    1    6    6    0  502 -0.75481666814E+02 -0.45331254573E+02  0.21828432071E+03  0.23537300044E+03  0.00000000000E+00 0.  1.
<mgrwt>
<rscale>  0 0.26095829E+04</rscale>
<asrwt>0</asrwt>
<pdfrwt beam="1">  1        1 0.25946778E+00 0.26095829E+04</pdfrwt>
<pdfrwt beam="2">  1       -1 0.15530022E+00 0.26095829E+04</pdfrwt>
<totfact> 0.13598487E+00</totfact>
</mgrwt>
</event>
<event>
12    1  0.2433511E-007  0.3318175E+04  0.7818608E-02  0.8158286E-01
         -2   -1    0    0    0  501 -0.00000000000E+00  0.00000000000E+00  0.20440227850E+04  0.20440227850E+04  0.00000000000E+00 0.  1.
          2   -1    0    0  501    0  0.00000000000E+00 -0.00000000000E+00 -0.13466442873E+04  0.13466442873E+04  0.00000000000E+00 0. -1.
         23    2    1    2    0    0 -0.13875624996E+04  0.61013368550E+03  0.69370221180E+02  0.15199711027E+04  0.88921993942E+02 0.  0.
        254    2    1    2    0    0  0.13875624996E+04 -0.61013368550E+03  0.62800827644E+03  0.18706959696E+04  0.89861905771E+03 0.  0.
        -24    2    4    4    0    0  0.68501120873E+03 -0.10886460862E+02  0.64421926620E+03  0.94369987458E+03  0.78690019792E+02 0.  0.
         24    2    4    4    0    0  0.70255129088E+03 -0.59924722463E+03 -0.16210989757E+02  0.92699609502E+03  0.79896254259E+02 0.  0.
         13    1    3    3    0    0 -0.46228414719E+03  0.19664096159E+03 -0.18437381997E+02  0.50270691022E+03  0.00000000000E+00 0. -1.
        -13    1    3    3    0    0 -0.92527835241E+03  0.41349272390E+03  0.87807603177E+02  0.10172641925E+04  0.00000000000E+00 0.  1.
          2    1    6    6  502    0  0.46476581373E+03 -0.44210863918E+03  0.10379443171E+01  0.64145801716E+03  0.00000000000E+00 0. -1.
          1    1    5    5  503    0  0.17238014449E+03  0.30315158531E+02  0.17567272314E+03  0.24798150880E+03  0.00000000000E+00 0. -1.
         -2    1    5    5    0  503  0.51263106424E+03 -0.41201619393E+02  0.46854654306E+03  0.69571836577E+03  0.00000000000E+00 0.  1.
         -1    1    6    6    0  502  0.23778547714E+03 -0.15713858545E+03 -0.17248934074E+02  0.28553807786E+03  0.00000000000E+00 0.  1.
<mgrwt>
<rscale>  0 0.33181752E+04</rscale>
<asrwt>0</asrwt>
<pdfrwt beam="1">  1        2 0.20717604E+00 0.33181752E+04</pdfrwt>
<pdfrwt beam="2">  1       -2 0.31446505E+00 0.33181752E+04</pdfrwt>
<totfact> 0.33544789E-01</totfact>
</mgrwt>
</event>
<event>
12    1  0.2433511E-007  0.1234143E+04  0.7818608E-02  0.9083485E-01
         -1   -1    0    0    0  501 -0.00000000000E+00  0.00000000000E+00  0.17344901851E+03  0.17344901851E+03  0.00000000000E+00 0. -1.
          1   -1    0    0  501    0  0.00000000000E+00 -0.00000000000E+00 -0.21953254181E+04  0.21953254181E+04  0.00000000000E+00 0.  1.
         23    2    1    2    0    0 -0.65973663401E+01 -0.25021244693E+03 -0.23047141266E+03  0.34738061129E+03  0.70045864998E+02 0.  0.
        254    2    1    2    0    0  0.65973663401E+01  0.25021244693E+03 -0.17914049869E+04  0.20213938253E+04  0.90235878450E+03 0.  0.
        -24    2    4    4    0    0  0.16914247346E+03 -0.17836395231E+03 -0.11703539416E+03  0.28356174629E+03  0.79291264717E+02 0.  0.
         24    2    4    4    0    0 -0.16254510712E+03  0.42857639924E+03 -0.16743695927E+04  0.17378320790E+04  0.80300435067E+02 0.  0.
         11    1    3    3    0    0  0.26572482700E+01 -0.16401817748E+03 -0.10462168285E+03  0.19456289481E+03  0.00000000000E+00 0. -1.
        -11    1    3    3    0    0 -0.92546146101E+01 -0.86194269447E+02 -0.12584972981E+03  0.15281771648E+03  0.00000000000E+00 0.  1.
          4    1    6    6  502    0 -0.84393552478E+02  0.26338964041E+03 -0.86731263343E+03  0.91034475804E+03  0.00000000000E+00 0. -1.
          1    1    5    5  503    0  0.99302010321E+00 -0.33516461491E+02 -0.30581929943E+02  0.45382746929E+02  0.00000000000E+00 0. -1.
         -2    1    5    5    0  503  0.16814945336E+03 -0.14484749082E+03 -0.86453464217E+02  0.23817899936E+03  0.00000000000E+00 0.  1.
         -3    1    6    6    0  502 -0.78151554643E+02  0.16518675883E+03 -0.80705695929E+03  0.82748732095E+03  0.00000000000E+00 0.  1.
<mgrwt>
<rscale>  0 0.12341427E+04</rscale>
<asrwt>0</asrwt>
<pdfrwt beam="1">  1        1 0.33774238E+00 0.12341427E+04</pdfrwt>
<pdfrwt beam="2">  1       -1 0.26684463E-01 0.12341427E+04</pdfrwt>
<totfact> 0.27202009E+01</totfact>
</mgrwt>
</event>
<event>
12    1  0.2433511E-007  0.2668231E+04  0.7818608E-02  0.8345387E-01
         -2   -1    0    0    0  501 -0.00000000000E+00  0.00000000000E+00  0.78843732017E+03  0.78843732017E+03  0.00000000000E+00 0.  1.
          2   -1    0    0  501    0  0.00000000000E+00 -0.00000000000E+00 -0.22574586720E+04  0.22574586720E+04  0.00000000000E+00 0. -1.
         23    2    1    2    0    0 -0.95025431743E+03 -0.66675674422E+03 -0.89208388629E+03  0.14670544886E+04  0.94272946652E+02 0.  0.
        254    2    1    2    0    0  0.95025431743E+03  0.66675674422E+03 -0.57693746555E+03  0.15788415036E+04  0.90129674950E+03 0.  0.
        -24    2    4    4    0    0  0.44825533304E+03  0.27808216175E+03  0.20217025275E+03  0.57055053479E+03  0.79953545077E+02 0.  0.
         24    2    4    4    0    0  0.50199898439E+03  0.38867458247E+03 -0.77910771830E+03  0.10082909688E+04  0.81061271477E+02 0.  0.
         13    1    3    3    0    0 -0.37180229211E+03 -0.21558658215E+03 -0.29660069207E+03  0.52219391930E+03  0.00000000000E+00 0. -1.
        -13    1    3    3    0    0 -0.57845202532E+03 -0.45117016206E+03 -0.59548319422E+03  0.94486056926E+03  0.00000000000E+00 0.  1.
          2    1    6    6  502    0  0.40438920522E+03  0.30231286903E+03 -0.66580853239E+03  0.83559840945E+03  0.00000000000E+00 0. -1.
          3    1    5    5  503    0  0.42630019728E+03  0.24179910174E+03  0.19534251813E+03  0.52759583318E+03  0.00000000000E+00 0. -1.
         -4    1    5    5    0  503  0.21955135762E+02  0.36283060014E+02  0.68277346142E+01  0.42954701609E+02  0.00000000000E+00 0.  1.
         -1    1    6    6    0  502  0.97609779169E+02  0.86361713438E+02 -0.11329918591E+03  0.17269255938E+03  0.00000000000E+00 0.  1.
<mgrwt>
<rscale>  0 0.26682314E+04</rscale>
<asrwt>0</asrwt>
<pdfrwt beam="1">  1        2 0.34730133E+00 0.26682314E+04</pdfrwt>
<pdfrwt beam="2">  1       -2 0.12129805E+00 0.26682314E+04</pdfrwt>
<totfact> 0.21788902E+00</totfact>
</mgrwt>
</event>
<event>
12    1  0.2433511E-007  0.1740393E+04  0.7818608E-02  0.8738656E-01
         -2   -1    0    0    0  501 -0.00000000000E+00  0.00000000000E+00  0.42050056706E+03  0.42050056706E+03  0.00000000000E+00 0.  1.
          2   -1    0    0  501    0  0.00000000000E+00 -0.00000000000E+00 -0.18008112243E+04  0.18008112243E+04  0.00000000000E+00 0. -1.
         23    2    1    2    0    0  0.27877610186E+03  0.56250488754E+03 -0.62655943990E+03  0.89171487451E+03  0.91928353694E+02 0.  0.
        254    2    1    2    0    0 -0.27877610186E+03 -0.56250488754E+03 -0.75375121738E+03  0.13295969169E+04  0.89752949825E+03 0.  0.
        -24    2    4    4    0    0 -0.35071184075E+03 -0.67947337420E+03 -0.26106983560E+03  0.81192887425E+03  0.79926067597E+02 0.  0.
         24    2    4    4    0    0  0.71935738892E+02  0.11696848667E+03 -0.49268138177E+03  0.51766804264E+03  0.79930476174E+02 0.  0.
         13    1    3    3    0    0  0.22424884687E+02  0.92437746526E+02 -0.61476231611E+02  0.11325607926E+03  0.00000000000E+00 0.  1.
        -13    1    3    3    0    0  0.25635121718E+03  0.47006714101E+03 -0.56508320829E+03  0.77845879525E+03  0.00000000000E+00 0. -1.
          2    1    6    6  502    0 -0.17447603274E+02  0.22838362091E+02 -0.10304335722E+03  0.10697636706E+03  0.00000000000E+00 0. -1.
          1    1    5    5  503    0 -0.12305183591E+02 -0.34997749980E+01 -0.29747128249E+01  0.13134492173E+02  0.00000000000E+00 0. -1.
         -4    1    5    5    0  503 -0.33840665716E+03 -0.67597359921E+03 -0.25809512278E+03  0.79879438208E+03  0.00000000000E+00 0.  1.
         -1    1    6    6    0  502  0.89383342166E+02  0.94130124574E+02 -0.38963802455E+03  0.41069167558E+03  0.00000000000E+00 0.  1.
<mgrwt>
<rscale>  0 0.17403932E+04</rscale>
<asrwt>0</asrwt>
<pdfrwt beam="1">  1        2 0.27704789E+00 0.17403932E+04</pdfrwt>
<pdfrwt beam="2">  1       -2 0.64692394E-01 0.17403932E+04</pdfrwt>
<totfact> 0.18031366E+01</totfact>
</mgrwt>
</event>
<event>
12    1  0.2433511E-007  0.1286359E+04  0.7818608E-02  0.9040453E-01
         -1   -1    0    0    0  501 -0.00000000000E+00  0.00000000000E+00  0.73065368492E+03  0.73065368492E+03  0.00000000000E+00 0.  1.
          1   -1    0    0  501    0  0.00000000000E+00 -0.00000000000E+00 -0.56617771832E+03  0.56617771832E+03  0.00000000000E+00 0. -1.
         23    2    1    2    0    0 -0.22732382879E+03 -0.54560680842E+02 -0.17749927278E+03  0.30704239819E+03  0.90089130438E+02 0.  0.
        254    2    1    2    0    0  0.22732382879E+03  0.54560680842E+02  0.34197523937E+03  0.98978900504E+03  0.89893393480E+03 0.  0.
        -24    2    4    4    0    0 -0.17238718577E+03 -0.26585494654E+03 -0.60587231327E+02  0.33309846595E+03  0.82991451366E+02 0.  0.
         24    2    4    4    0    0  0.39971101455E+03  0.32041562738E+03  0.40256247070E+03  0.65669053909E+03  0.82163567920E+02 0.  0.
         11    1    3    3    0    0 -0.13456936454E+03 -0.70223136041E+02 -0.80075095435E+02  0.17161650159E+03  0.00000000000E+00 0. -1.
        -11    1    3    3    0    0 -0.92754464248E+02  0.15662455198E+02 -0.97424177344E+02  0.13542589661E+03  0.00000000000E+00 0.  1.
          4    1    6    6  502    0  0.12263735987E+03  0.52546711878E+02  0.10624120871E+03  0.17055284633E+03  0.00000000000E+00 0. -1.
          3    1    5    5  503    0 -0.85360548913E+02 -0.71846134162E+02  0.15128325380E+01  0.11158216241E+03  0.00000000000E+00 0. -1.
         -4    1    5    5    0  503 -0.87026636852E+02 -0.19400881238E+03 -0.62100063865E+02  0.22151630354E+03  0.00000000000E+00 0.  1.
         -3    1    6    6    0  502  0.27707365468E+03  0.26786891551E+03  0.29632126199E+03  0.48613769276E+03  0.00000000000E+00 0.  1.
<mgrwt>
<rscale>  0 0.12863589E+04</rscale>
<asrwt>0</asrwt>
<pdfrwt beam="1">  1        1 0.87104264E-01 0.12863589E+04</pdfrwt>
<pdfrwt beam="2">  1       -1 0.11240826E+00 0.12863589E+04</pdfrwt>
<totfact> 0.26552680E+01</totfact>
</mgrwt>
</event>
<event>
12    1  0.2433511E-007  0.2445748E+04  0.7818608E-02  0.8422572E-01
          1   -1    0    0  501    0  0.00000000000E+00  0.00000000000E+00  0.11992898886E+04  0.11992898886E+04  0.00000000000E+00 0. -1.
         -1   -1    0    0    0  501 -0.00000000000E+00 -0.00000000000E+00 -0.12469213873E+04  0.12469213873E+04  0.00000000000E+00 0.  1.
         23    2    1    2    0    0 -0.40684380834E+02 -0.10515001544E+04 -0.36937680682E+02  0.10576489616E+04  0.99745377392E+02 0.  0.
        254    2    1    2    0    0  0.40684380834E+02  0.10515001544E+04 -0.10693818071E+02  0.13885623143E+04  0.90591564146E+03 0.  0.
        -24    2    4    4    0    0  0.15919242264E+03  0.93080066477E+03  0.32706608326E+03  0.10025823061E+04  0.80417366382E+02 0.  0.
         24    2    4    4    0    0 -0.11850804181E+03  0.12069948961E+03 -0.33775990133E+03  0.38598000815E+03  0.79286146195E+02 0.  0.
         11    1    3    3    0    0  0.25161896779E+02 -0.36690774977E+03 -0.39570064554E+02  0.36989215713E+03  0.00000000000E+00 0.  1.
        -11    1    3    3    0    0 -0.65846277613E+02 -0.68459240460E+03  0.26323838725E+01  0.68775680452E+03  0.00000000000E+00 0. -1.
          4    1    6    6  502    0 -0.89245758045E+02  0.88600761033E+02 -0.16283364487E+03  0.20574181900E+03  0.00000000000E+00 0. -1.
          3    1    5    5  503    0 -0.78237828142E+01  0.16540313945E+02  0.49708949534E+01  0.18960573820E+02  0.00000000000E+00 0. -1.
         -4    1    5    5    0  503  0.16701620546E+03  0.91426035082E+03  0.32209518831E+03  0.98362173233E+03  0.00000000000E+00 0.  1.
         -3    1    6    6    0  502 -0.29262283765E+02  0.32098728576E+02 -0.17492625647E+03  0.18023818915E+03  0.00000000000E+00 0.  1.
<mgrwt>
<rscale>  0 0.24457475E+04</rscale>
<asrwt>0</asrwt>
<pdfrwt beam="1">  1        1 0.18450614E+00 0.24457475E+04</pdfrwt>
<pdfrwt beam="2">  1       -1 0.19183406E+00 0.24457475E+04</pdfrwt>
<totfact> 0.16381674E+00</totfact>
</mgrwt>
</event>
<event>
12    1  0.2433511E-007  0.2728443E+04  0.7818608E-02  0.8325835E-01
         -1   -1    0    0    0  501 -0.00000000000E+00  0.00000000000E+00  0.76713526617E+03  0.76713526617E+03  0.00000000000E+00 0.  1.
          1   -1    0    0  501    0  0.00000000000E+00 -0.00000000000E+00 -0.24260393328E+04  0.24260393328E+04  0.00000000000E+00 0. -1.
         23    2    1    2    0    0 -0.84806274565E+03  0.82780585788E+03 -0.10459066265E+04  0.15832563866E+04  0.91143597027E+02 0.  0.
        254    2    1    2    0    0  0.84806274565E+03 -0.82780585788E+03 -0.61299744004E+03  0.16099182124E+04  0.90088724605E+03 0.  0.
        -24    2    4    4    0    0  0.50340234415E+03 -0.49364376344E+03  0.13013351623E+03  0.72135835335E+03  0.79530224614E+02 0.  0.
         24    2    4    4    0    0  0.34466040150E+03 -0.33416209445E+03 -0.74313095627E+03  0.88855985901E+03  0.82703731192E+02 0.  0.
         11    1    3    3    0    0 -0.64243697662E+03  0.59437144307E+03 -0.72731127519E+03  0.11379738012E+04  0.00000000000E+00 0.  1.
        -11    1    3    3    0    0 -0.20562576903E+03  0.23343441481E+03 -0.31859535135E+03  0.44528258534E+03  0.00000000000E+00 0. -1.
          4    1    6    6  502    0  0.18379052036E+03 -0.19386345671E+03 -0.33985823308E+03  0.43227955517E+03  0.00000000000E+00 0. -1.
          3    1    5    5  503    0  0.10939887594E+03 -0.97775234786E+02  0.59716830057E+02  0.15841152226E+03  0.00000000000E+00 0. -1.
         -4    1    5    5    0  503  0.39400346821E+03 -0.39586852865E+03  0.70416686171E+02  0.56294683109E+03  0.00000000000E+00 0.  1.
         -3    1    6    6    0  502  0.16086988114E+03 -0.14029863773E+03 -0.40327272319E+03  0.45628030384E+03  0.00000000000E+00 0.  1.
<mgrwt>
<rscale>  0 0.27284430E+04</rscale>
<asrwt>0</asrwt>
<pdfrwt beam="1">  1        1 0.37323682E+00 0.27284430E+04</pdfrwt>
<pdfrwt beam="2">  1       -1 0.11802081E+00 0.27284430E+04</pdfrwt>
<totfact> 0.85573226E-01</totfact>
</mgrwt>
</event>
<event>
12    1  0.2516285E-007  0.1995519E+04  0.7818608E-02  0.8608718E-01
         -1   -1    0    0    0  501 -0.00000000000E+00  0.00000000000E+00  0.53356411989E+03  0.53356411989E+03  0.00000000000E+00 0.  1.
          1   -1    0    0  501    0  0.00000000000E+00 -0.00000000000E+00 -0.18658005941E+04  0.18658005941E+04  0.00000000000E+00 0. -1.
         23    2    1    2    0    0  0.52394355205E+03  0.33013238696E+03 -0.11254880741E+04  0.12877034471E+04  0.89176925853E+02 0.  0.
        254    2    1    2    0    0 -0.52394355205E+03 -0.33013238696E+03 -0.20674840017E+03  0.11116612669E+04  0.89974531551E+03 0.  0.
        -24    2    4    4    0    0  0.44800195067E+02 -0.20134971303E+03  0.27427689278E+03  0.35105261499E+03  0.73901016009E+02 0.  0.
         24    2    4    4    0    0 -0.56874374712E+03 -0.12878267393E+03 -0.48102529295E+03  0.76060865194E+03  0.84176968112E+02 0.  0.
         11    1    3    3    0    0  0.33802051295E+03  0.16176050385E+03 -0.66281809675E+03  0.76141457640E+03  0.00000000000E+00 0. -1.
        -11    1    3    3    0    0  0.18592303911E+03  0.16837188310E+03 -0.46266997731E+03  0.52628887068E+03  0.00000000000E+00 0.  1.
          4    1    6    6  502    0 -0.51895604567E+03 -0.10973144617E+03 -0.40320728115E+03  0.66628258208E+03  0.00000000000E+00 0. -1.
          1    1    5    5  503    0  0.47141702509E+02 -0.20577165618E+03  0.25452605121E+03  0.33067782711E+03  0.00000000000E+00 0. -1.
         -2    1    5    5    0  503 -0.23415074421E+01  0.44219431505E+01  0.19750841575E+02  0.20374787883E+02  0.00000000000E+00 0.  1.
         -3    1    6    6    0  502 -0.49787701456E+02 -0.19051227763E+02 -0.77818011800E+02  0.94326069864E+02  0.00000000000E+00 0.  1.
<mgrwt>
<rscale>  0 0.19955192E+04</rscale>
<asrwt>0</asrwt>
<pdfrwt beam="1">  1        1 0.28704624E+00 0.19955192E+04</pdfrwt>
<pdfrwt beam="2">  1       -1 0.82086788E-01 0.19955192E+04</pdfrwt>
<totfact> 0.50346427E+00</totfact>
</mgrwt>
</event>
<event>
12    1  0.2433511E-007  0.1714019E+04  0.7818608E-02  0.8753409E-01
          1   -1    0    0  501    0  0.00000000000E+00  0.00000000000E+00  0.19754910641E+04  0.19754910641E+04  0.00000000000E+00 0. -1.
         -1   -1    0    0    0  501 -0.00000000000E+00 -0.00000000000E+00 -0.37178878323E+03  0.37178878323E+03  0.00000000000E+00 0.  1.
         23    2    1    2    0    0  0.32530546726E+03 -0.19212616430E+03 -0.84314956411E+02  0.39763452632E+03  0.90929063615E+02 0.  0.
        254    2    1    2    0    0 -0.32530546726E+03  0.19212616430E+03  0.16880172373E+04  0.19496453210E+04  0.89943236229E+03 0.  0.
        -24    2    4    4    0    0 -0.56725049016E+03  0.17811628259E+03  0.66674069772E+03  0.89697223461E+03  0.80731053243E+02 0.  0.
         24    2    4    4    0    0  0.24194502291E+03  0.14009881715E+02  0.10212765396E+04  0.10526730864E+04  0.79882323884E+02 0.  0.
         13    1    3    3    0    0  0.10866205752E+03 -0.11599991565E+03 -0.32573056315E+02  0.16224804212E+03  0.00000000000E+00 0. -1.
        -13    1    3    3    0    0  0.21664340974E+03 -0.76126248652E+02 -0.51741900096E+02  0.23538648420E+03  0.00000000000E+00 0.  1.
          4    1    6    6  502    0  0.16914327806E+03 -0.26721461017E+02  0.65468128435E+03  0.67670604332E+03  0.00000000000E+00 0. -1.
          1    1    5    5  503    0 -0.15465053362E+03  0.77188325217E+02  0.23037160588E+03  0.28800330188E+03  0.00000000000E+00 0. -1.
         -2    1    5    5    0  503 -0.41259995655E+03  0.10092795737E+03  0.43636909184E+03  0.60896893273E+03  0.00000000000E+00 0.  1.
         -3    1    6    6    0  502  0.72801744846E+02  0.40731342732E+02  0.36659525521E+03  0.37596704307E+03  0.00000000000E+00 0.  1.
<mgrwt>
<rscale>  0 0.17140192E+04</rscale>
<asrwt>0</asrwt>
<pdfrwt beam="1">  1        1 0.30392170E+00 0.17140192E+04</pdfrwt>
<pdfrwt beam="2">  1       -1 0.57198276E-01 0.17140192E+04</pdfrwt>
<totfact> 0.91109381E+00</totfact>
</mgrwt>
</event>
<event>
12    1  0.2433511E-007  0.2221309E+04  0.7818608E-02  0.8509611E-01
         -2   -1    0    0    0  501 -0.00000000000E+00  0.00000000000E+00  0.99564360831E+03  0.99564360831E+03  0.00000000000E+00 0.  1.
          2   -1    0    0  501    0  0.00000000000E+00 -0.00000000000E+00 -0.12389509912E+04  0.12389509912E+04  0.00000000000E+00 0. -1.
         23    2    1    2    0    0  0.58231293846E+03 -0.12677165328E+03  0.61123894721E+03  0.85873474590E+03  0.93020980754E+02 0.  0.
        254    2    1    2    0    0 -0.58231293846E+03  0.12677165328E+03 -0.85454633015E+03  0.13758598537E+04  0.89865538231E+03 0.  0.
        -24    2    4    4    0    0  0.16570205957E+02  0.28997369915E+03 -0.65122421389E+03  0.71790140261E+03  0.83247397534E+02 0.  0.
         24    2    4    4    0    0 -0.59888314442E+03 -0.16320204587E+03 -0.20332211626E+03  0.65795845104E+03  0.79205504169E+02 0.  0.
         13    1    3    3    0    0  0.12907113587E+03 -0.68639459274E+02  0.14470372357E+03  0.20569370700E+03  0.00000000000E+00 0. -1.
        -13    1    3    3    0    0  0.45324180259E+03 -0.58132194010E+02  0.46653522364E+03  0.65304103890E+03  0.00000000000E+00 0.  1.
          4    1    6    6  502    0 -0.29306936628E+03 -0.11903755986E+03 -0.11528025329E+03  0.33667362669E+03  0.00000000000E+00 0. -1.
          3    1    5    5  503    0  0.26165636080E+02  0.29108246558E+03 -0.62502182434E+03  0.68997530622E+03  0.00000000000E+00 0. -1.
         -4    1    5    5    0  503 -0.95954301231E+01 -0.11087664308E+01 -0.26202389542E+02  0.27926096396E+02  0.00000000000E+00 0.  1.
         -1    1    6    6    0  502 -0.30581377814E+03 -0.44164486013E+02 -0.88041862970E+02  0.32128482435E+03  0.00000000000E+00 0.  1.
<mgrwt>
<rscale>  0 0.22213092E+04</rscale>
<asrwt>0</asrwt>
<pdfrwt beam="1">  1        2 0.19060784E+00 0.22213092E+04</pdfrwt>
<pdfrwt beam="2">  1       -2 0.15317594E+00 0.22213092E+04</pdfrwt>
<totfact> 0.46429837E+00</totfact>
</mgrwt>
</event>
<event>
12    1  0.2433511E-007  0.3115755E+04  0.7818608E-02  0.8211427E-01
         -2   -1    0    0    0  501 -0.00000000000E+00  0.00000000000E+00  0.10806520097E+04  0.10806520097E+04  0.00000000000E+00 0.  1.
          2   -1    0    0  501    0  0.00000000000E+00 -0.00000000000E+00 -0.22458497596E+04  0.22458497596E+04  0.00000000000E+00 0. -1.
         23    2    1    2    0    0  0.10046625156E+04  0.95741253658E+03 -0.18304544422E+03  0.14028755966E+04  0.92567647969E+02 0.  0.
        254    2    1    2    0    0 -0.10046625156E+04 -0.95741253658E+03 -0.98215230559E+03  0.19236261727E+04  0.89984941274E+03 0.  0.
        -24    2    4    4    0    0 -0.62251587677E+03 -0.54583558717E+03 -0.10640781784E+04  0.13505310669E+04  0.78799035420E+02 0.  0.
         24    2    4    4    0    0 -0.38214663880E+03 -0.41157694941E+03  0.81925872804E+02  0.57309510578E+03  0.79337965722E+02 0.  0.
         13    1    3    3    0    0  0.60432306045E+03  0.56978605558E+03 -0.63914659746E+02  0.83303516988E+03  0.00000000000E+00 0. -1.
        -13    1    3    3    0    0  0.40033945512E+03  0.38762648100E+03 -0.11913078448E+03  0.56984042671E+03  0.00000000000E+00 0.  1.
          2    1    6    6  502    0 -0.12342035675E+03 -0.16173418725E+03 -0.32784302780E+01  0.20347304463E+03  0.00000000000E+00 0. -1.
          1    1    5    5  503    0 -0.64042299742E+01 -0.15191545415E+02 -0.10046215294E+02  0.19306052300E+02  0.00000000000E+00 0. -1.
         -2    1    5    5    0  503 -0.61611164680E+03 -0.53064404176E+03 -0.10540319631E+04  0.13312250146E+04  0.00000000000E+00 0.  1.
         -1    1    6    6    0  502 -0.25872628204E+03 -0.24984276216E+03  0.85204303082E+02  0.36962206115E+03  0.00000000000E+00 0.  1.
<mgrwt>
<rscale>  0 0.31157548E+04</rscale>
<asrwt>0</asrwt>
<pdfrwt beam="1">  1        2 0.34551535E+00 0.31157548E+04</pdfrwt>
<pdfrwt beam="2">  1       -2 0.16625416E+00 0.31157548E+04</pdfrwt>
<totfact> 0.93532183E-01</totfact>
</mgrwt>
</event>
<event>
12    1  0.2433511E-007  0.1387860E+04  0.7818608E-02  0.8962653E-01
          1   -1    0    0  501    0  0.00000000000E+00  0.00000000000E+00  0.64495972116E+03  0.64495972116E+03  0.00000000000E+00 0. -1.
         -1   -1    0    0    0  501 -0.00000000000E+00 -0.00000000000E+00 -0.74661866791E+03  0.74661866791E+03  0.00000000000E+00 0.  1.
         23    2    1    2    0    0 -0.36613150866E+03  0.10964514890E+03  0.67924972953E+02  0.39875802422E+03  0.91213045249E+02 0.  0.
        254    2    1    2    0    0  0.36613150866E+03 -0.10964514890E+03 -0.16958391971E+03  0.99282036484E+03  0.90047722387E+03 0.  0.
        -24    2    4    4    0    0  0.93444756956E+02 -0.30292273803E+03 -0.44533394345E+03  0.55232856595E+03  0.79059570939E+02 0.  0.
         24    2    4    4    0    0  0.27268675170E+03  0.19327758913E+03  0.27575002374E+03  0.44049179889E+03  0.79250604275E+02 0.  0.
         11    1    3    3    0    0 -0.31386473635E+03  0.10781136005E+03  0.28158278322E+02  0.33305742856E+03  0.00000000000E+00 0.  1.
        -11    1    3    3    0    0 -0.52266772306E+02  0.18337888506E+01  0.39766694631E+02  0.65700595665E+02  0.00000000000E+00 0. -1.
          2    1    6    6  502    0  0.26520582982E+03  0.16748164535E+03  0.26793056191E+03  0.41251790228E+03  0.00000000000E+00 0. -1.
          1    1    5    5  503    0  0.47350917468E+02 -0.21376055216E+03 -0.35611705199E+03  0.41803712486E+03  0.00000000000E+00 0. -1.
         -2    1    5    5    0  503  0.46093839488E+02 -0.89162185874E+02 -0.89216891468E+02  0.13429144110E+03  0.00000000000E+00 0.  1.
         -1    1    6    6    0  502  0.74809218823E+01  0.25795943782E+02  0.78194618335E+01  0.27973896603E+02  0.00000000000E+00 0.  1.
<mgrwt>
<rscale>  0 0.13878602E+04</rscale>
<asrwt>0</asrwt>
<pdfrwt beam="1">  1        1 0.99224573E-01 0.13878602E+04</pdfrwt>
<pdfrwt beam="2">  1       -1 0.11486441E+00 0.13878602E+04</pdfrwt>
<totfact> 0.20707067E+01</totfact>
</mgrwt>
</event>
<event>
12    1  0.2433511E-007  0.2223018E+04  0.7818608E-02  0.8508908E-01
         -1   -1    0    0    0  501 -0.00000000000E+00  0.00000000000E+00  0.49992194135E+03  0.49992194135E+03  0.00000000000E+00 0.  1.
          1   -1    0    0  501    0  0.00000000000E+00 -0.00000000000E+00 -0.24712896484E+04  0.24712896484E+04  0.00000000000E+00 0. -1.
         23    2    1    2    0    0 -0.90053662952E+03 -0.55786578024E+02 -0.11092005572E+04  0.14332999310E+04  0.99721877228E+02 0.  0.
        254    2    1    2    0    0  0.90053662952E+03  0.55786578024E+02 -0.86216714990E+03  0.15379116588E+04  0.89875564666E+03 0.  0.
        -24    2    4    4    0    0  0.73632442948E+03 -0.30137116057E+03 -0.80153172654E+03  0.11320573302E+04  0.78118169204E+02 0.  0.
         24    2    4    4    0    0  0.16421220004E+03  0.35715773859E+03 -0.60635423352E+02  0.40585432855E+03  0.80708020416E+02 0.  0.
         11    1    3    3    0    0 -0.50200438083E+03 -0.63837410408E+02 -0.56128718856E+03  0.75572939693E+03  0.00000000000E+00 0.  1.
        -11    1    3    3    0    0 -0.39853224869E+03  0.80508323835E+01 -0.54791336860E+03  0.67757053407E+03  0.00000000000E+00 0. -1.
          4    1    6    6  502    0  0.72948173559E+02  0.76607305083E+02 -0.71583402902E+01  0.10602526611E+03  0.00000000000E+00 0. -1.
          1    1    5    5  503    0  0.23154030331E+03 -0.12344585016E+03 -0.22840839809E+03  0.34787955717E+03  0.00000000000E+00 0. -1.
         -2    1    5    5    0  503  0.50478412617E+03 -0.17792531041E+03 -0.57312332845E+03  0.78417777304E+03  0.00000000000E+00 0.  1.
         -3    1    6    6    0  502  0.91264026478E+02  0.28055043351E+03 -0.53477083062E+02  0.29982906244E+03  0.00000000000E+00 0.  1.
<mgrwt>
<rscale>  0 0.22230177E+04</rscale>
<asrwt>0</asrwt>
<pdfrwt beam="1">  1        1 0.38019841E+00 0.22230177E+04</pdfrwt>
<pdfrwt beam="2">  1       -1 0.76911068E-01 0.22230177E+04</pdfrwt>
<totfact> 0.21883418E+00</totfact>
</mgrwt>
</event>
<event>
12    1  0.2433511E-007  0.1648691E+04  0.7818608E-02  0.8791181E-01
         -1   -1    0    0    0  501 -0.00000000000E+00  0.00000000000E+00  0.48318671218E+03  0.48318671218E+03  0.00000000000E+00 0.  1.
          1   -1    0    0  501    0  0.00000000000E+00 -0.00000000000E+00 -0.14063826323E+04  0.14063826323E+04  0.00000000000E+00 0. -1.
         23    2    1    2    0    0 -0.43382882829E+03 -0.17917550656E+03 -0.70542599002E+03  0.85119516939E+03  0.81216221187E+02 0.  0.
        254    2    1    2    0    0  0.43382882829E+03  0.17917550656E+03 -0.21776993012E+03  0.10383741751E+04  0.90026988769E+03 0.  0.
        -24    2    4    4    0    0  0.48402238379E+03 -0.21976994613E+02 -0.48555885770E+03  0.69042856406E+03  0.78508225481E+02 0.  0.
         24    2    4    4    0    0 -0.50193555500E+02  0.20115250117E+03  0.26778892758E+03  0.34794561106E+03  0.79834308321E+02 0.  0.
         13    1    3    3    0    0 -0.19770223300E+02 -0.50519270851E+01 -0.70858548751E+02  0.73738169409E+02  0.00000000000E+00 0. -1.
        -13    1    3    3    0    0 -0.41405860499E+03 -0.17412357947E+03 -0.63456744127E+03  0.77745699998E+03  0.00000000000E+00 0.  1.
          2    1    6    6  502    0  0.28100546510E+01 -0.66183543588E+01  0.13690985818E+02  0.15464220453E+02  0.00000000000E+00 0. -1.
          1    1    5    5  503    0  0.12554157702E+03  0.12834187115E+02 -0.87212357189E+02  0.15339947576E+03  0.00000000000E+00 0. -1.
         -2    1    5    5    0  503  0.35848080678E+03 -0.34811181728E+02 -0.39834650051E+03  0.53702908829E+03  0.00000000000E+00 0.  1.
         -1    1    6    6    0  502 -0.53003610151E+02  0.20777085553E+03  0.25409794176E+03  0.33248139061E+03  0.00000000000E+00 0.  1.
<mgrwt>
<rscale>  0 0.16486909E+04</rscale>
<asrwt>0</asrwt>
<pdfrwt beam="1">  1        1 0.21636656E+00 0.16486909E+04</pdfrwt>
<pdfrwt beam="2">  1       -1 0.74336417E-01 0.16486909E+04</pdfrwt>
<totfact> 0.13236298E+01</totfact>
</mgrwt>
</event>
<event>
12    1  0.2433511E-007  0.3126702E+04  0.7818608E-02  0.8208448E-01
         -1   -1    0    0    0  501 -0.00000000000E+00  0.00000000000E+00  0.17400591190E+04  0.17400591190E+04  0.00000000000E+00 0.  1.
          1   -1    0    0  501    0  0.00000000000E+00 -0.00000000000E+00 -0.14045882606E+04  0.14045882606E+04  0.00000000000E+00 0. -1.
         23    2    1    2    0    0  0.55913967076E+03  0.13161596639E+04  0.78257570459E+02  0.14351690361E+04  0.93126163629E+02 0.  0.
        254    2    1    2    0    0 -0.55913967076E+03 -0.13161596639E+04  0.25721328793E+03  0.17094783435E+04  0.90069090101E+03 0.  0.
        -24    2    4    4    0    0 -0.40780995193E+03 -0.33733350039E+03  0.44754903976E+03  0.69774197053E+03  0.80255012753E+02 0.  0.
         24    2    4    4    0    0 -0.15132971883E+03 -0.97882616353E+03 -0.19033575183E+03  0.10117363730E+04  0.79883964741E+02 0.  0.
         13    1    3    3    0    0  0.30880659640E+03  0.81516246526E+03  0.77243450238E+02  0.87511022697E+03  0.00000000000E+00 0.  1.
        -13    1    3    3    0    0  0.25033307436E+03  0.50099719867E+03  0.10141202206E+01  0.56005880908E+03  0.00000000000E+00 0. -1.
          4    1    6    6  502    0 -0.11329253787E+03 -0.87738131668E+03 -0.18101378783E+03  0.90299455446E+03  0.00000000000E+00 0. -1.
          3    1    5    5  503    0 -0.39100307675E+03 -0.31398661626E+03  0.39705274267E+03  0.63962636100E+03  0.00000000000E+00 0. -1.
         -4    1    5    5    0  503 -0.16806875177E+02 -0.23346884129E+02  0.50496297087E+02  0.58115609531E+02  0.00000000000E+00 0.  1.
         -3    1    6    6    0  502 -0.38037180959E+02 -0.10144484685E+03 -0.93219639915E+01  0.10874181855E+03  0.00000000000E+00 0.  1.
<mgrwt>
<rscale>  0 0.31267022E+04</rscale>
<asrwt>0</asrwt>
<pdfrwt beam="1">  1        1 0.21609050E+00 0.31267022E+04</pdfrwt>
<pdfrwt beam="2">  1       -1 0.26770140E+00 0.31267022E+04</pdfrwt>
<totfact> 0.34330801E-01</totfact>
</mgrwt>
</event>
<event>
12    1  0.2433511E-007  0.1511625E+04  0.7818608E-02  0.8876759E-01
         -2   -1    0    0    0  501 -0.00000000000E+00  0.00000000000E+00  0.37528096473E+03  0.37528096473E+03  0.00000000000E+00 0.  1.
          2   -1    0    0  501    0  0.00000000000E+00 -0.00000000000E+00 -0.15222000126E+04  0.15222000126E+04  0.00000000000E+00 0. -1.
         23    2    1    2    0    0  0.10316803653E+03 -0.45623208198E+03 -0.32135401879E+03  0.58055829802E+03  0.12242620481E+03 0.  0.
        254    2    1    2    0    0 -0.10316803653E+03  0.45623208198E+03 -0.82556502904E+03  0.13169226793E+04  0.91320116603E+03 0.  0.
        -24    2    4    4    0    0 -0.27970521503E+03  0.50886113488E+03 -0.92299593525E+03  0.10934825604E+04  0.81289307452E+02 0.  0.
         24    2    4    4    0    0  0.17653717850E+03 -0.52629052905E+02  0.97430906212E+02  0.22344011887E+03  0.80607150012E+02 0.  0.
         13    1    3    3    0    0  0.13881658397E+02 -0.29991853665E+03 -0.23291158333E+03  0.37998899289E+03  0.00000000000E+00 0. -1.
        -13    1    3    3    0    0  0.89286378132E+02 -0.15631354532E+03 -0.88442435468E+02  0.20056930514E+03  0.00000000000E+00 0.  1.
          4    1    6    6  502    0  0.15372665653E+02 -0.40298124280E+01 -0.14318507765E+02  0.21391070616E+02  0.00000000000E+00 0. -1.
          3    1    5    5  503    0 -0.35846251285E+02  0.91740204293E+02 -0.10920079134E+03  0.14705791935E+03  0.00000000000E+00 0. -1.
         -4    1    5    5    0  503 -0.24385896375E+03  0.41712093059E+03 -0.81379514391E+03  0.94642464105E+03  0.00000000000E+00 0.  1.
         -3    1    6    6    0  502  0.16116451285E+03 -0.48599240477E+02  0.11174941398E+03  0.20204904826E+03  0.00000000000E+00 0.  1.
<mgrwt>
<rscale>  0 0.15116252E+04</rscale>
<asrwt>0</asrwt>
<pdfrwt beam="1">  1        2 0.23418462E+00 0.15116252E+04</pdfrwt>
<pdfrwt beam="2">  1       -2 0.57735533E-01 0.15116252E+04</pdfrwt>
<totfact> 0.33435346E+01</totfact>
</mgrwt>
</event>
<event>
12    1  0.2433511E-007  0.1627894E+04  0.7818608E-02  0.8803593E-01
         -1   -1    0    0    0  501 -0.00000000000E+00  0.00000000000E+00  0.77835804924E+03  0.77835804924E+03  0.00000000000E+00 0.  1.
          1   -1    0    0  501    0  0.00000000000E+00 -0.00000000000E+00 -0.85116318335E+03  0.85116318335E+03  0.00000000000E+00 0. -1.
         23    2    1    2    0    0  0.50388383977E+03  0.20747676973E+03 -0.79367052736E+02  0.56025459282E+03  0.10315302111E+03 0.  0.
        254    2    1    2    0    0 -0.50388383977E+03 -0.20747676973E+03  0.65619186211E+01  0.10692666398E+04  0.91996877892E+03 0.  0.
        -24    2    4    4    0    0 -0.28615402386E+03  0.17870728320E+03 -0.35123347604E+03  0.49370501781E+03  0.80989329417E+02 0.  0.
         24    2    4    4    0    0 -0.21772981591E+03 -0.38618405293E+03  0.35779539467E+03  0.57556162195E+03  0.81909955123E+02 0.  0.
         13    1    3    3    0    0  0.21528185508E+03  0.68091423214E+02 -0.80616551354E+02  0.23975351383E+03  0.00000000000E+00 0. -1.
        -13    1    3    3    0    0  0.28860198469E+03  0.13938534651E+03  0.12494986177E+01  0.32050107899E+03  0.00000000000E+00 0.  1.
          4    1    6    6  502    0 -0.88410935123E+02 -0.15306308532E+03  0.92662934126E+02  0.19957760621E+03  0.00000000000E+00 0. -1.
          3    1    5    5  503    0  0.43077189770E+01  0.10398158085E+02 -0.11261728160E+02  0.15921829527E+02  0.00000000000E+00 0. -1.
         -4    1    5    5    0  503 -0.29046174284E+03  0.16830912512E+03 -0.33997174788E+03  0.47778318829E+03  0.00000000000E+00 0.  1.
         -3    1    6    6    0  502 -0.12931888079E+03 -0.23312096760E+03  0.26513246054E+03  0.37598401575E+03  0.00000000000E+00 0.  1.
<mgrwt>
<rscale>  0 0.16278940E+04</rscale>
<asrwt>0</asrwt>
<pdfrwt beam="1">  1        1 0.13094818E+00 0.16278940E+04</pdfrwt>
<pdfrwt beam="2">  1       -1 0.11974739E+00 0.16278940E+04</pdfrwt>
<totfact> 0.11907329E+01</totfact>
</mgrwt>
</event>
<event>
12    1  0.2475319E-007  0.2237756E+04  0.7818608E-02  0.8502876E-01
         -2   -1    0    0    0  501 -0.00000000000E+00  0.00000000000E+00  0.89357572531E+03  0.89357572531E+03  0.00000000000E+00 0.  1.
          2   -1    0    0  501    0  0.00000000000E+00 -0.00000000000E+00 -0.14009866004E+04  0.14009866004E+04  0.00000000000E+00 0. -1.
         23    2    1    2    0    0 -0.86407784503E+03 -0.30305677124E+03 -0.40181431318E+03  0.10042622757E+04  0.92811891247E+02 0.  0.
        254    2    1    2    0    0  0.86407784503E+03  0.30305677124E+03 -0.10559656192E+03  0.12903000501E+04  0.90291176559E+03 0.  0.
        -24    2    4    4    0    0  0.10521942541E+03 -0.12238817966E+03  0.28205788993E+03  0.33459360070E+03  0.79663230881E+02 0.  0.
         24    2    4    4    0    0  0.75885841962E+03  0.42544495090E+03 -0.38765445185E+03  0.95570644937E+03  0.78926143016E+02 0.  0.
         13    1    3    3    0    0 -0.52972861703E+03 -0.21320787609E+03 -0.20964532687E+03  0.60829365376E+03  0.00000000000E+00 0.  1.
        -13    1    3    3    0    0 -0.33434922800E+03 -0.89848895157E+02 -0.19216898631E+03  0.39596862190E+03  0.00000000000E+00 0. -1.
          2    1    6    6  502    0  0.56777659810E+03  0.28237498860E+03 -0.26407802747E+03  0.68690836662E+03  0.00000000000E+00 0. -1.
          1    1    5    5  503    0  0.92418836248E+02 -0.95568193744E+02  0.27279386838E+03  0.30346501540E+03  0.00000000000E+00 0. -1.
         -2    1    5    5    0  503  0.12800589160E+02 -0.26819985914E+02  0.92640215517E+01  0.31128585297E+02  0.00000000000E+00 0.  1.
         -1    1    6    6    0  502  0.19108182152E+03  0.14306996230E+03 -0.12357642438E+03  0.26879808275E+03  0.00000000000E+00 0.  1.
<mgrwt>
<rscale>  0 0.22377557E+04</rscale>
<asrwt>0</asrwt>
<pdfrwt beam="1">  1        2 0.21553640E+00 0.22377557E+04</pdfrwt>
<pdfrwt beam="2">  1       -2 0.13747319E+00 0.22377557E+04</pdfrwt>
<totfact> 0.49594384E+00</totfact>
</mgrwt>
</event>
<event>
12    1  0.2433511E-007  0.1557004E+04  0.7818608E-02  0.8847406E-01
         -1   -1    0    0    0  501 -0.00000000000E+00  0.00000000000E+00  0.40015946029E+03  0.40015946029E+03  0.00000000000E+00 0.  1.
          1   -1    0    0  501    0  0.00000000000E+00 -0.00000000000E+00 -0.15145601708E+04  0.15145601708E+04  0.00000000000E+00 0. -1.
         23    2    1    2    0    0  0.29794982033E+03  0.40525825056E+03 -0.24678893141E+03  0.56736014159E+03  0.89355517530E+02 0.  0.
        254    2    1    2    0    0 -0.29794982033E+03 -0.40525825056E+03 -0.86761177907E+03  0.13473594895E+04  0.89978833602E+03 0.  0.
        -24    2    4    4    0    0 -0.22402979746E+03 -0.46580161214E+03 -0.55693042445E+02  0.52602353412E+03  0.80240584846E+02 0.  0.
         24    2    4    4    0    0 -0.73920022868E+02  0.60543361575E+02 -0.81191873663E+03  0.82133595536E+03  0.79063571050E+02 0.  0.
         11    1    3    3    0    0  0.24871223194E+03  0.29848641685E+03 -0.22101869554E+03  0.44699125175E+03  0.00000000000E+00 0. -1.
        -11    1    3    3    0    0  0.49237588388E+02  0.10677183371E+03 -0.25770235870E+02  0.12036888984E+03  0.00000000000E+00 0.  1.
          4    1    6    6  502    0 -0.37928683852E+02  0.13358665524E+02 -0.11373248571E+03  0.12063215702E+03  0.00000000000E+00 0. -1.
          1    1    5    5  503    0 -0.35558461420E+01 -0.29601830967E+01 -0.10367910998E+02  0.11353426981E+02  0.00000000000E+00 0. -1.
         -2    1    5    5    0  503 -0.22047395132E+03 -0.46284142904E+03 -0.45325131446E+02  0.51467010714E+03  0.00000000000E+00 0.  1.
         -3    1    6    6    0  502 -0.35991339015E+02  0.47184696051E+02 -0.69818625092E+03  0.70070379833E+03  0.00000000000E+00 0.  1.
<mgrwt>
<rscale>  0 0.15570043E+04</rscale>
<asrwt>0</asrwt>
<pdfrwt beam="1">  1        1 0.23300926E+00 0.15570043E+04</pdfrwt>
<pdfrwt beam="2">  1       -1 0.61562993E-01 0.15570043E+04</pdfrwt>
<totfact> 0.16468641E+01</totfact>
</mgrwt>
</event>
<event>
12    1  0.2433511E-007  0.2665685E+04  0.7818608E-02  0.8346226E-01
          2   -1    0    0  501    0  0.00000000000E+00  0.00000000000E+00  0.17453501354E+04  0.17453501354E+04  0.00000000000E+00 0.  1.
         -2   -1    0    0    0  501 -0.00000000000E+00 -0.00000000000E+00 -0.10178297438E+04  0.10178297438E+04  0.00000000000E+00 0. -1.
         23    2    1    2    0    0  0.29269630959E+03  0.91989086978E+03 -0.37877263637E+03  0.10410980119E+04  0.92444677627E+02 0.  0.
        254    2    1    2    0    0 -0.29269630959E+03 -0.91989086978E+03  0.11062930280E+04  0.17220818673E+04  0.89989518951E+03 0.  0.
        -24    2    4    4    0    0 -0.20144527882E+03 -0.10615801590E+04  0.10875455805E+04  0.15350397748E+04  0.77840130846E+02 0.  0.
         24    2    4    4    0    0 -0.91251030772E+02  0.14168928927E+03  0.18747447446E+02  0.18704209255E+03  0.78934607686E+02 0.  0.
         13    1    3    3    0    0  0.22250948671E+03  0.73218782422E+03 -0.26034920639E+03  0.80832616614E+03  0.00000000000E+00 0.  1.
        -13    1    3    3    0    0  0.70186822882E+02  0.18770304556E+03 -0.11842342998E+03  0.23277184578E+03  0.00000000000E+00 0. -1.
          2    1    6    6  502    0 -0.46483172928E+02  0.11833904154E+03  0.38472690463E+02  0.13283434055E+03  0.00000000000E+00 0. -1.
          1    1    5    5  503    0 -0.17821907022E+03 -0.10059899706E+04  0.10075926385E+04  0.14349288425E+04  0.00000000000E+00 0. -1.
         -2    1    5    5    0  503 -0.23226208598E+02 -0.55590188458E+02  0.79952942056E+02  0.10011093228E+03  0.00000000000E+00 0.  1.
         -1    1    6    6    0  502 -0.44767857844E+02  0.23350247726E+02 -0.19725243017E+02  0.54207752000E+02  0.00000000000E+00 0.  1.
<mgrwt>
<rscale>  0 0.26656851E+04</rscale>
<asrwt>0</asrwt>
<pdfrwt beam="1">  1        2 0.26851541E+00 0.26656851E+04</pdfrwt>
<pdfrwt beam="2">  1       -2 0.15658919E+00 0.26656851E+04</pdfrwt>
<totfact> 0.21745557E+00</totfact>
</mgrwt>
</event>
<event>
12    1  0.2433511E-007  0.1683448E+04  0.7818608E-02  0.8770861E-01
          2   -1    0    0  501    0  0.00000000000E+00  0.00000000000E+00  0.38790853480E+04  0.38790853480E+04  0.00000000000E+00 0. -1.
         -2   -1    0    0    0  501 -0.00000000000E+00 -0.00000000000E+00 -0.18264606777E+03  0.18264606777E+03  0.00000000000E+00 0.  1.
         23    2    1    2    0    0 -0.62129081128E+02 -0.23815930114E+03  0.10601002900E+02  0.25976682381E+03  0.82380495551E+02 0.  0.
        254    2    1    2    0    0  0.62129081128E+02  0.23815930114E+03  0.36858382774E+04  0.38019645920E+04  0.89941707591E+03 0.  0.
        -24    2    4    4    0    0  0.43262241712E+03  0.84141202480E+01  0.24454755752E+04  0.24848179466E+04  0.82076094660E+02 0.  0.
         24    2    4    4    0    0 -0.37049333599E+03  0.22974518089E+03  0.12403627021E+04  0.13171466454E+04  0.79545537654E+02 0.  0.
         11    1    3    3    0    0 -0.28272306065E+02 -0.10800871183E+03  0.45922927601E+02  0.12072332169E+03  0.00000000000E+00 0. -1.
        -11    1    3    3    0    0 -0.33856775063E+02 -0.13015058931E+03 -0.35321924700E+02  0.13904350212E+03  0.00000000000E+00 0.  1.
          4    1    6    6  502    0 -0.26950311876E+03  0.13201447414E+03  0.90749654307E+03  0.95582934046E+03  0.00000000000E+00 0. -1.
          1    1    5    5  503    0  0.26089644385E+03  0.39477649980E+02  0.15866298363E+04  0.16084214860E+04  0.00000000000E+00 0. -1.
         -2    1    5    5    0  503  0.17172597327E+03 -0.31063529732E+02  0.85884573896E+03  0.87639646057E+03  0.00000000000E+00 0.  1.
         -3    1    6    6    0  502 -0.10099021723E+03  0.97730706747E+02  0.33286615907E+03  0.36131730497E+03  0.00000000000E+00 0.  1.
<mgrwt>
<rscale>  0 0.16834485E+04</rscale>
<asrwt>0</asrwt>
<pdfrwt beam="1">  1        2 0.59678230E+00 0.16834485E+04</pdfrwt>
<pdfrwt beam="2">  1       -2 0.28099398E-01 0.16834485E+04</pdfrwt>
<totfact> 0.47844743E+00</totfact>
</mgrwt>
</event>
<event>
12    1  0.2433511E-007  0.1216662E+04  0.7818608E-02  0.9098396E-01
          1   -1    0    0  501    0  0.00000000000E+00  0.00000000000E+00  0.88449213260E+03  0.88449213260E+03  0.00000000000E+00 0. -1.
         -1   -1    0    0    0  501 -0.00000000000E+00 -0.00000000000E+00 -0.41839462342E+03  0.41839462342E+03  0.00000000000E+00 0.  1.
         23    2    1    2    0    0 -0.92998833410E+02 -0.25426996267E+03  0.86907781773E+02  0.29880120158E+03  0.91799774507E+02 0.  0.
        254    2    1    2    0    0  0.92998833410E+02  0.25426996267E+03  0.37918972741E+03  0.10040855544E+04  0.88943856130E+03 0.  0.
        -24    2    4    4    0    0 -0.21939779547E+03  0.23824060617E+03 -0.16396823495E+03  0.37213726126E+03  0.81893711940E+02 0.  0.
         24    2    4    4    0    0  0.31239662888E+03  0.16029356498E+02  0.54315796237E+03  0.63194829318E+03  0.80557303606E+02 0.  0.
         13    1    3    3    0    0  0.13195073691E+02 -0.93607736969E+01  0.15658415455E+02  0.22514884599E+02  0.00000000000E+00 0. -1.
        -13    1    3    3    0    0 -0.10619390710E+03 -0.24490918897E+03  0.71249366317E+02  0.27628631698E+03  0.00000000000E+00 0.  1.
          2    1    6    6  502    0  0.23781890718E+03 -0.11409828953E+01  0.34057221004E+03  0.41538965406E+03  0.00000000000E+00 0. -1.
          3    1    5    5  503    0 -0.18588353896E+03  0.15688867762E+03 -0.98326530615E+02  0.26236397208E+03  0.00000000000E+00 0. -1.
         -4    1    5    5    0  503 -0.33514256509E+02  0.81351928550E+02 -0.65641704338E+02  0.10977328918E+03  0.00000000000E+00 0.  1.
         -1    1    6    6    0  502  0.74577721707E+02  0.17170339393E+02  0.20258575233E+03  0.21655863912E+03  0.00000000000E+00 0.  1.
<mgrwt>
<rscale>  0 0.12166622E+04</rscale>
<asrwt>0</asrwt>
<pdfrwt beam="1">  1        1 0.13607571E+00 0.12166622E+04</pdfrwt>
<pdfrwt beam="2">  1       -1 0.64368403E-01 0.12166622E+04</pdfrwt>
<totfact> 0.45347643E+01</totfact>
</mgrwt>
</event>
<event>
12    1  0.2433511E-007  0.1109995E+04  0.7818608E-02  0.9195505E-01
          2   -1    0    0  501    0  0.00000000000E+00  0.00000000000E+00  0.15886638384E+04  0.15886638384E+04  0.00000000000E+00 0. -1.
         -2   -1    0    0    0  501 -0.00000000000E+00 -0.00000000000E+00 -0.19388747274E+03  0.19388747274E+03  0.00000000000E+00 0.  1.
         23    2    1    2    0    0 -0.35539921511E+02  0.14231235853E+02  0.49978013596E+03  0.50731117779E+03  0.78222967967E+02 0.  0.
        254    2    1    2    0    0  0.35539921511E+02 -0.14231235853E+02  0.89499622974E+03  0.12752401334E+04  0.90760868906E+03 0.  0.
        -24    2    4    4    0    0 -0.87165054550E+01 -0.24120194125E+03  0.98284895610E+03  0.10153238958E+04  0.81462806907E+02 0.  0.
         24    2    4    4    0    0  0.44256426966E+02  0.22697070539E+03 -0.87852726357E+02  0.25991623761E+03  0.79774786800E+02 0.  0.
         11    1    3    3    0    0  0.43449419700E+00 -0.20748962983E+02  0.31964505878E+03  0.32031807918E+03  0.00000000000E+00 0. -1.
        -11    1    3    3    0    0 -0.35974415708E+02  0.34980198836E+02  0.18013507718E+03  0.18699309861E+03  0.00000000000E+00 0.  1.
          2    1    6    6  502    0  0.25836057629E+02  0.18700753815E+03 -0.10084992889E+03  0.21403277636E+03  0.00000000000E+00 0. -1.
          3    1    5    5  503    0 -0.44895719405E+02 -0.11516485492E+03  0.47456290140E+03  0.49039628549E+03  0.00000000000E+00 0. -1.
         -4    1    5    5    0  503  0.36179213950E+02 -0.12603708632E+03  0.50828605469E+03  0.52492761029E+03  0.00000000000E+00 0.  1.
         -1    1    6    6    0  502  0.18420369337E+02  0.39963167244E+02  0.12997202531E+02  0.45883461250E+02  0.00000000000E+00 0.  1.
<mgrwt>
<rscale>  0 0.11099946E+04</rscale>
<asrwt>0</asrwt>
<pdfrwt beam="1">  1        2 0.24440981E+00 0.11099946E+04</pdfrwt>
<pdfrwt beam="2">  1       -2 0.29828843E-01 0.11099946E+04</pdfrwt>
<totfact> 0.11632310E+02</totfact>
</mgrwt>
</event>
<event>
12    1  0.2433511E-007  0.1378246E+04  0.7818608E-02  0.8969718E-01
          1   -1    0    0  501    0  0.00000000000E+00  0.00000000000E+00  0.39406026937E+03  0.39406026937E+03  0.00000000000E+00 0. -1.
         -1   -1    0    0    0  501 -0.00000000000E+00 -0.00000000000E+00 -0.12051211363E+04  0.12051211363E+04  0.00000000000E+00 0.  1.
         23    2    1    2    0    0  0.17805583498E+03  0.27278865840E+03  0.88406945587E+01  0.33851826156E+03  0.91645638224E+02 0.  0.
        254    2    1    2    0    0 -0.17805583498E+03 -0.27278865840E+03 -0.81990156150E+03  0.12606631441E+04  0.90050844518E+03 0.  0.
        -24    2    4    4    0    0 -0.15879135004E+03 -0.55804862934E+03 -0.75675024350E+03  0.95703827950E+03  0.81353376245E+02 0.  0.
         24    2    4    4    0    0 -0.19264484939E+02  0.28525997094E+03 -0.63151318001E+02  0.30362486461E+03  0.80346736376E+02 0.  0.
         13    1    3    3    0    0  0.14635189114E+03  0.17853530597E+03 -0.27838416021E+02  0.23252679185E+03  0.00000000000E+00 0.  1.
        -13    1    3    3    0    0  0.31703943839E+02  0.94253352432E+02  0.36679110580E+02  0.10599146972E+03  0.00000000000E+00 0. -1.
          4    1    6    6  502    0  0.26416620180E+01  0.27038425249E+03 -0.55163277023E+02  0.27596668187E+03  0.00000000000E+00 0. -1.
          3    1    5    5  503    0 -0.15196451080E+03 -0.50339311493E+03 -0.71683201655E+03  0.88901404975E+03  0.00000000000E+00 0. -1.
         -4    1    5    5    0  503 -0.68268392406E+01 -0.54655514415E+02 -0.39918226948E+02  0.68024229747E+02  0.00000000000E+00 0.  1.
         -3    1    6    6    0  502 -0.21906146957E+02  0.14875718453E+02 -0.79880409779E+01  0.27658182743E+02  0.00000000000E+00 0.  1.
<mgrwt>
<rscale>  0 0.13782458E+04</rscale>
<asrwt>0</asrwt>
<pdfrwt beam="1">  1        1 0.60624657E-01 0.13782458E+04</pdfrwt>
<pdfrwt beam="2">  1       -1 0.18540325E+00 0.13782458E+04</pdfrwt>
<totfact> 0.11381562E+01</totfact>
</mgrwt>
</event>
<event>
12    1  0.2433511E-007  0.1875361E+04  0.7818608E-02  0.8667219E-01
         -1   -1    0    0    0  501 -0.00000000000E+00  0.00000000000E+00  0.95245502209E+03  0.95245502209E+03  0.00000000000E+00 0.  1.
          1   -1    0    0  501    0  0.00000000000E+00 -0.00000000000E+00 -0.92313517433E+03  0.92313517433E+03  0.00000000000E+00 0. -1.
         23    2    1    2    0    0  0.19479219731E+03  0.24720626161E+03 -0.63459909152E+03  0.71421702625E+03  0.91296318220E+02 0.  0.
        254    2    1    2    0    0 -0.19479219731E+03 -0.24720626161E+03  0.66391893927E+03  0.11613731702E+04  0.89941333466E+03 0.  0.
        -24    2    4    4    0    0 -0.13903037756E+03  0.28620484558E+03  0.32829292894E+02  0.32938953001E+03  0.78594150480E+02 0.  0.
         24    2    4    4    0    0 -0.55761819751E+02 -0.53341110719E+03  0.63108964638E+03  0.83198364016E+03  0.79283326816E+02 0.  0.
         13    1    3    3    0    0  0.16383734086E+02  0.44774843963E+02 -0.17387163680E+03  0.18029020904E+03  0.00000000000E+00 0. -1.
        -13    1    3    3    0    0  0.17840846323E+03  0.20243141764E+03 -0.46072745472E+03  0.53392681721E+03  0.00000000000E+00 0.  1.
          2    1    6    6  502    0 -0.57073636513E+02 -0.40297991941E+03  0.42806968847E+03  0.59067239111E+03  0.00000000000E+00 0. -1.
          3    1    5    5  503    0 -0.13099596555E+03  0.26629682235E+03  0.84328362836E+01  0.29689232612E+03  0.00000000000E+00 0. -1.
         -4    1    5    5    0  503 -0.80344120110E+01  0.19908023237E+02  0.24396456610E+02  0.32497203890E+02  0.00000000000E+00 0.  1.
         -1    1    6    6    0  502  0.13118167612E+01 -0.13043118778E+03  0.20301995791E+03  0.24131124905E+03  0.00000000000E+00 0.  1.
<mgrwt>
<rscale>  0 0.18753610E+04</rscale>
<asrwt>0</asrwt>
<pdfrwt beam="1">  1        1 0.14202080E+00 0.18753610E+04</pdfrwt>
<pdfrwt beam="2">  1       -1 0.14653154E+00 0.18753610E+04</pdfrwt>
<totfact> 0.60693495E+00</totfact>
</mgrwt>
</event>
<event>
12    1  0.2433511E-007  0.1593911E+04  0.7818608E-02  0.8824297E-01
          2   -1    0    0  501    0  0.00000000000E+00  0.00000000000E+00  0.14636124174E+04  0.14636124174E+04  0.00000000000E+00 0. -1.
         -2   -1    0    0    0  501 -0.00000000000E+00 -0.00000000000E+00 -0.43395263082E+03  0.43395263082E+03  0.00000000000E+00 0.  1.
         23    2    1    2    0    0 -0.79857583202E+02  0.50809069938E+03  0.55562853601E+03  0.75907734891E+03  0.54239830584E+02 0.  0.
        254    2    1    2    0    0  0.79857583202E+02 -0.50809069938E+03  0.47403125056E+03  0.11384876993E+04  0.89828459997E+03 0.  0.
        -24    2    4    4    0    0  0.70754216804E+02  0.24963659076E+03  0.98680075763E+02  0.28909251713E+03  0.80697828145E+02 0.  0.
         24    2    4    4    0    0  0.91033663982E+01 -0.75772729013E+03  0.37535117480E+03  0.84939518216E+03  0.79687850790E+02 0.  0.
         11    1    3    3    0    0 -0.79389542806E+02  0.36806192075E+03  0.42127648419E+03  0.56501871929E+03  0.00000000000E+00 0. -1.
        -11    1    3    3    0    0 -0.46804039570E+00  0.14002877862E+03  0.13435205181E+03  0.19405862962E+03  0.00000000000E+00 0.  1.
          4    1    6    6  502    0  0.11234376494E+02 -0.32401611206E+02  0.31996667832E+02  0.46902690502E+02  0.00000000000E+00 0. -1.
          1    1    5    5  503    0 -0.73075853944E+01  0.14052484164E+02  0.26077002872E+02  0.30510378468E+02  0.00000000000E+00 0. -1.
         -2    1    5    5    0  503  0.78061802198E+02  0.23558410659E+03  0.72603072891E+02  0.25858213866E+03  0.00000000000E+00 0.  1.
         -3    1    6    6    0  502 -0.21310100960E+01 -0.72532567893E+03  0.34335450696E+03  0.80249249166E+03  0.00000000000E+00 0.  1.
<mgrwt>
<rscale>  0 0.15939115E+04</rscale>
<asrwt>0</asrwt>
<pdfrwt beam="1">  1        2 0.22517114E+00 0.15939115E+04</pdfrwt>
<pdfrwt beam="2">  1       -2 0.66761944E-01 0.15939115E+04</pdfrwt>
<totfact> 0.26313219E+01</totfact>
</mgrwt>
</event>
<event>
12    1  0.2433511E-007  0.3006839E+04  0.7818608E-02  0.8241781E-01
         -1   -1    0    0    0  501 -0.00000000000E+00  0.00000000000E+00  0.53719451517E+03  0.53719451517E+03  0.00000000000E+00 0.  1.
          1   -1    0    0  501    0  0.00000000000E+00 -0.00000000000E+00 -0.42075461769E+04  0.42075461769E+04  0.00000000000E+00 0. -1.
         23    2    1    2    0    0  0.95967928037E+03 -0.36359066682E+03 -0.30972300588E+04  0.32640779750E+04  0.90490305237E+02 0.  0.
        254    2    1    2    0    0 -0.95967928037E+03  0.36359066682E+03 -0.57312160290E+03  0.14806627171E+04  0.90039503321E+03 0.  0.
        -24    2    4    4    0    0 -0.10935168974E+04  0.42322757707E+03 -0.58513565606E+03  0.13132522581E+04  0.85714471300E+02 0.  0.
         24    2    4    4    0    0  0.13383761701E+03 -0.59636910248E+02  0.12014053159E+02  0.16741045896E+03  0.80080306601E+02 0.  0.
         13    1    3    3    0    0  0.27930695309E+03 -0.83235646893E+02 -0.99308882354E+03  0.10349714771E+04  0.00000000000E+00 0. -1.
        -13    1    3    3    0    0  0.68037232728E+03 -0.28035501993E+03 -0.21041412353E+04  0.22291064979E+04  0.00000000000E+00 0.  1.
          2    1    6    6  502    0  0.17103064907E+02 -0.68571177696E+01 -0.27713436098E+02  0.33280165770E+02  0.00000000000E+00 0. -1.
          1    1    5    5  503    0 -0.38282110659E+02  0.32871369697E+02 -0.21515373878E+02  0.54853972102E+02  0.00000000000E+00 0. -1.
         -2    1    5    5    0  503 -0.10552347867E+04  0.39035620737E+03 -0.56362028218E+03  0.12583982860E+04  0.00000000000E+00 0.  1.
         -1    1    6    6    0  502  0.11673455210E+03 -0.52779792479E+02  0.39727489257E+02  0.13413029319E+03  0.00000000000E+00 0.  1.
<mgrwt>
<rscale>  0 0.30068394E+04</rscale>
<asrwt>0</asrwt>
<pdfrwt beam="1">  1        1 0.64731476E+00 0.30068394E+04</pdfrwt>
<pdfrwt beam="2">  1       -1 0.82645315E-01 0.30068394E+04</pdfrwt>
<totfact> 0.76957209E-02</totfact>
</mgrwt>
</event>
<event>
12    1  0.2433511E-007  0.1889897E+04  0.7818608E-02  0.8659902E-01
          2   -1    0    0  501    0  0.00000000000E+00  0.00000000000E+00  0.19401230572E+04  0.19401230572E+04  0.00000000000E+00 0. -1.
         -2   -1    0    0    0  501 -0.00000000000E+00 -0.00000000000E+00 -0.46024270117E+03  0.46024270117E+03  0.00000000000E+00 0.  1.
         23    2    1    2    0    0 -0.97488033121E+02  0.64982052608E+03  0.98147608429E+03  0.11846413685E+04  0.91155006290E+02 0.  0.
        254    2    1    2    0    0  0.97488033121E+02 -0.64982052608E+03  0.49840427174E+03  0.12157243899E+04  0.89320117632E+03 0.  0.
        -24    2    4    4    0    0  0.10435638747E+02 -0.55187541293E+03 -0.12660113295E+03  0.57196405540E+03  0.80247491258E+02 0.  0.
         24    2    4    4    0    0  0.87052394373E+02 -0.97945113151E+02  0.62500540469E+03  0.64376033450E+03  0.81389482230E+02 0.  0.
         13    1    3    3    0    0 -0.70059489506E+02  0.48941692429E+03  0.66354806949E+03  0.82748613183E+03  0.00000000000E+00 0.  1.
        -13    1    3    3    0    0 -0.27428543615E+02  0.16040360179E+03  0.31792801480E+03  0.35715523665E+03  0.00000000000E+00 0. -1.
          2    1    6    6  502    0  0.42091143762E+02 -0.97131811114E+02  0.49513461508E+03  0.50632454035E+03  0.00000000000E+00 0. -1.
          1    1    5    5  503    0  0.33964804292E+02 -0.11295307471E+03 -0.34159145492E+02  0.12279597810E+03  0.00000000000E+00 0. -1.
         -2    1    5    5    0  503 -0.23529165545E+02 -0.43892233822E+03 -0.92441987458E+02  0.44916807730E+03  0.00000000000E+00 0.  1.
         -1    1    6    6    0  502  0.44961250611E+02 -0.81330203662E+00  0.12987078962E+03  0.13743579415E+03  0.00000000000E+00 0.  1.
<mgrwt>
<rscale>  0 0.18898968E+04</rscale>
<asrwt>0</asrwt>
<pdfrwt beam="1">  1        2 0.29848047E+00 0.18898968E+04</pdfrwt>
<pdfrwt beam="2">  1       -2 0.70806570E-01 0.18898968E+04</pdfrwt>
<totfact> 0.12256669E+01</totfact>
</mgrwt>
</event>
<event>
12    1  0.2433511E-007  0.1385671E+04  0.7818608E-02  0.8964256E-01
         -1   -1    0    0    0  501 -0.00000000000E+00  0.00000000000E+00  0.16537011516E+03  0.16537011516E+03  0.00000000000E+00 0.  1.
          1   -1    0    0  501    0  0.00000000000E+00 -0.00000000000E+00 -0.29027073391E+04  0.29027073391E+04  0.00000000000E+00 0. -1.
         23    2    1    2    0    0 -0.14618942733E+03  0.32667459680E+03 -0.44602708668E+03  0.58069603565E+03  0.10089639692E+03 0.  0.
        254    2    1    2    0    0  0.14618942733E+03 -0.32667459680E+03 -0.22913101373E+04  0.24873814187E+04  0.89937563657E+03 0.  0.
        -24    2    4    4    0    0 -0.16623772796E+03 -0.20706091190E+03 -0.14438547280E+03  0.31298699153E+03  0.81268005236E+02 0.  0.
         24    2    4    4    0    0  0.31242715529E+03 -0.11961368491E+03 -0.21469246645E+04  0.21743944271E+04  0.82385973521E+02 0.  0.
         13    1    3    3    0    0 -0.58637006659E+02  0.11255789302E+03 -0.23736816894E+03  0.26916765307E+03  0.00000000000E+00 0. -1.
        -13    1    3    3    0    0 -0.87552420670E+02  0.21411670379E+03 -0.20865891773E+03  0.31152838258E+03  0.00000000000E+00 0.  1.
          4    1    6    6  502    0  0.11083490541E+03 -0.83740134512E+02 -0.79326330081E+03  0.80533437205E+03  0.00000000000E+00 0. -1.
          1    1    5    5  503    0 -0.72525100480E+02 -0.32301253985E+02 -0.41120077823E+02  0.89409854093E+02  0.00000000000E+00 0. -1.
         -2    1    5    5    0  503 -0.93712627484E+02 -0.17475965791E+03 -0.10326539497E+03  0.22357713743E+03  0.00000000000E+00 0.  1.
         -3    1    6    6    0  502  0.20159224988E+03 -0.35873550395E+02 -0.13536613637E+04  0.13690600551E+04  0.00000000000E+00 0.  1.
<mgrwt>
<rscale>  0 0.13856710E+04</rscale>
<asrwt>0</asrwt>
<pdfrwt beam="1">  1        1 0.44657035E+00 0.13856710E+04</pdfrwt>
<pdfrwt beam="2">  1       -1 0.25441557E-01 0.13856710E+04</pdfrwt>
<totfact> 0.93983163E+00</totfact>
</mgrwt>
</event>
<event>
12    1  0.2525987E-007  0.3088036E+04  0.7818608E-02  0.8219029E-01
         -2   -1    0    0    0  501 -0.00000000000E+00  0.00000000000E+00  0.24134686076E+04  0.24134686076E+04  0.00000000000E+00 0. -1.
          2   -1    0    0  501    0  0.00000000000E+00 -0.00000000000E+00 -0.98778661019E+03  0.98778661019E+03  0.00000000000E+00 0.  1.
         23    2    1    2    0    0  0.13107183139E+04 -0.53879911284E+02  0.12259537786E+04  0.17977695462E+04  0.90150600707E+02 0.  0.
        254    2    1    2    0    0 -0.13107183139E+04  0.53879911284E+02  0.19972821881E+03  0.16034856716E+04  0.90021630415E+03 0.  0.
        -24    2    4    4    0    0 -0.47913853938E+03 -0.29896462599E+02 -0.35061023618E+03  0.59961963904E+03  0.78413234925E+02 0.  0.
         24    2    4    4    0    0 -0.83157977453E+03  0.83776373882E+02  0.55033845500E+03  0.10038660325E+04  0.79568800268E+02 0.  0.
         11    1    3    3    0    0  0.64435541375E+03 -0.20171537930E+02  0.66350307505E+03  0.92511465277E+03  0.00000000000E+00 0.  1.
        -11    1    3    3    0    0  0.66636290017E+03 -0.33708373353E+02  0.56245070357E+03  0.87265489347E+03  0.00000000000E+00 0. -1.
          4    1    6    6  502    0 -0.81116152587E+03  0.90378914604E+02  0.52407967161E+03  0.96995405636E+03  0.00000000000E+00 0. -1.
          3    1    5    5  503    0 -0.47205381349E+03 -0.20649483225E+02 -0.34988850152E+03  0.58794826940E+03  0.00000000000E+00 0. -1.
         -4    1    5    5    0  503 -0.70847258908E+01 -0.92469793737E+01 -0.72173466153E+00  0.11671369646E+02  0.00000000000E+00 0.  1.
         -3    1    6    6    0  502 -0.20418248666E+02 -0.66025407219E+01  0.26258783385E+02  0.33911976166E+02  0.00000000000E+00 0.  1.
<mgrwt>
<rscale>  0 0.30880363E+04</rscale>
<asrwt>0</asrwt>
<pdfrwt beam="1">  1        2 0.15196717E+00 0.30880363E+04</pdfrwt>
<pdfrwt beam="2">  1       -2 0.37130286E+00 0.30880363E+04</pdfrwt>
<totfact> 0.24813632E-01</totfact>
</mgrwt>
</event>
<event>
12    1  0.2433511E-007  0.1570273E+04  0.7818608E-02  0.8839021E-01
          2   -1    0    0  501    0  0.00000000000E+00  0.00000000000E+00  0.12915869430E+04  0.12915869430E+04  0.00000000000E+00 0. -1.
         -2   -1    0    0    0  501 -0.00000000000E+00 -0.00000000000E+00 -0.47727290539E+03  0.47727290539E+03  0.00000000000E+00 0.  1.
         23    2    1    2    0    0 -0.15484645603E+03  0.49857643134E+03  0.27650636820E+03  0.59776967546E+03  0.91197206191E+02 0.  0.
        254    2    1    2    0    0  0.15484645603E+03 -0.49857643134E+03  0.53780766937E+03  0.11710901729E+04  0.89981065840E+03 0.  0.
        -24    2    4    4    0    0 -0.79452019564E+02  0.16938301603E+02  0.58622679874E+03  0.59697935532E+03  0.78249355605E+02 0.  0.
         24    2    4    4    0    0  0.23429847559E+03 -0.51551473294E+03 -0.48419129368E+02  0.57411081756E+03  0.81287165105E+02 0.  0.
         11    1    3    3    0    0 -0.52552026783E+02  0.95733599378E+02  0.92966023722E+02  0.14342007926E+03  0.00000000000E+00 0. -1.
        -11    1    3    3    0    0 -0.10229442925E+03  0.40284283196E+03  0.18354034448E+03  0.45434959620E+03  0.00000000000E+00 0.  1.
          2    1    6    6  502    0  0.14311341713E+03 -0.33265853762E+03 -0.69326667572E+02  0.36871308582E+03  0.00000000000E+00 0. -1.
          3    1    5    5  503    0 -0.24790161571E+02  0.17426586637E+02  0.43710459154E+03  0.43815369675E+03  0.00000000000E+00 0. -1.
         -4    1    5    5    0  503 -0.54661857993E+02 -0.48828503471E+00  0.14912220719E+03  0.15882565857E+03  0.00000000000E+00 0.  1.
         -1    1    6    6    0  502  0.91185058461E+02 -0.18285619532E+03  0.20907538204E+02  0.20539773174E+03  0.00000000000E+00 0.  1.
<mgrwt>
<rscale>  0 0.15702732E+04</rscale>
<asrwt>0</asrwt>
<pdfrwt beam="1">  1        2 0.19870568E+00 0.15702732E+04</pdfrwt>
<pdfrwt beam="2">  1       -2 0.73426601E-01 0.15702732E+04</pdfrwt>
<totfact> 0.26894305E+01</totfact>
</mgrwt>
</event>
<event>
12    1  0.2433511E-007  0.1277941E+04  0.7818608E-02  0.9047243E-01
         -1   -1    0    0    0  501 -0.00000000000E+00  0.00000000000E+00  0.14210237764E+03  0.14210237764E+03  0.00000000000E+00 0.  1.
          1   -1    0    0  501    0  0.00000000000E+00 -0.00000000000E+00 -0.28731631498E+04  0.28731631498E+04  0.00000000000E+00 0. -1.
         23    2    1    2    0    0 -0.17753053789E+02 -0.11239375998E+03 -0.13933657280E+04  0.14009168810E+04  0.90291346394E+02 0.  0.
        254    2    1    2    0    0  0.17753053789E+02  0.11239375998E+03 -0.13376950441E+04  0.16143486465E+04  0.89651881909E+03 0.  0.
        -24    2    4    4    0    0  0.16902717603E+03  0.46791331889E+03 -0.67125571608E+03  0.83985743118E+03  0.85224457238E+02 0.  0.
         24    2    4    4    0    0 -0.15127412224E+03 -0.35551955891E+03 -0.66643932806E+03  0.77449121527E+03  0.80107725667E+02 0.  0.
         13    1    3    3    0    0 -0.87715813420E+01 -0.79742674704E+02 -0.46042498958E+03  0.46736175051E+03  0.00000000000E+00 0.  1.
        -13    1    3    3    0    0 -0.89814724468E+01 -0.32651085277E+02 -0.93294073843E+03  0.93355513047E+03  0.00000000000E+00 0. -1.
          4    1    6    6  502    0 -0.91118105470E+02 -0.21228439510E+03 -0.31863614283E+03  0.39356850111E+03  0.00000000000E+00 0. -1.
          1    1    5    5  503    0  0.59000216753E+02  0.28390343353E+03 -0.40212879696E+03  0.49577187747E+03  0.00000000000E+00 0. -1.
         -2    1    5    5    0  503  0.11002695928E+03  0.18400988537E+03 -0.26912691912E+03  0.34408555372E+03  0.00000000000E+00 0.  1.
         -3    1    6    6    0  502 -0.60156016771E+02 -0.14323516381E+03 -0.34780318523E+03  0.38092271416E+03  0.00000000000E+00 0.  1.
<mgrwt>
<rscale>  0 0.12779410E+04</rscale>
<asrwt>0</asrwt>
<pdfrwt beam="1">  1        1 0.44202508E+00 0.12779410E+04</pdfrwt>
<pdfrwt beam="2">  1       -1 0.21861905E-01 0.12779410E+04</pdfrwt>
<totfact> 0.12914501E+01</totfact>
</mgrwt>
</event>
<event>
12    1  0.2433511E-007  0.1100103E+04  0.7818608E-02  0.9205091E-01
         -1   -1    0    0    0  501 -0.00000000000E+00  0.00000000000E+00  0.64518402038E+02  0.64518402038E+02  0.00000000000E+00 0.  1.
          1   -1    0    0  501    0  0.00000000000E+00 -0.00000000000E+00 -0.46894647313E+04  0.46894647313E+04  0.00000000000E+00 0. -1.
         23    2    1    2    0    0 -0.15446912345E+03 -0.23100341945E+02 -0.90548315109E+03  0.92383699353E+03  0.95816062308E+02 0.  0.
        254    2    1    2    0    0  0.15446912345E+03  0.23100341945E+02 -0.37194631782E+04  0.38301461398E+04  0.90067684697E+03 0.  0.
        -24    2    4    4    0    0 -0.26580207982E+03  0.11690785222E+03 -0.27486382897E+04  0.27650789874E+04  0.79568630540E+02 0.  0.
         24    2    4    4    0    0  0.42027120327E+03 -0.93807510275E+02 -0.97082488845E+03  0.10650671525E+04  0.80245510527E+02 0.  0.
         13    1    3    3    0    0 -0.29850405346E+02  0.24960760750E+02 -0.99070085160E+02  0.10643762516E+03  0.00000000000E+00 0.  1.
        -13    1    3    3    0    0 -0.12461871811E+03 -0.48061102695E+02 -0.80641306593E+03  0.81739936836E+03  0.00000000000E+00 0. -1.
          2    1    6    6  502    0  0.17829690549E+03 -0.54365595846E+02 -0.51152820748E+03  0.54443228373E+03  0.00000000000E+00 0. -1.
          3    1    5    5  503    0 -0.14924736343E+03  0.22599797196E+02 -0.13283882034E+04  0.13369370761E+04  0.00000000000E+00 0. -1.
         -4    1    5    5    0  503 -0.11655471639E+03  0.94308055025E+02 -0.14202500863E+04  0.14281419113E+04  0.00000000000E+00 0.  1.
         -1    1    6    6    0  502  0.24197429779E+03 -0.39441914429E+02 -0.45929668096E+03  0.52063486874E+03  0.00000000000E+00 0.  1.
<mgrwt>
<rscale>  0 0.11001032E+04</rscale>
<asrwt>0</asrwt>
<pdfrwt beam="1">  1        1 0.72145603E+00 0.11001032E+04</pdfrwt>
<pdfrwt beam="2">  1       -1 0.99259091E-02 0.11001032E+04</pdfrwt>
<totfact> 0.13758283E+00</totfact>
</mgrwt>
</event>
<event>
12    1  0.2433511E-007  0.2322296E+04  0.7818608E-02  0.8469181E-01
         -1   -1    0    0    0  501 -0.00000000000E+00  0.00000000000E+00  0.13222574863E+04  0.13222574863E+04  0.00000000000E+00 0.  1.
          1   -1    0    0  501    0  0.00000000000E+00 -0.00000000000E+00 -0.10196692041E+04  0.10196692041E+04  0.00000000000E+00 0. -1.
         23    2    1    2    0    0 -0.86705590090E+03 -0.24327073955E+03  0.53441273191E+03  0.10509153916E+04  0.88654409502E+02 0.  0.
        254    2    1    2    0    0  0.86705590090E+03  0.24327073955E+03 -0.23182444971E+03  0.12910112987E+04  0.89554509094E+03 0.  0.
        -24    2    4    4    0    0  0.83645273620E+03  0.20707426731E+03  0.16722555108E+03  0.88134674461E+03  0.79213428322E+02 0.  0.
         24    2    4    4    0    0  0.30603164705E+02  0.36196472233E+02 -0.39905000079E+03  0.40966455410E+03  0.79607822902E+02 0.  0.
         13    1    3    3    0    0 -0.76728308222E+03 -0.21806152884E+03  0.43855026102E+03  0.91027495300E+03  0.00000000000E+00 0. -1.
        -13    1    3    3    0    0 -0.99772818683E+02 -0.25209210710E+02  0.95862470885E+02  0.14064043863E+03  0.00000000000E+00 0.  1.
          4    1    6    6  502    0 -0.21522911726E+02 -0.82173506833E+01 -0.13066132150E+03  0.13267683112E+03  0.00000000000E+00 0. -1.
          3    1    5    5  503    0  0.73605821191E+03  0.20803762850E+03  0.14495062351E+03  0.77850628093E+03  0.00000000000E+00 0. -1.
         -4    1    5    5    0  503  0.10039452429E+03 -0.96336118844E+00  0.22274927568E+02  0.10284046368E+03  0.00000000000E+00 0.  1.
         -3    1    6    6    0  502  0.52126076431E+02  0.44413822917E+02 -0.26838867929E+03  0.27698772298E+03  0.00000000000E+00 0.  1.
<mgrwt>
<rscale>  0 0.23222965E+04</rscale>
<asrwt>0</asrwt>
<pdfrwt beam="1">  1        1 0.15687219E+00 0.23222965E+04</pdfrwt>
<pdfrwt beam="2">  1       -1 0.20342423E+00 0.23222965E+04</pdfrwt>
<totfact> 0.18783549E+00</totfact>
</mgrwt>
</event>
<event>
12    1  0.2433511E-007  0.2640734E+04  0.7818608E-02  0.8354495E-01
          1   -1    0    0  501    0  0.00000000000E+00  0.00000000000E+00  0.32439450102E+04  0.32439450102E+04  0.00000000000E+00 0. -1.
         -1   -1    0    0    0  501 -0.00000000000E+00 -0.00000000000E+00 -0.53742249863E+03  0.53742249863E+03  0.00000000000E+00 0.  1.
         23    2    1    2    0    0  0.11234471150E+04 -0.28366038903E+03  0.13717402372E+04  0.17978949857E+04  0.90324221052E+02 0.  0.
        254    2    1    2    0    0 -0.11234471150E+04  0.28366038903E+03  0.13347822744E+04  0.19834725231E+04  0.89995716199E+03 0.  0.
        -24    2    4    4    0    0  0.98405436275E+02 -0.11412227284E+03  0.86176060578E+02  0.19007211578E+03  0.77418167968E+02 0.  0.
         24    2    4    4    0    0 -0.12218525513E+04  0.39778266187E+03  0.12486062138E+04  0.17934004073E+04  0.78184657873E+02 0.  0.
         13    1    3    3    0    0  0.67594579560E+03 -0.17022819645E+03  0.89277916287E+03  0.11326672023E+04  0.00000000000E+00 0.  1.
        -13    1    3    3    0    0  0.44750131939E+03 -0.11343219258E+03  0.47896107435E+03  0.66522778348E+03  0.00000000000E+00 0. -1.
          4    1    6    6  502    0  0.11351610414E+01  0.11742356934E+00  0.22527799416E+01  0.25253507380E+01  0.00000000000E+00 0. -1.
          3    1    5    5  503    0  0.29119133954E+01 -0.24224956874E+02  0.47396470093E+02  0.53308096500E+02  0.00000000000E+00 0. -1.
         -4    1    5    5    0  503  0.95493522880E+02 -0.89897315968E+02  0.38779590485E+02  0.13676401928E+03  0.00000000000E+00 0.  1.
         -3    1    6    6    0  502 -0.12229877123E+04  0.39766523830E+03  0.12463534339E+04  0.17908750566E+04  0.00000000000E+00 0.  1.
<mgrwt>
<rscale>  0 0.26407340E+04</rscale>
<asrwt>0</asrwt>
<pdfrwt beam="1">  1        1 0.49906845E+00 0.26407340E+04</pdfrwt>
<pdfrwt beam="2">  1       -1 0.82680387E-01 0.26407340E+04</pdfrwt>
<totfact> 0.50239416E-01</totfact>
</mgrwt>
</event>
<event>
12    1  0.2433511E-007  0.1274023E+04  0.7818608E-02  0.9050423E-01
         -2   -1    0    0    0  501 -0.00000000000E+00  0.00000000000E+00  0.90839566634E+03  0.90839566634E+03  0.00000000000E+00 0.  1.
          2   -1    0    0  501    0  0.00000000000E+00 -0.00000000000E+00 -0.44670359365E+03  0.44670359365E+03  0.00000000000E+00 0. -1.
         23    2    1    2    0    0  0.30451642245E+03  0.41540595550E+02  0.16425201119E+03  0.36033331889E+03  0.91681540704E+02 0.  0.
        254    2    1    2    0    0 -0.30451642245E+03 -0.41540595550E+02  0.29744006151E+03  0.99476594110E+03  0.89812739340E+03 0.  0.
        -24    2    4    4    0    0  0.15947249549E+03  0.63095650288E+02 -0.21859519738E+03  0.28849840191E+03  0.77684809865E+02 0.  0.
         24    2    4    4    0    0 -0.46398891794E+03 -0.10463624584E+03  0.51603525889E+03  0.70626753919E+03  0.79290532740E+02 0.  0.
         13    1    3    3    0    0  0.97435885482E+02  0.56760394498E+02  0.50193293227E+02  0.12342957850E+03  0.00000000000E+00 0.  1.
        -13    1    3    3    0    0  0.20708053696E+03 -0.15219798948E+02  0.11405871796E+03  0.23690374039E+03  0.00000000000E+00 0. -1.
          4    1    6    6  502    0 -0.27705749293E+03 -0.63800606016E+02  0.36403316207E+03  0.46189989695E+03  0.00000000000E+00 0. -1.
          3    1    5    5  503    0 -0.29167512813E+01  0.10894830208E+02 -0.64711954590E-01  0.11278694558E+02  0.00000000000E+00 0. -1.
         -4    1    5    5    0  503  0.16238924677E+03  0.52200820080E+02 -0.21853048543E+03  0.27721970736E+03  0.00000000000E+00 0.  1.
         -3    1    6    6    0  502 -0.18693142501E+03 -0.40835639822E+02  0.15200209682E+03  0.24436764223E+03  0.00000000000E+00 0.  1.
<mgrwt>
<rscale>  0 0.12740229E+04</rscale>
<asrwt>0</asrwt>
<pdfrwt beam="1">  1        2 0.68723630E-01 0.12740229E+04</pdfrwt>
<pdfrwt beam="2">  1       -2 0.13975318E+00 0.12740229E+04</pdfrwt>
<totfact> 0.24828139E+01</totfact>
</mgrwt>
</event>
<event>
12    1  0.2433511E-007  0.2432317E+04  0.7818608E-02  0.8427503E-01
         -2   -1    0    0    0  501 -0.00000000000E+00  0.00000000000E+00  0.83360393915E+03  0.83360393915E+03  0.00000000000E+00 0.  1.
          2   -1    0    0  501    0  0.00000000000E+00 -0.00000000000E+00 -0.17742738452E+04  0.17742738452E+04  0.00000000000E+00 0. -1.
         23    2    1    2    0    0  0.39282888576E+03 -0.96887501856E+03 -0.47940444197E+03  0.11535746327E+04  0.88726992668E+02 0.  0.
        254    2    1    2    0    0 -0.39282888576E+03  0.96887501856E+03 -0.46126546409E+03  0.14543031516E+04  0.89955460835E+03 0.  0.
        -24    2    4    4    0    0  0.18306858358E+03  0.35606918511E+03 -0.45375395047E+03  0.60953156090E+03  0.73052756848E+02 0.  0.
         24    2    4    4    0    0 -0.57589746933E+03  0.61280583345E+03 -0.75115136183E+01  0.84477159073E+03  0.79960821538E+02 0.  0.
         11    1    3    3    0    0  0.13111281619E+03 -0.35906154250E+03 -0.22024930996E+03  0.44116382491E+03  0.00000000000E+00 0. -1.
        -11    1    3    3    0    0  0.26171606957E+03 -0.60981347606E+03 -0.25915513201E+03  0.71241080782E+03  0.00000000000E+00 0.  1.
          2    1    6    6  502    0 -0.75454123457E+02  0.47150740734E+02  0.82168759860E+01  0.89353422706E+02  0.00000000000E+00 0. -1.
          1    1    5    5  503    0  0.53710729910E+02  0.16499048679E+03 -0.23003367042E+03  0.28813571936E+03  0.00000000000E+00 0. -1.
         -2    1    5    5    0  503  0.12935785367E+03  0.19107869832E+03 -0.22372028005E+03  0.32139584154E+03  0.00000000000E+00 0.  1.
         -1    1    6    6    0  502 -0.50044334587E+03  0.56565509272E+03 -0.15728389604E+02  0.75541816803E+03  0.00000000000E+00 0.  1.
<mgrwt>
<rscale>  0 0.24323171E+04</rscale>
<asrwt>0</asrwt>
<pdfrwt beam="1">  1        2 0.27296520E+00 0.24323171E+04</pdfrwt>
<pdfrwt beam="2">  1       -2 0.12824676E+00 0.24323171E+04</pdfrwt>
<totfact> 0.35951684E+00</totfact>
</mgrwt>
</event>
<event>
12    1  0.2433511E-007  0.3858821E+04  0.7818608E-02  0.8033648E-01
         -2   -1    0    0    0  501 -0.00000000000E+00  0.00000000000E+00  0.11060346461E+04  0.11060346461E+04  0.00000000000E+00 0.  1.
          2   -1    0    0  501    0  0.00000000000E+00 -0.00000000000E+00 -0.33657403934E+04  0.33657403934E+04  0.00000000000E+00 0. -1.
         23    2    1    2    0    0  0.10443662969E+04  0.12880497369E+04 -0.19473461936E+04  0.25593599519E+04  0.91613745746E+02 0.  0.
        254    2    1    2    0    0 -0.10443662969E+04 -0.12880497369E+04 -0.31235955366E+03  0.19124150876E+04  0.89999438310E+03 0.  0.
        -24    2    4    4    0    0 -0.10477824403E+04 -0.79521772661E+03  0.10758975486E+02  0.13178714367E+04  0.80312472755E+02 0.  0.
         24    2    4    4    0    0  0.34161433966E+01 -0.49283201034E+03 -0.32311852914E+03  0.59454365088E+03  0.78622569768E+02 0.  0.
         11    1    3    3    0    0  0.67502625458E+03  0.89760330459E+03 -0.12976646966E+04  0.17161834988E+04  0.00000000000E+00 0. -1.
        -11    1    3    3    0    0  0.36934004234E+03  0.39044643236E+03 -0.64968149706E+03  0.84317645308E+03  0.00000000000E+00 0.  1.
          2    1    6    6  502    0 -0.90531809578E+01 -0.59662098361E+02 -0.13188271184E+02  0.61769382084E+02  0.00000000000E+00 0. -1.
          1    1    5    5  503    0 -0.31462969230E+03 -0.20441470853E+03  0.26825149402E+02  0.37616061062E+03  0.00000000000E+00 0. -1.
         -2    1    5    5    0  503 -0.73315274801E+03 -0.59080301808E+03 -0.16066173916E+02  0.94171082612E+03  0.00000000000E+00 0.  1.
         -1    1    6    6    0  502  0.12469324354E+02 -0.43316991198E+03 -0.30993025796E+03  0.53277426880E+03  0.00000000000E+00 0.  1.
<mgrwt>
<rscale>  0 0.38588213E+04</rscale>
<asrwt>0</asrwt>
<pdfrwt beam="1">  1        2 0.51780621E+00 0.38588213E+04</pdfrwt>
<pdfrwt beam="2">  1       -2 0.17015918E+00 0.38588213E+04</pdfrwt>
<totfact> 0.17040231E-01</totfact>
</mgrwt>
</event>
<event>
12    1  0.2433511E-007  0.2134852E+04  0.7818608E-02  0.8546044E-01
         -2   -1    0    0    0  501 -0.00000000000E+00  0.00000000000E+00  0.49179184653E+03  0.49179184653E+03  0.00000000000E+00 0.  1.
          2   -1    0    0  501    0  0.00000000000E+00 -0.00000000000E+00 -0.23168304095E+04  0.23168304095E+04  0.00000000000E+00 0. -1.
         23    2    1    2    0    0 -0.47547061188E+03 -0.64873939957E+03 -0.12064184145E+04  0.14527107963E+04  0.89376482226E+02 0.  0.
        254    2    1    2    0    0  0.47547061188E+03  0.64873939957E+03 -0.61862014853E+03  0.13559114598E+04  0.89937194044E+03 0.  0.
        -24    2    4    4    0    0  0.14320914159E+03  0.75541190257E+02  0.21935452921E+03  0.28465362245E+03  0.81828757956E+02 0.  0.
         24    2    4    4    0    0  0.33226147029E+03  0.57319820931E+03 -0.83797467774E+03  0.10712578373E+04  0.80236660571E+02 0.  0.
         13    1    3    3    0    0 -0.10014676028E+03 -0.10675772802E+03 -0.16939062092E+03  0.22387444816E+03  0.00000000000E+00 0. -1.
        -13    1    3    3    0    0 -0.37532385159E+03 -0.54198167155E+03 -0.10370277935E+04  0.12288363481E+04  0.00000000000E+00 0.  1.
          4    1    6    6  502    0  0.80016384976E+02  0.11078422683E+03 -0.22293306279E+03  0.26148597910E+03  0.00000000000E+00 0. -1.
          1    1    5    5  503    0  0.33625844778E+02  0.22113839696E+02  0.85642151627E+01  0.41146872596E+02  0.00000000000E+00 0. -1.
         -2    1    5    5    0  503  0.10958329681E+03  0.53427350561E+02  0.21079031404E+03  0.24350674985E+03  0.00000000000E+00 0.  1.
         -3    1    6    6    0  502  0.25224508531E+03  0.46241398248E+03 -0.61504161494E+03  0.80977185822E+03  0.00000000000E+00 0.  1.
<mgrwt>
<rscale>  0 0.21348520E+04</rscale>
<asrwt>0</asrwt>
<pdfrwt beam="1">  1        2 0.35643545E+00 0.21348520E+04</pdfrwt>
<pdfrwt beam="2">  1       -2 0.75660284E-01 0.21348520E+04</pdfrwt>
<totfact> 0.63820151E+00</totfact>
</mgrwt>
</event>
<event>
12    1  0.2433511E-007  0.1196108E+04  0.7818608E-02  0.9116270E-01
         -1   -1    0    0    0  501 -0.00000000000E+00  0.00000000000E+00  0.12008354944E+04  0.12008354944E+04  0.00000000000E+00 0.  1.
          1   -1    0    0  501    0  0.00000000000E+00 -0.00000000000E+00 -0.29784957563E+03  0.29784957563E+03  0.00000000000E+00 0. -1.
         23    2    1    2    0    0 -0.19560402383E+03 -0.11665301485E+03  0.32330685704E+03  0.40596497217E+03  0.91713547551E+02 0.  0.
        254    2    1    2    0    0  0.19560402383E+03  0.11665301485E+03  0.57967906170E+03  0.10927200978E+04  0.89785329403E+03 0.  0.
        -24    2    4    4    0    0  0.21367016100E+03 -0.32436381753E+03  0.53171234136E+02  0.39998312812E+03  0.79325272242E+02 0.  0.
         24    2    4    4    0    0 -0.18066137167E+02  0.44101683238E+03  0.52650782756E+03  0.69273696970E+03  0.88610298244E+02 0.  0.
         11    1    3    3    0    0 -0.15448161236E+03 -0.11571000024E+03  0.30500200464E+03  0.36094264856E+03  0.00000000000E+00 0.  1.
        -11    1    3    3    0    0 -0.41122411472E+02 -0.94301461253E+00  0.18304852398E+02  0.45022323609E+02  0.00000000000E+00 0. -1.
          4    1    6    6  502    0  0.20418283213E+02  0.28603616556E+02  0.53452899617E+02  0.63970975034E+02  0.00000000000E+00 0. -1.
          1    1    5    5  503    0  0.62569018462E+02 -0.75610110951E+02 -0.19357699495E+02  0.10003245213E+03  0.00000000000E+00 0. -1.
         -2    1    5    5    0  503  0.15110114254E+03 -0.24875370658E+03  0.72528933631E+02  0.29995067599E+03  0.00000000000E+00 0.  1.
         -3    1    6    6    0  502 -0.38484420380E+02  0.41241321583E+03  0.47305492794E+03  0.62876599467E+03  0.00000000000E+00 0.  1.
<mgrwt>
<rscale>  0 0.11961076E+04</rscale>
<asrwt>0</asrwt>
<pdfrwt beam="1">  1        1 0.45823012E-01 0.11961076E+04</pdfrwt>
<pdfrwt beam="2">  1       -1 0.18474392E+00 0.11961076E+04</pdfrwt>
<totfact> 0.16865788E+01</totfact>
</mgrwt>
</event>
<event>
12    1  0.2433511E-007  0.1972603E+04  0.7818608E-02  0.8619538E-01
          2   -1    0    0  501    0  0.00000000000E+00  0.00000000000E+00  0.16582151196E+04  0.16582151196E+04  0.00000000000E+00 0. -1.
         -2   -1    0    0    0  501 -0.00000000000E+00 -0.00000000000E+00 -0.58664931679E+03  0.58664931679E+03  0.00000000000E+00 0.  1.
         23    2    1    2    0    0  0.61785716325E+03 -0.25757353456E+03  0.87319262611E+03  0.11041634304E+04  0.92843517794E+02 0.  0.
        254    2    1    2    0    0 -0.61785716325E+03  0.25757353456E+03  0.19837317668E+03  0.11407010060E+04  0.90208384753E+03 0.  0.
        -24    2    4    4    0    0  0.25160515888E+02 -0.20674542750E+03  0.25972796042E+03  0.34112244602E+03  0.74358499195E+02 0.  0.
         24    2    4    4    0    0 -0.64301767913E+03  0.46431896206E+03 -0.61354783741E+02  0.79957855998E+03  0.80607877265E+02 0.  0.
         13    1    3    3    0    0  0.60894144058E+03 -0.26277186953E+03  0.84532063221E+03  0.10744420434E+04  0.00000000000E+00 0.  1.
        -13    1    3    3    0    0  0.89157226689E+01  0.51983349719E+01  0.27871993903E+02  0.29721386935E+02  0.00000000000E+00 0. -1.
          4    1    6    6  502    0 -0.19159621213E+03  0.15649112189E+03  0.15220172752E+02  0.24785123238E+03  0.00000000000E+00 0. -1.
          3    1    5    5  503    0  0.22666625194E+02 -0.82200024279E+02  0.54978236777E+02  0.10145553907E+03  0.00000000000E+00 0. -1.
         -4    1    5    5    0  503  0.24938906935E+01 -0.12454540322E+03  0.20474972364E+03  0.23966690695E+03  0.00000000000E+00 0.  1.
         -3    1    6    6    0  502 -0.45142146700E+03  0.30782784018E+03 -0.76574956494E+02  0.55172732760E+03  0.00000000000E+00 0.  1.
<mgrwt>
<rscale>  0 0.19726031E+04</rscale>
<asrwt>0</asrwt>
<pdfrwt beam="1">  1        2 0.25511002E+00 0.19726031E+04</pdfrwt>
<pdfrwt beam="2">  1       -2 0.90253742E-01 0.19726031E+04</pdfrwt>
<totfact> 0.10115700E+01</totfact>
</mgrwt>
</event>
<event>
12    1  0.2433511E-007  0.1545518E+04  0.7818608E-02  0.8854736E-01
          2   -1    0    0  501    0  0.00000000000E+00  0.00000000000E+00  0.16893095120E+04  0.16893095120E+04  0.00000000000E+00 0. -1.
         -2   -1    0    0    0  501 -0.00000000000E+00 -0.00000000000E+00 -0.35349140857E+03  0.35349140857E+03  0.00000000000E+00 0.  1.
         23    2    1    2    0    0 -0.44846541280E+03  0.10658445250E+03  0.17311878603E+03  0.50130551263E+03  0.94104361922E+02 0.  0.
        254    2    1    2    0    0  0.44846541280E+03 -0.10658445250E+03  0.11626993174E+04  0.15414954080E+04  0.90103103058E+03 0.  0.
        -24    2    4    4    0    0  0.52222232362E+03 -0.31807121305E+03  0.38270803415E+03  0.72602119090E+03  0.82194150497E+02 0.  0.
         24    2    4    4    0    0 -0.73756910827E+02  0.21148676055E+03  0.77999128328E+03  0.81547421707E+03  0.80281161761E+02 0.  0.
         11    1    3    3    0    0 -0.15499418089E+03  0.83492625813E+02  0.67737384012E+02  0.18863342192E+03  0.00000000000E+00 0. -1.
        -11    1    3    3    0    0 -0.29347123191E+03  0.23091826682E+02  0.10538140202E+03  0.31267209071E+03  0.00000000000E+00 0.  1.
          4    1    6    6  502    0 -0.27809785841E+02  0.17821732519E+03  0.56286962076E+03  0.59106430205E+03  0.00000000000E+00 0. -1.
          1    1    5    5  503    0  0.32474699034E+03 -0.18442785361E+03  0.27812207810E+03  0.46564592906E+03  0.00000000000E+00 0. -1.
         -2    1    5    5    0  503  0.19747533328E+03 -0.13364335944E+03  0.10458595605E+03  0.26037526185E+03  0.00000000000E+00 0.  1.
         -3    1    6    6    0  502 -0.45947124986E+02  0.33269435362E+02  0.21712166252E+03  0.22440991502E+03  0.00000000000E+00 0.  1.
<mgrwt>
<rscale>  0 0.15455179E+04</rscale>
<asrwt>0</asrwt>
<pdfrwt beam="1">  1        2 0.25989377E+00 0.15455179E+04</pdfrwt>
<pdfrwt beam="2">  1       -2 0.54383294E-01 0.15455179E+04</pdfrwt>
<totfact> 0.30465602E+01</totfact>
</mgrwt>
</event>
<event>
12    1  0.2433511E-007  0.1232640E+04  0.7818608E-02  0.9084757E-01
          1   -1    0    0  501    0  0.00000000000E+00  0.00000000000E+00  0.88552195757E+03  0.88552195757E+03  0.00000000000E+00 0. -1.
         -1   -1    0    0    0  501 -0.00000000000E+00 -0.00000000000E+00 -0.42895631229E+03  0.42895631229E+03  0.00000000000E+00 0.  1.
         23    2    1    2    0    0 -0.12687085625E+03  0.22346158301E+03 -0.12675768680E+00  0.27212322656E+03  0.89553007334E+02 0.  0.
        254    2    1    2    0    0  0.12687085625E+03 -0.22346158301E+03  0.45669240297E+03  0.10423550433E+04  0.90105759644E+03 0.  0.
        -24    2    4    4    0    0  0.43867570168E+02  0.34206516606E+03  0.11541595098E+03  0.37176350652E+03  0.77164250087E+02 0.  0.
         24    2    4    4    0    0  0.83003286077E+02 -0.56552674907E+03  0.34127645199E+03  0.67059153678E+03  0.80705285446E+02 0.  0.
         11    1    3    3    0    0 -0.59584216022E+02  0.47264800627E+02 -0.28847695962E+02  0.81341439252E+02  0.00000000000E+00 0.  1.
        -11    1    3    3    0    0 -0.67286640223E+02  0.17619678238E+03  0.28720938275E+02  0.19078178731E+03  0.00000000000E+00 0. -1.
          2    1    6    6  502    0  0.29926995747E+02 -0.26329210963E+03  0.11270906323E+03  0.28796126997E+03  0.00000000000E+00 0. -1.
          1    1    5    5  503    0  0.43454121802E+02  0.93417490435E+02  0.50716611187E+02  0.11483580831E+03  0.00000000000E+00 0. -1.
         -2    1    5    5    0  503  0.41344836597E+00  0.24864767563E+03  0.64699339796E+02  0.25692769821E+03  0.00000000000E+00 0.  1.
         -1    1    6    6    0  502  0.53076290330E+02 -0.30223463944E+03  0.22856738875E+03  0.38263026680E+03  0.00000000000E+00 0.  1.
<mgrwt>
<rscale>  0 0.12326398E+04</rscale>
<asrwt>0</asrwt>
<pdfrwt beam="1">  1        1 0.13623415E+00 0.12326398E+04</pdfrwt>
<pdfrwt beam="2">  1       -1 0.65993279E-01 0.12326398E+04</pdfrwt>
<totfact> 0.42986419E+01</totfact>
</mgrwt>
</event>
<event>
12    1  0.2433511E-007  0.1730847E+04  0.7818608E-02  0.8743964E-01
         -2   -1    0    0    0  501 -0.00000000000E+00  0.00000000000E+00  0.29494165244E+03  0.29494165244E+03  0.00000000000E+00 0.  1.
          2   -1    0    0  501    0  0.00000000000E+00 -0.00000000000E+00 -0.25393429462E+04  0.25393429462E+04  0.00000000000E+00 0. -1.
         23    2    1    2    0    0 -0.63795458700E+02  0.55436155878E+03 -0.35119956927E+03  0.66525819430E+03  0.88547892195E+02 0.  0.
        254    2    1    2    0    0  0.63795458700E+02 -0.55436155878E+03 -0.18932017245E+04  0.21690264044E+04  0.89948661734E+03 0.  0.
        -24    2    4    4    0    0  0.39378410033E+03 -0.13366459337E+03 -0.40570263888E+03  0.58618317801E+03  0.77999652512E+02 0.  0.
         24    2    4    4    0    0 -0.32998864163E+03 -0.42069696541E+03 -0.14874990856E+04  0.15828432264E+04  0.82829398038E+02 0.  0.
         11    1    3    3    0    0 -0.51745476805E+02  0.17725188739E+03 -0.83604155400E+02  0.20269553708E+03  0.00000000000E+00 0. -1.
        -11    1    3    3    0    0 -0.12049981895E+02  0.37710967140E+03 -0.26759541387E+03  0.46256265722E+03  0.00000000000E+00 0.  1.
          2    1    6    6  502    0 -0.11508042074E+03 -0.14814329614E+03 -0.64282454402E+03  0.66963671780E+03  0.00000000000E+00 0. -1.
          1    1    5    5  503    0  0.87061698954E+02 -0.62139139580E+02 -0.84295462073E+02  0.13618640541E+03  0.00000000000E+00 0. -1.
         -2    1    5    5    0  503  0.30672240138E+03 -0.71525453794E+02 -0.32140717680E+03  0.44999677260E+03  0.00000000000E+00 0.  1.
         -1    1    6    6    0  502 -0.21490822089E+03 -0.27255366927E+03 -0.84467454163E+03  0.91320650858E+03  0.00000000000E+00 0.  1.
<mgrwt>
<rscale>  0 0.17308472E+04</rscale>
<asrwt>0</asrwt>
<pdfrwt beam="1">  1        2 0.39066815E+00 0.17308472E+04</pdfrwt>
<pdfrwt beam="2">  1       -2 0.45375639E-01 0.17308472E+04</pdfrwt>
<totfact> 0.14462668E+01</totfact>
</mgrwt>
</event>
<event>
12    1  0.2433511E-007  0.1205847E+04  0.7818608E-02  0.9107754E-01
          1   -1    0    0  501    0  0.00000000000E+00  0.00000000000E+00  0.94246999818E+03  0.94246999818E+03  0.00000000000E+00 0. -1.
         -1   -1    0    0    0  501 -0.00000000000E+00 -0.00000000000E+00 -0.38570614632E+03  0.38570614632E+03  0.00000000000E+00 0.  1.
         23    2    1    2    0    0 -0.26303187629E+02 -0.17170941048E+03 -0.71574306862E+02  0.21619090253E+03  0.10695627895E+03 0.  0.
        254    2    1    2    0    0  0.26303187629E+02  0.17170941048E+03  0.62833815872E+03  0.11119852420E+04  0.90084757719E+03 0.  0.
        -24    2    4    4    0    0  0.40922005751E+02 -0.34306639599E+03  0.97363218661E+02  0.36783086588E+03  0.80316791116E+02 0.  0.
         24    2    4    4    0    0 -0.14618818122E+02  0.51477580646E+03  0.53097494005E+03  0.74415437609E+03  0.81384935492E+02 0.  0.
         13    1    3    3    0    0 -0.23255833484E+02 -0.72552483543E+02 -0.87165713275E+02  0.11576941837E+03  0.00000000000E+00 0.  1.
        -13    1    3    3    0    0 -0.30473541450E+01 -0.99156926937E+02  0.15591406413E+02  0.10042148416E+03  0.00000000000E+00 0. -1.
          4    1    6    6  502    0 -0.23708992621E+02  0.39189409797E+03  0.44754747178E+03  0.59535018254E+03  0.00000000000E+00 0. -1.
          3    1    5    5  503    0  0.31860424440E+01 -0.86805852495E+02 -0.99993532823E+01  0.87437943479E+02  0.00000000000E+00 0. -1.
         -4    1    5    5    0  503  0.37735963307E+02 -0.25626054349E+03  0.10736257194E+03  0.28039292240E+03  0.00000000000E+00 0.  1.
         -3    1    6    6    0  502  0.90901744994E+01  0.12288170850E+03  0.83427468271E+02  0.14880419355E+03  0.00000000000E+00 0.  1.
<mgrwt>
<rscale>  0 0.12058465E+04</rscale>
<asrwt>0</asrwt>
<pdfrwt beam="1">  1        1 0.14499538E+00 0.12058465E+04</pdfrwt>
<pdfrwt beam="2">  1       -1 0.59339407E-01 0.12058465E+04</pdfrwt>
<totfact> 0.47869351E+01</totfact>
</mgrwt>
</event>
<event>
12    1  0.2433511E-007  0.1579511E+04  0.7818608E-02  0.8833235E-01
         -1   -1    0    0    0  501 -0.00000000000E+00  0.00000000000E+00  0.95074091465E+03  0.95074091465E+03  0.00000000000E+00 0.  1.
          1   -1    0    0  501    0  0.00000000000E+00 -0.00000000000E+00 -0.65602905725E+03  0.65602905725E+03  0.00000000000E+00 0. -1.
         23    2    1    2    0    0  0.42822050646E+03 -0.17826483341E+03 -0.14579830496E+03  0.49455896041E+03  0.90444826337E+02 0.  0.
        254    2    1    2    0    0 -0.42822050646E+03  0.17826483341E+03  0.44051016236E+03  0.11122110115E+04  0.90984228190E+03 0.  0.
        -24    2    4    4    0    0  0.26595722050E+03  0.12667506174E+03  0.22577838498E+03  0.37938270310E+03  0.78584616081E+02 0.  0.
         24    2    4    4    0    0 -0.69417772696E+03  0.51589771673E+02  0.21473177738E+03  0.73282830838E+03  0.79896008718E+02 0.  0.
         13    1    3    3    0    0  0.10394933676E+03 -0.59319416167E+02 -0.77178447935E+02  0.14241057044E+03  0.00000000000E+00 0. -1.
        -13    1    3    3    0    0  0.32427116971E+03 -0.11894541724E+03 -0.68619857028E+02  0.35214838998E+03  0.00000000000E+00 0.  1.
          2    1    6    6  502    0 -0.29163556645E+03  0.20980524654E+02  0.49174834444E+02  0.29649561611E+03  0.00000000000E+00 0. -1.
          1    1    5    5  503    0  0.65207567938E+02  0.69300654896E+02  0.57114743555E+02  0.11098063622E+03  0.00000000000E+00 0. -1.
         -2    1    5    5    0  503  0.20074965256E+03  0.57374406840E+02  0.16866364143E+03  0.26840206687E+03  0.00000000000E+00 0.  1.
         -1    1    6    6    0  502 -0.40254216051E+03  0.30609247019E+02  0.16555694294E+03  0.43633269227E+03  0.00000000000E+00 0.  1.
<mgrwt>
<rscale>  0 0.15795109E+04</rscale>
<asrwt>0</asrwt>
<pdfrwt beam="1">  1        1 0.10092755E+00 0.15795109E+04</pdfrwt>
<pdfrwt beam="2">  1       -1 0.14626783E+00 0.15795109E+04</pdfrwt>
<totfact> 0.10780230E+01</totfact>
</mgrwt>
</event>
<event>
12    1  0.2433511E-007  0.2786494E+04  0.7818608E-02  0.8307474E-01
          1   -1    0    0  501    0  0.00000000000E+00  0.00000000000E+00  0.20477534733E+04  0.20477534733E+04  0.00000000000E+00 0. -1.
         -1   -1    0    0    0  501 -0.00000000000E+00 -0.00000000000E+00 -0.94793516373E+03  0.94793516373E+03  0.00000000000E+00 0.  1.
         23    2    1    2    0    0 -0.11371971858E+04  0.39153503322E+03  0.14341284370E+03  0.12145548255E+04  0.89772261040E+02 0.  0.
        254    2    1    2    0    0  0.11371971858E+04 -0.39153503322E+03  0.95640546590E+03  0.17811338116E+04  0.90067148171E+03 0.  0.
        -24    2    4    4    0    0  0.95098362246E+03 -0.12468244131E+03  0.24236468375E+03  0.99245926435E+03  0.79493333733E+02 0.  0.
         24    2    4    4    0    0  0.18621356329E+03 -0.26685259191E+03  0.71404078215E+03  0.78867454721E+03  0.79167580962E+02 0.  0.
         11    1    3    3    0    0 -0.31872287420E+03  0.77769477222E+02  0.12812784090E+02  0.32832381814E+03  0.00000000000E+00 0. -1.
        -11    1    3    3    0    0 -0.81847431156E+03  0.31376555600E+03  0.13060005961E+03  0.88623100735E+03  0.00000000000E+00 0.  1.
          2    1    6    6  502    0  0.19288714536E+03 -0.25810774046E+03  0.70168524439E+03  0.77213162008E+03  0.00000000000E+00 0. -1.
          1    1    5    5  503    0  0.38345348551E+03 -0.45373864452E+02  0.57832218987E+02  0.39043556277E+03  0.00000000000E+00 0. -1.
         -2    1    5    5    0  503  0.56753013695E+03 -0.79308576859E+02  0.18453246476E+03  0.60202370158E+03  0.00000000000E+00 0.  1.
         -1    1    6    6    0  502 -0.66735820745E+01 -0.87448514511E+01  0.12355537763E+02  0.16542927130E+02  0.00000000000E+00 0.  1.
<mgrwt>
<rscale>  0 0.27864942E+04</rscale>
<asrwt>0</asrwt>
<pdfrwt beam="1">  1        1 0.31503899E+00 0.27864942E+04</pdfrwt>
<pdfrwt beam="2">  1       -1 0.14583618E+00 0.27864942E+04</pdfrwt>
<totfact> 0.90181334E-01</totfact>
</mgrwt>
</event>
<event>
12    1  0.2433511E-007  0.2034729E+04  0.7818608E-02  0.8590553E-01
         -2   -1    0    0    0  501 -0.00000000000E+00  0.00000000000E+00  0.49604011636E+03  0.49604011636E+03  0.00000000000E+00 0.  1.
          2   -1    0    0  501    0  0.00000000000E+00 -0.00000000000E+00 -0.20865872820E+04  0.20865872820E+04  0.00000000000E+00 0. -1.
         23    2    1    2    0    0 -0.56409344005E+03 -0.46473908465E+03 -0.18110849653E+03  0.75852961189E+03  0.91559044831E+02 0.  0.
        254    2    1    2    0    0  0.56409344005E+03  0.46473908465E+03 -0.14094386691E+04  0.18240977865E+04  0.89812668747E+03 0.  0.
        -24    2    4    4    0    0 -0.85965009969E+02 -0.98787776807E+02  0.20535830153E+02  0.15335271284E+03  0.77112427213E+02 0.  0.
         24    2    4    4    0    0  0.65005845002E+03  0.56352686146E+03 -0.14299744993E+04  0.16707450737E+04  0.80146868312E+02 0.  0.
         11    1    3    3    0    0 -0.28765952500E+03 -0.18100407413E+03 -0.98777722224E+02  0.35393151256E+03  0.00000000000E+00 0. -1.
        -11    1    3    3    0    0 -0.27643391505E+03 -0.28373501052E+03 -0.82330774309E+02  0.40459809933E+03  0.00000000000E+00 0.  1.
          2    1    6    6  502    0  0.20585706120E+03  0.21727973597E+03 -0.54415372428E+03  0.62104016694E+03  0.00000000000E+00 0. -1.
          1    1    5    5  503    0  0.13579428744E+02 -0.23099501910E+02  0.60064171738E+01  0.27460242547E+02  0.00000000000E+00 0. -1.
         -2    1    5    5    0  503 -0.99544438713E+02 -0.75688274897E+02  0.14529412980E+02  0.12589247030E+03  0.00000000000E+00 0.  1.
         -1    1    6    6    0  502  0.44420138882E+03  0.34624712549E+03 -0.88582077501E+03  0.10497049067E+04  0.00000000000E+00 0.  1.
<mgrwt>
<rscale>  0 0.20347295E+04</rscale>
<asrwt>0</asrwt>
<pdfrwt beam="1">  1        2 0.32101343E+00 0.20347295E+04</pdfrwt>
<pdfrwt beam="2">  1       -2 0.76313864E-01 0.20347295E+04</pdfrwt>
<totfact> 0.85083054E+00</totfact>
</mgrwt>
</event>
<event>
12    1  0.2433511E-007  0.2566377E+04  0.7818608E-02  0.8379713E-01
          1   -1    0    0  501    0  0.00000000000E+00  0.00000000000E+00  0.17837642451E+04  0.17837642451E+04  0.00000000000E+00 0. -1.
         -1   -1    0    0    0  501 -0.00000000000E+00 -0.00000000000E+00 -0.92308844750E+03  0.92308844750E+03  0.00000000000E+00 0.  1.
         23    2    1    2    0    0  0.67875530212E+03  0.84761833687E+03  0.71745501216E+02  0.10917719100E+04  0.87480749047E+02 0.  0.
        254    2    1    2    0    0 -0.67875530212E+03 -0.84761833687E+03  0.78893029634E+03  0.16150807825E+04  0.89828131251E+03 0.  0.
        -24    2    4    4    0    0 -0.12851724348E+03 -0.35828032188E+03  0.78307306862E+03  0.87432588894E+03  0.79754989508E+02 0.  0.
         24    2    4    4    0    0 -0.55023805865E+03 -0.48933801498E+03  0.58572277145E+01  0.74075489357E+03  0.80435633497E+02 0.  0.
         11    1    3    3    0    0  0.72018646253E+02  0.13611565608E+03  0.61432432969E+00  0.15399524224E+03  0.00000000000E+00 0. -1.
        -11    1    3    3    0    0  0.60673665587E+03  0.71150268078E+03  0.71131176886E+02  0.93777666780E+03  0.00000000000E+00 0.  1.
          4    1    6    6  502    0 -0.21043261424E+02 -0.32287315058E+02 -0.14598016953E+02  0.41211547702E+02  0.00000000000E+00 0. -1.
          3    1    5    5  503    0 -0.13530332743E+03 -0.29085777679E+03  0.66007581831E+03  0.73389735158E+03  0.00000000000E+00 0. -1.
         -4    1    5    5    0  503  0.67860839510E+01 -0.67422545090E+02  0.12299725031E+03  0.14042853736E+03  0.00000000000E+00 0.  1.
         -3    1    6    6    0  502 -0.52919479722E+03 -0.45705069993E+03  0.20455244668E+02  0.69954334587E+03  0.00000000000E+00 0.  1.
<mgrwt>
<rscale>  0 0.25663766E+04</rscale>
<asrwt>0</asrwt>
<pdfrwt beam="1">  1        1 0.27442527E+00 0.25663766E+04</pdfrwt>
<pdfrwt beam="2">  1       -1 0.14201361E+00 0.25663766E+04</pdfrwt>
<totfact> 0.14902032E+00</totfact>
</mgrwt>
</event>
<event>
12    1  0.2433511E-007  0.2365088E+04  0.7818608E-02  0.8452691E-01
          3   -1    0    0  501    0  0.00000000000E+00  0.00000000000E+00  0.65389309157E+03  0.65389309157E+03  0.00000000000E+00 0. -1.
         -3   -1    0    0    0  501 -0.00000000000E+00 -0.00000000000E+00 -0.21385922585E+04  0.21385922585E+04  0.00000000000E+00 0.  1.
         23    2    1    2    0    0 -0.58962444527E+03  0.78744843412E+03 -0.90034042236E+03  0.13365575413E+04  0.89672527077E+02 0.  0.
        254    2    1    2    0    0  0.58962444527E+03 -0.78744843412E+03 -0.58435874458E+03  0.14559278088E+04  0.90028807570E+03 0.  0.
        -24    2    4    4    0    0  0.41580693995E+03 -0.56936889052E+03 -0.81851180531E+03  0.10833129375E+04  0.80802230112E+02 0.  0.
         24    2    4    4    0    0  0.17381750532E+03 -0.21807954360E+03  0.23415306073E+03  0.37261487128E+03  0.79012492434E+02 0.  0.
         11    1    3    3    0    0 -0.20744959890E+03  0.20872780282E+03 -0.26621975565E+03  0.39683194183E+03  0.00000000000E+00 0. -1.
        -11    1    3    3    0    0 -0.38217484637E+03  0.57872063130E+03 -0.63412066672E+03  0.93972559944E+03  0.00000000000E+00 0.  1.
          2    1    6    6  502    0  0.28647274741E+01 -0.41183552480E+02  0.17605327767E+02  0.44880276561E+02  0.00000000000E+00 0. -1.
          1    1    5    5  503    0  0.21757215684E+03 -0.25244535415E+03 -0.33996983110E+03  0.47607329932E+03  0.00000000000E+00 0. -1.
         -2    1    5    5    0  503  0.19823478311E+03 -0.31692353637E+03 -0.47854197420E+03  0.60723963821E+03  0.00000000000E+00 0.  1.
         -1    1    6    6    0  502  0.17095277784E+03 -0.17689599112E+03  0.21654773296E+03  0.32773459472E+03  0.00000000000E+00 0.  1.
<mgrwt>
<rscale>  0 0.23650883E+04</rscale>
<asrwt>0</asrwt>
<pdfrwt beam="1">  1        3 0.10059894E+00 0.23650883E+04</pdfrwt>
<pdfrwt beam="2">  1       -3 0.32901419E+00 0.23650883E+04</pdfrwt>
<totfact> 0.53117150E-02</totfact>
</mgrwt>
</event>
<event>
12    1  0.2433511E-007  0.1136497E+04  0.7818608E-02  0.9170331E-01
         -2   -1    0    0    0  501 -0.00000000000E+00  0.00000000000E+00  0.42488093700E+03  0.42488093700E+03  0.00000000000E+00 0. -1.
          2   -1    0    0  501    0  0.00000000000E+00 -0.00000000000E+00 -0.75999322800E+03  0.75999322800E+03  0.00000000000E+00 0.  1.
         23    2    1    2    0    0 -0.14779790641E+03 -0.68653846363E+02  0.48970619757E+02  0.19253195730E+03  0.90071422905E+02 0.  0.
        254    2    1    2    0    0  0.14779790641E+03  0.68653846363E+02 -0.38408291076E+03  0.99234220770E+03  0.90036981462E+03 0.  0.
        -24    2    4    4    0    0 -0.35495772696E+03 -0.87053771785E+02 -0.21925631616E+03  0.43351091287E+03  0.79278195524E+02 0.  0.
         24    2    4    4    0    0  0.50275563337E+03  0.15570761815E+03 -0.16482659461E+03  0.55883129483E+03  0.90091734129E+02 0.  0.
         13    1    3    3    0    0 -0.79032890285E+02 -0.28039157591E+01 -0.11245864356E+02  0.79878214524E+02  0.00000000000E+00 0.  1.
        -13    1    3    3    0    0 -0.68765016120E+02 -0.65849930604E+02  0.60216484112E+02  0.11265374278E+03  0.00000000000E+00 0. -1.
          2    1    6    6  502    0  0.27068723721E+03  0.11626853963E+03 -0.57669152062E+02  0.30019274607E+03  0.00000000000E+00 0. -1.
          3    1    5    5  503    0 -0.28495653252E+03 -0.60559672063E+02 -0.20769105982E+03  0.35777545421E+03  0.00000000000E+00 0. -1.
         -4    1    5    5    0  503 -0.70001194447E+02 -0.26494099722E+02 -0.11565256338E+02  0.75735458659E+02  0.00000000000E+00 0.  1.
         -1    1    6    6    0  502  0.23206839616E+03  0.39439078522E+02 -0.10715744255E+03  0.25863854876E+03  0.00000000000E+00 0.  1.
<mgrwt>
<rscale>  0 0.11364975E+04</rscale>
<asrwt>0</asrwt>
<pdfrwt beam="1">  1        2 0.11692203E+00 0.11364975E+04</pdfrwt>
<pdfrwt beam="2">  1       -2 0.65366298E-01 0.11364975E+04</pdfrwt>
<totfact> 0.78797015E+01</totfact>
</mgrwt>
</event>
<event>
12    1  0.2433511E-007  0.2606906E+04  0.7818608E-02  0.8365859E-01
          2   -1    0    0  501    0  0.00000000000E+00  0.00000000000E+00  0.13982045280E+04  0.13982045280E+04  0.00000000000E+00 0. -1.
         -2   -1    0    0    0  501 -0.00000000000E+00 -0.00000000000E+00 -0.12151220826E+04  0.12151220826E+04  0.00000000000E+00 0.  1.
         23    2    1    2    0    0  0.11340026426E+04 -0.16931665297E+03  0.50715500651E+02  0.11510898478E+04  0.88349609158E+02 0.  0.
        254    2    1    2    0    0 -0.11340026426E+04  0.16931665297E+03  0.13236694474E+03  0.14622367628E+04  0.89776679606E+03 0.  0.
        -24    2    4    4    0    0 -0.68102892400E+03 -0.33346453196E+03  0.16440022503E+03  0.78001072620E+03  0.79939412041E+02 0.  0.
         24    2    4    4    0    0 -0.45297371857E+03  0.50278118494E+03 -0.32033280290E+02  0.68222603660E+03  0.80200525733E+02 0.  0.
         13    1    3    3    0    0  0.90780648739E+03 -0.15069221777E+03  0.86870115459E+01  0.92026964918E+03  0.00000000000E+00 0. -1.
        -13    1    3    3    0    0  0.22619615518E+03 -0.18624435202E+02  0.42028489105E+02  0.23082019865E+03  0.00000000000E+00 0.  1.
          2    1    6    6  502    0 -0.71609256469E+02  0.11289443495E+03  0.16386733370E+02  0.13469062360E+03  0.00000000000E+00 0. -1.
          3    1    5    5  503    0 -0.23048065589E+03 -0.71845648379E+02  0.57069880844E+02  0.24807277406E+03  0.00000000000E+00 0. -1.
         -4    1    5    5    0  503 -0.45054826811E+03 -0.26161888358E+03  0.10733034419E+03  0.53193795214E+03  0.00000000000E+00 0.  1.
         -1    1    6    6    0  502 -0.38136446210E+03  0.38988674999E+03 -0.48420013660E+02  0.54753541301E+03  0.00000000000E+00 0.  1.
<mgrwt>
<rscale>  0 0.26069056E+04</rscale>
<asrwt>0</asrwt>
<pdfrwt beam="1">  1        2 0.21510839E+00 0.26069056E+04</pdfrwt>
<pdfrwt beam="2">  1       -2 0.18694186E+00 0.26069056E+04</pdfrwt>
<totfact> 0.20844951E+00</totfact>
</mgrwt>
</event>
<event>
12    1  0.2433511E-007  0.2525777E+04  0.7818608E-02  0.8393859E-01
          2   -1    0    0  501    0  0.00000000000E+00  0.00000000000E+00  0.13391134225E+04  0.13391134225E+04  0.00000000000E+00 0. -1.
         -2   -1    0    0    0  501 -0.00000000000E+00 -0.00000000000E+00 -0.11910026890E+04  0.11910026890E+04  0.00000000000E+00 0.  1.
         23    2    1    2    0    0 -0.68221294947E+03 -0.45577564606E+03 -0.67002922563E+03  0.10630018424E+04  0.88813319921E+02 0.  0.
        254    2    1    2    0    0  0.68221294947E+03  0.45577564606E+03  0.81813995912E+03  0.14671142691E+04  0.89995852011E+03 0.  0.
        -24    2    4    4    0    0  0.37656438668E+03 -0.22519424757E+03  0.17658191975E+03  0.47960112551E+03  0.79516531296E+02 0.  0.
         24    2    4    4    0    0  0.30564856279E+03  0.68096989363E+03  0.64155803937E+03  0.98751314360E+03  0.80277337552E+02 0.  0.
         11    1    3    3    0    0 -0.22890970590E+03 -0.17329263660E+03 -0.18520253831E+03  0.34165768182E+03  0.00000000000E+00 0. -1.
        -11    1    3    3    0    0 -0.45330324357E+03 -0.28248300946E+03 -0.48482668732E+03  0.72134416058E+03  0.00000000000E+00 0.  1.
          4    1    6    6  502    0  0.28120224786E+03  0.64978068061E+03  0.58487272015E+03  0.91834946282E+03  0.00000000000E+00 0. -1.
          3    1    5    5  503    0  0.29829704250E+03 -0.18163331230E+03  0.17352034628E+03  0.38997576370E+03  0.00000000000E+00 0. -1.
         -4    1    5    5    0  503  0.78267344180E+02 -0.43560935275E+02  0.30615734724E+01  0.89625361807E+02  0.00000000000E+00 0.  1.
         -3    1    6    6    0  502  0.24446314934E+02  0.31189213026E+02  0.56685319226E+02  0.69163680778E+02  0.00000000000E+00 0.  1.
<mgrwt>
<rscale>  0 0.25257773E+04</rscale>
<asrwt>0</asrwt>
<pdfrwt beam="1">  1        2 0.20601745E+00 0.25257773E+04</pdfrwt>
<pdfrwt beam="2">  1       -2 0.18323118E+00 0.25257773E+04</pdfrwt>
<totfact> 0.24055407E+00</totfact>
</mgrwt>
</event>
<event>
12    1  0.2433511E-007  0.1831495E+04  0.7818608E-02  0.8689728E-01
          1   -1    0    0  501    0  0.00000000000E+00  0.00000000000E+00  0.10209912923E+04  0.10209912923E+04  0.00000000000E+00 0. -1.
         -1   -1    0    0    0  501 -0.00000000000E+00 -0.00000000000E+00 -0.82135260667E+03  0.82135260667E+03  0.00000000000E+00 0.  1.
         23    2    1    2    0    0  0.18356883584E+03  0.44258971060E+03 -0.42373043455E+03  0.64649149347E+03  0.93918052311E+02 0.  0.
        254    2    1    2    0    0 -0.18356883584E+03 -0.44258971060E+03  0.62336912017E+03  0.11958524055E+04  0.90104980235E+03 0.  0.
        -24    2    4    4    0    0 -0.16323713593E+02 -0.31301463732E+03 -0.17386957005E+03  0.36724713878E+03  0.79970036570E+02 0.  0.
         24    2    4    4    0    0 -0.16724512224E+03 -0.12957507328E+03  0.79723869023E+03  0.82860526671E+03  0.78971693038E+02 0.  0.
         13    1    3    3    0    0  0.92356118686E+02  0.26089608202E+03 -0.30153155297E+03  0.40928925677E+03  0.00000000000E+00 0.  1.
        -13    1    3    3    0    0  0.91212717151E+02  0.18169362858E+03 -0.12219888158E+03  0.23720223670E+03  0.00000000000E+00 0. -1.
          2    1    6    6  502    0 -0.16305037932E+03 -0.11420781317E+03  0.78054659919E+03  0.80553202561E+03  0.00000000000E+00 0. -1.
          1    1    5    5  503    0 -0.17961477153E+01 -0.28296841511E+03 -0.17692806246E+03  0.33373326083E+03  0.00000000000E+00 0. -1.
         -2    1    5    5    0  503 -0.14527565878E+02 -0.30046222213E+02  0.30584924100E+01  0.33513877953E+02  0.00000000000E+00 0.  1.
         -1    1    6    6    0  502 -0.41947429287E+01 -0.15367260115E+02  0.16692091037E+02  0.23073241100E+02  0.00000000000E+00 0.  1.
<mgrwt>
<rscale>  0 0.18314954E+04</rscale>
<asrwt>0</asrwt>
<pdfrwt beam="1">  1        1 0.15707558E+00 0.18314954E+04</pdfrwt>
<pdfrwt beam="2">  1       -1 0.12636194E+00 0.18314954E+04</pdfrwt>
<totfact> 0.74703501E+00</totfact>
</mgrwt>
</event>
<event>
12    1  0.2433511E-007  0.1698484E+04  0.7818608E-02  0.8762229E-01
          1   -1    0    0  501    0  0.00000000000E+00  0.00000000000E+00  0.17717237398E+04  0.17717237398E+04  0.00000000000E+00 0. -1.
         -1   -1    0    0    0  501 -0.00000000000E+00 -0.00000000000E+00 -0.40706798257E+03  0.40706798257E+03  0.00000000000E+00 0.  1.
         23    2    1    2    0    0  0.59763447940E+02 -0.56063367665E+03  0.20478247613E+03  0.60621262283E+03  0.87613312012E+02 0.  0.
        254    2    1    2    0    0 -0.59763447940E+02  0.56063367665E+03  0.11598732811E+04  0.15725790995E+04  0.89989844260E+03 0.  0.
        -24    2    4    4    0    0  0.97045066908E+02  0.55938339500E+03  0.12499912679E+04  0.13752449771E+04  0.80579460824E+02 0.  0.
         24    2    4    4    0    0 -0.15680851485E+03  0.12502816468E+01 -0.90117986842E+02  0.19733412243E+03  0.78924209148E+02 0.  0.
         13    1    3    3    0    0  0.59936106372E+02 -0.42613916442E+03  0.19164378298E+03  0.47107776837E+03  0.00000000000E+00 0. -1.
        -13    1    3    3    0    0 -0.17265843259E+00 -0.13449451223E+03  0.13138693150E+02  0.13513485446E+03  0.00000000000E+00 0.  1.
          4    1    6    6  502    0 -0.37328511636E+02  0.31673940795E+02 -0.43605174345E+02  0.65559648688E+02  0.00000000000E+00 0. -1.
          1    1    5    5  503    0  0.37248691549E+02  0.69337930014E+02  0.20208068845E+03  0.21686820469E+03  0.00000000000E+00 0. -1.
         -2    1    5    5    0  503  0.59796375359E+02  0.49004546499E+03  0.10479105795E+04  0.11583767724E+04  0.00000000000E+00 0.  1.
         -3    1    6    6    0  502 -0.11948000321E+03 -0.30423659149E+02 -0.46512812497E+02  0.13177447374E+03  0.00000000000E+00 0.  1.
<mgrwt>
<rscale>  0 0.16984840E+04</rscale>
<asrwt>0</asrwt>
<pdfrwt beam="1">  1        1 0.27257288E+00 0.16984840E+04</pdfrwt>
<pdfrwt beam="2">  1       -1 0.62625844E-01 0.16984840E+04</pdfrwt>
<totfact> 0.10481807E+01</totfact>
</mgrwt>
</event>
<event>
12    1  0.2433511E-007  0.2589522E+04  0.7818608E-02  0.8371769E-01
         -3   -1    0    0    0  501 -0.00000000000E+00  0.00000000000E+00  0.10506742072E+04  0.10506742072E+04  0.00000000000E+00 0.  1.
          3   -1    0    0  501    0  0.00000000000E+00 -0.00000000000E+00 -0.15955523760E+04  0.15955523760E+04  0.00000000000E+00 0. -1.
         23    2    1    2    0    0 -0.42751217446E+03  0.10295461212E+04 -0.46541039157E+03  0.12116070845E+04  0.93021608703E+02 0.  0.
        254    2    1    2    0    0  0.42751217446E+03 -0.10295461212E+04 -0.79467777251E+02  0.14346194987E+04  0.89949213641E+03 0.  0.
        -24    2    4    4    0    0  0.42652192217E+03 -0.52345029911E+03  0.35091953569E+03  0.76538943669E+03  0.82190653617E+02 0.  0.
         24    2    4    4    0    0  0.99025229307E+00 -0.50609582210E+03 -0.43038731294E+03  0.66923006203E+03  0.80632964942E+02 0.  0.
         11    1    3    3    0    0 -0.95659312600E+02  0.18550794356E+03 -0.12249644802E+03  0.24201091089E+03  0.00000000000E+00 0. -1.
        -11    1    3    3    0    0 -0.33185286186E+03  0.84403817765E+03 -0.34291394355E+03  0.96959617364E+03  0.00000000000E+00 0.  1.
          2    1    6    6  502    0 -0.37659843310E+02 -0.28856116742E+03 -0.25965742882E+03  0.39000998895E+03  0.00000000000E+00 0. -1.
          1    1    5    5  503    0  0.20329014295E+03 -0.26708362132E+03  0.12984395519E+03  0.35988886576E+03  0.00000000000E+00 0. -1.
         -2    1    5    5    0  503  0.22323177922E+03 -0.25636667779E+03  0.22107558049E+03  0.40550057093E+03  0.00000000000E+00 0.  1.
         -1    1    6    6    0  502  0.38650095603E+02 -0.21753465468E+03 -0.17072988412E+03  0.27922007308E+03  0.00000000000E+00 0.  1.
<mgrwt>
<rscale>  0 0.25895218E+04</rscale>
<asrwt>0</asrwt>
<pdfrwt beam="1">  1        3 0.24546960E+00 0.25895218E+04</pdfrwt>
<pdfrwt beam="2">  1       -3 0.16164219E+00 0.25895218E+04</pdfrwt>
<totfact> 0.47893706E-02</totfact>
</mgrwt>
</event>
