<event>
12    3  0.1092576E-007  0.5055013E+03  0.7818608E-02  0.1012353E+00
         -4   -1    0    0    0  501 -0.00000000000E+00  0.00000000000E+00  0.16773348651E+03  0.16773348651E+03  0.00000000000E+00 0.  1.
          3   -1    0    0  501    0  0.00000000000E+00 -0.00000000000E+00 -0.17596724021E+04  0.17596724021E+04  0.00000000000E+00 0. -1.
        -24    2    1    2    0    0 -0.13136110840E+03 -0.34646549461E+03 -0.61341881494E+03  0.72125129215E+03  0.81404570812E+02 0.  0.
    5000000    2    1    2    0    0  0.13136110840E+03  0.34646549461E+03 -0.97852010069E+03  0.12061545965E+04  0.60001103610E+03 0.  0.
        -24    2    4    4    0    0 -0.18811248855E+03  0.49181011075E+02 -0.13088247990E+03  0.24995772440E+03  0.86853671431E+02 0.  0.
         24    2    4    4    0    0  0.31947359695E+03  0.29728448353E+03 -0.84763762078E+03  0.95619687210E+03  0.73358562863E+02 0.  0.
         11    1    5    5    0    0 -0.16516429739E+03  0.61600753941E+02 -0.13688268502E+03  0.22318325985E+03  0.00000000000E+00 0. -1.
        -12    1    5    5    0    0 -0.22948191157E+02 -0.12419742866E+02  0.60002051173E+01  0.26774464545E+02  0.00000000000E+00 0.  1.
         15    1    3    3    0    0 -0.76908879900E+02 -0.21283395448E+03 -0.44670415727E+03  0.50076045155E+03  0.17770000000E+01 0. -1.
        -16    1    3    3    0    0 -0.54452228503E+02 -0.13363154012E+03 -0.16671465768E+03  0.22049084060E+03  0.00000000000E+00 0.  1.
          2    1    6    6  502    0  0.19177978557E+03  0.20319860159E+03 -0.60374571059E+03  0.66526539132E+03  0.00000000000E+00 0. -1.
         -1    1    6    6    0  502  0.12769381138E+03  0.94085881943E+02 -0.24389191019E+03  0.29093148077E+03  0.00000000000E+00 0.  1.
<mgrwt>
<rscale>  0 0.50550127E+03</rscale>
<asrwt>0</asrwt>
<pdfrwt beam="1">  1        3 0.27071882E+00 0.50550127E+03</pdfrwt>
<pdfrwt beam="2">  1       -4 0.25805153E-01 0.50550127E+03</pdfrwt>
<totfact> 0.18896885E+00</totfact>
</mgrwt>
</event>
<event>
12    3  0.1092576E-007  0.9352831E+03  0.7818608E-02  0.9382520E-01
          1   -1    0    0  501    0  0.00000000000E+00  0.00000000000E+00  0.98573936662E+03  0.98573936662E+03  0.00000000000E+00 0. -1.
         -2   -1    0    0    0  501 -0.00000000000E+00 -0.00000000000E+00 -0.26504773445E+04  0.26504773445E+04  0.00000000000E+00 0.  1.
        -24    2    1    2    0    0  0.85167551677E+03 -0.21022027463E+03  0.64632767031E+03  0.10924998580E+04  0.79200584789E+02 0.  0.
    5000000    2    1    2    0    0 -0.85167551677E+03  0.21022027463E+03 -0.23110656482E+04  0.25437168531E+04  0.59993937094E+03 0.  0.
        -24    2    4    4    0    0 -0.48448850392E+03  0.34422904941E+03 -0.17870940908E+04  0.18850184121E+04  0.79789570089E+02 0.  0.
         24    2    4    4    0    0 -0.36718701285E+03 -0.13400877478E+03 -0.52397155738E+03  0.65869844105E+03  0.80949300019E+02 0.  0.
         13    1    5    5    0    0 -0.19601640071E+03  0.13892853625E+03 -0.60233905417E+03  0.64848739672E+03  0.00000000000E+00 0. -1.
        -14    1    5    5    0    0 -0.28847210321E+03  0.20530051316E+03 -0.11847550367E+04  0.12365310153E+04  0.00000000000E+00 0.  1.
         15    1    3    3    0    0  0.25690958670E+03 -0.61261377487E+02  0.24061188297E+03  0.35728521949E+03  0.17770000000E+01 0. -1.
        -16    1    3    3    0    0  0.59476593007E+03 -0.14895889714E+03  0.40571578734E+03  0.73521463853E+03  0.00000000000E+00 0.  1.
          2    1    6    6  502    0 -0.11016849208E+03 -0.80529605326E+02 -0.18879173550E+03  0.23294727596E+03  0.00000000000E+00 0. -1.
         -1    1    6    6    0  502 -0.25701852077E+03 -0.53479169454E+02 -0.33517982187E+03  0.42575116509E+03  0.00000000000E+00 0.  1.
<mgrwt>
<rscale>  0 0.93528312E+03</rscale>
<asrwt>0</asrwt>
<pdfrwt beam="1">  1        1 0.15165221E+00 0.93528312E+03</pdfrwt>
<pdfrwt beam="2">  1       -2 0.40776575E+00 0.93528312E+03</pdfrwt>
<totfact> 0.92972846E-02</totfact>
</mgrwt>
</event>
<event>
12    3  0.1092576E-007  0.9712966E+03  0.7818608E-02  0.9340599E-01
          1   -1    0    0  501    0  0.00000000000E+00  0.00000000000E+00  0.25579707022E+04  0.25579707022E+04  0.00000000000E+00 0. -1.
         -2   -1    0    0    0  501 -0.00000000000E+00 -0.00000000000E+00 -0.69723198049E+03  0.69723198049E+03  0.00000000000E+00 0.  1.
        -24    2    1    2    0    0  0.89044763426E+03  0.11679873164E+03 -0.20462605452E+03  0.92460911598E+03  0.80568369073E+02 0.  0.
    5000000    2    1    2    0    0 -0.89044763426E+03 -0.11679873164E+03  0.20653647762E+04  0.23305935667E+04  0.59949627287E+03 0.  0.
        -24    2    4    4    0    0 -0.95675119679E+03 -0.67384693334E+02  0.19076921865E+04  0.21367328330E+04  0.80150930009E+02 0.  0.
         24    2    4    4    0    0  0.66303562531E+02 -0.49414038311E+02  0.15767258969E+03  0.19386073370E+03  0.76703513249E+02 0.  0.
         11    1    5    5    0    0 -0.23083676391E+03 -0.32491681540E+02  0.39858489220E+03  0.46174802353E+03  0.00000000000E+00 0. -1.
        -12    1    5    5    0    0 -0.72591443289E+03 -0.34893011794E+02  0.15091072943E+04  0.16749848094E+04  0.00000000000E+00 0.  1.
         15    1    3    3    0    0  0.59985928974E+03  0.60660280029E+02 -0.17126147906E+03  0.62677307616E+03  0.17770000000E+01 0. -1.
        -16    1    3    3    0    0  0.29058834453E+03  0.56138451616E+02 -0.33364575457E+02  0.29783603983E+03  0.00000000000E+00 0.  1.
          4    1    6    6  502    0  0.29423471978E+02 -0.13516760044E+02  0.50208539413E+01  0.32766636684E+02  0.00000000000E+00 0. -1.
         -3    1    6    6    0  502  0.36880090553E+02 -0.35897278267E+02  0.15265173575E+03  0.16109409702E+03  0.00000000000E+00 0.  1.
<mgrwt>
<rscale>  0 0.97129655E+03</rscale>
<asrwt>0</asrwt>
<pdfrwt beam="1">  1        1 0.39353395E+00 0.97129655E+03</pdfrwt>
<pdfrwt beam="2">  1       -2 0.10726646E+00 0.97129655E+03</pdfrwt>
<totfact> 0.77049964E-01</totfact>
</mgrwt>
</event>
<event>
12    3  0.1092576E-007  0.9942320E+03  0.7818608E-02  0.9314894E-01
          1   -1    0    0  501    0  0.00000000000E+00  0.00000000000E+00  0.16717801182E+04  0.16717801182E+04  0.00000000000E+00 0. -1.
         -2   -1    0    0    0  501 -0.00000000000E+00 -0.00000000000E+00 -0.63645173161E+03  0.63645173161E+03  0.00000000000E+00 0.  1.
        -24    2    1    2    0    0 -0.49692135082E+03  0.79152251899E+03  0.33695119370E+03  0.99624863151E+03  0.74407673608E+02 0.  0.
    5000000    2    1    2    0    0  0.49692135082E+03 -0.79152251899E+03  0.69837719294E+03  0.13119832183E+04  0.60010876900E+03 0.  0.
        -24    2    4    4    0    0  0.54011106950E+03 -0.82375733349E+03  0.70983242321E+03  0.12162907561E+04  0.72145841903E+02 0.  0.
         24    2    4    4    0    0 -0.43189718678E+02  0.32234814496E+02 -0.11455230274E+02  0.95692462228E+02  0.78239312123E+02 0.  0.
         11    1    5    5    0    0  0.33905368458E+03 -0.45291919696E+03  0.41387541568E+03  0.70098934351E+03  0.00000000000E+00 0. -1.
        -12    1    5    5    0    0  0.20105738491E+03 -0.37083813652E+03  0.29595700753E+03  0.51530141261E+03  0.00000000000E+00 0.  1.
         15    1    3    3    0    0 -0.20701381891E+03  0.26865367116E+03  0.13781494579E+03  0.36609511504E+03  0.17770000000E+01 0. -1.
        -16    1    3    3    0    0 -0.28990753191E+03  0.52286884783E+03  0.19913624791E+03  0.63015351647E+03  0.00000000000E+00 0.  1.
          4    1    6    6  502    0 -0.86355966314E+01  0.27662990701E+02  0.29878848408E+02  0.41624033513E+02  0.00000000000E+00 0. -1.
         -3    1    6    6    0  502 -0.34554122047E+02  0.45718237950E+01 -0.41334078682E+02  0.54068428715E+02  0.00000000000E+00 0.  1.
<mgrwt>
<rscale>  0 0.99423196E+03</rscale>
<asrwt>0</asrwt>
<pdfrwt beam="1">  1        1 0.25719694E+00 0.99423196E+03</pdfrwt>
<pdfrwt beam="2">  1       -2 0.97915652E-01 0.99423196E+03</pdfrwt>
<totfact> 0.38077208E+00</totfact>
</mgrwt>
</event>
<event>
12    3  0.1092576E-007  0.1322633E+04  0.7818608E-02  0.9011807E-01
         -2   -1    0    0    0  501 -0.00000000000E+00  0.00000000000E+00  0.11077644985E+04  0.11077644985E+04  0.00000000000E+00 0.  1.
          1   -1    0    0  501    0  0.00000000000E+00 -0.00000000000E+00 -0.20212118310E+04  0.20212118310E+04  0.00000000000E+00 0. -1.
        -24    2    1    2    0    0 -0.30134633554E+03  0.12737238213E+04  0.17648570594E+03  0.13231145315E+04  0.79390631217E+02 0.  0.
    5000000    2    1    2    0    0  0.30134633554E+03 -0.12737238213E+04 -0.10899330385E+04  0.18058617979E+04  0.60000068173E+03 0.  0.
        -24    2    4    4    0    0  0.23714164034E+03 -0.50831453289E+03 -0.14322220586E+03  0.58411318088E+03  0.77818930140E+02 0.  0.
         24    2    4    4    0    0  0.64204695197E+02 -0.76540928836E+03 -0.94671083262E+03  0.12217486171E+04  0.80216339130E+02 0.  0.
         11    1    5    5    0    0  0.15347157023E+02 -0.94693065517E+02 -0.37637878531E+02  0.10304815275E+03  0.00000000000E+00 0. -1.
        -12    1    5    5    0    0  0.22179448332E+03 -0.41362146738E+03 -0.10558432732E+03  0.48106502812E+03  0.00000000000E+00 0.  1.
         15    1    3    3    0    0 -0.14215146907E+03  0.53812492097E+03  0.11187149432E+03  0.56771811641E+03  0.17770000000E+01 0. -1.
        -16    1    3    3    0    0 -0.15919486647E+03  0.73559890028E+03  0.64614211626E+02  0.75539641510E+03  0.00000000000E+00 0.  1.
          2    1    6    6  502    0  0.76544089218E+02 -0.59007687263E+03 -0.69800674574E+03  0.91720397421E+03  0.00000000000E+00 0. -1.
         -1    1    6    6    0  502 -0.12339394020E+02 -0.17533241573E+03 -0.24870408688E+03  0.30454464284E+03  0.00000000000E+00 0.  1.
<mgrwt>
<rscale>  0 0.13226326E+04</rscale>
<asrwt>0</asrwt>
<pdfrwt beam="1">  1        1 0.31095566E+00 0.13226326E+04</pdfrwt>
<pdfrwt beam="2">  1       -2 0.17042531E+00 0.13226326E+04</pdfrwt>
<totfact> 0.51496217E-01</totfact>
</mgrwt>
</event>
<event>
12    3  0.1092576E-007  0.7691981E+03  0.7818608E-02  0.9605704E-01
         -2   -1    0    0    0  501 -0.00000000000E+00  0.00000000000E+00  0.10972769198E+04  0.10972769198E+04  0.00000000000E+00 0.  1.
          1   -1    0    0  501    0  0.00000000000E+00 -0.00000000000E+00 -0.78827606339E+03  0.78827606339E+03  0.00000000000E+00 0. -1.
        -24    2    1    2    0    0  0.11156808660E+03  0.73422172342E+03 -0.23962352518E+03  0.78445923383E+03  0.80174052113E+02 0.  0.
    5000000    2    1    2    0    0 -0.11156808660E+03 -0.73422172342E+03  0.54862438162E+03  0.11010937494E+04  0.59990812276E+03 0.  0.
        -24    2    4    4    0    0 -0.16439127940E+03 -0.28750891637E+03 -0.53416582626E+02  0.34512266886E+03  0.81058346461E+02 0.  0.
         24    2    4    4    0    0  0.52823192799E+02 -0.44671280705E+03  0.60204096425E+03  0.75597108053E+03  0.81831108286E+02 0.  0.
         13    1    5    5    0    0 -0.12360601744E+03 -0.26351473423E+03 -0.30841690099E+02  0.29269382048E+03  0.00000000000E+00 0. -1.
        -14    1    5    5    0    0 -0.40785261959E+02 -0.23994182140E+02 -0.22574892527E+02  0.52428848378E+02  0.00000000000E+00 0.  1.
         15    1    3    3    0    0  0.47842217733E+02  0.40063574336E+03 -0.90322096385E+02  0.41347202503E+03  0.17770000000E+01 0. -1.
        -16    1    3    3    0    0  0.63725868864E+02  0.33358598006E+03 -0.14930142880E+03  0.37098720880E+03  0.00000000000E+00 0.  1.
          4    1    6    6  502    0 -0.43035156860E+01 -0.29123870289E+03  0.39684875728E+03  0.49226764922E+03  0.00000000000E+00 0. -1.
         -3    1    6    6    0  502  0.57126708485E+02 -0.15547410416E+03  0.20519220697E+03  0.26370343131E+03  0.00000000000E+00 0.  1.
<mgrwt>
<rscale>  0 0.76919807E+03</rscale>
<asrwt>0</asrwt>
<pdfrwt beam="1">  1        1 0.12127324E+00 0.76919807E+03</pdfrwt>
<pdfrwt beam="2">  1       -2 0.16881183E+00 0.76919807E+03</pdfrwt>
<totfact> 0.44062899E+00</totfact>
</mgrwt>
</event>
<event>
12    3  0.1092576E-007  0.9217645E+03  0.7818608E-02  0.9398776E-01
         -2   -1    0    0    0  501 -0.00000000000E+00  0.00000000000E+00  0.51692240986E+03  0.51692240986E+03  0.00000000000E+00 0.  1.
          1   -1    0    0  501    0  0.00000000000E+00 -0.00000000000E+00 -0.21607121516E+04  0.21607121516E+04  0.00000000000E+00 0. -1.
        -24    2    1    2    0    0 -0.90801443055E+03 -0.40951862649E+02 -0.11829960376E+04  0.14950608056E+04  0.97774875337E+02 0.  0.
    5000000    2    1    2    0    0  0.90801443055E+03  0.40951862649E+02 -0.46079370414E+03  0.11825737559E+04  0.59998549085E+03 0.  0.
        -24    2    4    4    0    0  0.56338780306E+03  0.86322014287E+02 -0.56929305974E+03  0.80970207414E+03  0.81642845455E+02 0.  0.
         24    2    4    4    0    0  0.34462662748E+03 -0.45370151638E+02  0.10849935560E+03  0.37287168176E+03  0.80219809645E+02 0.  0.
         13    1    5    5    0    0  0.44498437799E+03  0.95637147248E+02 -0.42397415373E+03  0.62202222116E+03  0.00000000000E+00 0. -1.
        -14    1    5    5    0    0  0.11840342507E+03 -0.93151329610E+01 -0.14531890601E+03  0.18767985298E+03  0.00000000000E+00 0.  1.
         15    1    3    3    0    0 -0.86210952507E+03 -0.60132442073E+02 -0.11258616591E+04  0.14193013694E+04  0.17770000000E+01 0. -1.
        -16    1    3    3    0    0 -0.45904905472E+02  0.19180579424E+02 -0.57134378464E+02  0.75759436217E+02  0.00000000000E+00 0.  1.
          2    1    6    6  502    0  0.29158074633E+03 -0.97161934603E+01  0.99944420125E+02  0.30838713196E+03  0.00000000000E+00 0. -1.
         -1    1    6    6    0  502  0.53045881156E+02 -0.35653958178E+02  0.85549354725E+01  0.64484549795E+02  0.00000000000E+00 0.  1.
<mgrwt>
<rscale>  0 0.92176447E+03</rscale>
<asrwt>0</asrwt>
<pdfrwt beam="1">  1        1 0.33241725E+00 0.92176447E+03</pdfrwt>
<pdfrwt beam="2">  1       -2 0.79526525E-01 0.92176447E+03</pdfrwt>
<totfact> 0.29074808E+00</totfact>
</mgrwt>
</event>
<event>
12    3  0.1092576E-007  0.5403108E+03  0.7818608E-02  0.1003762E+00
         -2   -1    0    0    0  501 -0.00000000000E+00  0.00000000000E+00  0.22037061528E+03  0.22037061528E+03  0.00000000000E+00 0.  1.
          1   -1    0    0  501    0  0.00000000000E+00 -0.00000000000E+00 -0.25356202522E+04  0.25356202522E+04  0.00000000000E+00 0. -1.
        -24    2    1    2    0    0  0.24480974305E+03 -0.43699475582E+03 -0.28833069768E+03  0.58363852385E+03  0.81259512638E+02 0.  0.
    5000000    2    1    2    0    0 -0.24480974305E+03  0.43699475582E+03 -0.20269189393E+04  0.21723523436E+04  0.59984839059E+03 0.  0.
        -24    2    4    4    0    0 -0.25365516748E+03  0.44547755300E+03 -0.88021619377E+03  0.10224129475E+04  0.88070955930E+02 0.  0.
         24    2    4    4    0    0  0.88454244283E+01 -0.84827971739E+01 -0.11467027455E+04  0.11499393961E+04  0.85341835298E+02 0.  0.
         11    1    5    5    0    0 -0.23389763234E+03  0.39657015797E+03 -0.83227164747E+03  0.95113200335E+03  0.00000000000E+00 0. -1.
        -12    1    5    5    0    0 -0.19757535143E+02  0.48907395024E+02 -0.47944546297E+02  0.71280944176E+02  0.00000000000E+00 0.  1.
         15    1    3    3    0    0  0.18611793024E+03 -0.35932811624E+03 -0.26440004224E+03  0.48339126920E+03  0.17770000000E+01 0. -1.
        -16    1    3    3    0    0  0.58691812814E+02 -0.77666639583E+02 -0.23930655439E+02  0.10024725465E+03  0.00000000000E+00 0.  1.
          2    1    6    6  502    0  0.33676419520E+02  0.92591370954E+01 -0.96942913116E+03  0.97005807723E+03  0.00000000000E+00 0. -1.
         -1    1    6    6    0  502 -0.24830995092E+02 -0.17741934269E+02 -0.17727361433E+03  0.17988131889E+03  0.00000000000E+00 0.  1.
<mgrwt>
<rscale>  0 0.54031079E+03</rscale>
<asrwt>0</asrwt>
<pdfrwt beam="1">  1        1 0.39009541E+00 0.54031079E+03</pdfrwt>
<pdfrwt beam="2">  1       -2 0.33903173E-01 0.54031079E+03</pdfrwt>
<totfact> 0.10004221E+01</totfact>
</mgrwt>
</event>
<event>
12    3  0.1092576E-007  0.7659168E+03  0.7818608E-02  0.9610705E-01
         -2   -1    0    0    0  501 -0.00000000000E+00  0.00000000000E+00  0.23100173954E+04  0.23100173954E+04  0.00000000000E+00 0.  1.
          1   -1    0    0  501    0  0.00000000000E+00 -0.00000000000E+00 -0.35254378451E+03  0.35254378451E+03  0.00000000000E+00 0. -1.
        -24    2    1    2    0    0 -0.73444413746E+03 -0.73586009153E+02  0.13302323747E+04  0.15233246729E+04  0.78592598547E+02 0.  0.
    5000000    2    1    2    0    0  0.73444413746E+03  0.73586009153E+02  0.62724123624E+03  0.11392365071E+04  0.59967087539E+03 0.  0.
        -24    2    4    4    0    0  0.73650221403E+03  0.92764420892E+02  0.70476781106E+03  0.10267139991E+04  0.80020118753E+02 0.  0.
         24    2    4    4    0    0 -0.20580765696E+01 -0.19178411739E+02 -0.77526574828E+02  0.11252250795E+03  0.79239496682E+02 0.  0.
         11    1    5    5    0    0  0.53173998558E+03  0.33730044728E+02  0.52336772463E+03  0.74685935983E+03  0.00000000000E+00 0. -1.
        -12    1    5    5    0    0  0.20476222846E+03  0.59034376163E+02  0.18140008643E+03  0.27985463929E+03  0.00000000000E+00 0.  1.
         15    1    3    3    0    0 -0.57521982240E+03 -0.78738106514E+02  0.10917567069E+04  0.12365328132E+04  0.17770000000E+01 0. -1.
        -16    1    3    3    0    0 -0.15922431507E+03  0.51520973615E+01  0.23847566783E+03  0.28679185965E+03  0.00000000000E+00 0.  1.
          2    1    6    6  502    0 -0.14795437745E+02 -0.27208482114E+02  0.25187238080E+01  0.31073307623E+02  0.00000000000E+00 0. -1.
         -1    1    6    6    0  502  0.12737361175E+02  0.80300703748E+01 -0.80045298636E+02  0.81449200325E+02  0.00000000000E+00 0.  1.
<mgrwt>
<rscale>  0 0.76591681E+03</rscale>
<asrwt>0</asrwt>
<pdfrwt beam="1">  1        1 0.54237507E-01 0.76591681E+03</pdfrwt>
<pdfrwt beam="2">  1       -2 0.35538728E+00 0.76591681E+03</pdfrwt>
<totfact> 0.94214933E-01</totfact>
</mgrwt>
</event>
<event>
12    3  0.1092576E-007  0.1276002E+04  0.7818608E-02  0.9048815E-01
         -2   -1    0    0    0  501 -0.00000000000E+00  0.00000000000E+00  0.48410671728E+03  0.48410671728E+03  0.00000000000E+00 0.  1.
          1   -1    0    0  501    0  0.00000000000E+00 -0.00000000000E+00 -0.42130819976E+04  0.42130819976E+04  0.00000000000E+00 0. -1.
        -24    2    1    2    0    0 -0.10786368522E+04  0.55766918920E+03 -0.28051597502E+04  0.30577461767E+04  0.80237608038E+02 0.  0.
    5000000    2    1    2    0    0  0.10786368522E+04 -0.55766918920E+03 -0.92381553015E+03  0.16394425382E+04  0.59990359120E+03 0.  0.
        -24    2    4    4    0    0  0.73483404016E+03 -0.66241314658E+02 -0.59211813629E+03  0.94938249865E+03  0.79713631682E+02 0.  0.
         24    2    4    4    0    0  0.34380281204E+03 -0.49142787454E+03 -0.33169739386E+03  0.69006003953E+03  0.80361480937E+02 0.  0.
         13    1    5    5    0    0  0.22727369861E+03 -0.22838952806E+02 -0.13750694519E+03  0.26661416282E+03  0.00000000000E+00 0. -1.
        -14    1    5    5    0    0  0.50756034155E+03 -0.43402361852E+02 -0.45461119110E+03  0.68276833582E+03  0.00000000000E+00 0.  1.
         15    1    3    3    0    0 -0.83210914490E+03  0.42422271212E+03 -0.22383351019E+04  0.24253902211E+04  0.17770000000E+01 0. -1.
        -16    1    3    3    0    0 -0.24652770730E+03  0.13344647708E+03 -0.56682464829E+03  0.63235595563E+03  0.00000000000E+00 0.  1.
          2    1    6    6  502    0  0.29611613885E+03 -0.41703822678E+03 -0.24830479745E+03  0.56856039496E+03  0.00000000000E+00 0. -1.
         -1    1    6    6    0  502  0.47686673196E+02 -0.74389647756E+02 -0.83392596407E+02  0.12149964456E+03  0.00000000000E+00 0.  1.
<mgrwt>
<rscale>  0 0.12760023E+04</rscale>
<asrwt>0</asrwt>
<pdfrwt beam="1">  1        1 0.64816645E+00 0.12760023E+04</pdfrwt>
<pdfrwt beam="2">  1       -2 0.74477958E-01 0.12760023E+04</pdfrwt>
<totfact> 0.88256260E-02</totfact>
</mgrwt>
</event>
<event>
12    3  0.1092576E-007  0.5226947E+03  0.7818608E-02  0.1008019E+00
         -2   -1    0    0    0  501 -0.00000000000E+00  0.00000000000E+00  0.23287194227E+03  0.23287194227E+03  0.00000000000E+00 0.  1.
          1   -1    0    0  501    0  0.00000000000E+00 -0.00000000000E+00 -0.18730250177E+04  0.18730250177E+04  0.00000000000E+00 0. -1.
        -24    2    1    2    0    0  0.37216616435E+03 -0.34621119521E+03 -0.47619933330E+03  0.70122524279E+03  0.81124537086E+02 0.  0.
    5000000    2    1    2    0    0 -0.37216616435E+03  0.34621119521E+03 -0.11639537422E+04  0.14046717172E+04  0.59995372625E+03 0.  0.
        -24    2    4    4    0    0 -0.22658418277E+03  0.23795559981E+03 -0.14884540627E+03  0.37039039488E+03  0.84088229190E+02 0.  0.
         24    2    4    4    0    0 -0.14558198158E+03  0.10825559540E+03 -0.10151083359E+04  0.10342813223E+04  0.79871977678E+02 0.  0.
         13    1    5    5    0    0 -0.13982808736E+03  0.90242461493E+02 -0.90404760948E+02  0.18939011768E+03  0.00000000000E+00 0. -1.
        -14    1    5    5    0    0 -0.86756095411E+02  0.14771313831E+03 -0.58440645320E+02  0.18100027720E+03  0.00000000000E+00 0.  1.
         15    1    3    3    0    0  0.24611338668E+02 -0.57716285720E+02 -0.65791462176E+02  0.90931632849E+02  0.17770000000E+01 0. -1.
        -16    1    3    3    0    0  0.34755482568E+03 -0.28849490949E+03 -0.41040787113E+03  0.61029360994E+03  0.00000000000E+00 0.  1.
          4    1    6    6  502    0 -0.31975330890E+02  0.63505554168E+02 -0.49203240576E+03  0.49714310366E+03  0.00000000000E+00 0. -1.
         -3    1    6    6    0  502 -0.11360665069E+03  0.44750041234E+02 -0.52307593013E+03  0.53713821866E+03  0.00000000000E+00 0.  1.
<mgrwt>
<rscale>  0 0.52269470E+03</rscale>
<asrwt>0</asrwt>
<pdfrwt beam="1">  1        1 0.28815768E+00 0.52269470E+03</pdfrwt>
<pdfrwt beam="2">  1       -2 0.35826455E-01 0.52269470E+03</pdfrwt>
<totfact> 0.25036518E+01</totfact>
</mgrwt>
</event>
<event>
12    3  0.1092576E-007  0.8203381E+03  0.7818608E-02  0.9531036E-01
         -2   -1    0    0    0  501 -0.00000000000E+00  0.00000000000E+00  0.30288148896E+03  0.30288148896E+03  0.00000000000E+00 0.  1.
          1   -1    0    0  501    0  0.00000000000E+00 -0.00000000000E+00 -0.28943791514E+04  0.28943791514E+04  0.00000000000E+00 0. -1.
        -24    2    1    2    0    0  0.74661266294E+03 -0.23637335446E+03 -0.65553144159E+03  0.10244009385E+04  0.79830951476E+02 0.  0.
    5000000    2    1    2    0    0 -0.74661266294E+03  0.23637335446E+03 -0.19359662208E+04  0.21728597018E+04  0.60004270208E+03 0.  0.
        -24    2    4    4    0    0 -0.92618229476E+02  0.16821694461E+03 -0.10283715334E+04  0.10490723327E+04  0.78292219669E+02 0.  0.
         24    2    4    4    0    0 -0.65399443346E+03  0.68156409853E+02 -0.90759468747E+03  0.11237873691E+04  0.82558579637E+02 0.  0.
         11    1    5    5    0    0 -0.28220048741E+02  0.50168005417E+02 -0.52148381285E+03  0.52465090011E+03  0.00000000000E+00 0. -1.
        -12    1    5    5    0    0 -0.64398180735E+02  0.11804893919E+03 -0.50688772051E+03  0.52442143256E+03  0.00000000000E+00 0.  1.
         15    1    3    3    0    0  0.20687182433E+03 -0.34626253465E+02 -0.20069179804E+03  0.29030205762E+03  0.17770000000E+01 0. -1.
        -16    1    3    3    0    0  0.53974083861E+03 -0.20174710099E+03 -0.45483964355E+03  0.73409888092E+03  0.00000000000E+00 0.  1.
          2    1    6    6  502    0 -0.48224341175E+03  0.13489944649E+02 -0.66513995762E+03  0.82167624403E+03  0.00000000000E+00 0. -1.
         -1    1    6    6    0  502 -0.17175102171E+03  0.54666465204E+02 -0.24245472985E+03  0.30211112509E+03  0.00000000000E+00 0.  1.
<mgrwt>
<rscale>  0 0.82033806E+03</rscale>
<asrwt>0</asrwt>
<pdfrwt beam="1">  1        1 0.44528911E+00 0.82033806E+03</pdfrwt>
<pdfrwt beam="2">  1       -2 0.46597151E-01 0.82033806E+03</pdfrwt>
<totfact> 0.28772704E+00</totfact>
</mgrwt>
</event>
<event>
12    3  0.1092576E-007  0.5852242E+03  0.7818608E-02  0.9936544E-01
          1   -1    0    0  501    0  0.00000000000E+00  0.00000000000E+00  0.13243321816E+04  0.13243321816E+04  0.00000000000E+00 0. -1.
         -2   -1    0    0    0  501 -0.00000000000E+00 -0.00000000000E+00 -0.40846642569E+03  0.40846642569E+03  0.00000000000E+00 0.  1.
        -24    2    1    2    0    0  0.42782252352E+03  0.17385101394E+03  0.85245561355E+03  0.97288403201E+03  0.81033820032E+02 0.  0.
    5000000    2    1    2    0    0 -0.42782252352E+03 -0.17385101394E+03  0.63410142387E+02  0.75991457530E+03  0.60016083588E+03 0.  0.
        -24    2    4    4    0    0 -0.38863523711E+02 -0.29024049035E+03  0.15635992445E+03  0.33603836351E+03  0.52186588907E+02 0.  0.
         24    2    4    4    0    0 -0.38895899981E+03  0.11638947641E+03 -0.92949782058E+02  0.42387621180E+03  0.78713195775E+02 0.  0.
         13    1    5    5    0    0  0.10349840661E+01 -0.15267105004E+03  0.97668380918E+02  0.18124191939E+03  0.00000000000E+00 0. -1.
        -14    1    5    5    0    0 -0.39898507777E+02 -0.13756944031E+03  0.58691543527E+02  0.15479644412E+03  0.00000000000E+00 0.  1.
         15    1    3    3    0    0  0.21359404658E+03  0.63620794244E+02  0.33882123023E+03  0.40555271664E+03  0.17770000000E+01 0. -1.
        -16    1    3    3    0    0  0.21422847695E+03  0.11023021969E+03  0.51363438332E+03  0.56733131537E+03  0.00000000000E+00 0.  1.
          4    1    6    6  502    0 -0.10465936874E+03  0.31281621413E+01 -0.24100201351E+01  0.10473383914E+03  0.00000000000E+00 0. -1.
         -3    1    6    6    0  502 -0.28429963107E+03  0.11326131427E+03 -0.90539761923E+02  0.31914237266E+03  0.00000000000E+00 0.  1.
<mgrwt>
<rscale>  0 0.58522415E+03</rscale>
<asrwt>0</asrwt>
<pdfrwt beam="1">  1        1 0.20374341E+00 0.58522415E+03</pdfrwt>
<pdfrwt beam="2">  1       -2 0.62840989E-01 0.58522415E+03</pdfrwt>
<totfact> 0.18808484E+01</totfact>
</mgrwt>
</event>
<event>
12    3  0.1092576E-007  0.4401396E+03  0.7818608E-02  0.1030704E+00
         -2   -1    0    0    0  501 -0.00000000000E+00  0.00000000000E+00  0.15285900826E+03  0.15285900826E+03  0.00000000000E+00 0.  1.
          1   -1    0    0  501    0  0.00000000000E+00 -0.00000000000E+00 -0.14886759640E+04  0.14886759640E+04  0.00000000000E+00 0. -1.
        -24    2    1    2    0    0  0.69674134033E+02 -0.22829579402E+03 -0.15525457811E+03  0.29586015421E+03  0.80347945265E+02 0.  0.
    5000000    2    1    2    0    0 -0.69674134033E+02  0.22829579402E+03 -0.11805623776E+04  0.13456748181E+04  0.60011643366E+03 0.  0.
        -24    2    4    4    0    0 -0.32205198025E+03  0.17361315145E+03 -0.64776197019E+03  0.74848018399E+03  0.82267924848E+02 0.  0.
         24    2    4    4    0    0  0.25237784621E+03  0.54682642567E+02 -0.53280040744E+03  0.59719463407E+03  0.77976843591E+02 0.  0.
         13    1    5    5    0    0 -0.24767752344E+03  0.10123037089E+03 -0.51084001786E+03  0.57667084846E+03  0.00000000000E+00 0. -1.
        -14    1    5    5    0    0 -0.74374456804E+02  0.72382780557E+02 -0.13692195233E+03  0.17180933553E+03  0.00000000000E+00 0.  1.
         15    1    3    3    0    0  0.27303081369E+02 -0.41462147885E+02 -0.70808868451E+02  0.86496367206E+02  0.17770000000E+01 0. -1.
        -16    1    3    3    0    0  0.42371052665E+02 -0.18683364613E+03 -0.84445709662E+02  0.20936378701E+03  0.00000000000E+00 0.  1.
          4    1    6    6  502    0  0.15777037389E+03  0.68620944331E+02 -0.37673206157E+03  0.41415863035E+03  0.00000000000E+00 0. -1.
         -3    1    6    6    0  502  0.94607472322E+02 -0.13938301764E+02 -0.15606834587E+03  0.18303600372E+03  0.00000000000E+00 0.  1.
<mgrwt>
<rscale>  0 0.44013963E+03</rscale>
<asrwt>0</asrwt>
<pdfrwt beam="1">  1        1 0.22902707E+00 0.44013963E+03</pdfrwt>
<pdfrwt beam="2">  1       -2 0.23516770E-01 0.44013963E+03</pdfrwt>
<totfact> 0.99100217E+01</totfact>
</mgrwt>
</event>
<event>
12    3  0.1092576E-007  0.7087004E+03  0.7818608E-02  0.9702468E-01
         -2   -1    0    0    0  501 -0.00000000000E+00  0.00000000000E+00  0.20553477900E+04  0.20553477900E+04  0.00000000000E+00 0.  1.
          1   -1    0    0  501    0  0.00000000000E+00 -0.00000000000E+00 -0.27986481724E+03  0.27986481724E+03  0.00000000000E+00 0. -1.
        -24    2    1    2    0    0  0.52314325882E+03 -0.26374211326E+03  0.11358525307E+04  0.12805750439E+04  0.80453091448E+02 0.  0.
    5000000    2    1    2    0    0 -0.52314325882E+03  0.26374211326E+03  0.63963044202E+03  0.10546375633E+04  0.59991209031E+03 0.  0.
        -24    2    4    4    0    0 -0.64227019238E+03  0.23127425261E+03  0.48329139840E+03  0.84021581422E+03  0.79957856139E+02 0.  0.
         24    2    4    4    0    0  0.11912693356E+03  0.32467860654E+02  0.15633904362E+03  0.21442174912E+03  0.79305747974E+02 0.  0.
         11    1    5    5    0    0 -0.45996763967E+03  0.13551152831E+03  0.30916523718E+03  0.57054075028E+03  0.00000000000E+00 0. -1.
        -12    1    5    5    0    0 -0.18230255271E+03  0.95762724298E+02  0.17412616123E+03  0.26967506394E+03  0.00000000000E+00 0.  1.
         15    1    3    3    0    0  0.67412996365E+02 -0.27701442844E+02  0.92076989552E+02  0.11744450497E+03  0.17770000000E+01 0. -1.
        -16    1    3    3    0    0  0.45573026245E+03 -0.23604067042E+03  0.10437755412E+04  0.11631305389E+04  0.00000000000E+00 0.  1.
          4    1    6    6  502    0  0.76292068323E+02 -0.19241873750E+02  0.96218725904E+02  0.12429309156E+03  0.00000000000E+00 0. -1.
         -3    1    6    6    0  502  0.42834865240E+02  0.51709734404E+02  0.60120317712E+02  0.90128657563E+02  0.00000000000E+00 0.  1.
<mgrwt>
<rscale>  0 0.70870037E+03</rscale>
<asrwt>0</asrwt>
<pdfrwt beam="1">  1        1 0.43056127E-01 0.70870037E+03</pdfrwt>
<pdfrwt beam="2">  1       -2 0.31620734E+00 0.70870037E+03</pdfrwt>
<totfact> 0.22346256E+00</totfact>
</mgrwt>
</event>
<event>
12    3  0.1092576E-007  0.1287494E+04  0.7818608E-02  0.9039541E-01
         -2   -1    0    0    0  501 -0.00000000000E+00  0.00000000000E+00  0.97670136629E+03  0.97670136629E+03  0.00000000000E+00 0.  1.
          1   -1    0    0  501    0  0.00000000000E+00 -0.00000000000E+00 -0.23360930804E+04  0.23360930804E+04  0.00000000000E+00 0. -1.
        -24    2    1    2    0    0  0.23241500185E+03 -0.12111339440E+04  0.18262763146E+03  0.12491074627E+04  0.77810270598E+02 0.  0.
    5000000    2    1    2    0    0 -0.23241500185E+03  0.12111339440E+04 -0.15420193455E+04  0.20636869839E+04  0.60009844377E+03 0.  0.
        -24    2    4    4    0    0 -0.21610890015E+03  0.11745455093E+03 -0.18178161217E+03  0.31640958994E+03  0.81066921881E+02 0.  0.
         24    2    4    4    0    0 -0.16306101695E+02  0.10936793931E+04 -0.13602377334E+04  0.17472773940E+04  0.79568187562E+02 0.  0.
         13    1    5    5    0    0 -0.15831874124E+03  0.97455246637E+02 -0.17423219760E+03  0.25479247949E+03  0.00000000000E+00 0. -1.
        -14    1    5    5    0    0 -0.57790158915E+02  0.19999304290E+02 -0.75494145680E+01  0.61617110447E+02  0.00000000000E+00 0.  1.
         15    1    3    3    0    0  0.14352607392E+03 -0.67931417218E+03  0.13949897787E+03  0.70818825249E+03  0.17770000000E+01 0. -1.
        -16    1    3    3    0    0  0.88888927931E+02 -0.53181977184E+03  0.43128653589E+02  0.54091921023E+03  0.00000000000E+00 0.  1.
          2    1    6    6  502    0 -0.27145529992E+02  0.59461952712E+03 -0.79559290518E+03  0.99361830328E+03  0.00000000000E+00 0. -1.
         -1    1    6    6    0  502  0.10839428297E+02  0.49905986597E+03 -0.56464482819E+03  0.75365909072E+03  0.00000000000E+00 0.  1.
<mgrwt>
<rscale>  0 0.12874945E+04</rscale>
<asrwt>0</asrwt>
<pdfrwt beam="1">  1        1 0.35939893E+00 0.12874945E+04</pdfrwt>
<pdfrwt beam="2">  1       -2 0.15026175E+00 0.12874945E+04</pdfrwt>
<totfact> 0.44574851E-01</totfact>
</mgrwt>
</event>
<event>
12    3  0.1092576E-007  0.1085366E+04  0.7818608E-02  0.9219574E-01
         -2   -1    0    0    0  501 -0.00000000000E+00  0.00000000000E+00  0.58500426332E+03  0.58500426332E+03  0.00000000000E+00 0.  1.
          1   -1    0    0  501    0  0.00000000000E+00 -0.00000000000E+00 -0.20469483934E+04  0.20469483934E+04  0.00000000000E+00 0. -1.
        -24    2    1    2    0    0 -0.58684598142E+03 -0.81998836466E+03 -0.75202746933E+03  0.12605107051E+04  0.81072799638E+02 0.  0.
    5000000    2    1    2    0    0  0.58684598142E+03  0.81998836466E+03 -0.70991666079E+03  0.13714419517E+04  0.60008519189E+03 0.  0.
        -24    2    4    4    0    0  0.63960969641E+02  0.57955483808E+03 -0.29841563279E+03  0.65988269686E+03  0.80115340265E+02 0.  0.
         24    2    4    4    0    0  0.52288501178E+03  0.24043352658E+03 -0.41150102800E+03  0.71155925484E+03  0.75937216505E+02 0.  0.
         13    1    5    5    0    0  0.53777386553E+02  0.51930789584E+03 -0.29264400972E+03  0.59850915984E+03  0.00000000000E+00 0. -1.
        -14    1    5    5    0    0  0.10183583088E+02  0.60246942239E+02 -0.57716230665E+01  0.61373537021E+02  0.00000000000E+00 0.  1.
         15    1    3    3    0    0 -0.29597384525E+03 -0.41086015504E+03 -0.32718891079E+03  0.60287836679E+03  0.17770000000E+01 0. -1.
        -16    1    3    3    0    0 -0.29087213617E+03 -0.40912820962E+03 -0.42483855854E+03  0.65763233826E+03  0.00000000000E+00 0.  1.
          2    1    6    6  502    0  0.36690872005E+03  0.13517327762E+03 -0.29991141925E+03  0.49278868009E+03  0.00000000000E+00 0. -1.
         -1    1    6    6    0  502  0.15597629173E+03  0.10526024896E+03 -0.11158960875E+03  0.21877057475E+03  0.00000000000E+00 0.  1.
<mgrwt>
<rscale>  0 0.10853658E+04</rscale>
<asrwt>0</asrwt>
<pdfrwt beam="1">  1        1 0.31491514E+00 0.10853658E+04</pdfrwt>
<pdfrwt beam="2">  1       -2 0.90000655E-01 0.10853658E+04</pdfrwt>
<totfact> 0.25605339E+00</totfact>
</mgrwt>
</event>
<event>
12    3  0.1092576E-007  0.5406554E+03  0.7818608E-02  0.1003680E+00
         -2   -1    0    0    0  501 -0.00000000000E+00  0.00000000000E+00  0.49987169332E+03  0.49987169332E+03  0.00000000000E+00 0.  1.
          1   -1    0    0  501    0  0.00000000000E+00 -0.00000000000E+00 -0.87822992004E+03  0.87822992004E+03  0.00000000000E+00 0. -1.
        -24    2    1    2    0    0  0.38300619009E+03 -0.10298479395E+03 -0.50608992458E+03  0.64808042877E+03  0.81127190020E+02 0.  0.
    5000000    2    1    2    0    0 -0.38300619009E+03  0.10298479395E+03  0.12773169787E+03  0.73002118459E+03  0.59942967384E+03 0.  0.
        -24    2    4    4    0    0 -0.51478553100E+03  0.43829769317E+02  0.26533786136E+01  0.52286420326E+03  0.80341415351E+02 0.  0.
         24    2    4    4    0    0  0.13177934091E+03  0.59155024638E+02  0.12507831925E+03  0.20715698133E+03  0.80026978802E+02 0.  0.
         11    1    5    5    0    0 -0.75850909398E+02  0.20802944410E+02  0.25639146380E+02  0.82725381714E+02  0.00000000000E+00 0. -1.
        -12    1    5    5    0    0 -0.43893462161E+03  0.23026824906E+02 -0.22985767767E+02  0.44013882154E+03  0.00000000000E+00 0.  1.
         15    1    3    3    0    0  0.89553836655E+02 -0.95066386820E+01 -0.69390665789E+02  0.11370350947E+03  0.17770000000E+01 0. -1.
        -16    1    3    3    0    0  0.29345235343E+03 -0.93478155273E+02 -0.43669925879E+03  0.53437691930E+03  0.00000000000E+00 0.  1.
          4    1    6    6  502    0  0.71481610894E+02  0.74083538732E+02  0.80912391673E+02  0.13093817829E+03  0.00000000000E+00 0. -1.
         -3    1    6    6    0  502  0.60297730021E+02 -0.14928514094E+02  0.44165927582E+02  0.76218803047E+02  0.00000000000E+00 0.  1.
<mgrwt>
<rscale>  0 0.54065535E+03</rscale>
<asrwt>0</asrwt>
<pdfrwt beam="1">  1        1 0.13511229E+00 0.54065535E+03</pdfrwt>
<pdfrwt beam="2">  1       -2 0.76903339E-01 0.54065535E+03</pdfrwt>
<totfact> 0.26257437E+01</totfact>
</mgrwt>
</event>
<event>
12    3  0.1092576E-007  0.6076835E+03  0.7818608E-02  0.9889592E-01
         -2   -1    0    0    0  501 -0.00000000000E+00  0.00000000000E+00  0.10849163960E+04  0.10849163960E+04  0.00000000000E+00 0.  1.
          1   -1    0    0  501    0  0.00000000000E+00 -0.00000000000E+00 -0.42660659781E+03  0.42660659781E+03  0.00000000000E+00 0. -1.
        -24    2    1    2    0    0 -0.33168800054E+03  0.32103458598E+03 -0.54393867108E+02  0.47149703341E+03  0.79187275763E+02 0.  0.
    5000000    2    1    2    0    0  0.33168800054E+03 -0.32103458598E+03  0.71270366529E+03  0.10400259604E+04  0.60052256298E+03 0.  0.
        -24    2    4    4    0    0  0.48573408830E+03 -0.30770177745E+03  0.59112522602E+03  0.82849076935E+03  0.79686471176E+02 0.  0.
         24    2    4    4    0    0 -0.15404608776E+03 -0.13332808526E+02  0.12157843927E+03  0.21153519102E+03  0.77832250436E+02 0.  0.
         11    1    5    5    0    0  0.17911751280E+03 -0.86913580360E+02  0.16152033200E+03  0.25637057455E+03  0.00000000000E+00 0. -1.
        -12    1    5    5    0    0  0.30661657550E+03 -0.22078819709E+03  0.42960489401E+03  0.57212019480E+03  0.00000000000E+00 0.  1.
         15    1    3    3    0    0 -0.23129585570E+03  0.26460497707E+03 -0.58370913397E+02  0.35626378993E+03  0.17770000000E+01 0. -1.
        -16    1    3    3    0    0 -0.10039214484E+03  0.56429608908E+02  0.39770462893E+01  0.11523324349E+03  0.00000000000E+00 0.  1.
          4    1    6    6  502    0 -0.15086399917E+03  0.72108081776E+01  0.97727575317E+02  0.17989613942E+03  0.00000000000E+00 0. -1.
         -3    1    6    6    0  502 -0.31820885894E+01 -0.20543616704E+02  0.23850863954E+02  0.31639051604E+02  0.00000000000E+00 0.  1.
<mgrwt>
<rscale>  0 0.60768346E+03</rscale>
<asrwt>0</asrwt>
<pdfrwt beam="1">  1        1 0.65631785E-01 0.60768346E+03</pdfrwt>
<pdfrwt beam="2">  1       -2 0.16691021E+00 0.60768346E+03</pdfrwt>
<totfact> 0.11182271E+01</totfact>
</mgrwt>
</event>
<event>
12    3  0.1092576E-007  0.7768129E+03  0.7818608E-02  0.9594200E-01
         -2   -1    0    0    0  501 -0.00000000000E+00  0.00000000000E+00  0.52515478215E+03  0.52515478215E+03  0.00000000000E+00 0.  1.
          1   -1    0    0  501    0  0.00000000000E+00 -0.00000000000E+00 -0.14679868630E+04  0.14679868630E+04  0.00000000000E+00 0. -1.
        -24    2    1    2    0    0  0.75471706364E+03 -0.94807846157E+02 -0.57609598408E+03  0.95764164214E+03  0.81268432053E+02 0.  0.
    5000000    2    1    2    0    0 -0.75471706364E+03  0.94807846157E+02 -0.36673609676E+03  0.10355000030E+04  0.59931504044E+03 0.  0.
        -24    2    4    4    0    0 -0.46569150037E+03  0.15566353132E+03  0.69309233733E+02  0.50271514071E+03  0.82577444331E+02 0.  0.
         24    2    4    4    0    0 -0.28902556326E+03 -0.60855685165E+02 -0.43604533050E+03  0.53278486229E+03  0.80529426929E+02 0.  0.
         11    1    5    5    0    0 -0.29925823192E+03  0.12406629359E+03  0.77547337037E+02  0.33310887718E+03  0.00000000000E+00 0. -1.
        -12    1    5    5    0    0 -0.16643326846E+03  0.31597237733E+02 -0.82381033043E+01  0.16960626353E+03  0.00000000000E+00 0.  1.
         15    1    3    3    0    0  0.38679050365E+03 -0.78507443837E+02 -0.26330374055E+03  0.47444950202E+03  0.17770000000E+01 0. -1.
        -16    1    3    3    0    0  0.36792655999E+03 -0.16300402320E+02 -0.31279224353E+03  0.48319214012E+03  0.00000000000E+00 0.  1.
          2    1    6    6  502    0 -0.71678043421E+02 -0.33908357960E+00 -0.16653094717E+03  0.18130199461E+03  0.00000000000E+00 0. -1.
         -1    1    6    6    0  502 -0.21734751984E+03 -0.60516601585E+02 -0.26951438333E+03  0.35148286768E+03  0.00000000000E+00 0.  1.
<mgrwt>
<rscale>  0 0.77681286E+03</rscale>
<asrwt>0</asrwt>
<pdfrwt beam="1">  1        1 0.22584414E+00 0.77681286E+03</pdfrwt>
<pdfrwt beam="2">  1       -2 0.80793042E-01 0.77681286E+03</pdfrwt>
<totfact> 0.83983294E+00</totfact>
</mgrwt>
</event>
<event>
12    3  0.1092576E-007  0.1068529E+04  0.7818608E-02  0.9236421E-01
         -4   -1    0    0    0  501 -0.00000000000E+00  0.00000000000E+00  0.34784848420E+03  0.34784848420E+03  0.00000000000E+00 0.  1.
          1   -1    0    0  501    0  0.00000000000E+00 -0.00000000000E+00 -0.35458297212E+04  0.35458297212E+04  0.00000000000E+00 0. -1.
        -24    2    1    2    0    0 -0.76573725430E+03 -0.66337610305E+03 -0.11791350788E+04  0.15566023870E+04  0.78930731992E+02 0.  0.
    5000000    2    1    2    0    0  0.76573725430E+03  0.66337610305E+03 -0.20188461581E+04  0.23370758183E+04  0.59980177867E+03 0.  0.
        -24    2    4    4    0    0 -0.30405927355E+00 -0.62246415477E+02 -0.79976595940E+02  0.12816931743E+03  0.78462789526E+02 0.  0.
         24    2    4    4    0    0  0.76604131358E+03  0.72562251853E+03 -0.19388695622E+04  0.22089065009E+04  0.81886610827E+02 0.  0.
         11    1    5    5    0    0  0.93583270413E+01 -0.34285720026E+02 -0.90136603171E+02  0.96890123924E+02  0.00000000000E+00 0. -1.
        -12    1    5    5    0    0 -0.96623863148E+01 -0.27960695451E+02  0.10160007231E+02  0.31279193505E+02  0.00000000000E+00 0.  1.
         15    1    3    3    0    0 -0.55155859691E+03 -0.44719310127E+03 -0.86710433735E+03  0.11207460217E+04  0.17770000000E+01 0. -1.
        -16    1    3    3    0    0 -0.21417865739E+03 -0.21618300178E+03 -0.31203074149E+03  0.43585636530E+03  0.00000000000E+00 0.  1.
          4    1    6    6  502    0  0.62111292459E+03  0.62481177441E+03 -0.16458502289E+04  0.18668138618E+04  0.00000000000E+00 0. -1.
         -3    1    6    6    0  502  0.14492838899E+03  0.10081074411E+03 -0.29301933329E+03  0.34209263913E+03  0.00000000000E+00 0.  1.
<mgrwt>
<rscale>  0 0.10685286E+04</rscale>
<asrwt>0</asrwt>
<pdfrwt beam="1">  1        1 0.54551228E+00 0.10685286E+04</pdfrwt>
<pdfrwt beam="2">  1       -4 0.53515150E-01 0.10685286E+04</pdfrwt>
<totfact> 0.38455916E-01</totfact>
</mgrwt>
</event>
<event>
12    3  0.1092576E-007  0.8734280E+03  0.7818608E-02  0.9459421E-01
         -4   -1    0    0    0  501 -0.00000000000E+00  0.00000000000E+00  0.66566865989E+03  0.66566865989E+03  0.00000000000E+00 0.  1.
          3   -1    0    0  501    0  0.00000000000E+00 -0.00000000000E+00 -0.40761497057E+04  0.40761497057E+04  0.00000000000E+00 0. -1.
        -24    2    1    2    0    0  0.34812666045E+03 -0.71145870926E+03  0.33730207922E+03  0.86456305799E+03  0.79567090547E+02 0.  0.
    5000000    2    1    2    0    0 -0.34812666045E+03  0.71145870926E+03 -0.37477831250E+04  0.38772553076E+04  0.59988724055E+03 0.  0.
        -24    2    4    4    0    0 -0.82190865434E+02  0.68021244866E+03 -0.30192401730E+04  0.30970431927E+04  0.80131150960E+02 0.  0.
         24    2    4    4    0    0 -0.26593579501E+03  0.31246260608E+02 -0.72854295199E+03  0.78021211489E+03  0.79107113835E+02 0.  0.
         11    1    5    5    0    0 -0.62444547623E+02  0.32154592911E+03 -0.15863579417E+04  0.16198217881E+04  0.00000000000E+00 0. -1.
        -12    1    5    5    0    0 -0.19746317811E+02  0.35866651954E+03 -0.14328822313E+04  0.14772214046E+04  0.00000000000E+00 0.  1.
         15    1    3    3    0    0  0.20057706309E+03 -0.43074984067E+03  0.16083015016E+03  0.50164337772E+03  0.17770000000E+01 0. -1.
        -16    1    3    3    0    0  0.14754959736E+03 -0.28070886859E+03  0.17647192906E+03  0.36291968027E+03  0.00000000000E+00 0.  1.
          2    1    6    6  502    0 -0.38121847415E+02  0.28499296675E+01 -0.20517142486E+03  0.20870244591E+03  0.00000000000E+00 0. -1.
         -1    1    6    6    0  502 -0.22781394760E+03  0.28396330940E+02 -0.52337152713E+03  0.57150966899E+03  0.00000000000E+00 0.  1.
<mgrwt>
<rscale>  0 0.87342800E+03</rscale>
<asrwt>0</asrwt>
<pdfrwt beam="1">  1        3 0.62709997E+00 0.87342800E+03</pdfrwt>
<pdfrwt beam="2">  1       -4 0.10241056E+00 0.87342800E+03</pdfrwt>
<totfact> 0.15092714E-03</totfact>
</mgrwt>
</event>
<event>
12    3  0.1092576E-007  0.1640748E+04  0.7818608E-02  0.8795899E-01
          1   -1    0    0  501    0  0.00000000000E+00  0.00000000000E+00  0.34488818963E+04  0.34488818963E+04  0.00000000000E+00 0. -1.
         -2   -1    0    0    0  501 -0.00000000000E+00 -0.00000000000E+00 -0.86403356504E+03  0.86403356504E+03  0.00000000000E+00 0.  1.
        -24    2    1    2    0    0 -0.16208591328E+04  0.89570430030E+02  0.74804481658E+03  0.17892058916E+04  0.80495245265E+02 0.  0.
    5000000    2    1    2    0    0  0.16208591328E+04 -0.89570430030E+02  0.18368035147E+04  0.25237095698E+04  0.60004637374E+03 0.  0.
        -24    2    4    4    0    0  0.77525549774E+02  0.47632584232E+01  0.38580682457E+03  0.40179800088E+03  0.81005111762E+02 0.  0.
         24    2    4    4    0    0  0.15433335830E+04 -0.94333688454E+02  0.14509966901E+04  0.21219115689E+04  0.79623602944E+02 0.  0.
         11    1    5    5    0    0  0.76650188698E+02  0.32985144982E+02  0.30455306513E+03  0.31577815108E+03  0.00000000000E+00 0. -1.
        -12    1    5    5    0    0  0.87536107588E+00 -0.28221886558E+02  0.81253759434E+02  0.86019849802E+02  0.00000000000E+00 0.  1.
         15    1    3    3    0    0 -0.60822378220E+03  0.47817313063E+02  0.24134398653E+03  0.65610421598E+03  0.17770000000E+01 0. -1.
        -16    1    3    3    0    0 -0.10126353506E+04  0.41753116967E+02  0.50670083004E+03  0.11331016756E+04  0.00000000000E+00 0.  1.
          2    1    6    6  502    0  0.31283441985E+03 -0.18333656079E+02  0.33909909815E+03  0.46172469671E+03  0.00000000000E+00 0. -1.
         -1    1    6    6    0  502  0.12304991632E+04 -0.76000032375E+02  0.11118975920E+04  0.16601868722E+04  0.00000000000E+00 0.  1.
<mgrwt>
<rscale>  0 0.16407478E+04</rscale>
<asrwt>0</asrwt>
<pdfrwt beam="1">  1        1 0.53059721E+00 0.16407478E+04</pdfrwt>
<pdfrwt beam="2">  1       -2 0.13292824E+00 0.16407478E+04</pdfrwt>
<totfact> 0.92692452E-02</totfact>
</mgrwt>
</event>
<event>
12    3  0.1092576E-007  0.7322135E+03  0.7818608E-02  0.9663675E-01
         -2   -1    0    0    0  501 -0.00000000000E+00  0.00000000000E+00  0.87265834054E+03  0.87265834054E+03  0.00000000000E+00 0.  1.
          1   -1    0    0  501    0  0.00000000000E+00 -0.00000000000E+00 -0.68668729066E+03  0.68668729066E+03  0.00000000000E+00 0. -1.
        -24    2    1    2    0    0 -0.64372890020E+03 -0.74747953687E+02 -0.15838755802E+02  0.65342112893E+03  0.82061879148E+02 0.  0.
    5000000    2    1    2    0    0  0.64372890020E+03  0.74747953687E+02  0.20180980568E+03  0.90592450227E+03  0.59999821051E+03 0.  0.
        -24    2    4    4    0    0 -0.78385157646E+02  0.46140720383E+02  0.12728032526E+03  0.17492616024E+03  0.78266731886E+02 0.  0.
         24    2    4    4    0    0  0.72211405784E+03  0.28607233304E+02  0.74529480421E+02  0.73099834203E+03  0.80850765440E+02 0.  0.
         11    1    5    5    0    0 -0.43993038663E+02  0.21669577248E+02  0.12310152068E+03  0.13251015969E+03  0.00000000000E+00 0. -1.
        -12    1    5    5    0    0 -0.34392118983E+02  0.24471143135E+02  0.41788045858E+01  0.42416000545E+02  0.00000000000E+00 0.  1.
         15    1    3    3    0    0 -0.58868400547E+03 -0.53530044906E+02  0.41620252092E+01  0.59113010766E+03  0.17770000000E+01 0. -1.
        -16    1    3    3    0    0 -0.55044894727E+02 -0.21217908781E+02 -0.20000781011E+02  0.62291021260E+02  0.00000000000E+00 0.  1.
          4    1    6    6  502    0  0.46848365041E+03  0.72357029143E+01  0.85302077194E+02  0.47624125239E+03  0.00000000000E+00 0. -1.
         -3    1    6    6    0  502  0.25363040743E+03  0.21371530389E+02 -0.10772596773E+02  0.25475708965E+03  0.00000000000E+00 0.  1.
<mgrwt>
<rscale>  0 0.73221347E+03</rscale>
<asrwt>0</asrwt>
<pdfrwt beam="1">  1        1 0.10564420E+00 0.73221347E+03</pdfrwt>
<pdfrwt beam="2">  1       -2 0.13425513E+00 0.73221347E+03</pdfrwt>
<totfact> 0.10053619E+01</totfact>
</mgrwt>
</event>
<event>
12    3  0.1092576E-007  0.6409960E+03  0.7818608E-02  0.9823823E-01
          1   -1    0    0  501    0  0.00000000000E+00  0.00000000000E+00  0.26368443016E+03  0.26368443016E+03  0.00000000000E+00 0. -1.
         -2   -1    0    0    0  501 -0.00000000000E+00 -0.00000000000E+00 -0.20130851675E+04  0.20130851675E+04  0.00000000000E+00 0.  1.
        -24    2    1    2    0    0  0.25893718373E+03  0.52703319718E+03 -0.93650441797E+03  0.11083047716E+04  0.80538722778E+02 0.  0.
    5000000    2    1    2    0    0 -0.25893718373E+03 -0.52703319718E+03 -0.81289631942E+03  0.11684648261E+04  0.59974758659E+03 0.  0.
        -24    2    4    4    0    0  0.76356568022E+02 -0.12843221132E+03  0.31655904640E+02  0.17279955925E+03  0.80823468104E+02 0.  0.
         24    2    4    4    0    0 -0.33529375175E+03 -0.39860098587E+03 -0.84455222406E+03  0.99566526683E+03  0.82317789788E+02 0.  0.
         11    1    5    5    0    0  0.13321540171E+02 -0.92215881120E+02  0.36202511549E+02  0.99959261731E+02  0.00000000000E+00 0. -1.
        -12    1    5    5    0    0  0.63035027850E+02 -0.36216330197E+02 -0.45466069094E+01  0.72840297524E+02  0.00000000000E+00 0.  1.
         15    1    3    3    0    0  0.66674121582E+02  0.77555680277E+02 -0.19392260036E+03  0.21924747363E+03  0.17770000000E+01 0. -1.
        -16    1    3    3    0    0  0.19226306215E+03  0.44947751691E+03 -0.74258181760E+03  0.88905729799E+03  0.00000000000E+00 0.  1.
          2    1    6    6  502    0 -0.11823162209E+03 -0.19080478894E+03 -0.31496273999E+03  0.38676441347E+03  0.00000000000E+00 0. -1.
         -1    1    6    6    0  502 -0.21706212966E+03 -0.20779619693E+03 -0.52958948407E+03  0.60890085336E+03  0.00000000000E+00 0.  1.
<mgrwt>
<rscale>  0 0.64099595E+03</rscale>
<asrwt>0</asrwt>
<pdfrwt beam="1">  1        1 0.40566837E-01 0.64099595E+03</pdfrwt>
<pdfrwt beam="2">  1       -2 0.30970540E+00 0.64099595E+03</pdfrwt>
<totfact> 0.26707490E+00</totfact>
</mgrwt>
</event>
<event>
12    3  0.1092576E-007  0.3765673E+03  0.7818608E-02  0.1052210E+00
         -2   -1    0    0    0  501 -0.00000000000E+00  0.00000000000E+00  0.14719583663E+04  0.14719583663E+04  0.00000000000E+00 0.  1.
          1   -1    0    0  501    0  0.00000000000E+00 -0.00000000000E+00 -0.13180005187E+03  0.13180005187E+03  0.00000000000E+00 0. -1.
        -24    2    1    2    0    0 -0.11043899853E+03 -0.17915313136E+03  0.51782096013E+03  0.56437950406E+03  0.78058061621E+02 0.  0.
    5000000    2    1    2    0    0  0.11043899853E+03  0.17915313136E+03  0.82233735433E+03  0.10393789141E+04  0.59981429287E+03 0.  0.
        -24    2    4    4    0    0  0.10530851021E+03 -0.16075304545E+03  0.96342353888E+02  0.23367731094E+03  0.91606836823E+02 0.  0.
         24    2    4    4    0    0  0.51304883269E+01  0.33990617681E+03  0.72599500044E+03  0.80570160319E+03  0.80770054940E+02 0.  0.
         11    1    5    5    0    0  0.65853792621E+02 -0.13656876076E+03  0.10776246593E+03  0.18601208961E+03  0.00000000000E+00 0. -1.
        -12    1    5    5    0    0  0.39454717586E+02 -0.24184284687E+02 -0.11420112037E+02  0.47665221331E+02  0.00000000000E+00 0.  1.
         15    1    3    3    0    0 -0.10944983201E+03 -0.17489115824E+03  0.43507563420E+03  0.48151858548E+03  0.17770000000E+01 0. -1.
        -16    1    3    3    0    0 -0.98916652156E+00 -0.42619731162E+01  0.82745325929E+02  0.82860918582E+02  0.00000000000E+00 0.  1.
          2    1    6    6  502    0 -0.20289601052E+02  0.25764305686E+03  0.59783133334E+03  0.65130170872E+03  0.00000000000E+00 0. -1.
         -1    1    6    6    0  502  0.25420089378E+02  0.82263119948E+02  0.12816366711E+03  0.15439989447E+03  0.00000000000E+00 0.  1.
<mgrwt>
<rscale>  0 0.37656727E+03</rscale>
<asrwt>0</asrwt>
<pdfrwt beam="1">  1        1 0.20276932E-01 0.37656727E+03</pdfrwt>
<pdfrwt beam="2">  1       -2 0.22645512E+00 0.37656727E+03</pdfrwt>
<totfact> 0.21509598E+01</totfact>
</mgrwt>
</event>
<event>
12    3  0.1092576E-007  0.1154310E+04  0.7818608E-02  0.9153816E-01
         -2   -1    0    0    0  501 -0.00000000000E+00  0.00000000000E+00  0.49786838207E+03  0.49786838207E+03  0.00000000000E+00 0.  1.
          1   -1    0    0  501    0  0.00000000000E+00 -0.00000000000E+00 -0.28638361798E+04  0.28638361798E+04  0.00000000000E+00 0. -1.
        -24    2    1    2    0    0  0.69906527549E+03 -0.83634535971E+03 -0.14544332681E+04  0.18193342529E+04  0.80219527155E+02 0.  0.
    5000000    2    1    2    0    0 -0.69906527549E+03  0.83634535971E+03 -0.91153452968E+03  0.15423703090E+04  0.59987094532E+03 0.  0.
        -24    2    4    4    0    0 -0.48699569154E+03  0.17447671996E+03 -0.24771389716E+03  0.57789391903E+03  0.70656050115E+02 0.  0.
         24    2    4    4    0    0 -0.21206958396E+03  0.66186863976E+03 -0.66382063252E+03  0.96447638993E+03  0.80704831594E+02 0.  0.
         11    1    5    5    0    0 -0.20313455243E+03  0.10552275930E+03 -0.12738908698E+03  0.26196694182E+03  0.00000000000E+00 0. -1.
        -12    1    5    5    0    0 -0.28386113911E+03  0.68953960655E+02 -0.12032481018E+03  0.31592697721E+03  0.00000000000E+00 0.  1.
         15    1    3    3    0    0  0.45931911523E+03 -0.60210699124E+03 -0.10331582048E+04  0.12809863045E+04  0.17770000000E+01 0. -1.
        -16    1    3    3    0    0  0.23974616026E+03 -0.23423836848E+03 -0.42127506329E+03  0.53834794843E+03  0.00000000000E+00 0.  1.
          4    1    6    6  502    0 -0.76604034388E+02  0.22097065948E+03 -0.17270871863E+03  0.29073099581E+03  0.00000000000E+00 0. -1.
         -3    1    6    6    0  502 -0.13546554957E+03  0.44089798028E+03 -0.49111191389E+03  0.67374539412E+03  0.00000000000E+00 0.  1.
<mgrwt>
<rscale>  0 0.11543101E+04</rscale>
<asrwt>0</asrwt>
<pdfrwt beam="1">  1        1 0.44059018E+00 0.11543101E+04</pdfrwt>
<pdfrwt beam="2">  1       -2 0.76595136E-01 0.11543101E+04</pdfrwt>
<totfact> 0.10032515E+00</totfact>
</mgrwt>
</event>
<event>
12    3  0.1092576E-007  0.3974245E+03  0.7818608E-02  0.1044675E+00
         -2   -1    0    0    0  501 -0.00000000000E+00  0.00000000000E+00  0.27070816278E+03  0.27070816278E+03  0.00000000000E+00 0.  1.
          1   -1    0    0  501    0  0.00000000000E+00 -0.00000000000E+00 -0.11598857339E+04  0.11598857339E+04  0.00000000000E+00 0. -1.
        -24    2    1    2    0    0  0.75175772306E+02 -0.25030470938E+03 -0.69651882063E+03  0.74822906718E+03  0.80027652774E+02 0.  0.
    5000000    2    1    2    0    0 -0.75175772306E+02  0.25030470938E+03 -0.19265875049E+03  0.68236482949E+03  0.60016707849E+03 0.  0.
        -24    2    4    4    0    0 -0.23104797706E+03  0.11892336856E+02 -0.28079752977E+03  0.37232734253E+03  0.79093627354E+02 0.  0.
         24    2    4    4    0    0  0.15587220475E+03  0.23841237252E+03  0.88138779277E+02  0.31003748697E+03  0.84959963073E+02 0.  0.
         13    1    5    5    0    0 -0.13540472211E+03  0.26571207098E+02 -0.21442902122E+03  0.25499073112E+03  0.00000000000E+00 0. -1.
        -14    1    5    5    0    0 -0.95643254950E+02 -0.14678870242E+02 -0.66368508554E+02  0.11733661141E+03  0.00000000000E+00 0.  1.
         15    1    3    3    0    0  0.33719074695E+02 -0.16607440664E+03 -0.34481405676E+03  0.38421032782E+03  0.17770000000E+01 0. -1.
        -16    1    3    3    0    0  0.41456697611E+02 -0.84230302742E+02 -0.35170476387E+03  0.36401873936E+03  0.00000000000E+00 0.  1.
          2    1    6    6  502    0  0.65026388945E+02  0.17295473328E+03  0.46142350530E+02  0.19044917311E+03  0.00000000000E+00 0. -1.
         -1    1    6    6    0  502  0.90845815807E+02  0.65457639241E+02  0.41996428747E+02  0.11958831386E+03  0.00000000000E+00 0.  1.
<mgrwt>
<rscale>  0 0.39742446E+03</rscale>
<asrwt>0</asrwt>
<pdfrwt beam="1">  1        1 0.17844396E+00 0.39742446E+03</pdfrwt>
<pdfrwt beam="2">  1       -2 0.41647410E-01 0.39742446E+03</pdfrwt>
<totfact> 0.58476503E+01</totfact>
</mgrwt>
</event>
<event>
12    3  0.1092576E-007  0.9969940E+03  0.7818608E-02  0.9311848E-01
          1   -1    0    0  501    0  0.00000000000E+00  0.00000000000E+00  0.26563064284E+04  0.26563064284E+04  0.00000000000E+00 0. -1.
         -2   -1    0    0    0  501 -0.00000000000E+00 -0.00000000000E+00 -0.43447217393E+03  0.43447217393E+03  0.00000000000E+00 0.  1.
        -24    2    1    2    0    0 -0.85156888807E+03 -0.39797103789E+03  0.14670454822E+04  0.17441364290E+04  0.78986821804E+02 0.  0.
    5000000    2    1    2    0    0  0.85156888807E+03  0.39797103789E+03  0.75478877230E+03  0.13466421733E+04  0.60015709121E+03 0.  0.
        -24    2    4    4    0    0  0.70461593738E+03  0.10761280390E+03  0.70879023544E+03  0.10084274602E+04  0.80487327120E+02 0.  0.
         24    2    4    4    0    0  0.14695295069E+03  0.29035823399E+03  0.45998536860E+02  0.33821471317E+03  0.79813865000E+02 0.  0.
         11    1    5    5    0    0  0.45313442018E+03  0.32407708378E+02  0.46790983678E+03  0.65216614269E+03  0.00000000000E+00 0. -1.
        -12    1    5    5    0    0  0.25148151719E+03  0.75205095517E+02  0.24088039865E+03  0.35626131749E+03  0.00000000000E+00 0.  1.
         15    1    3    3    0    0 -0.47319495631E+03 -0.18109039334E+03  0.81656635875E+03  0.96098437720E+03  0.17770000000E+01 0. -1.
        -16    1    3    3    0    0 -0.37837393175E+03 -0.21688064455E+03  0.65047912340E+03  0.78315205177E+03  0.00000000000E+00 0.  1.
          2    1    6    6  502    0  0.45080902320E+02  0.17411020302E+03  0.14220542935E+02  0.18041306602E+03  0.00000000000E+00 0. -1.
         -1    1    6    6    0  502  0.10187204837E+03  0.11624803097E+03  0.31777993925E+02  0.15780164714E+03  0.00000000000E+00 0.  1.
<mgrwt>
<rscale>  0 0.99699396E+03</rscale>
<asrwt>0</asrwt>
<pdfrwt beam="1">  1        1 0.40866252E+00 0.99699396E+03</pdfrwt>
<pdfrwt beam="2">  1       -2 0.66841875E-01 0.99699396E+03</pdfrwt>
<totfact> 0.19371233E+00</totfact>
</mgrwt>
</event>
<event>
12    3  0.1092576E-007  0.6382679E+03  0.7818608E-02  0.9829046E-01
         -4   -1    0    0    0  501 -0.00000000000E+00  0.00000000000E+00  0.21848968545E+04  0.21848968545E+04  0.00000000000E+00 0.  1.
          3   -1    0    0  501    0  0.00000000000E+00 -0.00000000000E+00 -0.33283387792E+03  0.33283387792E+03  0.00000000000E+00 0. -1.
        -24    2    1    2    0    0  0.61170659392E+03 -0.24238799794E+02  0.14396175791E+04  0.15661612013E+04  0.74764015247E+02 0.  0.
    5000000    2    1    2    0    0 -0.61170659392E+03  0.24238799794E+02  0.41244539740E+03  0.95156953103E+03  0.60050053297E+03 0.  0.
        -24    2    4    4    0    0 -0.13840705064E+03 -0.88312649243E+02  0.41982355218E+03  0.45816495950E+03  0.81900424122E+02 0.  0.
         24    2    4    4    0    0 -0.47329954328E+03  0.11255144904E+03 -0.73781547798E+01  0.49340457153E+03  0.81935021132E+02 0.  0.
         13    1    5    5    0    0 -0.13531800361E+03 -0.95129628481E+02  0.41920067588E+03  0.45065487346E+03  0.00000000000E+00 0. -1.
        -14    1    5    5    0    0 -0.30890470327E+01  0.68169792382E+01  0.62287629742E+00  0.75100860439E+01  0.00000000000E+00 0.  1.
         15    1    3    3    0    0  0.24164970713E+03 -0.11812141965E+02  0.66375243249E+03  0.70647332364E+03  0.17770000000E+01 0. -1.
        -16    1    3    3    0    0  0.37005688679E+03 -0.12426657829E+02  0.77586514666E+03  0.85968787771E+03  0.00000000000E+00 0.  1.
          2    1    6    6  502    0 -0.40038838941E+03  0.68386327867E+02 -0.22587094181E+02  0.40681412099E+03  0.00000000000E+00 0. -1.
         -1    1    6    6    0  502 -0.72911153865E+02  0.44165121170E+02  0.15208939401E+02  0.86590450533E+02  0.00000000000E+00 0.  1.
<mgrwt>
<rscale>  0 0.63826789E+03</rscale>
<asrwt>0</asrwt>
<pdfrwt beam="1">  1        3 0.51205213E-01 0.63826789E+03</pdfrwt>
<pdfrwt beam="2">  1       -4 0.33613797E+00 0.63826789E+03</pdfrwt>
<totfact> 0.16359761E-01</totfact>
</mgrwt>
</event>
<event>
12    3  0.1092576E-007  0.9681547E+03  0.7818608E-02  0.9344179E-01
          1   -1    0    0  501    0  0.00000000000E+00  0.00000000000E+00  0.18239041410E+04  0.18239041410E+04  0.00000000000E+00 0. -1.
         -2   -1    0    0    0  501 -0.00000000000E+00 -0.00000000000E+00 -0.58935154416E+03  0.58935154416E+03  0.00000000000E+00 0.  1.
        -24    2    1    2    0    0 -0.52724695346E+02  0.89995418571E+03  0.22078440678E+03  0.92992517856E+03  0.57599076097E+02 0.  0.
    5000000    2    1    2    0    0  0.52724695346E+02 -0.89995418571E+03  0.10137681900E+04  0.14833305066E+04  0.59987166854E+03 0.  0.
        -24    2    4    4    0    0  0.24268388866E+03 -0.23721529200E+03  0.54143510387E+03  0.64392379363E+03  0.79494123811E+02 0.  0.
         24    2    4    4    0    0 -0.18995919332E+03 -0.66273889371E+03  0.47233308615E+03  0.83940671293E+03  0.78725784098E+02 0.  0.
         13    1    5    5    0    0  0.16548330867E+03 -0.13231049976E+03  0.27312805266E+03  0.34567286116E+03  0.00000000000E+00 0. -1.
        -14    1    5    5    0    0  0.77200579996E+02 -0.10490479224E+03  0.26830705121E+03  0.29825093247E+03  0.00000000000E+00 0.  1.
         15    1    3    3    0    0 -0.22032308869E+02  0.35857518073E+03  0.11705366834E+03  0.37784428257E+03  0.17770000000E+01 0. -1.
        -16    1    3    3    0    0 -0.30692386477E+02  0.54137900498E+03  0.10373073844E+03  0.55208089599E+03  0.00000000000E+00 0.  1.
          2    1    6    6  502    0 -0.17942711363E+03 -0.53046236817E+03  0.36169917312E+03  0.66664136159E+03  0.00000000000E+00 0. -1.
         -1    1    6    6    0  502 -0.10532079688E+02 -0.13227652554E+03  0.11063391302E+03  0.17276535134E+03  0.00000000000E+00 0.  1.
<mgrwt>
<rscale>  0 0.96815470E+03</rscale>
<asrwt>0</asrwt>
<pdfrwt beam="1">  1        1 0.28060063E+00 0.96815470E+03</pdfrwt>
<pdfrwt beam="2">  1       -2 0.90669470E-01 0.96815470E+03</pdfrwt>
<totfact> 0.36086046E+00</totfact>
</mgrwt>
</event>
<event>
12    3  0.1092576E-007  0.7083927E+03  0.7818608E-02  0.9702986E-01
         -2   -1    0    0    0  501 -0.00000000000E+00  0.00000000000E+00  0.92550581000E+03  0.92550581000E+03  0.00000000000E+00 0.  1.
          1   -1    0    0  501    0  0.00000000000E+00 -0.00000000000E+00 -0.60172996748E+03  0.60172996748E+03  0.00000000000E+00 0. -1.
        -24    2    1    2    0    0 -0.52965039408E+03 -0.25158055651E+03  0.35128181451E+03  0.68776581545E+03  0.76161587014E+02 0.  0.
    5000000    2    1    2    0    0  0.52965039408E+03  0.25158055651E+03 -0.27505971984E+02  0.83946996203E+03  0.60010909199E+03 0.  0.
        -24    2    4    4    0    0 -0.71514399524E+00  0.28501683215E+03 -0.54321345340E+02  0.30032081413E+03  0.77502753509E+02 0.  0.
         24    2    4    4    0    0  0.53036553808E+03 -0.33436275639E+02  0.26815373356E+02  0.53914914790E+03  0.86931875182E+02 0.  0.
         13    1    5    5    0    0 -0.27777908478E+02  0.18934372364E+03 -0.10480301099E+02  0.19165723204E+03  0.00000000000E+00 0. -1.
        -14    1    5    5    0    0  0.27062764482E+02  0.95673108513E+02 -0.43841044241E+02  0.10866358210E+03  0.00000000000E+00 0.  1.
         15    1    3    3    0    0 -0.33864510788E+03 -0.11976079384E+03  0.21539715236E+03  0.41883439186E+03  0.17770000000E+01 0. -1.
        -16    1    3    3    0    0 -0.19100528620E+03 -0.13181976268E+03  0.13588466215E+03  0.26893142360E+03  0.00000000000E+00 0.  1.
          2    1    6    6  502    0  0.39276779590E+03  0.13986757183E+01  0.47797527753E+02  0.39566791815E+03  0.00000000000E+00 0. -1.
         -1    1    6    6    0  502  0.13759774218E+03 -0.34834951358E+02 -0.20982154397E+02  0.14348122975E+03  0.00000000000E+00 0.  1.
<mgrwt>
<rscale>  0 0.70839266E+03</rscale>
<asrwt>0</asrwt>
<pdfrwt beam="1">  1        1 0.92573841E-01 0.70839266E+03</pdfrwt>
<pdfrwt beam="2">  1       -2 0.14238551E+00 0.70839266E+03</pdfrwt>
<totfact> 0.10516018E+01</totfact>
</mgrwt>
</event>
<event>
12    3  0.1151509E-007  0.8446370E+03  0.7818608E-02  0.9497563E-01
          1   -1    0    0  501    0  0.00000000000E+00  0.00000000000E+00  0.14158166284E+04  0.14158166284E+04  0.00000000000E+00 0. -1.
         -2   -1    0    0    0  501 -0.00000000000E+00 -0.00000000000E+00 -0.88631099945E+03  0.88631099945E+03  0.00000000000E+00 0.  1.
        -24    2    1    2    0    0 -0.75503314687E+03  0.44813037850E+02 -0.48509556053E+03  0.90167670655E+03  0.74966119384E+02 0.  0.
    5000000    2    1    2    0    0  0.75503314687E+03 -0.44813037850E+02  0.10146011895E+04  0.14004509213E+04  0.59980325780E+03 0.  0.
        -24    2    4    4    0    0  0.62516862037E+02 -0.20992076110E+03  0.14761931882E+03  0.27576591770E+03  0.79248306575E+02 0.  0.
         24    2    4    4    0    0  0.69251628483E+03  0.16510772325E+03  0.86698187070E+03  0.11246850036E+04  0.80121334593E+02 0.  0.
         13    1    5    5    0    0  0.16541479362E+01 -0.34084215887E+02 -0.57848580508E+01  0.34611191264E+02  0.00000000000E+00 0. -1.
        -14    1    5    5    0    0  0.60862714101E+02 -0.17583654521E+03  0.15340417687E+03  0.24115472643E+03  0.00000000000E+00 0.  1.
         15    1    3    3    0    0 -0.58476892934E+03  0.24817540348E+02 -0.33864998441E+03  0.67620823767E+03  0.17770000000E+01 0. -1.
        -16    1    3    3    0    0 -0.17026421753E+03  0.19995497501E+02 -0.14644557612E+03  0.22546846887E+03  0.00000000000E+00 0.  1.
          2    1    6    6  502    0  0.28780987295E+03  0.56260452635E+02  0.29882164094E+03  0.41868142375E+03  0.00000000000E+00 0. -1.
         -3    1    6    6    0  502  0.40470641188E+03  0.10884727061E+03  0.56816022976E+03  0.70600357989E+03  0.00000000000E+00 0.  1.
<mgrwt>
<rscale>  0 0.84463702E+03</rscale>
<asrwt>0</asrwt>
<pdfrwt beam="1">  1        1 0.21781794E+00 0.84463702E+03</pdfrwt>
<pdfrwt beam="2">  1       -2 0.13635554E+00 0.84463702E+03</pdfrwt>
<totfact> 0.25720273E+00</totfact>
</mgrwt>
</event>
<event>
12    3  0.1092576E-007  0.6240984E+03  0.7818608E-02  0.9856633E-01
         -2   -1    0    0    0  501 -0.00000000000E+00  0.00000000000E+00  0.37184159585E+03  0.37184159585E+03  0.00000000000E+00 0.  1.
          1   -1    0    0  501    0  0.00000000000E+00 -0.00000000000E+00 -0.13801705138E+04  0.13801705138E+04  0.00000000000E+00 0. -1.
        -24    2    1    2    0    0 -0.15272301807E+03 -0.50880714054E+03 -0.11040862989E+03  0.54852726280E+03  0.80517488594E+02 0.  0.
    5000000    2    1    2    0    0  0.15272301807E+03  0.50880714054E+03 -0.89792028804E+03  0.12034848468E+04  0.59992158351E+03 0.  0.
        -24    2    4    4    0    0 -0.15608347525E+03  0.13582086955E+03 -0.55618090245E+02  0.22861485669E+03  0.79762277338E+02 0.  0.
         24    2    4    4    0    0  0.30880649332E+03  0.37298627099E+03 -0.84230219779E+03  0.97486999014E+03  0.80114272181E+02 0.  0.
         11    1    5    5    0    0 -0.24348760800E+02  0.70137594808E+02 -0.13051976814E+02  0.75382348442E+02  0.00000000000E+00 0. -1.
        -12    1    5    5    0    0 -0.13173471444E+03  0.65683274742E+02 -0.42566113431E+02  0.15323250825E+03  0.00000000000E+00 0.  1.
         15    1    3    3    0    0 -0.24147947166E+02 -0.20796499485E+03 -0.57393013763E+02  0.21709370832E+03  0.17770000000E+01 0. -1.
        -16    1    3    3    0    0 -0.12857507091E+03 -0.30084214569E+03 -0.53015616126E+02  0.33143355448E+03  0.00000000000E+00 0.  1.
          4    1    6    6  502    0  0.28282852117E+02  0.78789164774E+02 -0.16263901834E+03  0.18291829459E+03  0.00000000000E+00 0. -1.
         -3    1    6    6    0  502  0.28052364120E+03  0.29419710622E+03 -0.67966317945E+03  0.79195169555E+03  0.00000000000E+00 0.  1.
<mgrwt>
<rscale>  0 0.62409844E+03</rscale>
<asrwt>0</asrwt>
<pdfrwt beam="1">  1        1 0.21233392E+00 0.62409844E+03</pdfrwt>
<pdfrwt beam="2">  1       -2 0.57206400E-01 0.62409844E+03</pdfrwt>
<totfact> 0.20840844E+01</totfact>
</mgrwt>
</event>
<event>
12    3  0.1092576E-007  0.2029000E+04  0.7818608E-02  0.8593181E-01
         -2   -1    0    0    0  501 -0.00000000000E+00  0.00000000000E+00  0.36183088092E+04  0.36183088092E+04  0.00000000000E+00 0.  1.
          1   -1    0    0  501    0  0.00000000000E+00 -0.00000000000E+00 -0.11428034005E+04  0.11428034005E+04  0.00000000000E+00 0. -1.
        -24    2    1    2    0    0  0.38379114479E+03  0.19508089926E+04  0.12186778926E+04  0.23335993260E+04  0.86940440267E+02 0.  0.
    5000000    2    1    2    0    0 -0.38379114479E+03 -0.19508089926E+04  0.12568275162E+04  0.24275128836E+04  0.60020998519E+03 0.  0.
        -24    2    4    4    0    0  0.94969602748E+02 -0.99959077611E+03  0.56779797959E+03  0.11566298340E+04  0.84835618382E+02 0.  0.
         24    2    4    4    0    0 -0.47876074754E+03 -0.95121821651E+03  0.68902953658E+03  0.12708830496E+04  0.79712450537E+02 0.  0.
         11    1    5    5    0    0  0.37931291898E+02 -0.35920455497E+03  0.15826302137E+03  0.39435248085E+03  0.00000000000E+00 0. -1.
        -12    1    5    5    0    0  0.57038310850E+02 -0.64038622114E+03  0.40953495822E+03  0.76227735315E+03  0.00000000000E+00 0.  1.
         15    1    3    3    0    0  0.20632484846E+03  0.11310363873E+04  0.75122129422E+03  0.13733717061E+04  0.17770000000E+01 0. -1.
        -16    1    3    3    0    0  0.17746629634E+03  0.81977260528E+03  0.46745659837E+03  0.96022761993E+03  0.00000000000E+00 0.  1.
          2    1    6    6  502    0 -0.29751815143E+03 -0.55527164355E+03  0.44962927128E+03  0.77395744725E+03  0.00000000000E+00 0. -1.
         -1    1    6    6    0  502 -0.18124259611E+03 -0.39594657295E+03  0.23940026530E+03  0.49692560238E+03  0.00000000000E+00 0.  1.
<mgrwt>
<rscale>  0 0.20289998E+04</rscale>
<asrwt>0</asrwt>
<pdfrwt beam="1">  1        1 0.17581591E+00 0.20289998E+04</pdfrwt>
<pdfrwt beam="2">  1       -2 0.55666289E+00 0.20289998E+04</pdfrwt>
<totfact> 0.71520581E-03</totfact>
</mgrwt>
</event>
<event>
12    3  0.1092576E-007  0.6333241E+03  0.7818608E-02  0.9838583E-01
          1   -1    0    0  501    0  0.00000000000E+00  0.00000000000E+00  0.18934417237E+04  0.18934417237E+04  0.00000000000E+00 0. -1.
         -2   -1    0    0    0  501 -0.00000000000E+00 -0.00000000000E+00 -0.21842088109E+03  0.21842088109E+03  0.00000000000E+00 0.  1.
        -24    2    1    2    0    0 -0.20402363380E+03 -0.45335206286E+03  0.58296431134E+03  0.77032471875E+03  0.79994049624E+02 0.  0.
    5000000    2    1    2    0    0  0.20402363380E+03  0.45335206286E+03  0.10920565312E+04  0.13415378860E+04  0.59998557992E+03 0.  0.
        -24    2    4    4    0    0  0.34749235472E+03  0.77566401806E+02  0.58509662463E+03  0.68950651046E+03  0.79458696949E+02 0.  0.
         24    2    4    4    0    0 -0.14346872093E+03  0.37578566106E+03  0.50695990662E+03  0.65203137556E+03  0.79614262881E+02 0.  0.
         13    1    5    5    0    0  0.94515568158E+02  0.12474987484E+01  0.21400886997E+03  0.23395415214E+03  0.00000000000E+00 0. -1.
        -14    1    5    5    0    0  0.25297678657E+03  0.76318903058E+02  0.37108775466E+03  0.45555235831E+03  0.00000000000E+00 0.  1.
         15    1    3    3    0    0 -0.81929990473E+02 -0.27820719743E+03  0.33296623007E+03  0.44156702339E+03  0.17770000000E+01 0. -1.
        -16    1    3    3    0    0 -0.12209364333E+03 -0.17514486543E+03  0.24999808126E+03  0.32875769537E+03  0.00000000000E+00 0.  1.
          2    1    6    6  502    0 -0.13443148328E+03  0.30914328032E+03  0.37725320013E+03  0.50592624805E+03  0.00000000000E+00 0. -1.
         -1    1    6    6    0  502 -0.90372376456E+01  0.66642380743E+02  0.12970670649E+03  0.14610512751E+03  0.00000000000E+00 0.  1.
<mgrwt>
<rscale>  0 0.63332413E+03</rscale>
<asrwt>0</asrwt>
<pdfrwt beam="1">  1        1 0.29129872E+00 0.63332413E+03</pdfrwt>
<pdfrwt beam="2">  1       -2 0.33603214E-01 0.63332413E+03</pdfrwt>
<totfact> 0.26901067E+01</totfact>
</mgrwt>
</event>
<event>
12    3  0.1092576E-007  0.9191081E+03  0.7818608E-02  0.9402006E-01
          1   -1    0    0  501    0  0.00000000000E+00  0.00000000000E+00  0.79549852153E+03  0.79549852153E+03  0.00000000000E+00 0. -1.
         -2   -1    0    0    0  501 -0.00000000000E+00 -0.00000000000E+00 -0.11683501685E+04  0.11683501685E+04  0.00000000000E+00 0.  1.
        -24    2    1    2    0    0 -0.52586862216E+03  0.68215488009E+03 -0.53780299087E+02  0.86668173368E+03  0.79823672736E+02 0.  0.
    5000000    2    1    2    0    0  0.52586862216E+03 -0.68215488009E+03 -0.31907134787E+03  0.10971669563E+04  0.60007975873E+03 0.  0.
        -24    2    4    4    0    0  0.12078213156E+03  0.37950342998E+02 -0.21285633784E+03  0.26031688458E+03  0.80177977030E+02 0.  0.
         24    2    4    4    0    0  0.40508649060E+03 -0.72010522308E+03 -0.10621501003E+03  0.83685007176E+03  0.79936331322E+02 0.  0.
         13    1    5    5    0    0  0.82577742424E+02  0.60915867110E+02 -0.12437895989E+03  0.16124500635E+03  0.00000000000E+00 0. -1.
        -14    1    5    5    0    0  0.38204389137E+02 -0.22965524112E+02 -0.88477377946E+02  0.99071878226E+02  0.00000000000E+00 0.  1.
         15    1    3    3    0    0 -0.35577271060E+03  0.51659369482E+03 -0.50639644448E+02  0.62929388877E+03  0.17770000000E+01 0. -1.
        -16    1    3    3    0    0 -0.17009591156E+03  0.16556118527E+03 -0.31406546390E+01  0.23738784490E+03  0.00000000000E+00 0.  1.
          2    1    6    6  502    0  0.95416842961E+02 -0.18493753218E+03  0.72199619137E+01  0.20822678161E+03  0.00000000000E+00 0. -1.
         -1    1    6    6    0  502  0.30966964763E+03 -0.53516769091E+03 -0.11343497195E+03  0.62862329015E+03  0.00000000000E+00 0.  1.
<mgrwt>
<rscale>  0 0.91910813E+03</rscale>
<asrwt>0</asrwt>
<pdfrwt beam="1">  1        1 0.12238439E+00 0.91910813E+03</pdfrwt>
<pdfrwt beam="2">  1       -2 0.17974618E+00 0.91910813E+03</pdfrwt>
<totfact> 0.35764215E+00</totfact>
</mgrwt>
</event>
<event>
12    3  0.1092576E-007  0.9132072E+03  0.7818608E-02  0.9409221E-01
         -4   -1    0    0    0  501 -0.00000000000E+00  0.00000000000E+00  0.11769588866E+04  0.11769588866E+04  0.00000000000E+00 0.  1.
          3   -1    0    0  501    0  0.00000000000E+00 -0.00000000000E+00 -0.79968848608E+03  0.79968848608E+03  0.00000000000E+00 0. -1.
        -24    2    1    2    0    0 -0.70141107859E+03 -0.50126593240E+03  0.16092131337E+02  0.86593459864E+03  0.79616180934E+02 0.  0.
    5000000    2    1    2    0    0  0.70141107859E+03  0.50126593240E+03  0.36117826921E+03  0.11107127741E+04  0.59999007338E+03 0.  0.
        -24    2    4    4    0    0  0.73689293574E+03  0.37412019757E+03  0.14137297996E+03  0.84226451044E+03  0.80287390712E+02 0.  0.
         24    2    4    4    0    0 -0.35481857146E+02  0.12714573484E+03  0.21980528925E+03  0.26844826363E+03  0.79530528658E+02 0.  0.
         13    1    5    5    0    0  0.18406811721E+03  0.11317748407E+03  0.61208482523E+01  0.21616586099E+03  0.00000000000E+00 0. -1.
        -14    1    5    5    0    0  0.55282481853E+03  0.26094271350E+03  0.13525213170E+03  0.62609864945E+03  0.00000000000E+00 0.  1.
         15    1    3    3    0    0 -0.34900809735E+03 -0.21609007718E+03  0.36702184739E+02  0.41213078212E+03  0.17770000000E+01 0. -1.
        -16    1    3    3    0    0 -0.35240298124E+03 -0.28517585522E+03 -0.20610053402E+02  0.45380381652E+03  0.00000000000E+00 0.  1.
          4    1    6    6  502    0 -0.29586765006E+01  0.64842385220E+02  0.42145463754E+02  0.77392046120E+02  0.00000000000E+00 0. -1.
         -3    1    6    6    0  502 -0.32523180646E+02  0.62303349617E+02  0.17765982550E+03  0.19105621751E+03  0.00000000000E+00 0.  1.
<mgrwt>
<rscale>  0 0.91320724E+03</rscale>
<asrwt>0</asrwt>
<pdfrwt beam="1">  1        3 0.12302900E+00 0.91320724E+03</pdfrwt>
<pdfrwt beam="2">  1       -4 0.18107060E+00 0.91320724E+03</pdfrwt>
<totfact> 0.20976660E-01</totfact>
</mgrwt>
</event>
<event>
12    3  0.1092576E-007  0.6290258E+03  0.7818608E-02  0.9846952E-01
         -2   -1    0    0    0  501 -0.00000000000E+00  0.00000000000E+00  0.54507576687E+03  0.54507576687E+03  0.00000000000E+00 0.  1.
          1   -1    0    0  501    0  0.00000000000E+00 -0.00000000000E+00 -0.11652116984E+04  0.11652116984E+04  0.00000000000E+00 0. -1.
        -24    2    1    2    0    0 -0.51567239901E+03  0.19871401902E+03  0.16073655662E+03  0.58105438630E+03  0.79891643784E+02 0.  0.
    5000000    2    1    2    0    0  0.51567239901E+03 -0.19871401902E+03 -0.78087248811E+03  0.11292330789E+04  0.60000018285E+03 0.  0.
        -24    2    4    4    0    0  0.59212843695E+03 -0.20722903328E+03 -0.44180393975E+03  0.77156402146E+03  0.80996049055E+02 0.  0.
         24    2    4    4    0    0 -0.76456037942E+02  0.85150142598E+01 -0.33906854836E+03  0.35766905747E+03  0.83914498027E+02 0.  0.
         11    1    5    5    0    0  0.81133145462E+02 -0.40606763440E+02 -0.33991127581E+02  0.96885980842E+02  0.00000000000E+00 0. -1.
        -12    1    5    5    0    0  0.51099529149E+03 -0.16662226984E+03 -0.40781281217E+03  0.67467804062E+03  0.00000000000E+00 0.  1.
         15    1    3    3    0    0 -0.37013022571E+03  0.14897842318E+03  0.15212359289E+03  0.42700784513E+03  0.17770000000E+01 0. -1.
        -16    1    3    3    0    0 -0.14554217330E+03  0.49735595836E+02  0.86129637280E+01  0.15404654117E+03  0.00000000000E+00 0.  1.
          2    1    6    6  502    0 -0.61910045882E+02  0.51628163256E+01 -0.97310468764E+02  0.11545057724E+03  0.00000000000E+00 0. -1.
         -1    1    6    6    0  502 -0.14545992060E+02  0.33521979342E+01 -0.24175807960E+03  0.24221848024E+03  0.00000000000E+00 0.  1.
<mgrwt>
<rscale>  0 0.62902577E+03</rscale>
<asrwt>0</asrwt>
<pdfrwt beam="1">  1        1 0.17926334E+00 0.62902577E+03</pdfrwt>
<pdfrwt beam="2">  1       -2 0.83857811E-01 0.62902577E+03</pdfrwt>
<totfact> 0.12879162E+01</totfact>
</mgrwt>
</event>
<event>
12    3  0.1092576E-007  0.1548463E+04  0.7818608E-02  0.8852850E-01
         -2   -1    0    0    0  501 -0.00000000000E+00  0.00000000000E+00  0.78395709640E+03  0.78395709640E+03  0.00000000000E+00 0.  1.
          1   -1    0    0  501    0  0.00000000000E+00 -0.00000000000E+00 -0.33834293634E+04  0.33834293634E+04  0.00000000000E+00 0. -1.
        -24    2    1    2    0    0 -0.12767064064E+04  0.84479619175E+03 -0.17156135493E+04  0.23006195813E+04  0.76555559256E+02 0.  0.
    5000000    2    1    2    0    0  0.12767064064E+04 -0.84479619175E+03 -0.88385871774E+03  0.18667668785E+04  0.59996040875E+03 0.  0.
        -24    2    4    4    0    0  0.11622897982E+04 -0.65077288955E+03 -0.92360341503E+03  0.16228659260E+04  0.78915250377E+02 0.  0.
         24    2    4    4    0    0  0.11441660823E+03 -0.19402330219E+03  0.39744697292E+02  0.24390095254E+03  0.84686667502E+02 0.  0.
         13    1    5    5    0    0  0.79506674193E+03 -0.48191635241E+03 -0.62302551849E+03  0.11191672313E+04  0.00000000000E+00 0. -1.
        -14    1    5    5    0    0  0.36722305625E+03 -0.16885653714E+03 -0.30057789654E+03  0.50369869472E+03  0.00000000000E+00 0.  1.
         15    1    3    3    0    0 -0.93477669604E+03  0.65723299199E+03 -0.12665359369E+04  0.17058367784E+04  0.17770000000E+01 0. -1.
        -16    1    3    3    0    0 -0.34192971038E+03  0.18756319975E+03 -0.44907761241E+03  0.59478280297E+03  0.00000000000E+00 0.  1.
          4    1    6    6  502    0  0.68590992653E+02 -0.69527426863E+02 -0.17835415932E+02  0.99281868540E+02  0.00000000000E+00 0. -1.
         -3    1    6    6    0  502  0.45825615580E+02 -0.12449587533E+03  0.57580113224E+02  0.14461908400E+03  0.00000000000E+00 0.  1.
<mgrwt>
<rscale>  0 0.15484634E+04</rscale>
<asrwt>0</asrwt>
<pdfrwt beam="1">  1        1 0.52052761E+00 0.15484634E+04</pdfrwt>
<pdfrwt beam="2">  1       -2 0.12060878E+00 0.15484634E+04</pdfrwt>
<totfact> 0.13481626E-01</totfact>
</mgrwt>
</event>
<event>
12    3  0.1092576E-007  0.5840143E+03  0.7818608E-02  0.9939138E-01
          3   -1    0    0  501    0  0.00000000000E+00  0.00000000000E+00  0.11331362953E+04  0.11331362953E+04  0.00000000000E+00 0. -1.
         -4   -1    0    0    0  501 -0.00000000000E+00 -0.00000000000E+00 -0.33367938046E+03  0.33367938046E+03  0.00000000000E+00 0.  1.
        -24    2    1    2    0    0  0.24256680051E+03 -0.39504242922E+03  0.30228781367E+03  0.56013224025E+03  0.86446692727E+02 0.  0.
    5000000    2    1    2    0    0 -0.24256680051E+03  0.39504242922E+03  0.49716910121E+03  0.90668343555E+03  0.60000046960E+03 0.  0.
        -24    2    4    4    0    0 -0.21216125197E+03  0.52289732569E+03  0.49008137430E+03  0.75176114427E+03  0.80814940087E+02 0.  0.
         24    2    4    4    0    0 -0.30405548544E+02 -0.12785489648E+03  0.70877269063E+01  0.15492229128E+03  0.81727036703E+02 0.  0.
         13    1    5    5    0    0 -0.39702189319E+02  0.16616804424E+03  0.11339594704E+03  0.20505297747E+03  0.00000000000E+00 0. -1.
        -14    1    5    5    0    0 -0.17245906265E+03  0.35672928146E+03  0.37668542726E+03  0.54670816681E+03  0.00000000000E+00 0.  1.
         15    1    3    3    0    0  0.18729246514E+03 -0.23791548741E+03  0.22047264961E+03  0.37455786416E+03  0.17770000000E+01 0. -1.
        -16    1    3    3    0    0  0.55274335372E+02 -0.15712694181E+03  0.81815164065E+02  0.18557437610E+03  0.00000000000E+00 0.  1.
          4    1    6    6  502    0 -0.92292739056E+01 -0.26872828349E+02 -0.33606874183E+02  0.44008526363E+02  0.00000000000E+00 0. -1.
         -3    1    6    6    0  502 -0.21176274639E+02 -0.10098206813E+03  0.40694601089E+02  0.11091376492E+03  0.00000000000E+00 0.  1.
<mgrwt>
<rscale>  0 0.58401428E+03</rscale>
<asrwt>0</asrwt>
<pdfrwt beam="1">  1        3 0.17432866E+00 0.58401428E+03</pdfrwt>
<pdfrwt beam="2">  1       -4 0.51335290E-01 0.58401428E+03</pdfrwt>
<totfact> 0.18033104E+00</totfact>
</mgrwt>
</event>
<event>
12    3  0.1092576E-007  0.1622430E+04  0.7818608E-02  0.8806886E-01
          1   -1    0    0  501    0  0.00000000000E+00  0.00000000000E+00  0.25753085950E+04  0.25753085950E+04  0.00000000000E+00 0. -1.
         -2   -1    0    0    0  501 -0.00000000000E+00 -0.00000000000E+00 -0.12070387621E+04  0.12070387621E+04  0.00000000000E+00 0.  1.
        -24    2    1    2    0    0 -0.15479229530E+04 -0.29939631273E+03  0.13777524339E+04  0.20953703205E+04  0.81678579176E+02 0.  0.
    5000000    2    1    2    0    0  0.15479229530E+04  0.29939631273E+03 -0.94826010259E+01  0.16869770366E+04  0.60008164579E+03 0.  0.
        -24    2    4    4    0    0  0.10351549751E+04 -0.67443793799E+02  0.87583996734E+02  0.10441118356E+04  0.80025502216E+02 0.  0.
         24    2    4    4    0    0  0.51276797794E+03  0.36684010652E+03 -0.97066597760E+02  0.64286520096E+03  0.79693658787E+02 0.  0.
         11    1    5    5    0    0  0.10045430425E+04 -0.61958384965E+02  0.71217159151E+02  0.10089685076E+04  0.00000000000E+00 0. -1.
        -12    1    5    5    0    0  0.30611932625E+02 -0.54854088336E+01  0.16366837584E+02  0.35143327981E+02  0.00000000000E+00 0.  1.
         15    1    3    3    0    0 -0.37893149285E+03 -0.62799576946E+02  0.38093149827E+03  0.54096656758E+03  0.17770000000E+01 0. -1.
        -16    1    3    3    0    0 -0.11689914602E+04 -0.23659673578E+03  0.99682093566E+03  0.15544037529E+04  0.00000000000E+00 0.  1.
          4    1    6    6  502    0  0.64668416773E+02  0.43725169469E+02  0.14150342080E+02  0.79335532733E+02  0.00000000000E+00 0. -1.
         -3    1    6    6    0  502  0.44809956117E+03  0.32311493705E+03 -0.11121693984E+03  0.56352966823E+03  0.00000000000E+00 0.  1.
<mgrwt>
<rscale>  0 0.16224295E+04</rscale>
<asrwt>0</asrwt>
<pdfrwt beam="1">  1        1 0.39620132E+00 0.16224295E+04</pdfrwt>
<pdfrwt beam="2">  1       -2 0.18569827E+00 0.16224295E+04</pdfrwt>
<totfact> 0.16237141E-01</totfact>
</mgrwt>
</event>
<event>
12    3  0.1092576E-007  0.6758301E+03  0.7818608E-02  0.9759483E-01
         -2   -1    0    0    0  501 -0.00000000000E+00  0.00000000000E+00  0.40325631308E+03  0.40325631308E+03  0.00000000000E+00 0.  1.
          1   -1    0    0  501    0  0.00000000000E+00 -0.00000000000E+00 -0.12014112528E+04  0.12014112528E+04  0.00000000000E+00 0. -1.
        -24    2    1    2    0    0  0.11076980660E+03  0.54241375217E+03 -0.20409205590E+03  0.59521328286E+03  0.78375099468E+02 0.  0.
    5000000    2    1    2    0    0 -0.11076980660E+03 -0.54241375217E+03 -0.59406288384E+03  0.10094542830E+04  0.59967041865E+03 0.  0.
        -24    2    4    4    0    0  0.54007616766E+02 -0.60338760483E+03 -0.52335388717E+03  0.80387257668E+03  0.72927388457E+02 0.  0.
         24    2    4    4    0    0 -0.16477742337E+03  0.60973852652E+02 -0.70708996672E+02  0.20558170637E+03  0.79966654454E+02 0.  0.
         13    1    5    5    0    0  0.56441381973E+02 -0.51808997958E+03 -0.47832700833E+03  0.70738927292E+03  0.00000000000E+00 0. -1.
        -14    1    5    5    0    0 -0.24337652065E+01 -0.85297625250E+02 -0.45026878838E+02  0.96483303759E+02  0.00000000000E+00 0.  1.
         15    1    3    3    0    0  0.10999770073E+03  0.36654179050E+03 -0.12737987003E+03  0.40333753528E+03  0.17770000000E+01 0. -1.
        -16    1    3    3    0    0  0.77210587517E+00  0.17587196167E+03 -0.76712185871E+02  0.19187574759E+03  0.00000000000E+00 0.  1.
          4    1    6    6  502    0 -0.15978095974E+03  0.71425916131E+02 -0.78295601050E+02  0.19173371570E+03  0.00000000000E+00 0. -1.
         -3    1    6    6    0  502 -0.49964636282E+01 -0.10452063479E+02  0.75866043775E+01  0.13847990675E+02  0.00000000000E+00 0.  1.
<mgrwt>
<rscale>  0 0.67583011E+03</rscale>
<asrwt>0</asrwt>
<pdfrwt beam="1">  1        1 0.18483250E+00 0.67583011E+03</pdfrwt>
<pdfrwt beam="2">  1       -2 0.62039432E-01 0.67583011E+03</pdfrwt>
<totfact> 0.23338597E+01</totfact>
</mgrwt>
</event>
<event>
12    3  0.1092576E-007  0.4347692E+03  0.7818608E-02  0.1032364E+00
         -4   -1    0    0    0  501 -0.00000000000E+00  0.00000000000E+00  0.16892624919E+04  0.16892624919E+04  0.00000000000E+00 0.  1.
          3   -1    0    0  501    0  0.00000000000E+00 -0.00000000000E+00 -0.12998186009E+03  0.12998186009E+03  0.00000000000E+00 0. -1.
        -24    2    1    2    0    0 -0.15570086917E+03  0.17873875290E+03  0.22033118668E+03  0.33287339921E+03  0.77900998879E+02 0.  0.
    5000000    2    1    2    0    0  0.15570086917E+03 -0.17873875290E+03  0.13389494452E+04  0.14863709528E+04  0.60026884831E+03 0.  0.
        -24    2    4    4    0    0 -0.20900190185E+03  0.67053869066E+01  0.54702123644E+03  0.59138363896E+03  0.82314142886E+02 0.  0.
         24    2    4    4    0    0  0.36470277102E+03 -0.18544413980E+03  0.79192820872E+03  0.89498731386E+03  0.80339056723E+02 0.  0.
         11    1    5    5    0    0 -0.17920838705E+03  0.33106040384E+02  0.48000680128E+03  0.51343761565E+03  0.00000000000E+00 0. -1.
        -12    1    5    5    0    0 -0.29793514801E+02 -0.26400653477E+02  0.67014435167E+02  0.77946023305E+02  0.00000000000E+00 0.  1.
         15    1    3    3    0    0 -0.13184586414E+03  0.16177012660E+03  0.15095086320E+03  0.25756984796E+03  0.17770000000E+01 0. -1.
        -16    1    3    3    0    0 -0.23855005035E+02  0.16968626300E+02  0.69380323478E+02  0.75303551242E+02  0.00000000000E+00 0.  1.
          2    1    6    6  502    0  0.11116368915E+03 -0.47594662246E+02  0.16252074262E+03  0.20257247948E+03  0.00000000000E+00 0. -1.
         -1    1    6    6    0  502  0.25353908187E+03 -0.13784947756E+03  0.62940746610E+03  0.69241483439E+03  0.00000000000E+00 0.  1.
<mgrwt>
<rscale>  0 0.43476915E+03</rscale>
<asrwt>0</asrwt>
<pdfrwt beam="1">  1        3 0.19997210E-01 0.43476915E+03</pdfrwt>
<pdfrwt beam="2">  1       -4 0.25988652E+00 0.43476915E+03</pdfrwt>
<totfact> 0.29551220E+00</totfact>
</mgrwt>
</event>
<event>
12    3  0.1092576E-007  0.5262361E+03  0.7818608E-02  0.1007149E+00
         -2   -1    0    0    0  501 -0.00000000000E+00  0.00000000000E+00  0.23093405583E+03  0.23093405583E+03  0.00000000000E+00 0.  1.
          1   -1    0    0  501    0  0.00000000000E+00 -0.00000000000E+00 -0.24472237025E+04  0.24472237025E+04  0.00000000000E+00 0. -1.
        -24    2    1    2    0    0  0.52027113256E+03  0.11929390074E+02 -0.15645799615E+04  0.16507709987E+04  0.79435966008E+02 0.  0.
    5000000    2    1    2    0    0 -0.52027113256E+03 -0.11929390074E+02 -0.65170968519E+03  0.10273867596E+04  0.59997806484E+03 0.  0.
        -24    2    4    4    0    0 -0.22601935148E+03 -0.12629070013E+02 -0.67863711426E+03  0.72127419179E+03  0.91890621061E+02 0.  0.
         24    2    4    4    0    0 -0.29425178108E+03  0.69967993852E+00  0.26927429068E+02  0.30611256780E+03  0.79970103847E+02 0.  0.
         13    1    5    5    0    0 -0.67340720588E+02  0.22269616193E+02 -0.31667178308E+03  0.32451768311E+03  0.00000000000E+00 0. -1.
        -14    1    5    5    0    0 -0.15867863089E+03 -0.34898686206E+02 -0.36196533118E+03  0.39675650868E+03  0.00000000000E+00 0.  1.
         15    1    3    3    0    0  0.16273600923E+03 -0.64973138571E+01 -0.60640179657E+03  0.62789451375E+03  0.17770000000E+01 0. -1.
        -16    1    3    3    0    0  0.35753512333E+03  0.18426703931E+02 -0.95817816490E+03  0.10228764850E+04  0.00000000000E+00 0.  1.
          2    1    6    6  502    0 -0.40708941788E+02 -0.16807313244E+02  0.27580367450E+02  0.51965184390E+02  0.00000000000E+00 0. -1.
         -1    1    6    6    0  502 -0.25354283929E+03  0.17506993183E+02 -0.65293838268E+00  0.25414738341E+03  0.00000000000E+00 0.  1.
<mgrwt>
<rscale>  0 0.52623605E+03</rscale>
<asrwt>0</asrwt>
<pdfrwt beam="1">  1        1 0.37649597E+00 0.52623605E+03</pdfrwt>
<pdfrwt beam="2">  1       -2 0.35528314E-01 0.52623605E+03</pdfrwt>
<totfact> 0.10541765E+01</totfact>
</mgrwt>
</event>
<event>
12    3  0.1092576E-007  0.9366507E+03  0.7818608E-02  0.9380891E-01
          1   -1    0    0  501    0  0.00000000000E+00  0.00000000000E+00  0.23783740075E+04  0.23783740075E+04  0.00000000000E+00 0. -1.
         -2   -1    0    0    0  501 -0.00000000000E+00 -0.00000000000E+00 -0.51182517586E+03  0.51182517586E+03  0.00000000000E+00 0.  1.
        -24    2    1    2    0    0  0.92046065013E+03 -0.59999248460E+02  0.14353970381E+04  0.17081979143E+04  0.82022796642E+02 0.  0.
    5000000    2    1    2    0    0 -0.92046065013E+03  0.59999248460E+02  0.43115179355E+03  0.11820012691E+04  0.60032275713E+03 0.  0.
        -24    2    4    4    0    0 -0.34605309063E+03  0.10433788962E+03 -0.11115097557E+03  0.38674298059E+03  0.81095356949E+02 0.  0.
         24    2    4    4    0    0 -0.57440755951E+03 -0.44338641160E+02  0.54230276912E+03  0.79525828848E+03  0.80209054872E+02 0.  0.
         13    1    5    5    0    0 -0.16659388399E+03  0.92560384043E+02 -0.56893950637E+02  0.19889159986E+03  0.00000000000E+00 0. -1.
        -14    1    5    5    0    0 -0.17945920664E+03  0.11777505577E+02 -0.54257024934E+02  0.18785138072E+03  0.00000000000E+00 0.  1.
         15    1    3    3    0    0  0.26793371537E+03  0.10439284393E+02  0.37191282095E+03  0.45849728309E+03  0.17770000000E+01 0. -1.
        -16    1    3    3    0    0  0.65252693477E+03 -0.70438532853E+02  0.10634842171E+04  0.12497006312E+04  0.00000000000E+00 0.  1.
          4    1    6    6  502    0 -0.37706020114E+03 -0.45024525444E+01  0.39268607990E+03  0.54442357104E+03  0.00000000000E+00 0. -1.
         -3    1    6    6    0  502 -0.19734735837E+03 -0.39836188616E+02  0.14961668922E+03  0.25083471744E+03  0.00000000000E+00 0.  1.
<mgrwt>
<rscale>  0 0.93665069E+03</rscale>
<asrwt>0</asrwt>
<pdfrwt beam="1">  1        1 0.36590369E+00 0.93665069E+03</pdfrwt>
<pdfrwt beam="2">  1       -2 0.78742336E-01 0.93665069E+03</pdfrwt>
<totfact> 0.21131516E+00</totfact>
</mgrwt>
</event>
<event>
12    3  0.1092576E-007  0.7253075E+03  0.7818608E-02  0.9674906E-01
         -2   -1    0    0    0  501 -0.00000000000E+00  0.00000000000E+00  0.44806485830E+03  0.44806485830E+03  0.00000000000E+00 0.  1.
          1   -1    0    0  501    0  0.00000000000E+00 -0.00000000000E+00 -0.14394024032E+04  0.14394024032E+04  0.00000000000E+00 0. -1.
        -24    2    1    2    0    0 -0.64997686741E+03  0.24377202850E+02 -0.16324315683E+03  0.67535940043E+03  0.79986344533E+02 0.  0.
    5000000    2    1    2    0    0  0.64997686741E+03 -0.24377202850E+02 -0.82809438809E+03  0.12121078611E+04  0.60033405298E+03 0.  0.
        -24    2    4    4    0    0  0.58487570785E+03  0.15066821188E+03 -0.80197522375E+03  0.10071396854E+04  0.79909841495E+02 0.  0.
         24    2    4    4    0    0  0.65101159558E+02 -0.17504541473E+03 -0.26119164347E+02  0.20496817567E+03  0.80316150910E+02 0.  0.
         13    1    5    5    0    0  0.37559260371E+03  0.13574017353E+03 -0.53191130844E+03  0.66515023771E+03  0.00000000000E+00 0. -1.
        -14    1    5    5    0    0  0.20928310414E+03  0.14928038350E+02 -0.27006391530E+03  0.34198944772E+03  0.00000000000E+00 0.  1.
         15    1    3    3    0    0 -0.15189908914E+03 -0.25540230462E+02 -0.51931161862E+02  0.16255965045E+03  0.17770000000E+01 0. -1.
        -16    1    3    3    0    0 -0.49807777827E+03  0.49917433312E+02 -0.11131199497E+03  0.51279974998E+03  0.00000000000E+00 0.  1.
          2    1    6    6  502    0  0.38077778565E+02 -0.95747202798E+02  0.26041486931E+02  0.10628077486E+03  0.00000000000E+00 0. -1.
         -1    1    6    6    0  502  0.27023380993E+02 -0.79298211933E+02 -0.52160651278E+02  0.98687400806E+02  0.00000000000E+00 0.  1.
<mgrwt>
<rscale>  0 0.72530753E+03</rscale>
<asrwt>0</asrwt>
<pdfrwt beam="1">  1        1 0.22144652E+00 0.72530753E+03</pdfrwt>
<pdfrwt beam="2">  1       -2 0.68933055E-01 0.72530753E+03</pdfrwt>
<totfact> 0.12574761E+01</totfact>
</mgrwt>
</event>
<event>
12    3  0.1092576E-007  0.7932122E+03  0.7818608E-02  0.9569895E-01
         -2   -1    0    0    0  501 -0.00000000000E+00  0.00000000000E+00  0.63972828835E+03  0.63972828835E+03  0.00000000000E+00 0.  1.
          1   -1    0    0  501    0  0.00000000000E+00 -0.00000000000E+00 -0.10559656030E+04  0.10559656030E+04  0.00000000000E+00 0. -1.
        -24    2    1    2    0    0  0.62924960304E+03 -0.32440574606E+03 -0.23761604289E+03  0.75093244789E+03  0.79019025922E+02 0.  0.
    5000000    2    1    2    0    0 -0.62924960304E+03  0.32440574606E+03 -0.17862127181E+03  0.94476144351E+03  0.59956190289E+03 0.  0.
        -24    2    4    4    0    0 -0.63878277461E+03  0.10845916381E+03  0.46552568359E+00  0.65330022069E+03  0.83630964870E+02 0.  0.
         24    2    4    4    0    0  0.95331715744E+01  0.21594658225E+03 -0.17908679749E+03  0.29146122282E+03  0.78445877039E+02 0.  0.
         11    1    5    5    0    0 -0.12950858610E+03 -0.88318227986E+01  0.13669431338E+02  0.13052711719E+03  0.00000000000E+00 0. -1.
        -12    1    5    5    0    0 -0.50927418851E+03  0.11729098661E+03 -0.13203905654E+02  0.52277310350E+03  0.00000000000E+00 0.  1.
         15    1    3    3    0    0  0.49313646431E+03 -0.22405267857E+03 -0.15945078655E+03  0.56463340874E+03  0.17770000000E+01 0. -1.
        -16    1    3    3    0    0  0.13611313873E+03 -0.10035306750E+03 -0.78165256340E+02  0.18629903915E+03  0.00000000000E+00 0.  1.
          2    1    6    6  502    0  0.26897393841E+02  0.53537394714E+02 -0.81640595974E+02  0.10126652625E+03  0.00000000000E+00 0. -1.
         -1    1    6    6    0  502 -0.17364222266E+02  0.16240918754E+03 -0.97446201516E+02  0.19019469656E+03  0.00000000000E+00 0.  1.
<mgrwt>
<rscale>  0 0.79321216E+03</rscale>
<asrwt>0</asrwt>
<pdfrwt beam="1">  1        1 0.16245625E+00 0.79321216E+03</pdfrwt>
<pdfrwt beam="2">  1       -2 0.98419737E-01 0.79321216E+03</pdfrwt>
<totfact> 0.10501995E+01</totfact>
</mgrwt>
</event>
<event>
12    3  0.1092576E-007  0.4803997E+03  0.7818608E-02  0.1019025E+00
          1   -1    0    0  501    0  0.00000000000E+00  0.00000000000E+00  0.21108089147E+04  0.21108089147E+04  0.00000000000E+00 0. -1.
         -2   -1    0    0    0  501 -0.00000000000E+00 -0.00000000000E+00 -0.12547862502E+03  0.12547862502E+03  0.00000000000E+00 0.  1.
        -24    2    1    2    0    0  0.27348905195E+03  0.17849559465E+03  0.51223721569E+03  0.61269061132E+03  0.79661039522E+02 0.  0.
    5000000    2    1    2    0    0 -0.27348905195E+03 -0.17849559465E+03  0.14730930740E+04  0.16235969284E+04  0.59950549827E+03 0.  0.
        -24    2    4    4    0    0  0.31180455375E+01  0.17790619756E+03  0.67749274397E+03  0.70531033275E+03  0.82497939470E+02 0.  0.
         24    2    4    4    0    0 -0.27660709749E+03 -0.35640179221E+03  0.79560033005E+03  0.91828659569E+03  0.82077175659E+02 0.  0.
         11    1    5    5    0    0 -0.33174943207E+01  0.68872289156E+02  0.13130293722E+03  0.14830663945E+03  0.00000000000E+00 0. -1.
        -12    1    5    5    0    0  0.64355398581E+01  0.10903390840E+03  0.54618980675E+03  0.55700369330E+03  0.00000000000E+00 0.  1.
         15    1    3    3    0    0  0.75099945785E+02  0.21763854608E+02  0.79594436127E+02  0.11158897444E+03  0.17770000000E+01 0. -1.
        -16    1    3    3    0    0  0.19838910617E+03  0.15673174004E+03  0.43264277956E+03  0.50110163689E+03  0.00000000000E+00 0.  1.
          2    1    6    6  502    0 -0.10652440842E+03 -0.12173702845E+03  0.21182549170E+03  0.26652840866E+03  0.00000000000E+00 0. -1.
         -3    1    6    6    0  502 -0.17008268907E+03 -0.23466476376E+03  0.58377483835E+03  0.65175818703E+03  0.00000000000E+00 0.  1.
<mgrwt>
<rscale>  0 0.48039970E+03</rscale>
<asrwt>0</asrwt>
<pdfrwt beam="1">  1        1 0.32473981E+00 0.48039970E+03</pdfrwt>
<pdfrwt beam="2">  1       -2 0.19304405E-01 0.48039970E+03</pdfrwt>
<totfact> 0.53747543E+01</totfact>
</mgrwt>
</event>
<event>
12    3  0.1092576E-007  0.7196619E+03  0.7818608E-02  0.9684186E-01
          1   -1    0    0  501    0  0.00000000000E+00  0.00000000000E+00  0.28728097878E+04  0.28728097878E+04  0.00000000000E+00 0. -1.
         -2   -1    0    0    0  501 -0.00000000000E+00 -0.00000000000E+00 -0.25368531943E+03  0.25368531943E+03  0.00000000000E+00 0.  1.
        -24    2    1    2    0    0 -0.64028287734E+03 -0.10692251393E+03  0.18231710944E+04  0.19367955488E+04  0.76351630892E+02 0.  0.
    5000000    2    1    2    0    0  0.64028287734E+03  0.10692251393E+03  0.79595337403E+03  0.11896995585E+04  0.60037378254E+03 0.  0.
        -24    2    4    4    0    0  0.27804576349E+03  0.26114501679E+03  0.13026094679E+03  0.41315735381E+03  0.90691335639E+02 0.  0.
         24    2    4    4    0    0  0.36223711385E+03 -0.15422250287E+03  0.66569242725E+03  0.77654220464E+03  0.69793129053E+02 0.  0.
         13    1    5    5    0    0  0.23449218233E+03  0.17038258469E+03  0.11254403519E+03  0.31093885025E+03  0.00000000000E+00 0. -1.
        -14    1    5    5    0    0  0.43553581158E+02  0.90762432107E+02  0.17716911602E+02  0.10221850356E+03  0.00000000000E+00 0.  1.
         15    1    3    3    0    0 -0.35238103646E+03 -0.54803033444E+02  0.88839632213E+03  0.95730191175E+03  0.17770000000E+01 0. -1.
        -16    1    3    3    0    0 -0.28790184087E+03 -0.52119480481E+02  0.93477477222E+03  0.97949363704E+03  0.00000000000E+00 0.  1.
          2    1    6    6  502    0  0.34232835953E+03 -0.12542206170E+03  0.59931181203E+03  0.70149415346E+03  0.00000000000E+00 0. -1.
         -1    1    6    6    0  502  0.19908754312E+02 -0.28800441173E+02  0.66380615218E+02  0.75048051185E+02  0.00000000000E+00 0.  1.
<mgrwt>
<rscale>  0 0.71966192E+03</rscale>
<asrwt>0</asrwt>
<pdfrwt beam="1">  1        1 0.44197071E+00 0.71966192E+03</pdfrwt>
<pdfrwt beam="2">  1       -2 0.39028513E-01 0.71966192E+03</pdfrwt>
<totfact> 0.43056758E+00</totfact>
</mgrwt>
</event>
<event>
12    3  0.1092576E-007  0.7307267E+03  0.7818608E-02  0.9666082E-01
          1   -1    0    0  501    0  0.00000000000E+00  0.00000000000E+00  0.38932994338E+03  0.38932994338E+03  0.00000000000E+00 0. -1.
         -2   -1    0    0    0  501 -0.00000000000E+00 -0.00000000000E+00 -0.24497691264E+04  0.24497691264E+04  0.00000000000E+00 0.  1.
        -24    2    1    2    0    0 -0.11278427820E+03 -0.61306326434E+03 -0.18432346116E+04  0.19474146237E+04  0.79643100773E+02 0.  0.
    5000000    2    1    2    0    0  0.11278427820E+03  0.61306326434E+03 -0.21720457136E+03  0.89168444608E+03  0.59946348184E+03 0.  0.
        -24    2    4    4    0    0  0.30322195106E+03  0.17691162292E+03  0.19263909331E+01  0.36040946842E+03  0.81547532227E+02 0.  0.
         24    2    4    4    0    0 -0.19043767286E+03  0.43615164143E+03 -0.21913096229E+03  0.53127497766E+03  0.87977052088E+02 0.  0.
         11    1    5    5    0    0  0.20380757688E+03  0.16097012714E+03  0.26305895047E+01  0.25972260246E+03  0.00000000000E+00 0. -1.
        -12    1    5    5    0    0  0.99414374178E+02  0.15941495781E+02 -0.70419857159E+00  0.10068686596E+03  0.00000000000E+00 0.  1.
         15    1    3    3    0    0 -0.59812374696E+02 -0.38694331911E+03 -0.12676942752E+04  0.13267835488E+04  0.17770000000E+01 0. -1.
        -16    1    3    3    0    0 -0.52971903506E+02 -0.22611994523E+03 -0.57554033641E+03  0.62063107482E+03  0.00000000000E+00 0.  1.
          2    1    6    6  502    0 -0.53771247080E+02  0.16650674656E+03 -0.38634823259E+02  0.17918842940E+03  0.00000000000E+00 0. -1.
         -1    1    6    6    0  502 -0.13666642578E+03  0.26964489486E+03 -0.18049613903E+03  0.35208654826E+03  0.00000000000E+00 0.  1.
<mgrwt>
<rscale>  0 0.73072674E+03</rscale>
<asrwt>0</asrwt>
<pdfrwt beam="1">  1        1 0.59896913E-01 0.73072674E+03</pdfrwt>
<pdfrwt beam="2">  1       -2 0.37688756E+00 0.73072674E+03</pdfrwt>
<totfact> 0.60913054E-01</totfact>
</mgrwt>
</event>
<event>
12    3  0.1092576E-007  0.9450237E+03  0.7818608E-02  0.9370986E-01
         -2   -1    0    0    0  501 -0.00000000000E+00  0.00000000000E+00  0.64009409168E+03  0.64009409168E+03  0.00000000000E+00 0.  1.
          1   -1    0    0  501    0  0.00000000000E+00 -0.00000000000E+00 -0.14940137302E+04  0.14940137302E+04  0.00000000000E+00 0. -1.
        -24    2    1    2    0    0 -0.84867936888E+03 -0.23332157870E+03 -0.29769964500E+03  0.93239871197E+03  0.77760203164E+02 0.  0.
    5000000    2    1    2    0    0  0.84867936888E+03  0.23332157870E+03 -0.55621999351E+03  0.12017091099E+04  0.60002372735E+03 0.  0.
        -24    2    4    4    0    0  0.35471132026E+02  0.18571592713E+03 -0.25996201536E+03  0.33120709942E+03  0.79807809624E+02 0.  0.
         24    2    4    4    0    0  0.81320823685E+03  0.47605651573E+02 -0.29625797814E+03  0.87050201048E+03  0.80193678590E+02 0.  0.
         13    1    5    5    0    0  0.37553822406E+02  0.17886659090E+03 -0.20043901379E+03  0.27125512929E+03  0.00000000000E+00 0. -1.
        -14    1    5    5    0    0 -0.20826903797E+01  0.68493362302E+01 -0.59523001575E+02  0.59951970130E+02  0.00000000000E+00 0.  1.
         15    1    3    3    0    0 -0.50591248371E+03 -0.10580373592E+03 -0.15224921614E+03  0.53881801496E+03  0.17770000000E+01 0. -1.
        -16    1    3    3    0    0 -0.34276688517E+03 -0.12751784278E+03 -0.14545042886E+03  0.39358069700E+03  0.00000000000E+00 0.  1.
          2    1    6    6  502    0  0.46448040636E+03  0.61524586398E+02 -0.19096250291E+03  0.50595849646E+03  0.00000000000E+00 0. -1.
         -1    1    6    6    0  502  0.34872783050E+03 -0.13918934824E+02 -0.10529547523E+03  0.36454351402E+03  0.00000000000E+00 0.  1.
<mgrwt>
<rscale>  0 0.94502370E+03</rscale>
<asrwt>0</asrwt>
<pdfrwt beam="1">  1        1 0.22984827E+00 0.94502370E+03</pdfrwt>
<pdfrwt beam="2">  1       -2 0.98476014E-01 0.94502370E+03</pdfrwt>
<totfact> 0.49988043E+00</totfact>
</mgrwt>
</event>
<event>
12    3  0.1092576E-007  0.5708388E+03  0.7818608E-02  0.9967824E-01
          1   -1    0    0  501    0  0.00000000000E+00  0.00000000000E+00  0.15259273668E+04  0.15259273668E+04  0.00000000000E+00 0. -1.
         -2   -1    0    0    0  501 -0.00000000000E+00 -0.00000000000E+00 -0.23783829021E+03  0.23783829021E+03  0.00000000000E+00 0.  1.
        -24    2    1    2    0    0 -0.41565443224E+03 -0.63606610754E+02  0.71339100493E+03  0.83261228323E+03  0.86614550170E+02 0.  0.
    5000000    2    1    2    0    0  0.41565443224E+03  0.63606610754E+02  0.57469807169E+03  0.93115337381E+03  0.59996193544E+03 0.  0.
        -24    2    4    4    0    0  0.32439690047E+03  0.30309766270E+03  0.27269939666E+03  0.52679080222E+03  0.77730600152E+02 0.  0.
         24    2    4    4    0    0  0.91257531776E+02 -0.23949105195E+03  0.30199867503E+03  0.40436257159E+03  0.81375601442E+02 0.  0.
         11    1    5    5    0    0  0.26021536854E+03  0.20295617806E+03  0.22053147134E+03  0.39690978583E+03  0.00000000000E+00 0. -1.
        -12    1    5    5    0    0  0.64181531922E+02  0.10014148464E+03  0.52167925321E+02  0.12988101639E+03  0.00000000000E+00 0.  1.
         15    1    3    3    0    0 -0.23034084052E+03 -0.42892394917E+01  0.44510562636E+03  0.50119604620E+03  0.17770000000E+01 0. -1.
        -16    1    3    3    0    0 -0.18531359172E+03 -0.59317371263E+02  0.26828537857E+03  0.33141623703E+03  0.00000000000E+00 0.  1.
          4    1    6    6  502    0  0.99210841088E+02 -0.16268986831E+03  0.23118235951E+03  0.29959317013E+03  0.00000000000E+00 0. -1.
         -3    1    6    6    0  502 -0.79533093124E+01 -0.76801183641E+02  0.70816315521E+02  0.10476940146E+03  0.00000000000E+00 0.  1.
<mgrwt>
<rscale>  0 0.57083880E+03</rscale>
<asrwt>0</asrwt>
<pdfrwt beam="1">  1        1 0.23475805E+00 0.57083880E+03</pdfrwt>
<pdfrwt beam="2">  1       -2 0.36590507E-01 0.57083880E+03</pdfrwt>
<totfact> 0.40701230E+01</totfact>
</mgrwt>
</event>
<event>
12    3  0.1092576E-007  0.5145705E+03  0.7818608E-02  0.1010044E+00
          1   -1    0    0  501    0  0.00000000000E+00  0.00000000000E+00  0.12307503526E+04  0.12307503526E+04  0.00000000000E+00 0. -1.
         -2   -1    0    0    0  501 -0.00000000000E+00 -0.00000000000E+00 -0.42721032914E+03  0.42721032914E+03  0.00000000000E+00 0.  1.
        -24    2    1    2    0    0 -0.24425200973E+03 -0.37472187244E+03 -0.12056089560E+03  0.46890480936E+03  0.72534576257E+02 0.  0.
    5000000    2    1    2    0    0  0.24425200973E+03  0.37472187244E+03  0.92410091909E+03  0.11890558724E+04  0.59984650797E+03 0.  0.
        -24    2    4    4    0    0 -0.58412245012E+02  0.20755169978E+03  0.34000499533E+02  0.23091526042E+03  0.75340062912E+02 0.  0.
         24    2    4    4    0    0  0.30266425474E+03  0.16717017266E+03  0.89010041956E+03  0.95814061199E+03  0.78760127790E+02 0.  0.
         13    1    5    5    0    0  0.67569365859E+01  0.11272377998E+03  0.23755084993E+02  0.11539762055E+03  0.00000000000E+00 0. -1.
        -14    1    5    5    0    0 -0.65169181597E+02  0.94827919799E+02  0.10245414540E+02  0.11551763988E+03  0.00000000000E+00 0.  1.
         15    1    3    3    0    0 -0.16403088300E+03 -0.18927652638E+03 -0.78889773625E+02  0.26259948235E+03  0.17770000000E+01 0. -1.
        -16    1    3    3    0    0 -0.80221126731E+02 -0.18544534606E+03 -0.41671121974E+02  0.20630532701E+03  0.00000000000E+00 0.  1.
          2    1    6    6  502    0  0.12992199213E+03  0.46834710998E+02  0.44152422479E+03  0.46261955781E+03  0.00000000000E+00 0. -1.
         -3    1    6    6    0  502  0.17274226261E+03  0.12033546166E+03  0.44857619477E+03  0.49552105418E+03  0.00000000000E+00 0.  1.
<mgrwt>
<rscale>  0 0.51457051E+03</rscale>
<asrwt>0</asrwt>
<pdfrwt beam="1">  1        1 0.18934621E+00 0.51457051E+03</pdfrwt>
<pdfrwt beam="2">  1       -2 0.65724667E-01 0.51457051E+03</pdfrwt>
<totfact> 0.20117902E+01</totfact>
</mgrwt>
</event>
<event>
12    3  0.1092576E-007  0.4562685E+03  0.7818608E-02  0.1025869E+00
          1   -1    0    0  501    0  0.00000000000E+00  0.00000000000E+00  0.91311462924E+03  0.91311462924E+03  0.00000000000E+00 0. -1.
         -2   -1    0    0    0  501 -0.00000000000E+00 -0.00000000000E+00 -0.30433293715E+03  0.30433293715E+03  0.00000000000E+00 0.  1.
        -24    2    1    2    0    0  0.20370920789E+03 -0.22669240518E+03  0.74360065424E+01  0.31494309976E+03  0.79037800760E+02 0.  0.
    5000000    2    1    2    0    0 -0.20370920789E+03  0.22669240518E+03  0.60134568555E+03  0.90250446663E+03  0.60000899228E+03 0.  0.
        -24    2    4    4    0    0 -0.18193440279E+03  0.38659469792E+03  0.57556849006E+03  0.72061818591E+03  0.73864035521E+02 0.  0.
         24    2    4    4    0    0 -0.21774805096E+02 -0.15990229273E+03  0.25777195490E+02  0.18188628072E+03  0.79845287585E+02 0.  0.
         13    1    5    5    0    0 -0.12793317654E+03  0.33628375335E+03  0.47731840323E+03  0.59773448829E+03  0.00000000000E+00 0. -1.
        -14    1    5    5    0    0 -0.54001226255E+02  0.50310944564E+02  0.98250086825E+02  0.12288369762E+03  0.00000000000E+00 0.  1.
         15    1    3    3    0    0  0.10103071673E+03 -0.57589100145E+02  0.13001732134E+02  0.11702953878E+03  0.17770000000E+01 0. -1.
        -16    1    3    3    0    0  0.10267849116E+03 -0.16910330504E+03 -0.55657255911E+01  0.19791356099E+03  0.00000000000E+00 0.  1.
          2    1    6    6  502    0 -0.28776257356E+02 -0.88764580467E+02 -0.22047337121E+02  0.95881743868E+02  0.00000000000E+00 0. -1.
         -1    1    6    6    0  502  0.70014522603E+01 -0.71137712265E+02  0.47824532611E+02  0.86004536854E+02  0.00000000000E+00 0.  1.
<mgrwt>
<rscale>  0 0.45626848E+03</rscale>
<asrwt>0</asrwt>
<pdfrwt beam="1">  1        1 0.14047917E+00 0.45626848E+03</pdfrwt>
<pdfrwt beam="2">  1       -2 0.46820452E-01 0.45626848E+03</pdfrwt>
<totfact> 0.70607918E+01</totfact>
</mgrwt>
</event>
<event>
12    3  0.1092576E-007  0.5558760E+03  0.7818608E-02  0.1000143E+00
         -2   -1    0    0    0  501 -0.00000000000E+00  0.00000000000E+00  0.24280853883E+03  0.24280853883E+03  0.00000000000E+00 0.  1.
          1   -1    0    0  501    0  0.00000000000E+00 -0.00000000000E+00 -0.19861349036E+04  0.19861349036E+04  0.00000000000E+00 0. -1.
        -24    2    1    2    0    0  0.27419782975E+03 -0.42129093476E+03 -0.11070417108E+04  0.12202076501E+04  0.10341594850E+03 0.  0.
    5000000    2    1    2    0    0 -0.27419782975E+03  0.42129093476E+03 -0.63628465394E+03  0.10087357923E+04  0.60001603000E+03 0.  0.
        -24    2    4    4    0    0  0.57571085504E+02  0.47343005115E+02  0.77564834439E+02  0.13359916992E+03  0.79225277793E+02 0.  0.
         24    2    4    4    0    0 -0.33176891526E+03  0.37394792964E+03 -0.71384948838E+03  0.87513662238E+03  0.79845779754E+02 0.  0.
         11    1    5    5    0    0  0.55582301305E+02  0.60584508925E+02  0.85021319350E+02  0.11827298797E+03  0.00000000000E+00 0. -1.
        -12    1    5    5    0    0  0.19887841992E+01 -0.13241503810E+02 -0.74564849110E+01  0.15326181944E+02  0.00000000000E+00 0.  1.
         15    1    3    3    0    0  0.19230842280E+03 -0.20706713469E+03 -0.56849805104E+03  0.63486417407E+03  0.17770000000E+01 0. -1.
        -16    1    3    3    0    0  0.81889406949E+02 -0.21422380007E+03 -0.53854365975E+03  0.58534347604E+03  0.00000000000E+00 0.  1.
          2    1    6    6  502    0 -0.18722217652E+03  0.25867508071E+03 -0.48917760452E+03  0.58417434857E+03  0.00000000000E+00 0. -1.
         -1    1    6    6    0  502 -0.14454673874E+03  0.11527284893E+03 -0.22467188386E+03  0.29096227381E+03  0.00000000000E+00 0.  1.
<mgrwt>
<rscale>  0 0.55587602E+03</rscale>
<asrwt>0</asrwt>
<pdfrwt beam="1">  1        1 0.30555921E+00 0.55587602E+03</pdfrwt>
<pdfrwt beam="2">  1       -2 0.37355161E-01 0.55587602E+03</pdfrwt>
<totfact> 0.19334926E+01</totfact>
</mgrwt>
</event>
<event>
12    3  0.1092576E-007  0.5099759E+03  0.7818608E-02  0.1011207E+00
         -2   -1    0    0    0  501 -0.00000000000E+00  0.00000000000E+00  0.43843575507E+03  0.43843575507E+03  0.00000000000E+00 0.  1.
          1   -1    0    0  501    0  0.00000000000E+00 -0.00000000000E+00 -0.76232878364E+03  0.76232878364E+03  0.00000000000E+00 0. -1.
        -24    2    1    2    0    0  0.24075082060E+03  0.26477099385E+03  0.10648672216E+03  0.38021999926E+03  0.71855334110E+02 0.  0.
    5000000    2    1    2    0    0 -0.24075082060E+03 -0.26477099385E+03 -0.43037975072E+03  0.82054453945E+03  0.60000164548E+03 0.  0.
        -24    2    4    4    0    0 -0.12161806148E+03  0.15912086094E+03 -0.26120093338E+02  0.21728264462E+03  0.80119205624E+02 0.  0.
         24    2    4    4    0    0 -0.11913275912E+03 -0.42389185479E+03 -0.40425965738E+03  0.60326189483E+03  0.81376435848E+02 0.  0.
         11    1    5    5    0    0 -0.13382482455E+02  0.77790897010E+02 -0.21535024808E+02  0.81818529611E+02  0.00000000000E+00 0. -1.
        -12    1    5    5    0    0 -0.10823557903E+03  0.81329963933E+02 -0.45850685298E+01  0.13546411501E+03  0.00000000000E+00 0.  1.
         15    1    3    3    0    0  0.84815994336E+02  0.10130341365E+03  0.41267100004E+01  0.13219804075E+03  0.17770000000E+01 0. -1.
        -16    1    3    3    0    0  0.15593482627E+03  0.16346758019E+03  0.10236001216E+03  0.24802195852E+03  0.00000000000E+00 0.  1.
          2    1    6    6  502    0 -0.13094977284E+03 -0.37237931786E+03 -0.35075832085E+03  0.52805832919E+03  0.00000000000E+00 0. -1.
         -1    1    6    6    0  502  0.11817013725E+02 -0.51512536927E+02 -0.53501336536E+02  0.75203565642E+02  0.00000000000E+00 0.  1.
<mgrwt>
<rscale>  0 0.50997589E+03</rscale>
<asrwt>0</asrwt>
<pdfrwt beam="1">  1        1 0.11728135E+00 0.50997589E+03</pdfrwt>
<pdfrwt beam="2">  1       -2 0.67451655E-01 0.50997589E+03</pdfrwt>
<totfact> 0.44002547E+01</totfact>
</mgrwt>
</event>
<event>
12    3  0.1092576E-007  0.4776911E+03  0.7818608E-02  0.1019772E+00
          1   -1    0    0  501    0  0.00000000000E+00  0.00000000000E+00  0.66311576037E+03  0.66311576037E+03  0.00000000000E+00 0. -1.
         -2   -1    0    0    0  501 -0.00000000000E+00 -0.00000000000E+00 -0.56906155763E+03  0.56906155763E+03  0.00000000000E+00 0.  1.
        -24    2    1    2    0    0  0.43409243463E+03 -0.51072224915E+02  0.19002991137E+03  0.48365921822E+03  0.82281578731E+02 0.  0.
    5000000    2    1    2    0    0 -0.43409243463E+03  0.51072224915E+02 -0.95975708636E+02  0.74851809978E+03  0.60001949560E+03 0.  0.
        -24    2    4    4    0    0 -0.43117759558E+03  0.55363624726E+02 -0.29641889712E+03  0.53224593602E+03  0.80264088878E+02 0.  0.
         24    2    4    4    0    0 -0.29148390440E+01 -0.42913998110E+01  0.20044318848E+03  0.21627216377E+03  0.81051000071E+02 0.  0.
         11    1    5    5    0    0 -0.26522515370E+02 -0.15213858010E+02 -0.28728658322E+02  0.41955227399E+02  0.00000000000E+00 0. -1.
        -12    1    5    5    0    0 -0.40465508021E+03  0.70577482736E+02 -0.26769023880E+03  0.49029070862E+03  0.00000000000E+00 0.  1.
         15    1    3    3    0    0  0.82054000644E+02 -0.41664360839E+01  0.29100095600E+01  0.82230432907E+02  0.17770000000E+01 0. -1.
        -16    1    3    3    0    0  0.35203843398E+03 -0.46905788831E+02  0.18711990181E+03  0.40142878532E+03  0.00000000000E+00 0.  1.
          4    1    6    6  502    0  0.36498696456E+02  0.30362470557E+01  0.60708955143E+02  0.70900993461E+02  0.00000000000E+00 0. -1.
         -3    1    6    6    0  502 -0.39413535500E+02 -0.73276468667E+01  0.13973423334E+03  0.14537117031E+03  0.00000000000E+00 0.  1.
<mgrwt>
<rscale>  0 0.47769111E+03</rscale>
<asrwt>0</asrwt>
<pdfrwt beam="1">  1        1 0.10201781E+00 0.47769111E+03</pdfrwt>
<pdfrwt beam="2">  1       -2 0.87547932E-01 0.47769111E+03</pdfrwt>
<totfact> 0.30577379E+01</totfact>
</mgrwt>
</event>
<event>
12    3  0.1092576E-007  0.5689656E+03  0.7818608E-02  0.9971970E-01
          1   -1    0    0  501    0  0.00000000000E+00  0.00000000000E+00  0.18930440377E+04  0.18930440377E+04  0.00000000000E+00 0. -1.
         -2   -1    0    0    0  501 -0.00000000000E+00 -0.00000000000E+00 -0.23807349918E+03  0.23807349918E+03  0.00000000000E+00 0.  1.
        -24    2    1    2    0    0 -0.17728347199E+03  0.50300067135E+03  0.69501970306E+03  0.87970056536E+03  0.79884868677E+02 0.  0.
    5000000    2    1    2    0    0  0.17728347199E+03 -0.50300067135E+03  0.95995083542E+03  0.12514169715E+04  0.60008309861E+03 0.  0.
        -24    2    4    4    0    0  0.21011488232E+03 -0.21500707806E+03  0.88982169916E+03  0.94258827189E+03  0.79458710072E+02 0.  0.
         24    2    4    4    0    0 -0.32831410331E+02 -0.28799359329E+03  0.70129136259E+02  0.30882869958E+03  0.80242499050E+02 0.  0.
         11    1    5    5    0    0  0.83956962124E+01  0.33348812228E+00  0.84450833168E+02  0.84867792195E+02  0.00000000000E+00 0. -1.
        -12    1    5    5    0    0  0.20171918611E+03 -0.21534056618E+03  0.80537086600E+03  0.85772047969E+03  0.00000000000E+00 0.  1.
         15    1    3    3    0    0 -0.12881240183E+03  0.39310936427E+03  0.48223846042E+03  0.63536186349E+03  0.17770000000E+01 0. -1.
        -16    1    3    3    0    0 -0.48471070157E+02  0.10989130708E+03  0.21278124264E+03  0.24433870188E+03  0.00000000000E+00 0.  1.
          2    1    6    6  502    0 -0.54247635573E+02 -0.25908108064E+03  0.59396461978E+02  0.27128168388E+03  0.00000000000E+00 0. -1.
         -1    1    6    6    0  502  0.21416225242E+02 -0.28912512648E+02  0.10732674280E+02  0.37547015706E+02  0.00000000000E+00 0.  1.
<mgrwt>
<rscale>  0 0.56896557E+03</rscale>
<asrwt>0</asrwt>
<pdfrwt beam="1">  1        1 0.29123753E+00 0.56896557E+03</pdfrwt>
<pdfrwt beam="2">  1       -2 0.36626694E-01 0.56896557E+03</pdfrwt>
<totfact> 0.23091532E+01</totfact>
</mgrwt>
</event>
<event>
12    3  0.1092576E-007  0.8879826E+03  0.7818608E-02  0.9440730E-01
          1   -1    0    0  501    0  0.00000000000E+00  0.00000000000E+00  0.31699525793E+04  0.31699525793E+04  0.00000000000E+00 0. -1.
         -2   -1    0    0    0  501 -0.00000000000E+00 -0.00000000000E+00 -0.27850303673E+03  0.27850303673E+03  0.00000000000E+00 0.  1.
        -24    2    1    2    0    0  0.32696540138E+03  0.73959204379E+03  0.17315676542E+04  0.19125016883E+04  0.73711611070E+02 0.  0.
    5000000    2    1    2    0    0 -0.32696540138E+03 -0.73959204379E+03  0.11598818884E+04  0.15359539278E+04  0.59993808710E+03 0.  0.
        -24    2    4    4    0    0 -0.19997368849E+03 -0.18806390313E+01  0.46092519906E+03  0.50869289547E+03  0.79519871025E+02 0.  0.
         24    2    4    4    0    0 -0.12699171289E+03 -0.73771140476E+03  0.69895668935E+03  0.10272610323E+04  0.79873419292E+02 0.  0.
         11    1    5    5    0    0 -0.88237237802E+02  0.38653322264E+02  0.20969185170E+03  0.23076083317E+03  0.00000000000E+00 0. -1.
        -12    1    5    5    0    0 -0.11173645069E+03 -0.40533961296E+02  0.25123334735E+03  0.27793206230E+03  0.00000000000E+00 0.  1.
         15    1    3    3    0    0  0.14199644105E+03  0.24397172195E+03  0.64056438235E+03  0.70000791142E+03  0.17770000000E+01 0. -1.
        -16    1    3    3    0    0  0.18496896033E+03  0.49562032184E+03  0.10910032718E+04  0.12124937768E+04  0.00000000000E+00 0.  1.
          4    1    6    6  502    0 -0.29177890873E+02 -0.27427266449E+03  0.30469529871E+03  0.41099400100E+03  0.00000000000E+00 0. -1.
         -3    1    6    6    0  502 -0.97813822012E+02 -0.46343874027E+03  0.39426139065E+03  0.61626703133E+03  0.00000000000E+00 0.  1.
<mgrwt>
<rscale>  0 0.88798257E+03</rscale>
<asrwt>0</asrwt>
<pdfrwt beam="1">  1        1 0.48768499E+00 0.88798257E+03</pdfrwt>
<pdfrwt beam="2">  1       -2 0.42846623E-01 0.88798257E+03</pdfrwt>
<totfact> 0.21265587E+00</totfact>
</mgrwt>
</event>
<event>
12    3  0.1092576E-007  0.1230881E+04  0.7818608E-02  0.9086248E-01
         -2   -1    0    0    0  501 -0.00000000000E+00  0.00000000000E+00  0.89164074770E+03  0.89164074770E+03  0.00000000000E+00 0.  1.
          1   -1    0    0  501    0  0.00000000000E+00 -0.00000000000E+00 -0.17086225638E+04  0.17086225638E+04  0.00000000000E+00 0. -1.
        -24    2    1    2    0    0 -0.45491380344E+03 -0.10669900003E+04 -0.38389968342E+03  0.12244520131E+04  0.80557657183E+02 0.  0.
    5000000    2    1    2    0    0  0.45491380344E+03  0.10669900003E+04 -0.43308213265E+03  0.13758112984E+04  0.59990196339E+03 0.  0.
        -24    2    4    4    0    0  0.58676137779E+03  0.79299249758E+03 -0.36778188382E+03  0.10548905493E+04  0.66366718706E+02 0.  0.
         24    2    4    4    0    0 -0.13184757435E+03  0.27399750275E+03 -0.65300248830E+02  0.32092074900E+03  0.79168113951E+02 0.  0.
         11    1    5    5    0    0  0.38803235905E+03  0.48649642343E+03 -0.25591790412E+03  0.67286094799E+03  0.00000000000E+00 0. -1.
        -12    1    5    5    0    0  0.19872901874E+03  0.30649607415E+03 -0.11186397969E+03  0.38202960135E+03  0.00000000000E+00 0.  1.
         15    1    3    3    0    0 -0.27096013801E+03 -0.65457504622E+03 -0.27485443517E+03  0.75989210141E+03  0.17770000000E+01 0. -1.
        -16    1    3    3    0    0 -0.18395366544E+03 -0.41241495411E+03 -0.10904524825E+03  0.46455991171E+03  0.00000000000E+00 0.  1.
          2    1    6    6  502    0 -0.26260925081E+00  0.78522967126E+02 -0.13940319302E+02  0.79751224643E+02  0.00000000000E+00 0. -1.
         -1    1    6    6    0  502 -0.13158496510E+03  0.19547453563E+03 -0.51359929528E+02  0.24116952436E+03  0.00000000000E+00 0.  1.
<mgrwt>
<rscale>  0 0.12308806E+04</rscale>
<asrwt>0</asrwt>
<pdfrwt beam="1">  1        1 0.26286501E+00 0.12308806E+04</pdfrwt>
<pdfrwt beam="2">  1       -2 0.13717550E+00 0.12308806E+04</pdfrwt>
<totfact> 0.15212336E+00</totfact>
</mgrwt>
</event>
<event>
12    3  0.1092576E-007  0.1281653E+04  0.7818608E-02  0.9044243E-01
          1   -1    0    0  501    0  0.00000000000E+00  0.00000000000E+00  0.34471511829E+04  0.34471511829E+04  0.00000000000E+00 0. -1.
         -2   -1    0    0    0  501 -0.00000000000E+00 -0.00000000000E+00 -0.59619114225E+03  0.59619114225E+03  0.00000000000E+00 0.  1.
        -24    2    1    2    0    0  0.35452149480E+03  0.11775023834E+04  0.51359017135E+03  0.13349264440E+04  0.77822834731E+02 0.  0.
    5000000    2    1    2    0    0 -0.35452149480E+03 -0.11775023834E+04  0.23373698693E+04  0.27084158812E+04  0.60001777175E+03 0.  0.
        -24    2    4    4    0    0 -0.15938036662E+03 -0.41781076421E+02  0.55572495748E+03  0.58506960192E+03  0.79551562633E+02 0.  0.
         24    2    4    4    0    0 -0.19514112818E+03 -0.11357213069E+04  0.17816449118E+04  0.21233462792E+04  0.79986766888E+02 0.  0.
         13    1    5    5    0    0 -0.71266582087E+02 -0.51775650833E+02  0.20150465929E+03  0.21991764699E+03  0.00000000000E+00 0. -1.
        -14    1    5    5    0    0 -0.88113784531E+02  0.99945744113E+01  0.35422029819E+03  0.36515195493E+03  0.00000000000E+00 0.  1.
         15    1    3    3    0    0  0.71511982141E+02  0.15246361550E+03  0.81619627573E+02  0.18714710518E+03  0.17770000000E+01 0. -1.
        -16    1    3    3    0    0  0.28300951266E+03  0.10250387679E+04  0.43197054377E+03  0.11477793388E+04  0.00000000000E+00 0.  1.
          4    1    6    6  502    0 -0.63564144716E+02 -0.58830862667E+03  0.94091448671E+03  0.11115158622E+04  0.00000000000E+00 0. -1.
         -3    1    6    6    0  502 -0.13157698347E+03 -0.54741268027E+03  0.84073042510E+03  0.10118304170E+04  0.00000000000E+00 0.  1.
<mgrwt>
<rscale>  0 0.12816526E+04</rscale>
<asrwt>0</asrwt>
<pdfrwt beam="1">  1        1 0.53033094E+00 0.12816526E+04</pdfrwt>
<pdfrwt beam="2">  1       -2 0.91721716E-01 0.12816526E+04</pdfrwt>
<totfact> 0.24145985E-01</totfact>
</mgrwt>
</event>
<event>
12    3  0.1132330E-007  0.1626471E+04  0.7818608E-02  0.8804449E-01
         -2   -1    0    0    0  501 -0.00000000000E+00  0.00000000000E+00  0.82458058015E+03  0.82458058015E+03  0.00000000000E+00 0.  1.
          1   -1    0    0  501    0  0.00000000000E+00 -0.00000000000E+00 -0.33380424088E+04  0.33380424088E+04  0.00000000000E+00 0. -1.
        -24    2    1    2    0    0  0.15498509697E+04  0.33061433131E+03 -0.90678086324E+03  0.18275566303E+04  0.79798739137E+02 0.  0.
    5000000    2    1    2    0    0 -0.15498509697E+04 -0.33061433131E+03 -0.16066809654E+04  0.23350663586E+04  0.59980606078E+03 0.  0.
        -24    2    4    4    0    0 -0.20656364267E+03  0.11688671992E+03 -0.39948487585E+03  0.47173158467E+03  0.81310996653E+02 0.  0.
         24    2    4    4    0    0 -0.13432873270E+04 -0.44750105123E+03 -0.12071960895E+04  0.18633347740E+04  0.10008020594E+03 0.  0.
         11    1    5    5    0    0 -0.73244916870E+02  0.84693114224E+02 -0.15208272496E+03  0.18885681527E+03  0.00000000000E+00 0. -1.
        -12    1    5    5    0    0 -0.13331872580E+03  0.32193605700E+02 -0.24740215089E+03  0.28287476940E+03  0.00000000000E+00 0.  1.
         15    1    3    3    0    0  0.72657613030E+03  0.12067065302E+03 -0.39650859438E+03  0.83647863258E+03  0.17770000000E+01 0. -1.
        -16    1    3    3    0    0  0.82327483935E+03  0.20994367829E+03 -0.51027226887E+03  0.99107799770E+03  0.00000000000E+00 0.  1.
          2    1    6    6  502    0 -0.74507420807E+03 -0.28555155841E+03 -0.63361677015E+03  0.10188942435E+04  0.00000000000E+00 0. -1.
         -1    1    6    6    0  502 -0.59821311891E+03 -0.16194949283E+03 -0.57357931936E+03  0.84444053045E+03  0.00000000000E+00 0.  1.
<mgrwt>
<rscale>  0 0.16264710E+04</rscale>
<asrwt>0</asrwt>
<pdfrwt beam="1">  1        1 0.51354498E+00 0.16264710E+04</pdfrwt>
<pdfrwt beam="2">  1       -2 0.12685855E+00 0.16264710E+04</pdfrwt>
<totfact> 0.12740910E-01</totfact>
</mgrwt>
</event>
<event>
12    3  0.1092576E-007  0.1188472E+04  0.7818608E-02  0.9123008E-01
          1   -1    0    0  501    0  0.00000000000E+00  0.00000000000E+00  0.15568835241E+04  0.15568835241E+04  0.00000000000E+00 0. -1.
         -2   -1    0    0    0  501 -0.00000000000E+00 -0.00000000000E+00 -0.13389088321E+04  0.13389088321E+04  0.00000000000E+00 0.  1.
        -24    2    1    2    0    0  0.10943238713E+04 -0.24724062886E+03 -0.70181297156E+03  0.13258248544E+04  0.81224586621E+02 0.  0.
    5000000    2    1    2    0    0 -0.10943238713E+04  0.24724062886E+03  0.91978766354E+03  0.15699675019E+04  0.60009661475E+03 0.  0.
        -24    2    4    4    0    0 -0.92993403914E+02 -0.13439277887E+03  0.56504028833E+02  0.19160574353E+03  0.82527955832E+02 0.  0.
         24    2    4    4    0    0 -0.10013304674E+04  0.38163340773E+03  0.86328363470E+03  0.13783617583E+04  0.79471630591E+02 0.  0.
         11    1    5    5    0    0 -0.83279913602E+02 -0.50113189507E+02  0.19914571990E+02  0.99214242676E+02  0.00000000000E+00 0. -1.
        -12    1    5    5    0    0 -0.97134903117E+01 -0.84279589364E+02  0.36589456843E+02  0.92391500851E+02  0.00000000000E+00 0.  1.
         15    1    3    3    0    0  0.62390987309E+03 -0.13629625906E+03 -0.35214520114E+03  0.72928019334E+03  0.17770000000E+01 0. -1.
        -16    1    3    3    0    0  0.47041399822E+03 -0.11094436980E+03 -0.34966777042E+03  0.59654466101E+03  0.00000000000E+00 0.  1.
          2    1    6    6  502    0 -0.72869092911E+03  0.30333039602E+03  0.60161167535E+03  0.99243962397E+03  0.00000000000E+00 0. -1.
         -1    1    6    6    0  502 -0.27263953829E+03  0.78303011712E+02  0.26167195935E+03  0.38592213437E+03  0.00000000000E+00 0.  1.
<mgrwt>
<rscale>  0 0.11884715E+04</rscale>
<asrwt>0</asrwt>
<pdfrwt beam="1">  1        1 0.23952054E+00 0.11884715E+04</pdfrwt>
<pdfrwt beam="2">  1       -2 0.20598597E+00 0.11884715E+04</pdfrwt>
<totfact> 0.62130627E-01</totfact>
</mgrwt>
</event>
<event>
12    3  0.1092576E-007  0.4634761E+03  0.7818608E-02  0.1023778E+00
          1   -1    0    0  501    0  0.00000000000E+00  0.00000000000E+00  0.11994064901E+04  0.11994064901E+04  0.00000000000E+00 0. -1.
         -2   -1    0    0    0  501 -0.00000000000E+00 -0.00000000000E+00 -0.23284795607E+03  0.23284795607E+03  0.00000000000E+00 0.  1.
        -24    2    1    2    0    0  0.32574187215E+03 -0.95242659340E+02  0.45892805693E+03  0.57615628382E+03  0.78499493771E+02 0.  0.
    5000000    2    1    2    0    0 -0.32574187215E+03  0.95242659340E+02  0.50763047710E+03  0.85609816233E+03  0.60003035827E+03 0.  0.
        -24    2    4    4    0    0 -0.43753054756E+03  0.54398976751E+01  0.15307934809E+03  0.47031088160E+03  0.79350274159E+02 0.  0.
         24    2    4    4    0    0  0.11178867541E+03  0.89802761664E+02  0.35455112901E+03  0.38578728073E+03  0.50636735104E+02 0.  0.
         13    1    5    5    0    0 -0.10043736904E+03  0.22735825637E+02  0.63895974641E+02  0.12119108236E+03  0.00000000000E+00 0. -1.
        -14    1    5    5    0    0 -0.33709317851E+03 -0.17295927962E+02  0.89183373447E+02  0.34911979924E+03  0.00000000000E+00 0.  1.
         15    1    3    3    0    0  0.15247341827E+03 -0.53320569455E+02  0.28201993856E+03  0.32500712281E+03  0.17770000000E+01 0. -1.
        -16    1    3    3    0    0  0.17326845388E+03 -0.41922089885E+02  0.17690811837E+03  0.25114916101E+03  0.00000000000E+00 0.  1.
          4    1    6    6  502    0  0.80832106107E+02  0.81034757443E+02  0.31276090691E+03  0.33304631237E+03  0.00000000000E+00 0. -1.
         -3    1    6    6    0  502  0.30956569299E+02  0.87680042219E+01  0.41790222095E+02  0.52740968360E+02  0.00000000000E+00 0.  1.
<mgrwt>
<rscale>  0 0.46347606E+03</rscale>
<asrwt>0</asrwt>
<pdfrwt beam="1">  1        1 0.18452407E+00 0.46347606E+03</pdfrwt>
<pdfrwt beam="2">  1       -2 0.35822763E-01 0.46347606E+03</pdfrwt>
<totfact> 0.72429611E+01</totfact>
</mgrwt>
</event>
<event>
12    3  0.1092576E-007  0.5358007E+03  0.7818608E-02  0.1004835E+00
          1   -1    0    0  501    0  0.00000000000E+00  0.00000000000E+00  0.14925305129E+04  0.14925305129E+04  0.00000000000E+00 0. -1.
         -2   -1    0    0    0  501 -0.00000000000E+00 -0.00000000000E+00 -0.26322889260E+03  0.26322889260E+03  0.00000000000E+00 0.  1.
        -24    2    1    2    0    0 -0.77073857872E+02 -0.37395796500E+03  0.72477450746E+02  0.39780181687E+03  0.84902093509E+02 0.  0.
    5000000    2    1    2    0    0  0.77073857872E+02  0.37395796500E+03  0.11568241695E+04  0.13579575886E+04  0.60001809481E+03 0.  0.
        -24    2    4    4    0    0 -0.24511098721E+03  0.12608548315E+03  0.35490993841E+03  0.45537128482E+03  0.73654582638E+02 0.  0.
         24    2    4    4    0    0  0.32218484509E+03  0.24787248185E+03  0.80191423110E+03  0.90258630377E+03  0.79697930048E+02 0.  0.
         13    1    5    5    0    0 -0.56237236826E+02  0.57084444632E+02  0.68496895682E+02  0.10541861953E+03  0.00000000000E+00 0. -1.
        -14    1    5    5    0    0 -0.18887375039E+03  0.69001038516E+02  0.28641304273E+03  0.34995266530E+03  0.00000000000E+00 0.  1.
         15    1    3    3    0    0 -0.30961433357E+02 -0.14847121621E+03  0.71411931346E+02  0.16764585908E+03  0.17770000000E+01 0. -1.
        -16    1    3    3    0    0 -0.46112424514E+02 -0.22548674878E+03  0.10655193998E+01  0.23015595778E+03  0.00000000000E+00 0.  1.
          4    1    6    6  502    0  0.66214965850E+02  0.72989914891E+02  0.13502033578E+03  0.16715992478E+03  0.00000000000E+00 0. -1.
         -3    1    6    6    0  502  0.25596987924E+03  0.17488256696E+03  0.66689389532E+03  0.73542637899E+03  0.00000000000E+00 0.  1.
<mgrwt>
<rscale>  0 0.53580071E+03</rscale>
<asrwt>0</asrwt>
<pdfrwt beam="1">  1        1 0.22962007E+00 0.53580071E+03</pdfrwt>
<pdfrwt beam="2">  1       -2 0.40496753E-01 0.53580071E+03</pdfrwt>
<totfact> 0.35450000E+01</totfact>
</mgrwt>
</event>
<event>
12    3  0.1092576E-007  0.6776947E+03  0.7818608E-02  0.9756156E-01
         -2   -1    0    0    0  501 -0.00000000000E+00  0.00000000000E+00  0.16042327027E+04  0.16042327027E+04  0.00000000000E+00 0.  1.
          1   -1    0    0  501    0  0.00000000000E+00 -0.00000000000E+00 -0.49708475232E+03  0.49708475232E+03  0.00000000000E+00 0. -1.
        -24    2    1    2    0    0 -0.23074131973E+03 -0.58583331538E+03  0.10535529545E+04  0.12299307081E+04  0.79457465304E+02 0.  0.
    5000000    2    1    2    0    0  0.23074131973E+03  0.58583331538E+03  0.53594995928E+02  0.87138674695E+03  0.60000017427E+03 0.  0.
        -24    2    4    4    0    0 -0.33037918842E+02  0.36908983660E+03 -0.20964647790E+03  0.43303467809E+03  0.79047929582E+02 0.  0.
         24    2    4    4    0    0  0.26377923857E+03  0.21674347878E+03  0.26324147383E+03  0.43835206885E+03  0.79367754347E+02 0.  0.
         11    1    5    5    0    0  0.18737089371E+02  0.22157437845E+03 -0.11615344382E+03  0.25087428369E+03  0.00000000000E+00 0. -1.
        -12    1    5    5    0    0 -0.51775008213E+02  0.14751545815E+03 -0.93493034078E+02  0.18216039441E+03  0.00000000000E+00 0.  1.
         15    1    3    3    0    0 -0.15781040443E+03 -0.36465418953E+03  0.73212313936E+03  0.83299714921E+03  0.17770000000E+01 0. -1.
        -16    1    3    3    0    0 -0.72930915301E+02 -0.22117912585E+03  0.32142981510E+03  0.39693355886E+03  0.00000000000E+00 0.  1.
          2    1    6    6  502    0  0.11594732711E+03  0.13339673522E+03  0.16747344814E+03  0.24348681168E+03  0.00000000000E+00 0. -1.
         -1    1    6    6    0  502  0.14783191146E+03  0.83346743564E+02  0.95768025691E+02  0.19486525718E+03  0.00000000000E+00 0.  1.
<mgrwt>
<rscale>  0 0.67769472E+03</rscale>
<asrwt>0</asrwt>
<pdfrwt beam="1">  1        1 0.76474578E-01 0.67769472E+03</pdfrwt>
<pdfrwt beam="2">  1       -2 0.24680503E+00 0.67769472E+03</pdfrwt>
<totfact> 0.27486232E+00</totfact>
</mgrwt>
</event>
<event>
12    3  0.1092576E-007  0.1724446E+04  0.7818608E-02  0.8747544E-01
          1   -1    0    0  501    0  0.00000000000E+00  0.00000000000E+00  0.38685069631E+04  0.38685069631E+04  0.00000000000E+00 0. -1.
         -2   -1    0    0    0  501 -0.00000000000E+00 -0.00000000000E+00 -0.79952027899E+03  0.79952027899E+03  0.00000000000E+00 0.  1.
        -24    2    1    2    0    0 -0.14250589681E+03 -0.16980185641E+04  0.13663118240E+04  0.21855133972E+04  0.78011755813E+02 0.  0.
    5000000    2    1    2    0    0  0.14250589681E+03  0.16980185641E+04  0.17026748601E+04  0.24825138450E+04  0.60016525760E+03 0.  0.
        -24    2    4    4    0    0  0.20600456091E+03  0.45688378519E+03  0.23187226022E+03  0.55586529930E+03  0.63567394293E+02 0.  0.
         24    2    4    4    0    0 -0.63498664097E+02  0.12411347789E+04  0.14708025999E+04  0.19266485457E+04  0.65320064550E+02 0.  0.
         11    1    5    5    0    0  0.42968351541E+02  0.11412995862E+03  0.86096498033E+02  0.14928005112E+03  0.00000000000E+00 0. -1.
        -12    1    5    5    0    0  0.16303620937E+03  0.34275382657E+03  0.14577576219E+03  0.40658524818E+03  0.00000000000E+00 0.  1.
         15    1    3    3    0    0 -0.80842590533E+02 -0.68984782852E+03  0.51751225011E+03  0.86616836568E+03  0.17770000000E+01 0. -1.
        -16    1    3    3    0    0 -0.61663306282E+02 -0.10081707356E+04  0.84879957393E+03  0.13193450315E+04  0.00000000000E+00 0.  1.
          2    1    6    6  502    0 -0.55482668201E+02  0.10652048997E+04  0.12256389713E+04  0.16247863530E+04  0.00000000000E+00 0. -1.
         -1    1    6    6    0  502 -0.80159958964E+01  0.17592987926E+03  0.24516362856E+03  0.30186219269E+03  0.00000000000E+00 0.  1.
<mgrwt>
<rscale>  0 0.17244455E+04</rscale>
<asrwt>0</asrwt>
<pdfrwt beam="1">  1        1 0.59515491E+00 0.17244455E+04</pdfrwt>
<pdfrwt beam="2">  1       -2 0.12300312E+00 0.17244455E+04</pdfrwt>
<totfact> 0.51110168E-02</totfact>
</mgrwt>
</event>
<event>
12    3  0.1092576E-007  0.1251999E+04  0.7818608E-02  0.9068521E-01
         -2   -1    0    0    0  501 -0.00000000000E+00  0.00000000000E+00  0.96749810634E+03  0.96749810634E+03  0.00000000000E+00 0.  1.
          1   -1    0    0  501    0  0.00000000000E+00 -0.00000000000E+00 -0.16639159373E+04  0.16639159373E+04  0.00000000000E+00 0. -1.
        -24    2    1    2    0    0 -0.27900103732E+03  0.11535266714E+04 -0.17075577304E+03  0.12014461325E+04  0.76484736185E+02 0.  0.
    5000000    2    1    2    0    0  0.27900103732E+03 -0.11535266714E+04 -0.52566205794E+03  0.14299679112E+04  0.60001855585E+03 0.  0.
        -24    2    4    4    0    0  0.21021499352E+03 -0.61537060520E+02 -0.11035713989E+03  0.25786928614E+03  0.79628619822E+02 0.  0.
         24    2    4    4    0    0  0.68786043804E+02 -0.10919896109E+04 -0.41530491806E+03  0.11720986250E+04  0.64530471460E+02 0.  0.
         11    1    5    5    0    0  0.41706192536E+00  0.16940523895E+01 -0.21254869528E+02  0.21326350667E+02  0.00000000000E+00 0. -1.
        -12    1    5    5    0    0  0.20979793159E+03 -0.63231112910E+02 -0.89102270359E+02  0.23654293548E+03  0.00000000000E+00 0.  1.
         15    1    3    3    0    0 -0.14130152386E+03  0.66806479719E+03 -0.65580309120E+02  0.68598879623E+03  0.17770000000E+01 0. -1.
        -16    1    3    3    0    0 -0.13769951347E+03  0.48546187420E+03 -0.10517546392E+03  0.51545733627E+03  0.00000000000E+00 0.  1.
          2    1    6    6  502    0  0.11399665372E+01 -0.47248610856E+03 -0.19443408599E+03  0.51092958037E+03  0.00000000000E+00 0. -1.
         -1    1    6    6    0  502  0.67646077267E+02 -0.61950350230E+03 -0.22087083207E+03  0.66116904464E+03  0.00000000000E+00 0.  1.
<mgrwt>
<rscale>  0 0.12519987E+04</rscale>
<asrwt>0</asrwt>
<pdfrwt beam="1">  1        1 0.25598707E+00 0.12519987E+04</pdfrwt>
<pdfrwt beam="2">  1       -2 0.14884586E+00 0.12519987E+04</pdfrwt>
<totfact> 0.13135659E+00</totfact>
</mgrwt>
</event>
<event>
12    3  0.1092576E-007  0.5115157E+03  0.7818608E-02  0.1010816E+00
         -2   -1    0    0    0  501 -0.00000000000E+00  0.00000000000E+00  0.12433438380E+04  0.12433438380E+04  0.00000000000E+00 0.  1.
          1   -1    0    0  501    0  0.00000000000E+00 -0.00000000000E+00 -0.60545264751E+03  0.60545264751E+03  0.00000000000E+00 0. -1.
        -24    2    1    2    0    0 -0.19046493447E+03  0.34263664091E+03  0.97713991286E+03  0.10558851755E+04  0.80089547538E+02 0.  0.
    5000000    2    1    2    0    0  0.19046493447E+03 -0.34263664091E+03 -0.33924872238E+03  0.79291130998E+03  0.59995157381E+03 0.  0.
        -24    2    4    4    0    0 -0.15829007661E+03 -0.12859371149E+03 -0.30246539502E+03  0.37428746300E+03  0.83747828580E+02 0.  0.
         24    2    4    4    0    0  0.34875501108E+03 -0.21404292942E+03 -0.36783327361E+02  0.41862384698E+03  0.80302420291E+02 0.  0.
         11    1    5    5    0    0 -0.13769439331E+03 -0.74837273176E+02 -0.17803111328E+03  0.23718229424E+03  0.00000000000E+00 0. -1.
        -12    1    5    5    0    0 -0.20595683303E+02 -0.53756438315E+02 -0.12443428174E+03  0.13710516877E+03  0.00000000000E+00 0.  1.
         15    1    3    3    0    0 -0.89348678690E+02  0.17414456431E+03  0.38343484424E+03  0.43050546242E+03  0.17770000000E+01 0. -1.
        -16    1    3    3    0    0 -0.10111625578E+03  0.16849207660E+03  0.59370506862E+03  0.62537971310E+03  0.00000000000E+00 0.  1.
          4    1    6    6  502    0  0.27506230750E+03 -0.12849789184E+03 -0.17693542251E+02  0.30411189166E+03  0.00000000000E+00 0. -1.
         -3    1    6    6    0  502  0.73692703580E+02 -0.85545037584E+02 -0.19089785110E+02  0.11451195532E+03  0.00000000000E+00 0.  1.
<mgrwt>
<rscale>  0 0.51151572E+03</rscale>
<asrwt>0</asrwt>
<pdfrwt beam="1">  1        1 0.93146561E-01 0.51151572E+03</pdfrwt>
<pdfrwt beam="2">  1       -2 0.19128367E+00 0.51151572E+03</pdfrwt>
<totfact> 0.47812293E+00</totfact>
</mgrwt>
</event>
<event>
12    3  0.1092576E-007  0.3417803E+03  0.7818608E-02  0.1066040E+00
          1   -1    0    0  501    0  0.00000000000E+00  0.00000000000E+00  0.19745510877E+03  0.19745510877E+03  0.00000000000E+00 0. -1.
         -2   -1    0    0    0  501 -0.00000000000E+00 -0.00000000000E+00 -0.16224608091E+04  0.16224608091E+04  0.00000000000E+00 0.  1.
        -24    2    1    2    0    0  0.89787707103E+02 -0.10534029538E+03 -0.11197985806E+04  0.11326831266E+04  0.99316634711E+02 0.  0.
    5000000    2    1    2    0    0 -0.89787707103E+02  0.10534029538E+03 -0.30520711976E+03  0.68723279132E+03  0.59998259420E+03 0.  0.
        -24    2    4    4    0    0 -0.26300504848E+03  0.19366331060E+03 -0.33423617262E+03  0.47469917559E+03  0.83356792308E+02 0.  0.
         24    2    4    4    0    0  0.17321734138E+03 -0.88323015218E+02  0.29029052860E+02  0.21253361573E+03  0.80762921772E+02 0.  0.
         11    1    5    5    0    0 -0.21485165245E+03  0.17258634800E+03 -0.23405208318E+03  0.36156279914E+03  0.00000000000E+00 0. -1.
        -12    1    5    5    0    0 -0.48153396032E+02  0.21076962594E+02 -0.10018408944E+03  0.11313637646E+03  0.00000000000E+00 0.  1.
         15    1    3    3    0    0  0.57689794995E+02 -0.34551293344E+02 -0.82740566700E+03  0.83013565147E+03  0.17770000000E+01 0. -1.
        -16    1    3    3    0    0  0.32097912109E+02 -0.70789002037E+02 -0.29239291360E+03  0.30254747510E+03  0.00000000000E+00 0.  1.
          4    1    6    6  502    0  0.56809338957E+02  0.10435218510E+02  0.47016878809E+01  0.57950846818E+02  0.00000000000E+00 0. -1.
         -3    1    6    6    0  502  0.11640800242E+03 -0.98758233729E+02  0.24327364979E+02  0.15458276891E+03  0.00000000000E+00 0.  1.
<mgrwt>
<rscale>  0 0.34178027E+03</rscale>
<asrwt>0</asrwt>
<pdfrwt beam="1">  1        1 0.30377709E-01 0.34178027E+03</pdfrwt>
<pdfrwt beam="2">  1       -2 0.24960935E+00 0.34178027E+03</pdfrwt>
<totfact> 0.93345106E+00</totfact>
</mgrwt>
</event>
<event>
12    3  0.1395671E-007  0.1591489E+04  0.7818608E-02  0.8825794E-01
         -2   -1    0    0    0  501 -0.00000000000E+00  0.00000000000E+00  0.21548491373E+04  0.21548491373E+04  0.00000000000E+00 0.  1.
          1   -1    0    0  501    0  0.00000000000E+00 -0.00000000000E+00 -0.11848536803E+04  0.11848536803E+04  0.00000000000E+00 0. -1.
        -24    2    1    2    0    0  0.49555737138E+03  0.14585913156E+04  0.50040556827E+03  0.16210092112E+04  0.64802744172E+02 0.  0.
    5000000    2    1    2    0    0 -0.49555737138E+03 -0.14585913156E+04  0.46958988866E+03  0.17186936064E+04  0.60027270036E+03 0.  0.
        -24    2    4    4    0    0 -0.59879977049E+03 -0.97476997542E+03  0.25938560415E+03  0.11758322739E+04  0.81012187752E+02 0.  0.
         24    2    4    4    0    0  0.10324239911E+03 -0.48382134020E+03  0.21020428451E+03  0.54286133250E+03  0.75963826227E+02 0.  0.
         11    1    5    5    0    0 -0.65863424669E+02 -0.69939828481E+02  0.33113568437E+02  0.10161731512E+03  0.00000000000E+00 0. -1.
        -12    1    5    5    0    0 -0.53293634582E+03 -0.90483014694E+03  0.22627203572E+03  0.10742149588E+04  0.00000000000E+00 0.  1.
         15    1    3    3    0    0  0.31328637915E+03  0.97965796969E+03  0.35940590506E+03  0.10895200114E+04  0.17770000000E+01 0. -1.
        -16    1    3    3    0    0  0.18227099222E+03  0.47893334593E+03  0.14099966322E+03  0.53148919977E+03  0.00000000000E+00 0.  1.
          4    1    6    6  502    0  0.27688465720E+02 -0.20789532527E+03  0.12588812907E+03  0.24461181174E+03  0.00000000000E+00 0. -1.
         -3    1    6    6    0  502  0.75553933392E+02 -0.27592601493E+03  0.84316155433E+02  0.29824952076E+03  0.00000000000E+00 0.  1.
<mgrwt>
<rscale>  0 0.15914885E+04</rscale>
<asrwt>0</asrwt>
<pdfrwt beam="1">  1        1 0.18228518E+00 0.15914885E+04</pdfrwt>
<pdfrwt beam="2">  1       -2 0.33151525E+00 0.15914885E+04</pdfrwt>
<totfact> 0.18307663E-01</totfact>
</mgrwt>
</event>
<event>
12    3  0.1092576E-007  0.6030322E+03  0.7818608E-02  0.9899135E-01
          1   -1    0    0  501    0  0.00000000000E+00  0.00000000000E+00  0.17659585605E+04  0.17659585605E+04  0.00000000000E+00 0. -1.
         -4   -1    0    0    0  501 -0.00000000000E+00 -0.00000000000E+00 -0.26786539259E+03  0.26786539259E+03  0.00000000000E+00 0.  1.
        -24    2    1    2    0    0 -0.54980513668E+03  0.40673977490E+02  0.68473350816E+03  0.88287901825E+03  0.81702649257E+02 0.  0.
    5000000    2    1    2    0    0  0.54980513668E+03 -0.40673977490E+02  0.81335965979E+03  0.11509449349E+04  0.59931648250E+03 0.  0.
        -24    2    4    4    0    0 -0.21467938806E+02  0.40101219881E+00 -0.60656144010E+02  0.10190658709E+03  0.79023739967E+02 0.  0.
         24    2    4    4    0    0  0.57127307548E+03 -0.41074989689E+02  0.87401580380E+03  0.10490383478E+04  0.92399936677E+02 0.  0.
         11    1    5    5    0    0 -0.39444219109E+02 -0.26374029199E+02 -0.24305733748E+02  0.53312330003E+02  0.00000000000E+00 0. -1.
        -12    1    5    5    0    0  0.17976280303E+02  0.26775041398E+02 -0.36350410262E+02  0.48594257084E+02  0.00000000000E+00 0.  1.
         15    1    3    3    0    0 -0.38423536786E+03  0.20537107015E+02  0.53311445025E+03  0.65747453599E+03  0.17770000000E+01 0. -1.
        -16    1    3    3    0    0 -0.16556976882E+03  0.20136870475E+02  0.15161905791E+03  0.22540448226E+03  0.00000000000E+00 0.  1.
          2    1    6    6  502    0  0.13710678812E+03  0.10808914069E+02  0.27426396985E+03  0.30681562726E+03  0.00000000000E+00 0. -1.
         -1    1    6    6    0  502  0.43416628736E+03 -0.51883903759E+02  0.59975183395E+03  0.74222272054E+03  0.00000000000E+00 0.  1.
<mgrwt>
<rscale>  0 0.60303223E+03</rscale>
<asrwt>0</asrwt>
<pdfrwt beam="1">  1        1 0.27168593E+00 0.60303223E+03</pdfrwt>
<pdfrwt beam="2">  1       -4 0.41210062E-01 0.60303223E+03</pdfrwt>
<totfact> 0.12475403E+01</totfact>
</mgrwt>
</event>
<event>
12    3  0.1092576E-007  0.8325680E+03  0.7818608E-02  0.9514037E-01
         -2   -1    0    0    0  501 -0.00000000000E+00  0.00000000000E+00  0.65959514488E+03  0.65959514488E+03  0.00000000000E+00 0.  1.
          1   -1    0    0  501    0  0.00000000000E+00 -0.00000000000E+00 -0.10765466637E+04  0.10765466637E+04  0.00000000000E+00 0. -1.
        -24    2    1    2    0    0  0.32966556194E+02  0.73246089884E+03 -0.15431944437E+03  0.75305922293E+03  0.75484701601E+02 0.  0.
    5000000    2    1    2    0    0 -0.32966556194E+02 -0.73246089884E+03 -0.26263207444E+03  0.98308258563E+03  0.59990832758E+03 0.  0.
        -24    2    4    4    0    0  0.26671257058E+03 -0.36047100413E+03 -0.66728325218E+02  0.46047895231E+03  0.80704745880E+02 0.  0.
         24    2    4    4    0    0 -0.29967912677E+03 -0.37198989471E+03 -0.19590374922E+03  0.52260363333E+03  0.80945770864E+02 0.  0.
         11    1    5    5    0    0  0.14086901854E+03 -0.13790821084E+03 -0.38064848197E+01  0.19717313287E+03  0.00000000000E+00 0. -1.
        -12    1    5    5    0    0  0.12584355204E+03 -0.22256279329E+03 -0.62921840398E+02  0.26330581943E+03  0.00000000000E+00 0.  1.
         15    1    3    3    0    0  0.17227513896E+02  0.51293941332E+03 -0.14254622652E+03  0.53265956613E+03  0.17770000000E+01 0. -1.
        -16    1    3    3    0    0  0.15739042298E+02  0.21952148552E+03 -0.11773217850E+02  0.22039965680E+03  0.00000000000E+00 0.  1.
          4    1    6    6  502    0 -0.18996530582E+03 -0.20792878548E+03 -0.15342451722E+03  0.32071838072E+03  0.00000000000E+00 0. -1.
         -3    1    6    6    0  502 -0.10971382095E+03 -0.16406110923E+03 -0.42479231996E+02  0.20188525261E+03  0.00000000000E+00 0.  1.
<mgrwt>
<rscale>  0 0.83256799E+03</rscale>
<asrwt>0</asrwt>
<pdfrwt beam="1">  1        1 0.16562256E+00 0.83256799E+03</pdfrwt>
<pdfrwt beam="2">  1       -2 0.10147618E+00 0.83256799E+03</pdfrwt>
<totfact> 0.93814097E+00</totfact>
</mgrwt>
</event>
<event>
12    3  0.1092576E-007  0.7910404E+03  0.7818608E-02  0.9573077E-01
          1   -1    0    0  501    0  0.00000000000E+00  0.00000000000E+00  0.16411209601E+04  0.16411209601E+04  0.00000000000E+00 0. -1.
         -2   -1    0    0    0  501 -0.00000000000E+00 -0.00000000000E+00 -0.65921993784E+03  0.65921993784E+03  0.00000000000E+00 0.  1.
        -24    2    1    2    0    0  0.68363111464E+03 -0.92295533825E+02  0.11763760328E+04  0.13656617329E+04  0.72810931552E+02 0.  0.
    5000000    2    1    2    0    0 -0.68363111464E+03  0.92295533825E+02 -0.19447501050E+03  0.93467916506E+03  0.59994553539E+03 0.  0.
        -24    2    4    4    0    0  0.88704722939E+02  0.25561108062E+01 -0.82238445597E+02  0.14492813352E+03  0.79786843382E+02 0.  0.
         24    2    4    4    0    0 -0.77233583758E+03  0.89739423019E+02 -0.11223656490E+03  0.78975103155E+03  0.80955761231E+02 0.  0.
         11    1    5    5    0    0  0.95423885402E+02  0.16692254057E+02 -0.49828717121E+02  0.10893690973E+03  0.00000000000E+00 0. -1.
        -12    1    5    5    0    0 -0.67191624630E+01 -0.14136143251E+02 -0.32409728476E+02  0.35991223793E+02  0.00000000000E+00 0.  1.
         15    1    3    3    0    0  0.23133295248E+03 -0.23565271530E+02  0.33237491504E+03  0.40564331475E+03  0.17770000000E+01 0. -1.
        -16    1    3    3    0    0  0.45229816216E+03 -0.68730262295E+02  0.84400111775E+03  0.96001841817E+03  0.00000000000E+00 0.  1.
          4    1    6    6  502    0 -0.37790097070E+03  0.71975367950E+02 -0.25749341577E+02  0.38555495826E+03  0.00000000000E+00 0. -1.
         -3    1    6    6    0  502 -0.39443486687E+03  0.17764055069E+02 -0.86487223321E+02  0.40419607328E+03  0.00000000000E+00 0.  1.
<mgrwt>
<rscale>  0 0.79104039E+03</rscale>
<asrwt>0</asrwt>
<pdfrwt beam="1">  1        1 0.25248015E+00 0.79104039E+03</pdfrwt>
<pdfrwt beam="2">  1       -2 0.10141845E+00 0.79104039E+03</pdfrwt>
<totfact> 0.37741970E+00</totfact>
</mgrwt>
</event>
<event>
12    3  0.1092576E-007  0.3322198E+03  0.7818608E-02  0.1070159E+00
         -2   -1    0    0    0  501 -0.00000000000E+00  0.00000000000E+00  0.49421437535E+03  0.49421437535E+03  0.00000000000E+00 0.  1.
          1   -1    0    0  501    0  0.00000000000E+00 -0.00000000000E+00 -0.85217413084E+03  0.85217413084E+03  0.00000000000E+00 0. -1.
        -24    2    1    2    0    0  0.16331872718E+03 -0.25762060274E+03  0.27839531026E+03  0.42004710815E+03  0.76773971413E+02 0.  0.
    5000000    2    1    2    0    0 -0.16331872718E+03  0.25762060274E+03 -0.63635506575E+03  0.92634139804E+03  0.60009935378E+03 0.  0.
        -24    2    4    4    0    0  0.94409757075E+01  0.68726208699E+02  0.98827088040E+02  0.14364918348E+03  0.77819475718E+02 0.  0.
         24    2    4    4    0    0 -0.17275970288E+03  0.18889439404E+03 -0.73518215379E+03  0.78269221455E+03  0.81162161330E+02 0.  0.
         13    1    5    5    0    0  0.32183391374E+02  0.28865008778E+02  0.85585375204E+02  0.95884387993E+02  0.00000000000E+00 0. -1.
        -14    1    5    5    0    0 -0.22742415667E+02  0.39861199921E+02  0.13241712836E+02  0.47764795492E+02  0.00000000000E+00 0.  1.
         15    1    3    3    0    0  0.15405238352E+03 -0.22095452491E+03  0.26983730852E+03  0.38127204165E+03  0.17770000000E+01 0. -1.
        -16    1    3    3    0    0  0.92663436545E+01 -0.36666077832E+02  0.85580017442E+01  0.38775066501E+02  0.00000000000E+00 0.  1.
          4    1    6    6  502    0 -0.10285290215E+03  0.53917669259E+02 -0.29721007218E+03  0.31909193275E+03  0.00000000000E+00 0. -1.
         -3    1    6    6    0  502 -0.69906800734E+02  0.13497672479E+03 -0.43797208160E+03  0.46360028180E+03  0.00000000000E+00 0.  1.
<mgrwt>
<rscale>  0 0.33221978E+03</rscale>
<asrwt>0</asrwt>
<pdfrwt beam="1">  1        1 0.13110371E+00 0.33221978E+03</pdfrwt>
<pdfrwt beam="2">  1       -2 0.76032982E-01 0.33221978E+03</pdfrwt>
<totfact> 0.29274793E+01</totfact>
</mgrwt>
</event>
<event>
12    3  0.1092576E-007  0.9095331E+03  0.7818608E-02  0.9413742E-01
         -2   -1    0    0    0  501 -0.00000000000E+00  0.00000000000E+00  0.11890450904E+04  0.11890450904E+04  0.00000000000E+00 0.  1.
          1   -1    0    0  501    0  0.00000000000E+00 -0.00000000000E+00 -0.35716352230E+04  0.35716352230E+04  0.00000000000E+00 0. -1.
        -24    2    1    2    0    0 -0.88770338233E+03 -0.89782579399E+02  0.92207856455E+03  0.12855346138E+04  0.79323120942E+02 0.  0.
    5000000    2    1    2    0    0  0.88770338233E+03  0.89782579399E+02 -0.33046686971E+04  0.34751456995E+04  0.59977014641E+03 0.  0.
        -24    2    4    4    0    0  0.42895584437E+03  0.15432026145E+03 -0.77621703720E+03  0.90343998774E+03  0.76635912510E+02 0.  0.
         24    2    4    4    0    0  0.45874753796E+03 -0.64537682053E+02 -0.25284516599E+04  0.25717057118E+04  0.77382526613E+02 0.  0.
         11    1    5    5    0    0  0.17155120025E+03  0.10136463907E+03 -0.34832543279E+03  0.40129192802E+03  0.00000000000E+00 0. -1.
        -12    1    5    5    0    0  0.25740464412E+03  0.52955622378E+02 -0.42789160441E+03  0.50214805972E+03  0.00000000000E+00 0.  1.
         15    1    3    3    0    0 -0.61723218684E+03 -0.85621605645E+02  0.60165208672E+03  0.86619571865E+03  0.17770000000E+01 0. -1.
        -16    1    3    3    0    0 -0.27047119549E+03 -0.41609737545E+01  0.32042647782E+03  0.41933889514E+03  0.00000000000E+00 0.  1.
          2    1    6    6  502    0  0.35898217504E+03 -0.54450809115E+02 -0.17878579670E+04  0.18243544619E+04  0.00000000000E+00 0. -1.
         -1    1    6    6    0  502  0.99765362918E+02 -0.10086872938E+02 -0.74059369293E+03  0.74735124985E+03  0.00000000000E+00 0.  1.
<mgrwt>
<rscale>  0 0.90953307E+03</rscale>
<asrwt>0</asrwt>
<pdfrwt beam="1">  1        1 0.54948233E+00 0.90953307E+03</pdfrwt>
<pdfrwt beam="2">  1       -2 0.18293002E+00 0.90953307E+03</pdfrwt>
<totfact> 0.35123154E-02</totfact>
</mgrwt>
</event>
<event>
12    3  0.1092576E-007  0.5757004E+03  0.7818608E-02  0.9957143E-01
         -2   -1    0    0    0  501 -0.00000000000E+00  0.00000000000E+00  0.10339567890E+04  0.10339567890E+04  0.00000000000E+00 0.  1.
          1   -1    0    0  501    0  0.00000000000E+00 -0.00000000000E+00 -0.38400457706E+03  0.38400457706E+03  0.00000000000E+00 0. -1.
        -24    2    1    2    0    0 -0.30445763870E+03  0.36607814992E+03  0.34337370820E+03  0.59289304907E+03  0.83120385869E+02 0.  0.
    5000000    2    1    2    0    0  0.30445763870E+03 -0.36607814992E+03  0.30657850370E+03  0.82506831694E+03  0.60003306833E+03 0.  0.
        -24    2    4    4    0    0 -0.11025820886E+03 -0.19392386110E+03 -0.55855707528E+02  0.24306335779E+03  0.78718481378E+02 0.  0.
         24    2    4    4    0    0  0.41471584755E+03 -0.17215428881E+03  0.36243421123E+03  0.58200495916E+03  0.75794997495E+02 0.  0.
         13    1    5    5    0    0 -0.45542909495E+00 -0.23289823593E+02 -0.30792569626E+02  0.38610952369E+02  0.00000000000E+00 0. -1.
        -14    1    5    5    0    0 -0.10980277976E+03 -0.17063403751E+03 -0.25063137902E+02  0.20445240542E+03  0.00000000000E+00 0.  1.
         15    1    3    3    0    0 -0.66372311979E+02  0.82228505427E+02  0.36463349958E+02  0.11180136189E+03  0.17770000000E+01 0. -1.
        -16    1    3    3    0    0 -0.23808532672E+03  0.28384964449E+03  0.30691035824E+03  0.48109168717E+03  0.00000000000E+00 0.  1.
          2    1    6    6  502    0  0.14510795042E+03 -0.60148615909E+02  0.82033168110E+02  0.17721064850E+03  0.00000000000E+00 0. -1.
         -1    1    6    6    0  502  0.26960789713E+03 -0.11200567291E+03  0.28040104312E+03  0.40479431066E+03  0.00000000000E+00 0.  1.
<mgrwt>
<rscale>  0 0.57570036E+03</rscale>
<asrwt>0</asrwt>
<pdfrwt beam="1">  1        1 0.59077628E-01 0.57570036E+03</pdfrwt>
<pdfrwt beam="2">  1       -2 0.15907027E+00 0.57570036E+03</pdfrwt>
<totfact> 0.14697313E+01</totfact>
</mgrwt>
</event>
<event>
12    3  0.1092576E-007  0.5586299E+03  0.7818608E-02  0.9995160E-01
         -2   -1    0    0    0  501 -0.00000000000E+00  0.00000000000E+00  0.89238904909E+03  0.89238904909E+03  0.00000000000E+00 0.  1.
          1   -1    0    0  501    0  0.00000000000E+00 -0.00000000000E+00 -0.24054246115E+04  0.24054246115E+04  0.00000000000E+00 0. -1.
        -24    2    1    2    0    0 -0.36393229340E+03 -0.21003110676E+03 -0.22313289792E+04  0.22719152723E+04  0.78804892288E+02 0.  0.
    5000000    2    1    2    0    0  0.36393229340E+03  0.21003110676E+03  0.71829341680E+03  0.10258983883E+04  0.59996857461E+03 0.  0.
        -24    2    4    4    0    0  0.19635777778E+03  0.39410564729E+03  0.32380007043E+03  0.55233982231E+03  0.79731772705E+02 0.  0.
         24    2    4    4    0    0  0.16757451562E+03 -0.18407454053E+03  0.39449334636E+03  0.47355856599E+03  0.81658192124E+02 0.  0.
         11    1    5    5    0    0  0.15403767799E+03  0.32468199730E+03  0.22340121764E+03  0.42314785791E+03  0.00000000000E+00 0. -1.
        -12    1    5    5    0    0  0.42320099797E+02  0.69423649991E+02  0.10039885279E+03  0.12919196440E+03  0.00000000000E+00 0.  1.
         15    1    3    3    0    0 -0.16251423361E+03 -0.13919093618E+03 -0.11284040044E+04  0.11485137125E+04  0.17770000000E+01 0. -1.
        -16    1    3    3    0    0 -0.20141805979E+03 -0.70840170574E+02 -0.11029249748E+04  0.11234015598E+04  0.00000000000E+00 0.  1.
          2    1    6    6  502    0  0.39401851691E+02 -0.49114465651E+02  0.44341025083E+02  0.77012097480E+02  0.00000000000E+00 0. -1.
         -1    1    6    6    0  502  0.12817266393E+03 -0.13496007488E+03  0.35015232128E+03  0.39654646851E+03  0.00000000000E+00 0.  1.
<mgrwt>
<rscale>  0 0.55862990E+03</rscale>
<asrwt>0</asrwt>
<pdfrwt beam="1">  1        1 0.37006532E+00 0.55862990E+03</pdfrwt>
<pdfrwt beam="2">  1       -2 0.13729062E+00 0.55862990E+03</pdfrwt>
<totfact> 0.57877204E-01</totfact>
</mgrwt>
</event>
<event>
12    3  0.1092576E-007  0.9537159E+03  0.7818608E-02  0.9360818E-01
          1   -1    0    0  501    0  0.00000000000E+00  0.00000000000E+00  0.54861780587E+03  0.54861780587E+03  0.00000000000E+00 0. -1.
         -2   -1    0    0    0  501 -0.00000000000E+00 -0.00000000000E+00 -0.18336473300E+04  0.18336473300E+04  0.00000000000E+00 0.  1.
        -24    2    1    2    0    0  0.81895829711E+03 -0.32737520535E+03 -0.31354312591E+03  0.93947015645E+03  0.80172723317E+02 0.  0.
    5000000    2    1    2    0    0 -0.81895829711E+03  0.32737520535E+03 -0.97148639826E+03  0.14427949795E+04  0.60000359438E+03 0.  0.
        -24    2    4    4    0    0 -0.56888960158E+03 -0.42077779555E+02 -0.35061650314E+03  0.67399477861E+03  0.77013706560E+02 0.  0.
         24    2    4    4    0    0 -0.25006869553E+03  0.36945298491E+03 -0.62086989512E+03  0.76880020085E+03  0.80897846834E+02 0.  0.
         11    1    5    5    0    0 -0.69886423352E+01  0.12975203889E+01 -0.18555748890E+02  0.19870593793E+02  0.00000000000E+00 0. -1.
        -12    1    5    5    0    0 -0.56190095925E+03 -0.43375299944E+02 -0.33206075425E+03  0.65412418481E+03  0.00000000000E+00 0.  1.
         15    1    3    3    0    0  0.41611625196E+03 -0.20765335678E+03 -0.17678046309E+03  0.49752099612E+03  0.17770000000E+01 0. -1.
        -16    1    3    3    0    0  0.40284204516E+03 -0.11972184857E+03 -0.13676266282E+03  0.44194916033E+03  0.00000000000E+00 0.  1.
          4    1    6    6  502    0 -0.16944526996E+03  0.18923843178E+03 -0.31356368480E+03  0.40354066461E+03  0.00000000000E+00 0. -1.
         -3    1    6    6    0  502 -0.80623425575E+02  0.18021455313E+03 -0.30730621032E+03  0.36525953624E+03  0.00000000000E+00 0.  1.
<mgrwt>
<rscale>  0 0.95371590E+03</rscale>
<asrwt>0</asrwt>
<pdfrwt beam="1">  1        1 0.84402739E-01 0.95371590E+03</pdfrwt>
<pdfrwt beam="2">  1       -2 0.28209959E+00 0.95371590E+03</pdfrwt>
<totfact> 0.14119362E+00</totfact>
</mgrwt>
</event>
<event>
12    3  0.1092576E-007  0.4728009E+03  0.7818608E-02  0.1021133E+00
          1   -1    0    0  501    0  0.00000000000E+00  0.00000000000E+00  0.67069882322E+03  0.67069882322E+03  0.00000000000E+00 0. -1.
         -2   -1    0    0    0  501 -0.00000000000E+00 -0.00000000000E+00 -0.45138441499E+03  0.45138441499E+03  0.00000000000E+00 0.  1.
        -24    2    1    2    0    0  0.11957902387E+03 -0.35824774810E+03  0.12508712670E+03  0.40687806225E+03  0.85219576995E+02 0.  0.
    5000000    2    1    2    0    0 -0.11957902387E+03  0.35824774810E+03  0.94227281532E+02  0.71520517596E+03  0.59999922598E+03 0.  0.
        -24    2    4    4    0    0 -0.86930295951E+02  0.44503166790E+03 -0.11261997120E+03  0.47474905893E+03  0.84222023566E+02 0.  0.
         24    2    4    4    0    0 -0.32648727914E+02 -0.86783919801E+02  0.20684725274E+03  0.24045611703E+03  0.80224498019E+02 0.  0.
         13    1    5    5    0    0  0.13675819778E+02  0.42452651396E+02 -0.23160097281E+02  0.50255803279E+02  0.00000000000E+00 0. -1.
        -14    1    5    5    0    0 -0.10060611573E+03  0.40257901651E+03 -0.89459873923E+02  0.42449325565E+03  0.00000000000E+00 0.  1.
         15    1    3    3    0    0  0.19179731112E+02 -0.17330482802E+03  0.79100923460E+02  0.19147464407E+03  0.17770000000E+01 0. -1.
        -16    1    3    3    0    0  0.10039929275E+03 -0.18494292008E+03  0.45986203240E+02  0.21540341818E+03  0.00000000000E+00 0.  1.
          2    1    6    6  502    0 -0.57592450279E+01  0.36943582719E+01 -0.50384563119E+01  0.84972482805E+01  0.00000000000E+00 0. -1.
         -1    1    6    6    0  502 -0.26889482886E+02 -0.90478278072E+02  0.21188570905E+03  0.23195886875E+03  0.00000000000E+00 0.  1.
<mgrwt>
<rscale>  0 0.47280088E+03</rscale>
<asrwt>0</asrwt>
<pdfrwt beam="1">  1        1 0.10318443E+00 0.47280088E+03</pdfrwt>
<pdfrwt beam="2">  1       -2 0.69443756E-01 0.47280088E+03</pdfrwt>
<totfact> 0.50331907E+01</totfact>
</mgrwt>
</event>
<event>
12    3  0.1092576E-007  0.4437209E+03  0.7818608E-02  0.1029611E+00
         -2   -1    0    0    0  501 -0.00000000000E+00  0.00000000000E+00  0.35425529522E+03  0.35425529522E+03  0.00000000000E+00 0.  1.
          1   -1    0    0  501    0  0.00000000000E+00 -0.00000000000E+00 -0.11681520436E+04  0.11681520436E+04  0.00000000000E+00 0. -1.
        -24    2    1    2    0    0  0.34630378582E+03  0.22764294554E+03 -0.64954168855E+03  0.77454873125E+03  0.79206749662E+02 0.  0.
    5000000    2    1    2    0    0 -0.34630378582E+03 -0.22764294554E+03 -0.16435505987E+03  0.74785860761E+03  0.60044340994E+03 0.  0.
        -24    2    4    4    0    0 -0.85481464429E+02 -0.14865614180E+03  0.20728304114E+03  0.28081445503E+03  0.80528068121E+02 0.  0.
         24    2    4    4    0    0 -0.26082232139E+03 -0.78986803740E+02 -0.37163810100E+03  0.46704415258E+03  0.75816646194E+02 0.  0.
         13    1    5    5    0    0  0.14124985309E+02 -0.33976916068E+02  0.50867870644E+02  0.62781257548E+02  0.00000000000E+00 0. -1.
        -14    1    5    5    0    0 -0.99606449739E+02 -0.11467922573E+03  0.15641517049E+03  0.21803319748E+03  0.00000000000E+00 0.  1.
         15    1    3    3    0    0  0.27978193298E+03  0.15527727863E+03 -0.53714782590E+03  0.62523588179E+03  0.17770000000E+01 0. -1.
        -16    1    3    3    0    0  0.66521852839E+02  0.72365666913E+02 -0.11239386265E+03  0.14931284946E+03  0.00000000000E+00 0.  1.
          2    1    6    6  502    0 -0.28136289184E+02  0.12045736150E+02 -0.62210201774E+02  0.69331520489E+02  0.00000000000E+00 0. -1.
         -1    1    6    6    0  502 -0.23268603221E+03 -0.91032539891E+02 -0.30942789923E+03  0.39771263209E+03  0.00000000000E+00 0.  1.
<mgrwt>
<rscale>  0 0.44372095E+03</rscale>
<asrwt>0</asrwt>
<pdfrwt beam="1">  1        1 0.17971570E+00 0.44372095E+03</pdfrwt>
<pdfrwt beam="2">  1       -2 0.54500814E-01 0.44372095E+03</pdfrwt>
<totfact> 0.33428183E+01</totfact>
</mgrwt>
</event>
<event>
12    3  0.1092576E-007  0.7345420E+03  0.7818608E-02  0.9659918E-01
          1   -1    0    0  501    0  0.00000000000E+00  0.00000000000E+00  0.31351304543E+04  0.31351304543E+04  0.00000000000E+00 0. -1.
         -2   -1    0    0    0  501 -0.00000000000E+00 -0.00000000000E+00 -0.28935802307E+03  0.28935802307E+03  0.00000000000E+00 0.  1.
        -24    2    1    2    0    0 -0.29517447959E+03 -0.58741035562E+03  0.29869580862E+03  0.72638832732E+03  0.79005801580E+02 0.  0.
    5000000    2    1    2    0    0  0.29517447959E+03  0.58741035562E+03  0.25470766226E+04  0.26981001501E+04  0.59997183186E+03 0.  0.
        -24    2    4    4    0    0  0.41949344847E+03  0.43118005778E+03  0.13278207985E+04  0.14599614673E+04  0.80550713918E+02 0.  0.
         24    2    4    4    0    0 -0.12431896888E+03  0.15623029784E+03  0.12192558241E+04  0.12381386828E+04  0.80867305890E+02 0.  0.
         11    1    5    5    0    0  0.16105562694E+03  0.18337491007E+03  0.44988908840E+03  0.51182561920E+03  0.00000000000E+00 0. -1.
        -12    1    5    5    0    0  0.25843782153E+03  0.24780514770E+03  0.87793171015E+03  0.94813584813E+03  0.00000000000E+00 0.  1.
         15    1    3    3    0    0 -0.17762989336E+03 -0.28609809052E+03  0.18015682744E+03  0.38192163675E+03  0.17770000000E+01 0. -1.
        -16    1    3    3    0    0 -0.11754458623E+03 -0.30131226510E+03  0.11853898118E+03  0.34446669056E+03  0.00000000000E+00 0.  1.
          4    1    6    6  502    0 -0.43945953474E+02  0.19266147186E+02  0.15984945305E+03  0.16689601222E+03  0.00000000000E+00 0. -1.
         -3    1    6    6    0  502 -0.80373015403E+02  0.13696415066E+03  0.10594063711E+04  0.10712426705E+04  0.00000000000E+00 0.  1.
<mgrwt>
<rscale>  0 0.73454204E+03</rscale>
<asrwt>0</asrwt>
<pdfrwt beam="1">  1        1 0.48232774E+00 0.73454204E+03</pdfrwt>
<pdfrwt beam="2">  1       -2 0.44516621E-01 0.73454204E+03</pdfrwt>
<totfact> 0.21497994E+00</totfact>
</mgrwt>
</event>
<event>
12    3  0.1092576E-007  0.6703104E+03  0.7818608E-02  0.9769397E-01
         -2   -1    0    0    0  501 -0.00000000000E+00  0.00000000000E+00  0.41705667273E+03  0.41705667273E+03  0.00000000000E+00 0.  1.
          1   -1    0    0  501    0  0.00000000000E+00 -0.00000000000E+00 -0.15896420257E+04  0.15896420257E+04  0.00000000000E+00 0. -1.
        -24    2    1    2    0    0  0.63074667406E+03 -0.86292285085E+02 -0.14628274000E+03  0.65788272382E+03  0.78251600412E+02 0.  0.
    5000000    2    1    2    0    0 -0.63074667406E+03  0.86292285085E+02 -0.10263026129E+04  0.13488159746E+04  0.60059949609E+03 0.  0.
        -24    2    4    4    0    0 -0.86016686707E+02  0.12053671456E+03  0.17368852530E+02  0.16822191578E+03  0.77903568339E+02 0.  0.
         24    2    4    4    0    0 -0.54472998735E+03 -0.34244429477E+02 -0.10436714655E+04  0.11805940588E+04  0.81539952246E+02 0.  0.
         13    1    5    5    0    0 -0.10411565853E+02  0.81922352285E+00  0.24311084444E+02  0.26459415291E+02  0.00000000000E+00 0. -1.
        -14    1    5    5    0    0 -0.75605120854E+02  0.11971749104E+03 -0.69422319143E+01  0.14176250049E+03  0.00000000000E+00 0.  1.
         15    1    3    3    0    0  0.47511974809E+03 -0.36969577423E+02 -0.88528753638E+02  0.48471230914E+03  0.17770000000E+01 0. -1.
        -16    1    3    3    0    0  0.15562692597E+03 -0.49322707662E+02 -0.57753986365E+02  0.17317041468E+03  0.00000000000E+00 0.  1.
          2    1    6    6  502    0 -0.27023933592E+03  0.11545092325E+02 -0.57690663456E+03  0.63716862198E+03  0.00000000000E+00 0. -1.
         -1    1    6    6    0  502 -0.27449065144E+03 -0.45789521802E+02 -0.46676483092E+03  0.54342543685E+03  0.00000000000E+00 0.  1.
<mgrwt>
<rscale>  0 0.67031036E+03</rscale>
<asrwt>0</asrwt>
<pdfrwt beam="1">  1        1 0.24456031E+00 0.67031036E+03</pdfrwt>
<pdfrwt beam="2">  1       -2 0.64162564E-01 0.67031036E+03</pdfrwt>
<totfact> 0.11682377E+01</totfact>
</mgrwt>
</event>
<event>
12    3  0.1092576E-007  0.1899729E+04  0.7818608E-02  0.8654991E-01
         -2   -1    0    0    0  501 -0.00000000000E+00  0.00000000000E+00  0.25910075987E+04  0.25910075987E+04  0.00000000000E+00 0.  1.
          1   -1    0    0  501    0  0.00000000000E+00 -0.00000000000E+00 -0.15074596011E+04  0.15074596011E+04  0.00000000000E+00 0. -1.
        -24    2    1    2    0    0 -0.14321459743E+04  0.12204874635E+04  0.84859319657E+02  0.18852864159E+04  0.80448901699E+02 0.  0.
    5000000    2    1    2    0    0  0.14321459743E+04 -0.12204874635E+04  0.99868867788E+03  0.22131807838E+04  0.60013195747E+03 0.  0.
        -24    2    4    4    0    0  0.10947761044E+04 -0.73455117596E+03  0.92396893795E+03  0.16113666564E+04  0.68437957837E+02 0.  0.
         24    2    4    4    0    0  0.33736986988E+03 -0.48593628755E+03  0.74719739932E+02  0.60181412747E+03  0.81515028252E+02 0.  0.
         13    1    5    5    0    0  0.61117633285E+03 -0.37669339081E+03  0.47846531792E+03  0.86276502071E+03  0.00000000000E+00 0. -1.
        -14    1    5    5    0    0  0.48359977154E+03 -0.35785778515E+03  0.44550362003E+03  0.74860163564E+03  0.00000000000E+00 0.  1.
         15    1    3    3    0    0 -0.68431145718E+03  0.62756737577E+03  0.63654149059E+02  0.93068683776E+03  0.17770000000E+01 0. -1.
        -16    1    3    3    0    0 -0.74783451710E+03  0.59292008774E+03  0.21205170598E+02  0.95459957818E+03  0.00000000000E+00 0.  1.
          4    1    6    6  502    0  0.13220478562E+03 -0.26113294545E+03  0.42539933766E+02  0.29576708151E+03  0.00000000000E+00 0. -1.
         -3    1    6    6    0  502  0.20516508426E+03 -0.22480334210E+03  0.32179806165E+02  0.30604704596E+03  0.00000000000E+00 0.  1.
<mgrwt>
<rscale>  0 0.18997292E+04</rscale>
<asrwt>0</asrwt>
<pdfrwt beam="1">  1        1 0.23191686E+00 0.18997292E+04</pdfrwt>
<pdfrwt beam="2">  1       -2 0.39861655E+00 0.18997292E+04</pdfrwt>
<totfact> 0.38752015E-02</totfact>
</mgrwt>
</event>
<event>
12    3  0.1092576E-007  0.7404678E+03  0.7818608E-02  0.9650425E-01
         -2   -1    0    0    0  501 -0.00000000000E+00  0.00000000000E+00  0.52582947467E+03  0.52582947467E+03  0.00000000000E+00 0.  1.
          1   -1    0    0  501    0  0.00000000000E+00 -0.00000000000E+00 -0.12232389267E+04  0.12232389267E+04  0.00000000000E+00 0. -1.
        -24    2    1    2    0    0 -0.46696266004E+02  0.63348102892E+03 -0.58687734857E+03  0.86833840697E+03  0.78152488781E+02 0.  0.
    5000000    2    1    2    0    0  0.46696266004E+02 -0.63348102892E+03 -0.11053210350E+03  0.88072999443E+03  0.59999101821E+03 0.  0.
        -24    2    4    4    0    0  0.27073139983E+03 -0.17799827687E+03 -0.14780497570E+03  0.36551591525E+03  0.82320690204E+02 0.  0.
         24    2    4    4    0    0 -0.22403513383E+03 -0.45548275205E+03  0.37272872199E+02  0.51521407918E+03  0.80000011138E+02 0.  0.
         13    1    5    5    0    0  0.11767853164E+03 -0.33019194975E+02 -0.69662796172E+02  0.14068194346E+03  0.00000000000E+00 0. -1.
        -14    1    5    5    0    0  0.15305286819E+03 -0.14497908189E+03 -0.78142179526E+02  0.22483397179E+03  0.00000000000E+00 0.  1.
         15    1    3    3    0    0 -0.35628772459E+02  0.98036462650E+02 -0.10157367688E+03  0.14560538108E+03  0.17770000000E+01 0. -1.
        -16    1    3    3    0    0 -0.11067493544E+02  0.53544456627E+03 -0.48530367168E+03  0.72273302589E+03  0.00000000000E+00 0.  1.
          4    1    6    6  502    0 -0.60794605140E+02 -0.10389643819E+03 -0.24060907993E+02  0.12275740783E+03  0.00000000000E+00 0. -1.
         -3    1    6    6    0  502 -0.16324052869E+03 -0.35158631386E+03  0.61333780192E+02  0.39245667136E+03  0.00000000000E+00 0.  1.
<mgrwt>
<rscale>  0 0.74046778E+03</rscale>
<asrwt>0</asrwt>
<pdfrwt beam="1">  1        1 0.18819060E+00 0.74046778E+03</pdfrwt>
<pdfrwt beam="2">  1       -2 0.80896843E-01 0.74046778E+03</pdfrwt>
<totfact> 0.12495589E+01</totfact>
</mgrwt>
</event>
<event>
12    3  0.1092576E-007  0.8643066E+03  0.7818608E-02  0.9471334E-01
          1   -1    0    0  501    0  0.00000000000E+00  0.00000000000E+00  0.60148116157E+03  0.60148116157E+03  0.00000000000E+00 0. -1.
         -2   -1    0    0    0  501 -0.00000000000E+00 -0.00000000000E+00 -0.20710412652E+04  0.20710412652E+04  0.00000000000E+00 0.  1.
        -24    2    1    2    0    0  0.78765497582E+03 -0.15238274887E+03 -0.14630917623E+04  0.16705122903E+04  0.79705357399E+02 0.  0.
    5000000    2    1    2    0    0 -0.78765497582E+03  0.15238274887E+03 -0.64683413924E+01  0.10020101365E+04  0.60030126703E+03 0.  0.
        -24    2    4    4    0    0 -0.20084384161E+03  0.24953336009E+03 -0.18178356174E+03  0.37698522353E+03  0.80420450950E+02 0.  0.
         24    2    4    4    0    0 -0.58681113422E+03 -0.97150611218E+02  0.17531522035E+03  0.62502491301E+03  0.78327306214E+02 0.  0.
         13    1    5    5    0    0 -0.10583534205E+03  0.18817347390E+03 -0.13474820386E+03  0.25449450750E+03  0.00000000000E+00 0. -1.
        -14    1    5    5    0    0 -0.95008499559E+02  0.61359886196E+02 -0.47035357878E+02  0.12249071603E+03  0.00000000000E+00 0.  1.
         15    1    3    3    0    0  0.59503927273E+03 -0.13929723730E+03 -0.11604819685E+04  0.13115628134E+04  0.17770000000E+01 0. -1.
        -16    1    3    3    0    0  0.19261570310E+03 -0.13085511570E+02 -0.30260979376E+03  0.35894947691E+03  0.00000000000E+00 0.  1.
          4    1    6    6  502    0 -0.18404854066E+03 -0.43403521673E+02  0.91782702944E+02  0.21019466114E+03  0.00000000000E+00 0. -1.
         -3    1    6    6    0  502 -0.40276259355E+03 -0.53747089545E+02  0.83532517406E+02  0.41483025187E+03  0.00000000000E+00 0.  1.
<mgrwt>
<rscale>  0 0.86430664E+03</rscale>
<asrwt>0</asrwt>
<pdfrwt beam="1">  1        1 0.92535565E-01 0.86430664E+03</pdfrwt>
<pdfrwt beam="2">  1       -2 0.31862173E+00 0.86430664E+03</pdfrwt>
<totfact> 0.75370785E-01</totfact>
</mgrwt>
</event>
<event>
12    3  0.1092576E-007  0.3768665E+03  0.7818608E-02  0.1052098E+00
         -2   -1    0    0    0  501 -0.00000000000E+00  0.00000000000E+00  0.10654030622E+04  0.10654030622E+04  0.00000000000E+00 0.  1.
          1   -1    0    0  501    0  0.00000000000E+00 -0.00000000000E+00 -0.21129107424E+03  0.21129107424E+03  0.00000000000E+00 0. -1.
        -24    2    1    2    0    0 -0.14517119347E+03 -0.55744505574E+02  0.56815365726E+03  0.59405571664E+03  0.76951224124E+02 0.  0.
    5000000    2    1    2    0    0  0.14517119347E+03  0.55744505574E+02  0.28595833069E+03  0.68263841979E+03  0.60003409900E+03 0.  0.
        -24    2    4    4    0    0  0.33888808225E+03  0.14113925086E+03  0.10147199891E+03  0.38958798087E+03  0.81956133694E+02 0.  0.
         24    2    4    4    0    0 -0.19371688879E+03 -0.85394745286E+02  0.18448633178E+03  0.29305043892E+03  0.83814423658E+02 0.  0.
         11    1    5    5    0    0  0.90114882605E+02  0.63147383009E+02  0.59256557688E+00  0.11003924383E+03  0.00000000000E+00 0. -1.
        -12    1    5    5    0    0  0.24877319965E+03  0.77991867851E+02  0.10087943333E+03  0.27954873705E+03  0.00000000000E+00 0.  1.
         15    1    3    3    0    0 -0.30139851884E+02 -0.11393716008E+02  0.38464998683E+02  0.50208976177E+02  0.17770000000E+01 0. -1.
        -16    1    3    3    0    0 -0.11503134158E+03 -0.44350789566E+02  0.52968865858E+03  0.54384674046E+03  0.00000000000E+00 0.  1.
          4    1    6    6  502    0 -0.11748537779E+03 -0.64163739848E+01  0.88390910498E+02  0.14716296038E+03  0.00000000000E+00 0. -1.
         -3    1    6    6    0  502 -0.76231510992E+02 -0.78978371301E+02  0.96095421283E+02  0.14588747853E+03  0.00000000000E+00 0.  1.
<mgrwt>
<rscale>  0 0.37686648E+03</rscale>
<asrwt>0</asrwt>
<pdfrwt beam="1">  1        1 0.32506320E-01 0.37686648E+03</pdfrwt>
<pdfrwt beam="2">  1       -2 0.16390816E+00 0.37686648E+03</pdfrwt>
<totfact> 0.29939119E+01</totfact>
</mgrwt>
</event>
<event>
12    3  0.1092576E-007  0.4378858E+03  0.7818608E-02  0.1031397E+00
          1   -1    0    0  501    0  0.00000000000E+00  0.00000000000E+00  0.13975465062E+04  0.13975465062E+04  0.00000000000E+00 0. -1.
         -2   -1    0    0    0  501 -0.00000000000E+00 -0.00000000000E+00 -0.26534594388E+03  0.26534594388E+03  0.00000000000E+00 0.  1.
        -24    2    1    2    0    0  0.33022366962E+03 -0.26713660114E+03  0.20149560881E+03  0.47687603884E+03  0.80004002441E+02 0.  0.
    5000000    2    1    2    0    0 -0.33022366962E+03  0.26713660114E+03  0.93070495349E+03  0.11860164112E+04  0.60001131788E+03 0.  0.
        -24    2    4    4    0    0 -0.14730498954E+03  0.16847867405E+03  0.83782222449E+01  0.23720404350E+03  0.78177618840E+02 0.  0.
         24    2    4    4    0    0 -0.18291868008E+03  0.98657927083E+02  0.92232673125E+03  0.94881236772E+03  0.79785210897E+02 0.  0.
         11    1    5    5    0    0 -0.16586350422E+01  0.56391778266E+01 -0.16315394462E+02  0.17341957594E+02  0.00000000000E+00 0. -1.
        -12    1    5    5    0    0 -0.14564635450E+03  0.16283949623E+03  0.24693616707E+02  0.21986208590E+03  0.00000000000E+00 0.  1.
         15    1    3    3    0    0  0.25424015651E+03 -0.17145789881E+03  0.17031849561E+03  0.35078115103E+03  0.17770000000E+01 0. -1.
        -16    1    3    3    0    0  0.75983513119E+02 -0.95678702326E+02  0.31177113203E+02  0.12609488781E+03  0.00000000000E+00 0.  1.
          2    1    6    6  502    0 -0.65571940421E+02  0.80524522442E+02  0.42229240422E+03  0.43487326055E+03  0.00000000000E+00 0. -1.
         -1    1    6    6    0  502 -0.11734673966E+03  0.18133404641E+02  0.50003432703E+03  0.51393910717E+03  0.00000000000E+00 0.  1.
<mgrwt>
<rscale>  0 0.43788582E+03</rscale>
<asrwt>0</asrwt>
<pdfrwt beam="1">  1        1 0.21500715E+00 0.43788582E+03</pdfrwt>
<pdfrwt beam="2">  1       -2 0.40822454E-01 0.43788582E+03</pdfrwt>
<totfact> 0.41177340E+01</totfact>
</mgrwt>
</event>
<event>
12    3  0.1092576E-007  0.3358692E+03  0.7818608E-02  0.1068569E+00
          1   -1    0    0  501    0  0.00000000000E+00  0.00000000000E+00  0.17960152987E+04  0.17960152987E+04  0.00000000000E+00 0. -1.
         -2   -1    0    0    0  501 -0.00000000000E+00 -0.00000000000E+00 -0.15666980269E+03  0.15666980269E+03  0.00000000000E+00 0.  1.
        -24    2    1    2    0    0  0.29225127300E+02  0.26239963803E+03  0.99975186010E+03  0.10369797332E+04  0.78201708825E+02 0.  0.
    5000000    2    1    2    0    0 -0.29225127300E+02 -0.26239963803E+03  0.63959363592E+03  0.91570536817E+03  0.59977381076E+03 0.  0.
        -24    2    4    4    0    0 -0.12532188874E+03 -0.24663386880E+03  0.71340963251E+03  0.76934499470E+03  0.80028595337E+02 0.  0.
         24    2    4    4    0    0  0.96096761439E+02 -0.15765769230E+02 -0.73815996594E+02  0.14636037347E+03  0.80556877607E+02 0.  0.
         11    1    5    5    0    0 -0.64181447006E+02 -0.10108868503E+03  0.41264399093E+03  0.42966643298E+03  0.00000000000E+00 0. -1.
        -12    1    5    5    0    0 -0.61140441733E+02 -0.14554518377E+03  0.30076564158E+03  0.33967856172E+03  0.00000000000E+00 0.  1.
         15    1    3    3    0    0 -0.16212190725E+02  0.14589619142E+03  0.62106847208E+03  0.63818315438E+03  0.17770000000E+01 0. -1.
        -16    1    3    3    0    0  0.45437318026E+02  0.11650344660E+03  0.37868338803E+03  0.39879657885E+03  0.00000000000E+00 0.  1.
          4    1    6    6  502    0  0.71544703949E+02  0.24066618874E+02 -0.26993460329E+02  0.80165414660E+02  0.00000000000E+00 0. -1.
         -3    1    6    6    0  502  0.24552057490E+02 -0.39832388105E+02 -0.46822536265E+02  0.66194958807E+02  0.00000000000E+00 0.  1.
<mgrwt>
<rscale>  0 0.33586923E+03</rscale>
<asrwt>0</asrwt>
<pdfrwt beam="1">  1        1 0.27631003E+00 0.33586923E+03</pdfrwt>
<pdfrwt beam="2">  1       -2 0.24103048E-01 0.33586923E+03</pdfrwt>
<totfact> 0.60505282E+01</totfact>
</mgrwt>
</event>
<event>
12    3  0.1092576E-007  0.1039903E+04  0.7818608E-02  0.9265831E-01
          1   -1    0    0  501    0  0.00000000000E+00  0.00000000000E+00  0.12979738003E+04  0.12979738003E+04  0.00000000000E+00 0. -1.
         -2   -1    0    0    0  501 -0.00000000000E+00 -0.00000000000E+00 -0.10784720335E+04  0.10784720335E+04  0.00000000000E+00 0.  1.
        -24    2    1    2    0    0  0.36083467472E+03  0.92612432786E+03  0.58864945579E+03  0.11579974724E+04  0.80882823941E+02 0.  0.
    5000000    2    1    2    0    0 -0.36083467472E+03 -0.92612432786E+03 -0.36914768895E+03  0.12184483613E+04  0.60036527201E+03 0.  0.
        -24    2    4    4    0    0 -0.27423899577E+03 -0.17675951246E+03 -0.31210785872E+03  0.45880955008E+03  0.81510341176E+02 0.  0.
         24    2    4    4    0    0 -0.86595678946E+02 -0.74936481540E+03 -0.57039830234E+02  0.75963881125E+03  0.68928536600E+02 0.  0.
         11    1    5    5    0    0 -0.13269233666E+03 -0.51253914497E+02 -0.96058835823E+02  0.17164358392E+03  0.00000000000E+00 0. -1.
        -12    1    5    5    0    0 -0.14154665911E+03 -0.12550559796E+03 -0.21604902290E+03  0.28716596616E+03  0.00000000000E+00 0.  1.
         15    1    3    3    0    0  0.93466370215E+02  0.25562173682E+03  0.12068375432E+03  0.29773505165E+03  0.17770000000E+01 0. -1.
        -16    1    3    3    0    0  0.26736830450E+03  0.67050259104E+03  0.46796570146E+03  0.86026242077E+03  0.00000000000E+00 0.  1.
          4    1    6    6  502    0 -0.54641567805E+02 -0.45785867869E+03 -0.68471969693E+02  0.46616379227E+03  0.00000000000E+00 0. -1.
         -3    1    6    6    0  502 -0.31954111142E+02 -0.29150613671E+03  0.11432139460E+02  0.29347501899E+03  0.00000000000E+00 0.  1.
<mgrwt>
<rscale>  0 0.10399028E+04</rscale>
<asrwt>0</asrwt>
<pdfrwt beam="1">  1        1 0.19968828E+00 0.10399028E+04</pdfrwt>
<pdfrwt beam="2">  1       -2 0.16591878E+00 0.10399028E+04</pdfrwt>
<totfact> 0.18003006E+00</totfact>
</mgrwt>
</event>
<event>
12    3  0.1092576E-007  0.5795323E+03  0.7818608E-02  0.9948804E-01
          1   -1    0    0  501    0  0.00000000000E+00  0.00000000000E+00  0.42592990260E+03  0.42592990260E+03  0.00000000000E+00 0. -1.
         -2   -1    0    0    0  501 -0.00000000000E+00 -0.00000000000E+00 -0.95689922216E+03  0.95689922216E+03  0.00000000000E+00 0.  1.
        -24    2    1    2    0    0 -0.43410834518E+03 -0.15496823944E+03 -0.40062392562E+03  0.61505279297E+03  0.72973952683E+02 0.  0.
    5000000    2    1    2    0    0  0.43410834518E+03  0.15496823944E+03 -0.13034539394E+03  0.76777633179E+03  0.60002113576E+03 0.  0.
        -24    2    4    4    0    0  0.55275073719E+03  0.99846114716E+02 -0.15917342399E+01  0.56758602749E+03  0.81539811741E+02 0.  0.
         24    2    4    4    0    0 -0.11864239202E+03  0.55122124727E+02 -0.12875365970E+03  0.20019030430E+03  0.79901109079E+02 0.  0.
         13    1    5    5    0    0  0.56384625179E+02  0.16846315800E+02 -0.24647154316E+02  0.63800521381E+02  0.00000000000E+00 0. -1.
        -14    1    5    5    0    0  0.49636611201E+03  0.82999798916E+02  0.23055420076E+02  0.50378550611E+03  0.00000000000E+00 0.  1.
         15    1    3    3    0    0 -0.25902353301E+03 -0.56293781061E+02 -0.21198942058E+03  0.33941840346E+03  0.17770000000E+01 0. -1.
        -16    1    3    3    0    0 -0.17508481216E+03 -0.98674458383E+02 -0.18863450504E+03  0.27563438950E+03  0.00000000000E+00 0.  1.
          2    1    6    6  502    0 -0.58798400187E+02  0.24717411054E+02 -0.11524750633E+03  0.13172011991E+03  0.00000000000E+00 0. -1.
         -1    1    6    6    0  502 -0.59843991829E+02  0.30404713674E+02 -0.13506153369E+02  0.68470184390E+02  0.00000000000E+00 0.  1.
<mgrwt>
<rscale>  0 0.57953227E+03</rscale>
<asrwt>0</asrwt>
<pdfrwt beam="1">  1        1 0.65527678E-01 0.57953227E+03</pdfrwt>
<pdfrwt beam="2">  1       -2 0.14721526E+00 0.57953227E+03</pdfrwt>
<totfact> 0.15734498E+01</totfact>
</mgrwt>
</event>
<event>
12    3  0.1092576E-007  0.8278044E+03  0.7818608E-02  0.9520621E-01
         -2   -1    0    0    0  501 -0.00000000000E+00  0.00000000000E+00  0.12599992635E+04  0.12599992635E+04  0.00000000000E+00 0.  1.
          1   -1    0    0  501    0  0.00000000000E+00 -0.00000000000E+00 -0.12228033422E+04  0.12228033422E+04  0.00000000000E+00 0. -1.
        -24    2    1    2    0    0 -0.46175586536E+03  0.55943263921E+03 -0.89725709852E+03  0.11564201566E+04  0.77806945301E+02 0.  0.
    5000000    2    1    2    0    0  0.46175586536E+03 -0.55943263921E+03  0.93445301977E+03  0.13263824491E+04  0.59992049325E+03 0.  0.
        -24    2    4    4    0    0  0.59468254676E+03 -0.45781392124E+03  0.72345088707E+03  0.10454980070E+04  0.80274396096E+02 0.  0.
         24    2    4    4    0    0 -0.13292668140E+03 -0.10161871797E+03  0.21100213269E+03  0.28088444217E+03  0.79864281018E+02 0.  0.
         11    1    5    5    0    0  0.32238660339E+03 -0.29738217038E+03  0.43010061839E+03  0.61429294253E+03  0.00000000000E+00 0. -1.
        -12    1    5    5    0    0  0.27229594337E+03 -0.16043175086E+03  0.29335026868E+03  0.43120506443E+03  0.00000000000E+00 0.  1.
         15    1    3    3    0    0 -0.24450350388E+03  0.24521195462E+03 -0.46045983079E+03  0.57613998265E+03  0.17770000000E+01 0. -1.
        -16    1    3    3    0    0 -0.21725236148E+03  0.31422068458E+03 -0.43679726773E+03  0.58028017395E+03  0.00000000000E+00 0.  1.
          2    1    6    6  502    0 -0.12548668678E+03 -0.10579815689E+03  0.21577487051E+03  0.27110690383E+03  0.00000000000E+00 0. -1.
         -1    1    6    6    0  502 -0.74399946187E+01  0.41794389218E+01 -0.47727378205E+01  0.97775383370E+01  0.00000000000E+00 0.  1.
<mgrwt>
<rscale>  0 0.82780442E+03</rscale>
<asrwt>0</asrwt>
<pdfrwt beam="1">  1        1 0.18812359E+00 0.82780442E+03</pdfrwt>
<pdfrwt beam="2">  1       -2 0.19384604E+00 0.82780442E+03</pdfrwt>
<totfact> 0.13458979E+00</totfact>
</mgrwt>
</event>
<event>
12    3  0.1092576E-007  0.1041872E+04  0.7818608E-02  0.9263776E-01
          1   -1    0    0  501    0  0.00000000000E+00  0.00000000000E+00  0.22834482786E+04  0.22834482786E+04  0.00000000000E+00 0. -1.
         -2   -1    0    0    0  501 -0.00000000000E+00 -0.00000000000E+00 -0.62039626218E+03  0.62039626218E+03  0.00000000000E+00 0.  1.
        -24    2    1    2    0    0 -0.59834709820E+02 -0.10316946574E+04  0.12839295023E+04  0.16500693244E+04  0.79244873107E+02 0.  0.
    5000000    2    1    2    0    0  0.59834709820E+02  0.10316946574E+04  0.37912251416E+03  0.12537752164E+04  0.60020359363E+03 0.  0.
        -24    2    4    4    0    0 -0.97636177402E+01  0.60683427037E+03  0.50806788264E+03  0.79567040381E+03  0.81334237590E+02 0.  0.
         24    2    4    4    0    0  0.69598327560E+02  0.42486038705E+03 -0.12894536848E+03  0.45810481257E+03  0.88785334160E+02 0.  0.
         11    1    5    5    0    0 -0.31001560641E+02  0.13602628353E+03  0.93060900444E+02  0.16770383944E+03  0.00000000000E+00 0. -1.
        -12    1    5    5    0    0  0.21237942901E+02  0.47080798684E+03  0.41500698219E+03  0.62796656436E+03  0.00000000000E+00 0.  1.
         15    1    3    3    0    0 -0.46302069962E+01 -0.30930737959E+03  0.43921364356E+03  0.53721902079E+03  0.17770000000E+01 0. -1.
        -16    1    3    3    0    0 -0.55204502823E+02 -0.72238727783E+03  0.84471585872E+03  0.11128503036E+04  0.00000000000E+00 0.  1.
          2    1    6    6  502    0  0.23113130995E+02  0.35147048719E+03 -0.94817507971E+02  0.36476852936E+03  0.00000000000E+00 0. -1.
         -1    1    6    6    0  502  0.46485196565E+02  0.73389899862E+02 -0.34127860506E+02  0.93336283213E+02  0.00000000000E+00 0.  1.
<mgrwt>
<rscale>  0 0.10418723E+04</rscale>
<asrwt>0</asrwt>
<pdfrwt beam="1">  1        1 0.35129973E+00 0.10418723E+04</pdfrwt>
<pdfrwt beam="2">  1       -2 0.95445580E-01 0.10418723E+04</pdfrwt>
<totfact> 0.15527634E+00</totfact>
</mgrwt>
</event>
<event>
12    3  0.1092576E-007  0.5326771E+03  0.7818608E-02  0.1005585E+00
         -2   -1    0    0    0  501 -0.00000000000E+00  0.00000000000E+00  0.41384508405E+03  0.41384508405E+03  0.00000000000E+00 0.  1.
          1   -1    0    0  501    0  0.00000000000E+00 -0.00000000000E+00 -0.16975413257E+04  0.16975413257E+04  0.00000000000E+00 0. -1.
        -24    2    1    2    0    0 -0.25263046567E+02  0.45672534137E+03  0.15268451940E+03  0.48889739417E+03  0.80447750683E+02 0.  0.
    5000000    2    1    2    0    0  0.25263046567E+02 -0.45672534137E+03 -0.14363807610E+04  0.16224890155E+04  0.60003721219E+03 0.  0.
        -24    2    4    4    0    0 -0.10322447558E+03 -0.43995088822E+03 -0.51481617259E+03  0.68883927344E+03  0.72469142856E+02 0.  0.
         24    2    4    4    0    0  0.12848752215E+03 -0.16774453148E+02 -0.92156458841E+03  0.93364974210E+03  0.75034156808E+02 0.  0.
         11    1    5    5    0    0 -0.26489753538E+01 -0.11358770357E+03 -0.98495429858E+02  0.15036799252E+03  0.00000000000E+00 0. -1.
        -12    1    5    5    0    0 -0.10057550023E+03 -0.32636318465E+03 -0.41632074273E+03  0.53847128092E+03  0.00000000000E+00 0.  1.
         15    1    3    3    0    0 -0.15519714949E+02  0.44566950601E+03  0.13510856214E+03  0.46596099776E+03  0.17770000000E+01 0. -1.
        -16    1    3    3    0    0 -0.97433316183E+01  0.11055835354E+02  0.17575957264E+02  0.22936396407E+02  0.00000000000E+00 0.  1.
          2    1    6    6  502    0  0.22053807195E+02  0.26653320345E+02 -0.19407501874E+03  0.19713417460E+03  0.00000000000E+00 0. -1.
         -1    1    6    6    0  502  0.10643371496E+03 -0.43427773493E+02 -0.72748956967E+03  0.73651556750E+03  0.00000000000E+00 0.  1.
<mgrwt>
<rscale>  0 0.53267710E+03</rscale>
<asrwt>0</asrwt>
<pdfrwt beam="1">  1        1 0.26116020E+00 0.53267710E+03</pdfrwt>
<pdfrwt beam="2">  1       -2 0.63668476E-01 0.53267710E+03</pdfrwt>
<totfact> 0.10294892E+01</totfact>
</mgrwt>
</event>
<event>
12    3  0.1092576E-007  0.9030896E+03  0.7818608E-02  0.9421727E-01
         -2   -1    0    0    0  501 -0.00000000000E+00  0.00000000000E+00  0.33653792205E+03  0.33653792205E+03  0.00000000000E+00 0.  1.
          1   -1    0    0  501    0  0.00000000000E+00 -0.00000000000E+00 -0.28169611631E+04  0.28169611631E+04  0.00000000000E+00 0. -1.
        -24    2    1    2    0    0  0.65268875450E+03  0.55227251637E+03 -0.79243949403E+03  0.11684745537E+04  0.79780250669E+02 0.  0.
    5000000    2    1    2    0    0 -0.65268875450E+03 -0.55227251637E+03 -0.16879837470E+04  0.19850245314E+04  0.60002143093E+03 0.  0.
        -24    2    4    4    0    0 -0.12952580534E+03 -0.37562391572E+03 -0.11103240502E+04  0.11819402863E+04  0.79328958565E+02 0.  0.
         24    2    4    4    0    0 -0.52316294916E+03 -0.17664860065E+03 -0.57765969676E+03  0.80308424506E+03  0.79682996380E+02 0.  0.
         11    1    5    5    0    0 -0.32517886690E+02 -0.13393297930E+03 -0.49364641936E+03  0.51252535863E+03  0.00000000000E+00 0. -1.
        -12    1    5    5    0    0 -0.97007918654E+02 -0.24169093642E+03 -0.61667763086E+03  0.66941492770E+03  0.00000000000E+00 0.  1.
         15    1    3    3    0    0  0.38010093328E+03  0.30604588507E+03 -0.40045688793E+03  0.63127623119E+03  0.17770000000E+01 0. -1.
        -16    1    3    3    0    0  0.27258782123E+03  0.24622663130E+03 -0.39198260610E+03  0.53719832253E+03  0.00000000000E+00 0.  1.
          2    1    6    6  502    0 -0.27499762523E+03 -0.81615702258E+02 -0.24443486241E+03  0.37687294769E+03  0.00000000000E+00 0. -1.
         -1    1    6    6    0  502 -0.24816532393E+03 -0.95032898392E+02 -0.33322483435E+03  0.42621129737E+03  0.00000000000E+00 0.  1.
<mgrwt>
<rscale>  0 0.90308964E+03</rscale>
<asrwt>0</asrwt>
<pdfrwt beam="1">  1        1 0.43337865E+00 0.90308964E+03</pdfrwt>
<pdfrwt beam="2">  1       -2 0.51775064E-01 0.90308964E+03</pdfrwt>
<totfact> 0.25994161E+00</totfact>
</mgrwt>
</event>
<event>
12    3  0.1092576E-007  0.6665985E+03  0.7818608E-02  0.9776122E-01
          1   -1    0    0  501    0  0.00000000000E+00  0.00000000000E+00  0.33372585692E+03  0.33372585692E+03  0.00000000000E+00 0. -1.
         -2   -1    0    0    0  501 -0.00000000000E+00 -0.00000000000E+00 -0.23643737942E+04  0.23643737942E+04  0.00000000000E+00 0.  1.
        -24    2    1    2    0    0 -0.50127873810E+03 -0.34822040227E+03 -0.16509124055E+04  0.17619391074E+04  0.79873812278E+02 0.  0.
    5000000    2    1    2    0    0  0.50127873810E+03  0.34822040227E+03 -0.37973553180E+03  0.93616054370E+03  0.59971632264E+03 0.  0.
        -24    2    4    4    0    0  0.49023554709E+03  0.17248611779E+03 -0.48571326609E+03  0.71583093793E+03  0.80088715679E+02 0.  0.
         24    2    4    4    0    0  0.11043191008E+02  0.17573428447E+03  0.10597773429E+03  0.22032960577E+03  0.79431506382E+02 0.  0.
         13    1    5    5    0    0  0.18594544548E+03  0.25599047230E+02 -0.18393172985E+03  0.26279631116E+03  0.00000000000E+00 0. -1.
        -14    1    5    5    0    0  0.30429010161E+03  0.14688707056E+03 -0.30178153624E+03  0.45303462677E+03  0.00000000000E+00 0.  1.
         15    1    3    3    0    0 -0.43720107152E+03 -0.27100795485E+03 -0.13459128709E+04  0.14408590154E+04  0.17770000000E+01 0. -1.
        -16    1    3    3    0    0 -0.64077666579E+02 -0.77212447413E+02 -0.30499953456E+03  0.32108009199E+03  0.00000000000E+00 0.  1.
          2    1    6    6  502    0 -0.33204025294E+02  0.54373125384E+02  0.29453945282E+02  0.70188880547E+02  0.00000000000E+00 0. -1.
         -1    1    6    6    0  502  0.44247216303E+02  0.12136115909E+03  0.76523789005E+02  0.15014072522E+03  0.00000000000E+00 0.  1.
<mgrwt>
<rscale>  0 0.66659850E+03</rscale>
<asrwt>0</asrwt>
<pdfrwt beam="1">  1        1 0.51342439E-01 0.66659850E+03</pdfrwt>
<pdfrwt beam="2">  1       -2 0.36374982E+00 0.66659850E+03</pdfrwt>
<totfact> 0.91375274E-01</totfact>
</mgrwt>
</event>
<event>
12    3  0.1092576E-007  0.1321494E+04  0.7818608E-02  0.9012692E-01
          1   -1    0    0  501    0  0.00000000000E+00  0.00000000000E+00  0.17556025707E+04  0.17556025707E+04  0.00000000000E+00 0. -1.
         -2   -1    0    0    0  501 -0.00000000000E+00 -0.00000000000E+00 -0.10660151419E+04  0.10660151419E+04  0.00000000000E+00 0.  1.
        -24    2    1    2    0    0 -0.38062449523E+03  0.12445484408E+04  0.34438714648E+03  0.13475324022E+04  0.58866291986E+02 0.  0.
    5000000    2    1    2    0    0  0.38062449523E+03 -0.12445484408E+04  0.34520028227E+03  0.14740853104E+04  0.59999036623E+03 0.  0.
        -24    2    4    4    0    0  0.38416499739E+02 -0.65784147334E+03  0.42088872871E+03  0.78601462328E+03  0.80252318073E+02 0.  0.
         24    2    4    4    0    0  0.34220799549E+03 -0.58670696746E+03 -0.75688446438E+02  0.68807068712E+03  0.79882111241E+02 0.  0.
         13    1    5    5    0    0  0.34731446649E+02 -0.57917832227E+03  0.39936594702E+03  0.70437700276E+03  0.00000000000E+00 0. -1.
        -14    1    5    5    0    0  0.36850530896E+01 -0.78663151077E+02  0.21522781685E+02  0.81637620526E+02  0.00000000000E+00 0.  1.
         15    1    3    3    0    0 -0.31349192654E+03  0.10804062916E+04  0.28495635755E+03  0.11604991281E+04  0.17770000000E+01 0. -1.
        -16    1    3    3    0    0 -0.67132568698E+02  0.16414214921E+03  0.59430788927E+02  0.18703327404E+03  0.00000000000E+00 0.  1.
          2    1    6    6  502    0  0.29217162359E+03 -0.45407099650E+03 -0.82154952182E+02  0.54616312917E+03  0.00000000000E+00 0. -1.
         -1    1    6    6    0  502  0.50036371902E+02 -0.13263597097E+03  0.64665057445E+01  0.14190755795E+03  0.00000000000E+00 0.  1.
<mgrwt>
<rscale>  0 0.13214936E+04</rscale>
<asrwt>0</asrwt>
<pdfrwt beam="1">  1        1 0.27009270E+00 0.13214936E+04</pdfrwt>
<pdfrwt beam="2">  1       -2 0.16400233E+00 0.13214936E+04</pdfrwt>
<totfact> 0.86802311E-01</totfact>
</mgrwt>
</event>
<event>
12    3  0.1092576E-007  0.1119839E+04  0.7818608E-02  0.9186068E-01
         -2   -1    0    0    0  501 -0.00000000000E+00  0.00000000000E+00  0.80476993987E+03  0.80476993987E+03  0.00000000000E+00 0.  1.
          1   -1    0    0  501    0  0.00000000000E+00 -0.00000000000E+00 -0.18061765863E+04  0.18061765863E+04  0.00000000000E+00 0. -1.
        -24    2    1    2    0    0 -0.10965541938E+04  0.36739938509E+02 -0.76109818469E+03  0.13375329199E+04  0.77090480706E+02 0.  0.
    5000000    2    1    2    0    0  0.10965541938E+04 -0.36739938509E+02 -0.24030846178E+03  0.12734136063E+04  0.60004427583E+03 0.  0.
        -24    2    4    4    0    0  0.22136410010E+03 -0.13039983283E+03  0.14778167723E+03  0.30748594508E+03  0.81865750363E+02 0.  0.
         24    2    4    4    0    0  0.87519009366E+03  0.93659894317E+02 -0.38809013901E+03  0.96592766121E+03  0.87592321850E+02 0.  0.
         11    1    5    5    0    0  0.13929309471E+03 -0.67079481712E+02  0.43860209287E+02  0.16070451475E+03  0.00000000000E+00 0. -1.
        -12    1    5    5    0    0  0.82071005383E+02 -0.63320351114E+02  0.10392146795E+03  0.14678143033E+03  0.00000000000E+00 0.  1.
         15    1    3    3    0    0 -0.59344188310E+03  0.31954333855E+02 -0.36769839856E+03  0.69885593516E+03  0.17770000000E+01 0. -1.
        -16    1    3    3    0    0 -0.50311231065E+03  0.47856046540E+01 -0.39339978613E+03  0.63867698477E+03  0.00000000000E+00 0.  1.
          2    1    6    6  502    0 -0.12328392452E+01 -0.19996721939E+01  0.59221311238E+00  0.24226633811E+01  0.00000000000E+00 0. -1.
         -1    1    6    6    0  502  0.87642293290E+03  0.95659566511E+02 -0.38868235213E+03  0.96350499783E+03  0.00000000000E+00 0.  1.
<mgrwt>
<rscale>  0 0.11198393E+04</rscale>
<asrwt>0</asrwt>
<pdfrwt beam="1">  1        1 0.27787332E+00 0.11198393E+04</pdfrwt>
<pdfrwt beam="2">  1       -2 0.12381076E+00 0.11198393E+04</pdfrwt>
<totfact> 0.17171419E+00</totfact>
</mgrwt>
</event>
<event>
12    3  0.1092576E-007  0.6354766E+03  0.7818608E-02  0.9834420E-01
         -2   -1    0    0    0  501 -0.00000000000E+00  0.00000000000E+00  0.26170640779E+03  0.26170640779E+03  0.00000000000E+00 0.  1.
          1   -1    0    0  501    0  0.00000000000E+00 -0.00000000000E+00 -0.16601624226E+04  0.16601624226E+04  0.00000000000E+00 0. -1.
        -24    2    1    2    0    0  0.27839545637E+03 -0.43461902670E+03 -0.63892805146E+03  0.82508246326E+03  0.78321693951E+02 0.  0.
    5000000    2    1    2    0    0 -0.27839545637E+03  0.43461902670E+03 -0.75952796332E+03  0.10967863671E+04  0.59971649927E+03 0.  0.
        -24    2    4    4    0    0 -0.38595476630E+03  0.99980137252E+02 -0.25254003332E+03  0.47512244343E+03  0.54843033715E+02 0.  0.
         24    2    4    4    0    0  0.10755930993E+03  0.33463888945E+03 -0.50698793001E+03  0.62166392368E+03  0.76662124566E+02 0.  0.
         13    1    5    5    0    0 -0.20415149912E+03  0.80413523844E+02 -0.14476544837E+03  0.26287107953E+03  0.00000000000E+00 0. -1.
        -14    1    5    5    0    0 -0.18180326718E+03  0.19566613408E+02 -0.10777458495E+03  0.21225136390E+03  0.00000000000E+00 0.  1.
         15    1    3    3    0    0  0.15274256108E+03 -0.21670780892E+03 -0.38669147892E+03  0.46885607814E+03  0.17770000000E+01 0. -1.
        -16    1    3    3    0    0  0.12565289529E+03 -0.21791121778E+03 -0.25223657254E+03  0.35622638512E+03  0.00000000000E+00 0.  1.
          2    1    6    6  502    0  0.17858865191E+02  0.81792290564E+02 -0.71142486570E+02  0.10986433114E+03  0.00000000000E+00 0. -1.
         -1    1    6    6    0  502  0.89700444742E+02  0.25284659888E+03 -0.43584544344E+03  0.51179959253E+03  0.00000000000E+00 0.  1.
<mgrwt>
<rscale>  0 0.63547657E+03</rscale>
<asrwt>0</asrwt>
<pdfrwt beam="1">  1        1 0.25540960E+00 0.63547657E+03</pdfrwt>
<pdfrwt beam="2">  1       -2 0.40262525E-01 0.63547657E+03</pdfrwt>
<totfact> 0.27226619E+01</totfact>
</mgrwt>
</event>
<event>
12    3  0.1092576E-007  0.4332478E+03  0.7818608E-02  0.1032839E+00
         -2   -1    0    0    0  501 -0.00000000000E+00  0.00000000000E+00  0.31560090167E+03  0.31560090167E+03  0.00000000000E+00 0.  1.
          1   -1    0    0  501    0  0.00000000000E+00 -0.00000000000E+00 -0.73478565879E+03  0.73478565879E+03  0.00000000000E+00 0. -1.
        -24    2    1    2    0    0 -0.14830802833E+03 -0.22863164621E+03 -0.22674457319E+03  0.36386760756E+03  0.81968490573E+02 0.  0.
    5000000    2    1    2    0    0  0.14830802833E+03  0.22863164621E+03 -0.19244018393E+03  0.68651895289E+03  0.60000612278E+03 0.  0.
        -24    2    4    4    0    0  0.48796675495E+02 -0.15916402904E+03 -0.20643973648E+03  0.27691910716E+03  0.79702719104E+02 0.  0.
         24    2    4    4    0    0  0.99511352840E+02  0.38779567525E+03  0.13999552547E+02  0.40959984574E+03  0.85370082980E+02 0.  0.
         13    1    5    5    0    0 -0.40947293298E+01 -0.10814745499E+03 -0.98495581163E+02  0.14633529423E+03  0.00000000000E+00 0. -1.
        -14    1    5    5    0    0  0.52891404825E+02 -0.51016574053E+02 -0.10794415532E+03  0.13058381293E+03  0.00000000000E+00 0.  1.
         15    1    3    3    0    0 -0.13563717823E+03 -0.14283276157E+03 -0.14405443156E+03  0.24403581474E+03  0.17770000000E+01 0. -1.
        -16    1    3    3    0    0 -0.12670850102E+02 -0.85798884646E+02 -0.82690141630E+02  0.11983179282E+03  0.00000000000E+00 0.  1.
          2    1    6    6  502    0  0.72623062043E+02  0.23622465987E+03 -0.31362014714E+02  0.24911799421E+03  0.00000000000E+00 0. -1.
         -1    1    6    6    0  502  0.26888290797E+02  0.15157101538E+03  0.45361567260E+02  0.16048185153E+03  0.00000000000E+00 0.  1.
<mgrwt>
<rscale>  0 0.43324781E+03</rscale>
<asrwt>0</asrwt>
<pdfrwt beam="1">  1        1 0.11304395E+00 0.43324781E+03</pdfrwt>
<pdfrwt beam="2">  1       -2 0.48553985E-01 0.43324781E+03</pdfrwt>
<totfact> 0.92991893E+01</totfact>
</mgrwt>
</event>
<event>
12    3  0.1092576E-007  0.7053755E+03  0.7818608E-02  0.9708083E-01
          1   -1    0    0  501    0  0.00000000000E+00  0.00000000000E+00  0.23752955246E+04  0.23752955246E+04  0.00000000000E+00 0. -1.
         -2   -1    0    0    0  501 -0.00000000000E+00 -0.00000000000E+00 -0.28241966084E+03  0.28241966084E+03  0.00000000000E+00 0.  1.
        -24    2    1    2    0    0 -0.66513433836E+03 -0.18361431732E+02  0.12957375124E+04  0.14587481672E+04  0.79181337587E+02 0.  0.
    5000000    2    1    2    0    0  0.66513433836E+03  0.18361431732E+02  0.79713835143E+03  0.11989670182E+04  0.59945936417E+03 0.  0.
        -24    2    4    4    0    0  0.32000162554E+03  0.15950523965E+03  0.72322115042E+03  0.81062158450E+03  0.78838816763E+02 0.  0.
         24    2    4    4    0    0  0.34513271282E+03 -0.14114380792E+03  0.73917201013E+02  0.38834543374E+03  0.79437140786E+02 0.  0.
         13    1    5    5    0    0  0.18465536698E+03  0.54788086694E+02  0.33642430895E+03  0.38766048889E+03  0.00000000000E+00 0. -1.
        -14    1    5    5    0    0  0.13534625856E+03  0.10471715295E+03  0.38679684147E+03  0.42296109561E+03  0.00000000000E+00 0.  1.
         15    1    3    3    0    0 -0.31010290371E+03  0.56131935780E+01  0.68418557801E+03  0.75120462041E+03  0.17770000000E+01 0. -1.
        -16    1    3    3    0    0 -0.35503143465E+03 -0.23974625310E+02  0.61155193435E+03  0.70754354682E+03  0.00000000000E+00 0.  1.
          2    1    6    6  502    0  0.31404414567E+03 -0.10027568055E+03  0.68553030201E+02  0.33671717433E+03  0.00000000000E+00 0. -1.
         -1    1    6    6    0  502  0.31088567143E+02 -0.40868127365E+02  0.53641708120E+01  0.51628259411E+02  0.00000000000E+00 0.  1.
<mgrwt>
<rscale>  0 0.70537547E+03</rscale>
<asrwt>0</asrwt>
<pdfrwt beam="1">  1        1 0.36543007E+00 0.70537547E+03</pdfrwt>
<pdfrwt beam="2">  1       -2 0.43449180E-01 0.70537547E+03</pdfrwt>
<totfact> 0.77064955E+00</totfact>
</mgrwt>
</event>
<event>
12    3  0.1092576E-007  0.8607287E+03  0.7818608E-02  0.9476049E-01
         -2   -1    0    0    0  501 -0.00000000000E+00  0.00000000000E+00  0.13281444877E+04  0.13281444877E+04  0.00000000000E+00 0.  1.
          1   -1    0    0  501    0  0.00000000000E+00 -0.00000000000E+00 -0.88892238098E+03  0.88892238098E+03  0.00000000000E+00 0. -1.
        -24    2    1    2    0    0 -0.25955051631E+03 -0.78680399212E+03  0.77822356233E+03  0.11394127399E+04  0.78755865180E+02 0.  0.
    5000000    2    1    2    0    0  0.25955051631E+03  0.78680399212E+03 -0.33900145557E+03  0.10776541288E+04  0.59999120162E+03 0.  0.
        -24    2    4    4    0    0  0.24397493838E+03  0.76785044705E+03 -0.45774657704E+03  0.93019109229E+03  0.81273979788E+02 0.  0.
         24    2    4    4    0    0  0.15575577923E+02  0.18953545067E+02  0.11874512147E+03  0.14746303656E+03  0.83923225505E+02 0.  0.
         11    1    5    5    0    0  0.18862196671E+03  0.65340279890E+03 -0.35770544824E+03  0.76841827909E+03  0.00000000000E+00 0. -1.
        -12    1    5    5    0    0  0.55352971678E+02  0.11444764816E+03 -0.10004112880E+03  0.16177281321E+03  0.00000000000E+00 0.  1.
         15    1    3    3    0    0 -0.16864546851E+03 -0.61702530301E+03  0.59813448140E+03  0.87574513083E+03  0.17770000000E+01 0. -1.
        -16    1    3    3    0    0 -0.90905047799E+02 -0.16977868911E+03  0.18008908093E+03  0.26366760905E+03  0.00000000000E+00 0.  1.
          2    1    6    6  502    0  0.43376190669E+02  0.29290384691E+02  0.49099739445E+02  0.71764928523E+02  0.00000000000E+00 0. -1.
         -1    1    6    6    0  502 -0.27800612746E+02 -0.10336839624E+02  0.69645382025E+02  0.75698108034E+02  0.00000000000E+00 0.  1.
<mgrwt>
<rscale>  0 0.86072869E+03</rscale>
<asrwt>0</asrwt>
<pdfrwt beam="1">  1        1 0.13675729E+00 0.86072869E+03</pdfrwt>
<pdfrwt beam="2">  1       -2 0.20432992E+00 0.86072869E+03</pdfrwt>
<totfact> 0.20588442E+00</totfact>
</mgrwt>
</event>
<event>
12    3  0.1092576E-007  0.9903495E+03  0.7818608E-02  0.9319193E-01
         -2   -1    0    0    0  501 -0.00000000000E+00  0.00000000000E+00  0.26434965306E+04  0.26434965306E+04  0.00000000000E+00 0.  1.
          1   -1    0    0  501    0  0.00000000000E+00 -0.00000000000E+00 -0.44381441905E+03  0.44381441905E+03  0.00000000000E+00 0. -1.
        -24    2    1    2    0    0  0.78559271081E+03  0.59844559727E+03  0.12251967898E+04  0.15756137985E+04  0.78476928514E+02 0.  0.
    5000000    2    1    2    0    0 -0.78559271081E+03 -0.59844559727E+03  0.97448532177E+03  0.15116971511E+04  0.60026127158E+03 0.  0.
        -24    2    4    4    0    0 -0.45721234277E+03 -0.36426483644E+03  0.92542519570E+03  0.10975913309E+04  0.81011970533E+02 0.  0.
         24    2    4    4    0    0 -0.32838036804E+03 -0.23418076083E+03  0.49060126078E+02  0.41410582022E+03  0.80015245509E+02 0.  0.
         13    1    5    5    0    0 -0.26610281017E+03 -0.18585001879E+03  0.57637802500E+03  0.66148511908E+03  0.00000000000E+00 0. -1.
        -14    1    5    5    0    0 -0.19110953260E+03 -0.17841481764E+03  0.34904717070E+03  0.43610621180E+03  0.00000000000E+00 0.  1.
         15    1    3    3    0    0  0.46185791867E+03  0.32724712980E+03  0.64795873543E+03  0.86038195097E+03  0.17770000000E+01 0. -1.
        -16    1    3    3    0    0  0.32373479214E+03  0.27119846746E+03  0.57723805436E+03  0.71523184758E+03  0.00000000000E+00 0.  1.
          2    1    6    6  502    0 -0.23469746382E+03 -0.13905504533E+03  0.28199198448E+01  0.27281341078E+03  0.00000000000E+00 0. -1.
         -1    1    6    6    0  502 -0.93682904223E+02 -0.95125715503E+02  0.46240206234E+02  0.14129240944E+03  0.00000000000E+00 0.  1.
<mgrwt>
<rscale>  0 0.99034953E+03</rscale>
<asrwt>0</asrwt>
<pdfrwt beam="1">  1        1 0.68279143E-01 0.99034953E+03</pdfrwt>
<pdfrwt beam="2">  1       -2 0.40669176E+00 0.99034953E+03</pdfrwt>
<totfact> 0.31426762E-01</totfact>
</mgrwt>
</event>
<event>
12    3  0.1092576E-007  0.8669873E+03  0.7818608E-02  0.9467817E-01
         -2   -1    0    0    0  501 -0.00000000000E+00  0.00000000000E+00  0.21070348688E+04  0.21070348688E+04  0.00000000000E+00 0.  1.
          1   -1    0    0  501    0  0.00000000000E+00 -0.00000000000E+00 -0.90237778121E+03  0.90237778121E+03  0.00000000000E+00 0. -1.
        -24    2    1    2    0    0 -0.66566186226E+03  0.50367903648E+03 -0.53079578511E+03  0.99235418668E+03  0.78894737928E+02 0.  0.
    5000000    2    1    2    0    0  0.66566186226E+03 -0.50367903648E+03  0.17354528727E+04  0.20170584634E+04  0.59994156761E+03 0.  0.
        -24    2    4    4    0    0 -0.52303777714E+01 -0.11509070593E+03  0.73751306733E+03  0.75077873979E+03  0.80436087697E+02 0.  0.
         24    2    4    4    0    0  0.67089224003E+03 -0.38858833056E+03  0.99793980541E+03  0.12662797236E+04  0.80518288427E+02 0.  0.
         11    1    5    5    0    0  0.14065862684E+02 -0.11515610310E+02  0.30787578190E+03  0.30841198883E+03  0.00000000000E+00 0. -1.
        -12    1    5    5    0    0 -0.19296240456E+02 -0.10357509562E+03  0.42963728543E+03  0.44236675096E+03  0.00000000000E+00 0.  1.
         15    1    3    3    0    0 -0.97934441741E+02  0.78662926736E+02 -0.11467320650E+03  0.17009442360E+03  0.17770000000E+01 0. -1.
        -16    1    3    3    0    0 -0.56772742052E+03  0.42501610975E+03 -0.41612257861E+03  0.82225976308E+03  0.00000000000E+00 0.  1.
          2    1    6    6  502    0  0.38017572816E+03 -0.23283339980E+03  0.63504436958E+03  0.77590355566E+03  0.00000000000E+00 0. -1.
         -1    1    6    6    0  502  0.29071651187E+03 -0.15575493076E+03  0.36289543583E+03  0.49037616793E+03  0.00000000000E+00 0.  1.
<mgrwt>
<rscale>  0 0.86698726E+03</rscale>
<asrwt>0</asrwt>
<pdfrwt beam="1">  1        1 0.13882735E+00 0.86698726E+03</pdfrwt>
<pdfrwt beam="2">  1       -2 0.32415921E+00 0.86698726E+03</pdfrwt>
<totfact> 0.37083629E-01</totfact>
</mgrwt>
</event>
<event>
12    3  0.1092576E-007  0.8676907E+03  0.7818608E-02  0.9466896E-01
         -2   -1    0    0    0  501 -0.00000000000E+00  0.00000000000E+00  0.30686837827E+03  0.30686837827E+03  0.00000000000E+00 0.  1.
          1   -1    0    0  501    0  0.00000000000E+00 -0.00000000000E+00 -0.25335219190E+04  0.25335219190E+04  0.00000000000E+00 0. -1.
        -24    2    1    2    0    0 -0.34544825725E+03 -0.69224963957E+03 -0.86019639551E+03  0.11593971068E+04  0.75629032156E+02 0.  0.
    5000000    2    1    2    0    0  0.34544825725E+03  0.69224963957E+03 -0.13664571452E+04  0.16809931904E+04  0.59999076220E+03 0.  0.
        -24    2    4    4    0    0  0.41576254674E+03  0.21451207132E+03 -0.51914234419E+03  0.70336438722E+03  0.79616352982E+02 0.  0.
         24    2    4    4    0    0 -0.70314289495E+02  0.47773756825E+03 -0.84731480098E+03  0.97762880320E+03  0.68105957583E+02 0.  0.
         13    1    5    5    0    0  0.23864557884E+03  0.80798184937E+02 -0.29489586406E+03  0.38787063517E+03  0.00000000000E+00 0. -1.
        -14    1    5    5    0    0  0.17711696791E+03  0.13371388638E+03 -0.22424648013E+03  0.31549375205E+03  0.00000000000E+00 0.  1.
         15    1    3    3    0    0 -0.27522493838E+03 -0.49501354949E+03 -0.66021183296E+03  0.86986780777E+03  0.17770000000E+01 0. -1.
        -16    1    3    3    0    0 -0.70223318864E+02 -0.19723609008E+03 -0.19998456255E+03  0.28952929903E+03  0.00000000000E+00 0.  1.
          4    1    6    6  502    0 -0.28280382061E+02  0.35295070130E+03 -0.65453574268E+03  0.74417136199E+03  0.00000000000E+00 0. -1.
         -3    1    6    6    0  502 -0.42033907434E+02  0.12478686695E+03 -0.19277905830E+03  0.23345744121E+03  0.00000000000E+00 0.  1.
<mgrwt>
<rscale>  0 0.86769068E+03</rscale>
<asrwt>0</asrwt>
<pdfrwt beam="1">  1        1 0.38977259E+00 0.86769068E+03</pdfrwt>
<pdfrwt beam="2">  1       -2 0.47210521E-01 0.86769068E+03</pdfrwt>
<totfact> 0.49645340E+00</totfact>
</mgrwt>
</event>
<event>
12    3  0.1092576E-007  0.1216526E+04  0.7818608E-02  0.9098513E-01
          1   -1    0    0  501    0  0.00000000000E+00  0.00000000000E+00  0.17235631201E+04  0.17235631201E+04  0.00000000000E+00 0. -1.
         -2   -1    0    0    0  501 -0.00000000000E+00 -0.00000000000E+00 -0.97294867693E+03  0.97294867693E+03  0.00000000000E+00 0.  1.
        -24    2    1    2    0    0 -0.10524744292E+04 -0.47782392147E+03 -0.63800838001E+02  0.11605251275E+04  0.82035971104E+02 0.  0.
    5000000    2    1    2    0    0  0.10524744292E+04  0.47782392147E+03  0.81441528117E+03  0.15359866695E+04  0.59997056158E+03 0.  0.
        -24    2    4    4    0    0  0.38223618594E+03 -0.89125919767E+02  0.38530057799E+03  0.55563101084E+03  0.78875556329E+02 0.  0.
         24    2    4    4    0    0  0.67023824326E+03  0.56694984123E+03  0.42911470318E+03  0.98035565870E+03  0.79412617844E+02 0.  0.
         11    1    5    5    0    0  0.19061730075E+03 -0.30207137145E+02  0.24034469747E+03  0.30824178835E+03  0.00000000000E+00 0. -1.
        -12    1    5    5    0    0  0.19161888519E+03 -0.58918782622E+02  0.14495588052E+03  0.24738922249E+03  0.00000000000E+00 0.  1.
         15    1    3    3    0    0 -0.98038030923E+03 -0.42388548128E+03 -0.48500188814E+02  0.10691959025E+04  0.17770000000E+01 0. -1.
        -16    1    3    3    0    0 -0.72094119966E+02 -0.53938440180E+02 -0.15300649186E+02  0.91329224941E+02  0.00000000000E+00 0.  1.
          2    1    6    6  502    0  0.45478615967E+03  0.43176753751E+03  0.30641348611E+03  0.69795621778E+03  0.00000000000E+00 0. -1.
         -1    1    6    6    0  502  0.21545208359E+03  0.13518230372E+03  0.12270121707E+03  0.28239944092E+03  0.00000000000E+00 0.  1.
<mgrwt>
<rscale>  0 0.12165257E+04</rscale>
<asrwt>0</asrwt>
<pdfrwt beam="1">  1        1 0.26516356E+00 0.12165257E+04</pdfrwt>
<pdfrwt beam="2">  1       -2 0.14968441E+00 0.12165257E+04</pdfrwt>
<totfact> 0.11828463E+00</totfact>
</mgrwt>
</event>
<event>
12    3  0.1092576E-007  0.1595211E+04  0.7818608E-02  0.8823495E-01
          1   -1    0    0  501    0  0.00000000000E+00  0.00000000000E+00  0.31661996122E+04  0.31661996122E+04  0.00000000000E+00 0. -1.
         -2   -1    0    0    0  501 -0.00000000000E+00 -0.00000000000E+00 -0.80974617133E+03  0.80974617133E+03  0.00000000000E+00 0.  1.
        -24    2    1    2    0    0  0.12989598110E+04 -0.83221664070E+03  0.12134063058E+04  0.19643720994E+04  0.80757380609E+02 0.  0.
    5000000    2    1    2    0    0 -0.12989598110E+04  0.83221664070E+03  0.11430471351E+04  0.20115736841E+04  0.59999233828E+03 0.  0.
        -24    2    4    4    0    0 -0.29076212179E+03  0.50844392643E+03  0.45831758597E+03  0.74801729415E+03  0.80106335240E+02 0.  0.
         24    2    4    4    0    0 -0.10081976892E+04  0.32377271428E+03  0.68472954914E+03  0.12635563900E+04  0.80180073579E+02 0.  0.
         11    1    5    5    0    0 -0.14663842674E+03  0.24757620723E+03  0.27557419379E+03  0.39841930534E+03  0.00000000000E+00 0. -1.
        -12    1    5    5    0    0 -0.14412369505E+03  0.26086771920E+03  0.18274339219E+03  0.34959798882E+03  0.00000000000E+00 0.  1.
         15    1    3    3    0    0  0.63477710880E+03 -0.39217777944E+03  0.53798397407E+03  0.91987787376E+03  0.17770000000E+01 0. -1.
        -16    1    3    3    0    0  0.66418270217E+03 -0.44003886127E+03  0.67542233173E+03  0.10444942257E+04  0.00000000000E+00 0.  1.
          2    1    6    6  502    0 -0.43680497150E+03  0.18087764015E+03  0.29340136741E+03  0.55641680980E+03  0.00000000000E+00 0. -1.
         -1    1    6    6    0  502 -0.57139271768E+03  0.14289507413E+03  0.39132818174E+03  0.70713958018E+03  0.00000000000E+00 0.  1.
<mgrwt>
<rscale>  0 0.15952115E+04</rscale>
<asrwt>0</asrwt>
<pdfrwt beam="1">  1        1 0.48710763E+00 0.15952115E+04</pdfrwt>
<pdfrwt beam="2">  1       -2 0.12457634E+00 0.15952115E+04</pdfrwt>
<totfact> 0.18042774E-01</totfact>
</mgrwt>
</event>
<event>
12    3  0.1092576E-007  0.5506813E+03  0.7818608E-02  0.1001336E+00
         -2   -1    0    0    0  501 -0.00000000000E+00  0.00000000000E+00  0.11236266293E+04  0.11236266293E+04  0.00000000000E+00 0.  1.
          1   -1    0    0  501    0  0.00000000000E+00 -0.00000000000E+00 -0.34975258852E+03  0.34975258852E+03  0.00000000000E+00 0. -1.
        -24    2    1    2    0    0  0.46327654031E+03  0.22558064182E+02  0.15799443946E+03  0.49641434982E+03  0.79567234135E+02 0.  0.
    5000000    2    1    2    0    0 -0.46327654031E+03 -0.22558064182E+02  0.61587960134E+03  0.97696486802E+03  0.60001554225E+03 0.  0.
        -24    2    4    4    0    0 -0.47278421351E+03 -0.13512491263E+03  0.19610519130E+03  0.53565037295E+03  0.81733845065E+02 0.  0.
         24    2    4    4    0    0  0.95076732037E+01  0.11256684845E+03  0.41977441004E+03  0.44131449507E+03  0.76067318954E+02 0.  0.
         11    1    5    5    0    0 -0.46472421442E+03 -0.11798854230E+03  0.18709576035E+03  0.51467923518E+03  0.00000000000E+00 0. -1.
        -12    1    5    5    0    0 -0.80599990917E+01 -0.17136370331E+02  0.90094309481E+01  0.20971137773E+02  0.00000000000E+00 0.  1.
         15    1    3    3    0    0  0.25235012471E+03 -0.22268049419E+02  0.64750750080E+02  0.26148091485E+03  0.17770000000E+01 0. -1.
        -16    1    3    3    0    0  0.21092641560E+03  0.44826113601E+02  0.93243689383E+02  0.23493343498E+03  0.00000000000E+00 0.  1.
          4    1    6    6  502    0 -0.16475880094E+02  0.10587814505E+03  0.36362195456E+03  0.37908120774E+03  0.00000000000E+00 0. -1.
         -1    1    6    6    0  502  0.25983553297E+02  0.66887033998E+01  0.56152455482E+02  0.62233287330E+02  0.00000000000E+00 0.  1.
<mgrwt>
<rscale>  0 0.55068131E+03</rscale>
<asrwt>0</asrwt>
<pdfrwt beam="1">  1        1 0.53808091E-01 0.55068131E+03</pdfrwt>
<pdfrwt beam="2">  1       -2 0.17286563E+00 0.55068131E+03</pdfrwt>
<totfact> 0.13270834E+01</totfact>
</mgrwt>
</event>
<event>
12    3  0.1092576E-007  0.1695950E+04  0.7818608E-02  0.8763677E-01
         -2   -1    0    0    0  501 -0.00000000000E+00  0.00000000000E+00  0.10087686668E+04  0.10087686668E+04  0.00000000000E+00 0.  1.
          1   -1    0    0  501    0  0.00000000000E+00 -0.00000000000E+00 -0.31341186342E+04  0.31341186342E+04  0.00000000000E+00 0. -1.
        -24    2    1    2    0    0  0.15368679610E+04  0.63393935347E+03 -0.15751857720E+04  0.22917174374E+04  0.83164674958E+02 0.  0.
    5000000    2    1    2    0    0 -0.15368679610E+04 -0.63393935347E+03 -0.55016419538E+03  0.18511698635E+04  0.60025576913E+03 0.  0.
        -24    2    4    4    0    0 -0.76215360467E+03 -0.55758185138E+03 -0.48891118223E+03  0.10661895107E+04  0.77138126460E+02 0.  0.
         24    2    4    4    0    0 -0.77471435630E+03 -0.76357502087E+02 -0.61253013147E+02  0.78498035280E+03  0.80183668377E+02 0.  0.
         13    1    5    5    0    0 -0.17194040867E+03 -0.98735483974E+02 -0.77578894827E+02  0.21291003934E+03  0.00000000000E+00 0. -1.
        -14    1    5    5    0    0 -0.59021319601E+03 -0.45884636740E+03 -0.41133228741E+03  0.85327947138E+03  0.00000000000E+00 0.  1.
         15    1    3    3    0    0  0.12481376048E+04  0.54841936932E+03 -0.13007304933E+04  0.18842808334E+04  0.17770000000E+01 0. -1.
        -16    1    3    3    0    0  0.28873035622E+03  0.85519984149E+02 -0.27445527870E+03  0.40743660402E+03  0.00000000000E+00 0.  1.
          2    1    6    6  502    0 -0.18493932294E+03 -0.48363492771E+02 -0.31988550871E+02  0.19381653178E+03  0.00000000000E+00 0. -1.
         -1    1    6    6    0  502 -0.58977503336E+03 -0.27994009316E+02 -0.29264462277E+02  0.59116382102E+03  0.00000000000E+00 0.  1.
<mgrwt>
<rscale>  0 0.16959503E+04</rscale>
<asrwt>0</asrwt>
<pdfrwt beam="1">  1        1 0.48217209E+00 0.16959503E+04</pdfrwt>
<pdfrwt beam="2">  1       -2 0.15519518E+00 0.16959503E+04</pdfrwt>
<totfact> 0.10605477E-01</totfact>
</mgrwt>
</event>
<event>
12    3  0.1092576E-007  0.9449072E+03  0.7818608E-02  0.9371123E-01
         -2   -1    0    0    0  501 -0.00000000000E+00  0.00000000000E+00  0.14988137263E+04  0.14988137263E+04  0.00000000000E+00 0.  1.
          1   -1    0    0  501    0  0.00000000000E+00 -0.00000000000E+00 -0.78098949316E+03  0.78098949316E+03  0.00000000000E+00 0. -1.
        -24    2    1    2    0    0  0.58991194251E+03  0.72040562516E+03 -0.43790589930E+02  0.93555275006E+03  0.79755675067E+02 0.  0.
    5000000    2    1    2    0    0 -0.58991194251E+03 -0.72040562516E+03  0.76161482310E+03  0.13442504694E+04  0.59997651716E+03 0.  0.
        -24    2    4    4    0    0 -0.42579873833E+03 -0.39926362799E+03  0.77560650603E+03  0.97395830263E+03  0.79456358216E+02 0.  0.
         24    2    4    4    0    0 -0.16411320418E+03 -0.32114199717E+03 -0.13991682932E+02  0.37029216681E+03  0.82796107878E+02 0.  0.
         11    1    5    5    0    0 -0.11733991592E+03 -0.77957409730E+02  0.14760311121E+03  0.20404090776E+03  0.00000000000E+00 0. -1.
        -12    1    5    5    0    0 -0.30845882241E+03 -0.32130621826E+03  0.62800339482E+03  0.76991739487E+03  0.00000000000E+00 0.  1.
         15    1    3    3    0    0  0.51634250495E+03  0.66345021781E+03 -0.27888550102E+02  0.84116389776E+03  0.17770000000E+01 0. -1.
        -16    1    3    3    0    0  0.73569437554E+02  0.56955407344E+02 -0.15902039828E+02  0.94388852300E+02  0.00000000000E+00 0.  1.
          2    1    6    6  502    0 -0.82830031261E+02 -0.24421627135E+03 -0.15804984373E+02  0.25836446892E+03  0.00000000000E+00 0. -1.
         -1    1    6    6    0  502 -0.81283172920E+02 -0.76925725815E+02  0.18133014413E+01  0.11192769789E+03  0.00000000000E+00 0.  1.
<mgrwt>
<rscale>  0 0.94490720E+03</rscale>
<asrwt>0</asrwt>
<pdfrwt beam="1">  1        1 0.12015223E+00 0.94490720E+03</pdfrwt>
<pdfrwt beam="2">  1       -2 0.23058673E+00 0.94490720E+03</pdfrwt>
<totfact> 0.17175699E+00</totfact>
</mgrwt>
</event>
<event>
12    3  0.1092576E-007  0.8781196E+03  0.7818608E-02  0.9453354E-01
         -2   -1    0    0    0  501 -0.00000000000E+00  0.00000000000E+00  0.33989509820E+03  0.33989509820E+03  0.00000000000E+00 0.  1.
          1   -1    0    0  501    0  0.00000000000E+00 -0.00000000000E+00 -0.24426138798E+04  0.24426138798E+04  0.00000000000E+00 0. -1.
        -24    2    1    2    0    0 -0.64877253654E+03  0.45512354658E+03 -0.68122412943E+03  0.10481800290E+04  0.81066712633E+02 0.  0.
    5000000    2    1    2    0    0  0.64877253654E+03 -0.45512354658E+03 -0.14214946521E+04  0.17343289489E+04  0.59933847720E+03 0.  0.
        -24    2    4    4    0    0  0.69667310447E+03 -0.52545131487E+03 -0.12669689207E+04  0.15403324787E+04  0.77210104579E+02 0.  0.
         24    2    4    4    0    0 -0.47900567933E+02  0.70327768292E+02 -0.15452573143E+03  0.19399647019E+03  0.80721554568E+02 0.  0.
         11    1    5    5    0    0  0.27707744012E+03 -0.25033531540E+03 -0.50704238015E+03  0.62970759343E+03  0.00000000000E+00 0. -1.
        -12    1    5    5    0    0  0.41959566435E+03 -0.27511599947E+03 -0.75992654055E+03  0.91062488531E+03  0.00000000000E+00 0.  1.
         15    1    3    3    0    0 -0.23469701839E+03  0.20793700174E+03 -0.29175377136E+03  0.42830352318E+03  0.17770000000E+01 0. -1.
        -16    1    3    3    0    0 -0.41407551815E+03  0.24718654484E+03 -0.38947035807E+03  0.61987650584E+03  0.00000000000E+00 0.  1.
          4    1    6    6  502    0 -0.18826632172E+02  0.23015949829E+02  0.64287037649E-01  0.29735167030E+02  0.00000000000E+00 0. -1.
         -1    1    6    6    0  502 -0.29073935761E+02  0.47311818463E+02 -0.15459001846E+03  0.16426130316E+03  0.00000000000E+00 0.  1.
<mgrwt>
<rscale>  0 0.87811959E+03</rscale>
<asrwt>0</asrwt>
<pdfrwt beam="1">  1        1 0.37578675E+00 0.87811959E+03</pdfrwt>
<pdfrwt beam="2">  1       -2 0.52291554E-01 0.87811959E+03</pdfrwt>
<totfact> 0.46451495E+00</totfact>
</mgrwt>
</event>
<event>
12    3  0.1092576E-007  0.1447342E+04  0.7818608E-02  0.8920245E-01
         -2   -1    0    0    0  501 -0.00000000000E+00  0.00000000000E+00  0.20273612946E+04  0.20273612946E+04  0.00000000000E+00 0.  1.
          1   -1    0    0  501    0  0.00000000000E+00 -0.00000000000E+00 -0.25880679018E+04  0.25880679018E+04  0.00000000000E+00 0. -1.
        -24    2    1    2    0    0 -0.22573656693E+03  0.14157854592E+04 -0.20233480502E+04  0.24812050116E+04  0.83877963565E+02 0.  0.
    5000000    2    1    2    0    0  0.22573656693E+03 -0.14157854592E+04  0.14626414430E+04  0.21342241848E+04  0.60015615992E+03 0.  0.
        -24    2    4    4    0    0  0.26031561474E+02 -0.93170034054E+03  0.12548475460E+04  0.15652269692E+04  0.80931665651E+02 0.  0.
         24    2    4    4    0    0  0.19970500546E+03 -0.48408511867E+03  0.20779389694E+03  0.56899721566E+03  0.79743567129E+02 0.  0.
         11    1    5    5    0    0  0.21668253959E+02 -0.60895009195E+02  0.80495451919E+02  0.10323387600E+03  0.00000000000E+00 0. -1.
        -12    1    5    5    0    0  0.43633075159E+01 -0.87080533134E+03  0.11743520941E+04  0.14619930932E+04  0.00000000000E+00 0.  1.
         15    1    3    3    0    0 -0.15816163281E+03  0.10130994743E+04 -0.15107781872E+04  0.18258804823E+04  0.17770000000E+01 0. -1.
        -16    1    3    3    0    0 -0.67574934126E+02  0.40268598493E+03 -0.51256986302E+03  0.65532452927E+03  0.00000000000E+00 0.  1.
          2    1    6    6  502    0  0.10677898358E+03 -0.20107970984E+03  0.54990772162E+02  0.23421952538E+03  0.00000000000E+00 0. -1.
         -1    1    6    6    0  502  0.92926021874E+02 -0.28300540883E+03  0.15280312478E+03  0.33477769028E+03  0.00000000000E+00 0.  1.
<mgrwt>
<rscale>  0 0.14473422E+04</rscale>
<asrwt>0</asrwt>
<pdfrwt beam="1">  1        1 0.39816429E+00 0.14473422E+04</pdfrwt>
<pdfrwt beam="2">  1       -2 0.31190174E+00 0.14473422E+04</pdfrwt>
<totfact> 0.26274312E-02</totfact>
</mgrwt>
</event>
<event>
12    3  0.1092576E-007  0.4507031E+03  0.7818608E-02  0.1027513E+00
         -2   -1    0    0    0  501 -0.00000000000E+00  0.00000000000E+00  0.10888828090E+04  0.10888828090E+04  0.00000000000E+00 0.  1.
          1   -1    0    0  501    0  0.00000000000E+00 -0.00000000000E+00 -0.33139225655E+03  0.33139225655E+03  0.00000000000E+00 0. -1.
        -24    2    1    2    0    0 -0.22063092596E+03 -0.36689040059E+03  0.43569639236E+03  0.61599933357E+03  0.79606916177E+02 0.  0.
    5000000    2    1    2    0    0  0.22063092596E+03  0.36689040059E+03  0.32179416013E+03  0.80427573203E+03  0.60001783315E+03 0.  0.
        -24    2    4    4    0    0  0.43587613067E+02  0.18349739730E+03  0.45934497948E+03  0.50406532018E+03  0.86676767362E+02 0.  0.
         24    2    4    4    0    0  0.17704331289E+03  0.18339300330E+03 -0.13755081936E+03  0.30021041185E+03  0.78922336385E+02 0.  0.
         11    1    5    5    0    0 -0.22536358467E+02  0.65322038073E+02  0.11658382057E+03  0.13552358957E+03  0.00000000000E+00 0. -1.
        -12    1    5    5    0    0  0.66123971534E+02  0.11817535922E+03  0.34276115892E+03  0.36854173061E+03  0.00000000000E+00 0.  1.
         15    1    3    3    0    0 -0.69954845107E+02 -0.16100606183E+03  0.22318151264E+03  0.28395383007E+03  0.17770000000E+01 0. -1.
        -16    1    3    3    0    0 -0.15067608085E+03 -0.20588433876E+03  0.21251487973E+03  0.33204550350E+03  0.00000000000E+00 0.  1.
          2    1    6    6  502    0  0.21592720942E+02  0.71446356840E+02 -0.29356327688E+02  0.80203625097E+02  0.00000000000E+00 0. -1.
         -1    1    6    6    0  502  0.15545059195E+03  0.11194664646E+03 -0.10819449167E+03  0.22000678676E+03  0.00000000000E+00 0.  1.
<mgrwt>
<rscale>  0 0.45070309E+03</rscale>
<asrwt>0</asrwt>
<pdfrwt beam="1">  1        1 0.50983425E-01 0.45070309E+03</pdfrwt>
<pdfrwt beam="2">  1       -2 0.16752043E+00 0.45070309E+03</pdfrwt>
<totfact> 0.15720758E+01</totfact>
</mgrwt>
</event>
<event>
12    3  0.1092576E-007  0.1863745E+04  0.7818608E-02  0.8673116E-01
         -2   -1    0    0    0  501 -0.00000000000E+00  0.00000000000E+00  0.12893079613E+04  0.12893079613E+04  0.00000000000E+00 0.  1.
          1   -1    0    0  501    0  0.00000000000E+00 -0.00000000000E+00 -0.28264157450E+04  0.28264157450E+04  0.00000000000E+00 0. -1.
        -24    2    1    2    0    0 -0.43477029028E+03 -0.18094697815E+04 -0.75726309157E+03  0.20107320985E+04  0.79938018514E+02 0.  0.
    5000000    2    1    2    0    0  0.43477029028E+03  0.18094697815E+04 -0.77984469214E+03  0.21049916078E+04  0.59968811014E+03 0.  0.
        -24    2    4    4    0    0  0.37422078706E+03  0.14281190027E+04 -0.84865306785E+03  0.17047867931E+04  0.80752070928E+02 0.  0.
         24    2    4    4    0    0  0.60549503227E+02  0.38135077881E+03  0.68808375701E+02  0.40020481470E+03  0.79590466144E+02 0.  0.
         11    1    5    5    0    0  0.23595469914E+03  0.93578668864E+03 -0.51126074215E+03  0.10921350160E+04  0.00000000000E+00 0. -1.
        -12    1    5    5    0    0  0.13826608792E+03  0.49233231404E+03 -0.33739232570E+03  0.61265177708E+03  0.00000000000E+00 0.  1.
         15    1    3    3    0    0 -0.26921672237E+03 -0.12415957458E+04 -0.49052101757E+03  0.13618559637E+04  0.17770000000E+01 0. -1.
        -16    1    3    3    0    0 -0.16555356791E+03 -0.56787403573E+03 -0.26674207401E+03  0.64887613482E+03  0.00000000000E+00 0.  1.
          2    1    6    6  502    0 -0.50720147593E+01  0.10161841453E+03 -0.10086832575E+02  0.10224368781E+03  0.00000000000E+00 0. -1.
         -1    1    6    6    0  502  0.65621517986E+02  0.27973236428E+03  0.78895208276E+02  0.29796112689E+03  0.00000000000E+00 0.  1.
<mgrwt>
<rscale>  0 0.18637446E+04</rscale>
<asrwt>0</asrwt>
<pdfrwt beam="1">  1        1 0.43483319E+00 0.18637446E+04</pdfrwt>
<pdfrwt beam="2">  1       -2 0.19835507E+00 0.18637446E+04</pdfrwt>
<totfact> 0.86456445E-02</totfact>
</mgrwt>
</event>
<event>
12    3  0.1092576E-007  0.5663564E+03  0.7818608E-02  0.9977774E-01
         -2   -1    0    0    0  501 -0.00000000000E+00  0.00000000000E+00  0.11429469132E+03  0.11429469132E+03  0.00000000000E+00 0.  1.
          1   -1    0    0  501    0  0.00000000000E+00 -0.00000000000E+00 -0.31979516058E+04  0.31979516058E+04  0.00000000000E+00 0. -1.
        -24    2    1    2    0    0  0.40830360384E+03  0.79089961276E+02 -0.68851972286E+03  0.80830285713E+03  0.79542725550E+02 0.  0.
    5000000    2    1    2    0    0 -0.40830360384E+03 -0.79089961276E+02 -0.23951371917E+04  0.25039434400E+04  0.60006960355E+03 0.  0.
        -24    2    4    4    0    0 -0.38092560283E+03  0.19088776667E+03 -0.12058931217E+04  0.12814567609E+04  0.80067188351E+02 0.  0.
         24    2    4    4    0    0 -0.27378001009E+02 -0.26997772795E+03 -0.11892440699E+04  0.12224866791E+04  0.80837455836E+02 0.  0.
         13    1    5    5    0    0 -0.17907182251E+03  0.49044585102E+02 -0.56469225834E+03  0.59443202772E+03  0.00000000000E+00 0. -1.
        -14    1    5    5    0    0 -0.20185378032E+03  0.14184318157E+03 -0.64120086338E+03  0.68702473317E+03  0.00000000000E+00 0.  1.
         15    1    3    3    0    0  0.25069816965E+03  0.68212230954E+02 -0.36218324752E+03  0.44573797598E+03  0.17770000000E+01 0. -1.
        -16    1    3    3    0    0  0.15760543419E+03  0.10877730321E+02 -0.32633647534E+03  0.36256488115E+03  0.00000000000E+00 0.  1.
          4    1    6    6  502    0 -0.54162982808E+02 -0.14652579522E+03 -0.69703239080E+03  0.71432317000E+03  0.00000000000E+00 0. -1.
         -3    1    6    6    0  502  0.26784981799E+02 -0.12345193273E+03 -0.49221167913E+03  0.50816350914E+03  0.00000000000E+00 0.  1.
<mgrwt>
<rscale>  0 0.56635644E+03</rscale>
<asrwt>0</asrwt>
<pdfrwt beam="1">  1        1 0.49199263E+00 0.56635644E+03</pdfrwt>
<pdfrwt beam="2">  1       -2 0.17583796E-01 0.56635644E+03</pdfrwt>
<totfact> 0.11049549E+01</totfact>
</mgrwt>
</event>
<event>
12    3  0.1092576E-007  0.4517152E+03  0.7818608E-02  0.1027212E+00
          1   -1    0    0  501    0  0.00000000000E+00  0.00000000000E+00  0.67079287193E+03  0.67079287193E+03  0.00000000000E+00 0. -1.
         -2   -1    0    0    0  501 -0.00000000000E+00 -0.00000000000E+00 -0.43546441511E+03  0.43546441511E+03  0.00000000000E+00 0.  1.
        -24    2    1    2    0    0 -0.33038813440E+03 -0.93936409322E+02  0.21880820889E+03  0.41473954296E+03  0.78431421481E+02 0.  0.
    5000000    2    1    2    0    0  0.33038813440E+03  0.93936409322E+02  0.16520247925E+02  0.69151774407E+03  0.59995291768E+03 0.  0.
        -24    2    4    4    0    0  0.41647477095E+03 -0.25132453745E+01  0.18592485846E+03  0.46320320501E+03  0.80818345024E+02 0.  0.
         24    2    4    4    0    0 -0.86086636559E+02  0.96449654696E+02 -0.16940461054E+03  0.22831453906E+03  0.81952192107E+02 0.  0.
         13    1    5    5    0    0  0.25238863946E+03 -0.29782844503E+02  0.81871700975E+02  0.26700190744E+03  0.00000000000E+00 0. -1.
        -14    1    5    5    0    0  0.16408613150E+03  0.27269599128E+02  0.10405315749E+03  0.19620129757E+03  0.00000000000E+00 0.  1.
         15    1    3    3    0    0 -0.13217105634E+03  0.74154959347E+00  0.92654772860E+02  0.16142429400E+03  0.17770000000E+01 0. -1.
        -16    1    3    3    0    0 -0.19821707805E+03 -0.94677958916E+02  0.12615343603E+03  0.25331524897E+03  0.00000000000E+00 0.  1.
          4    1    6    6  502    0  0.10477423988E+01  0.36845648317E+01 -0.61039679134E+02  0.61159759735E+02  0.00000000000E+00 0. -1.
         -3    1    6    6    0  502 -0.87134378958E+02  0.92765089865E+02 -0.10836493140E+03  0.16715477933E+03  0.00000000000E+00 0.  1.
<mgrwt>
<rscale>  0 0.45171520E+03</rscale>
<asrwt>0</asrwt>
<pdfrwt beam="1">  1        1 0.10319890E+00 0.45171520E+03</pdfrwt>
<pdfrwt beam="2">  1       -2 0.66994525E-01 0.45171520E+03</pdfrwt>
<totfact> 0.54507542E+01</totfact>
</mgrwt>
</event>
<event>
12    3  0.1092576E-007  0.1124504E+04  0.7818608E-02  0.9181632E-01
         -2   -1    0    0    0  501 -0.00000000000E+00  0.00000000000E+00  0.56921024072E+03  0.56921024072E+03  0.00000000000E+00 0.  1.
          1   -1    0    0  501    0  0.00000000000E+00 -0.00000000000E+00 -0.23370753680E+04  0.23370753680E+04  0.00000000000E+00 0. -1.
        -24    2    1    2    0    0 -0.54324007046E+02 -0.10466129984E+04 -0.53141222723E+03  0.11780649814E+04  0.84191918237E+02 0.  0.
    5000000    2    1    2    0    0  0.54324007046E+02  0.10466129984E+04 -0.12364529000E+04  0.17282206272E+04  0.59965064530E+03 0.  0.
        -24    2    4    4    0    0  0.83870745844E+02  0.11000247924E+04 -0.11263993823E+04  0.15786984160E+04  0.80151570895E+02 0.  0.
         24    2    4    4    0    0 -0.29546738798E+02 -0.53411794053E+02 -0.11005351772E+03  0.14952221125E+03  0.80742091724E+02 0.  0.
         11    1    5    5    0    0  0.60952874148E+01  0.38285406209E+03 -0.43455866966E+03  0.57918530951E+03  0.00000000000E+00 0. -1.
        -12    1    5    5    0    0  0.77775458429E+02  0.71717073034E+03 -0.69184071263E+03  0.99951310649E+03  0.00000000000E+00 0.  1.
         15    1    3    3    0    0 -0.70506180972E+02 -0.54861426563E+03 -0.27736121661E+03  0.61877389749E+03  0.17770000000E+01 0. -1.
        -16    1    3    3    0    0  0.16182173926E+02 -0.49799873274E+03 -0.25405101062E+03  0.55929108393E+03  0.00000000000E+00 0.  1.
          2    1    6    6  502    0 -0.41100530806E+01  0.17514110703E+02 -0.50097882808E+02  0.53230014765E+02  0.00000000000E+00 0. -1.
         -1    1    6    6    0  502 -0.25436685717E+02 -0.70925904755E+02 -0.59955634915E+02  0.96292196484E+02  0.00000000000E+00 0.  1.
<mgrwt>
<rscale>  0 0.11245041E+04</rscale>
<asrwt>0</asrwt>
<pdfrwt beam="1">  1        1 0.35955005E+00 0.11245041E+04</pdfrwt>
<pdfrwt beam="2">  1       -2 0.87570808E-01 0.11245041E+04</pdfrwt>
<totfact> 0.17264547E+00</totfact>
</mgrwt>
</event>
<event>
12    3  0.1092576E-007  0.6953683E+03  0.7818608E-02  0.9725186E-01
          1   -1    0    0  501    0  0.00000000000E+00  0.00000000000E+00  0.47072398455E+03  0.47072398455E+03  0.00000000000E+00 0. -1.
         -2   -1    0    0    0  501 -0.00000000000E+00 -0.00000000000E+00 -0.13705376705E+04  0.13705376705E+04  0.00000000000E+00 0.  1.
        -24    2    1    2    0    0 -0.66414089235E+03  0.15301407277E+03 -0.27542623525E+03  0.73931196431E+03  0.78905881632E+02 0.  0.
    5000000    2    1    2    0    0  0.66414089235E+03 -0.15301407277E+03 -0.62438745068E+03  0.11019496907E+04  0.59994749851E+03 0.  0.
        -24    2    4    4    0    0  0.45089133897E+03 -0.15727701088E+03 -0.53386130488E+02  0.48694321435E+03  0.78895864018E+02 0.  0.
         24    2    4    4    0    0  0.21324955337E+03  0.42629381108E+01 -0.57100132020E+03  0.61500647638E+03  0.81834672755E+02 0.  0.
         13    1    5    5    0    0  0.72478358683E+02 -0.53548560547E+02 -0.25141871714E+02  0.93555729527E+02  0.00000000000E+00 0. -1.
        -14    1    5    5    0    0  0.37841298029E+03 -0.10372845033E+03 -0.28244258774E+02  0.39338748482E+03  0.00000000000E+00 0.  1.
         15    1    3    3    0    0 -0.57082569213E+03  0.13601051622E+03 -0.20658093639E+03  0.62210905179E+03  0.17770000000E+01 0. -1.
        -16    1    3    3    0    0 -0.93315200219E+02  0.17003556544E+02 -0.68845298857E+02  0.11720291251E+03  0.00000000000E+00 0.  1.
          2    1    6    6  502    0  0.17574577998E+03 -0.26945929859E+02 -0.41307421351E+03  0.44971431841E+03  0.00000000000E+00 0. -1.
         -1    1    6    6    0  502  0.37503773388E+02  0.31208867970E+02 -0.15792710668E+03  0.16529215796E+03  0.00000000000E+00 0.  1.
<mgrwt>
<rscale>  0 0.69536828E+03</rscale>
<asrwt>0</asrwt>
<pdfrwt beam="1">  1        1 0.72419076E-01 0.69536828E+03</pdfrwt>
<pdfrwt beam="2">  1       -2 0.21085194E+00 0.69536828E+03</pdfrwt>
<totfact> 0.49248709E+00</totfact>
</mgrwt>
</event>
<event>
12    3  0.1092576E-007  0.1360743E+04  0.7818608E-02  0.8982736E-01
         -2   -1    0    0    0  501 -0.00000000000E+00  0.00000000000E+00  0.80304144903E+03  0.80304144903E+03  0.00000000000E+00 0.  1.
          1   -1    0    0  501    0  0.00000000000E+00 -0.00000000000E+00 -0.26479429471E+04  0.26479429471E+04  0.00000000000E+00 0. -1.
        -24    2    1    2    0    0 -0.10522521593E+04  0.82708678365E+03 -0.41850421945E+03  0.14050399777E+04  0.87660726451E+02 0.  0.
    5000000    2    1    2    0    0  0.10522521593E+04 -0.82708678365E+03 -0.14263972786E+04  0.20459444183E+04  0.59997684310E+03 0.  0.
        -24    2    4    4    0    0  0.10026426779E+04 -0.69457737190E+03 -0.96682095903E+03  0.15585177566E+04  0.80652127317E+02 0.  0.
         24    2    4    4    0    0  0.49609481376E+02 -0.13250941175E+03 -0.45957631954E+03  0.48742666177E+03  0.79715194763E+02 0.  0.
         13    1    5    5    0    0  0.15700883422E+03 -0.75317128083E+02 -0.14538900175E+03  0.22685326896E+03  0.00000000000E+00 0. -1.
        -14    1    5    5    0    0  0.84563384368E+03 -0.61926024381E+03 -0.82143195728E+03  0.13316644876E+04  0.00000000000E+00 0.  1.
         15    1    3    3    0    0 -0.31962707235E+03  0.25400910412E+03 -0.85802409290E+02  0.41718976680E+03  0.17770000000E+01 0. -1.
        -16    1    3    3    0    0 -0.73262508692E+03  0.57307767953E+03 -0.33270181016E+03  0.98785021094E+03  0.00000000000E+00 0.  1.
          2    1    6    6  502    0  0.66625216637E+02 -0.72652168849E+02 -0.24748350419E+03  0.26639320933E+03  0.00000000000E+00 0. -1.
         -1    1    6    6    0  502 -0.17015735262E+02 -0.59857242904E+02 -0.21209281535E+03  0.22103345244E+03  0.00000000000E+00 0.  1.
<mgrwt>
<rscale>  0 0.13607426E+04</rscale>
<asrwt>0</asrwt>
<pdfrwt beam="1">  1        1 0.40737585E+00 0.13607426E+04</pdfrwt>
<pdfrwt beam="2">  1       -2 0.12354484E+00 0.13607426E+04</pdfrwt>
<totfact> 0.44690698E-01</totfact>
</mgrwt>
</event>
<event>
12    3  0.1092576E-007  0.1127770E+04  0.7818608E-02  0.9178540E-01
         -2   -1    0    0    0  501 -0.00000000000E+00  0.00000000000E+00  0.82855343524E+03  0.82855343524E+03  0.00000000000E+00 0.  1.
          1   -1    0    0  501    0  0.00000000000E+00 -0.00000000000E+00 -0.17562112453E+04  0.17562112453E+04  0.00000000000E+00 0. -1.
        -24    2    1    2    0    0 -0.72833862176E+03  0.77140566899E+03 -0.18153468551E+02  0.10640974543E+04  0.80187217243E+02 0.  0.
    5000000    2    1    2    0    0  0.72833862176E+03 -0.77140566899E+03 -0.90950434148E+03  0.15206672262E+04  0.59973895281E+03 0.  0.
        -24    2    4    4    0    0  0.30601817459E+03  0.96270529540E+01 -0.15453560879E+03  0.35241001559E+03  0.81066401020E+02 0.  0.
         24    2    4    4    0    0  0.42232044716E+03 -0.78103272194E+03 -0.75496873269E+03  0.11682572106E+04  0.80501241708E+02 0.  0.
         13    1    5    5    0    0  0.66441005909E+02 -0.12105706520E+01 -0.73926204080E+02  0.99402999940E+02  0.00000000000E+00 0. -1.
        -14    1    5    5    0    0  0.23957716869E+03  0.10837623606E+02 -0.80609404710E+02  0.25300701565E+03  0.00000000000E+00 0.  1.
         15    1    3    3    0    0 -0.18743907959E+03  0.20446601895E+03  0.30229221106E+02  0.27902817958E+03  0.17770000000E+01 0. -1.
        -16    1    3    3    0    0 -0.54089954217E+03  0.56693965004E+03 -0.48382689656E+02  0.78506927475E+03  0.00000000000E+00 0.  1.
          2    1    6    6  502    0  0.21344547702E+03 -0.42281720088E+03 -0.45199720218E+03  0.65470209088E+03  0.00000000000E+00 0. -1.
         -1    1    6    6    0  502  0.20887497014E+03 -0.35821552106E+03 -0.30297153051E+03  0.51355511971E+03  0.00000000000E+00 0.  1.
<mgrwt>
<rscale>  0 0.11277703E+04</rscale>
<asrwt>0</asrwt>
<pdfrwt beam="1">  1        1 0.27018634E+00 0.11277703E+04</pdfrwt>
<pdfrwt beam="2">  1       -2 0.12746976E+00 0.11277703E+04</pdfrwt>
<totfact> 0.17230916E+00</totfact>
</mgrwt>
</event>
<event>
12    3  0.1092576E-007  0.3882834E+03  0.7818608E-02  0.1047914E+00
         -2   -1    0    0    0  501 -0.00000000000E+00  0.00000000000E+00  0.86850465245E+02  0.86850465245E+02  0.00000000000E+00 0.  1.
          1   -1    0    0  501    0  0.00000000000E+00 -0.00000000000E+00 -0.18852219499E+04  0.18852219499E+04  0.00000000000E+00 0. -1.
        -24    2    1    2    0    0  0.16661486594E+03  0.16715011491E+02 -0.44786505013E+03  0.48481006606E+03  0.80111122008E+02 0.  0.
    5000000    2    1    2    0    0 -0.16661486594E+03 -0.16715011491E+02 -0.13505064345E+04  0.14872623491E+04  0.60003479909E+03 0.  0.
        -24    2    4    4    0    0 -0.33506430555E+03  0.14191274118E+03 -0.92642742280E+03  0.99828205584E+03  0.76759223167E+02 0.  0.
         24    2    4    4    0    0  0.16844943961E+03 -0.15862775267E+03 -0.42407901172E+03  0.48898029323E+03  0.75635582637E+02 0.  0.
         11    1    5    5    0    0 -0.27730995881E+03  0.94603169702E+02 -0.79282807676E+03  0.84523779629E+03  0.00000000000E+00 0. -1.
        -12    1    5    5    0    0 -0.57754346740E+02  0.47309571481E+02 -0.13359934603E+03  0.15304425955E+03  0.00000000000E+00 0.  1.
         15    1    3    3    0    0  0.50898727282E+02 -0.92894404661E+01 -0.60152486805E+02  0.79362796957E+02  0.17770000000E+01 0. -1.
        -16    1    3    3    0    0  0.11571613866E+03  0.26004451957E+02 -0.38771256332E+03  0.40544726911E+03  0.00000000000E+00 0.  1.
          4    1    6    6  502    0  0.49272846409E+02 -0.14186542964E+02 -0.13644113983E+03  0.14575752479E+03  0.00000000000E+00 0. -1.
         -3    1    6    6    0  502  0.11917659320E+03 -0.14444120971E+03 -0.28763787189E+03  0.34322276844E+03  0.00000000000E+00 0.  1.
<mgrwt>
<rscale>  0 0.38828345E+03</rscale>
<asrwt>0</asrwt>
<pdfrwt beam="1">  1        1 0.29003415E+00 0.38828345E+03</pdfrwt>
<pdfrwt beam="2">  1       -2 0.13361610E-01 0.38828345E+03</pdfrwt>
<totfact> 0.14314359E+02</totfact>
</mgrwt>
</event>
<event>
12    3  0.1092576E-007  0.1267985E+04  0.7818608E-02  0.9055346E-01
          1   -1    0    0  501    0  0.00000000000E+00  0.00000000000E+00  0.18608577725E+04  0.18608577725E+04  0.00000000000E+00 0. -1.
         -2   -1    0    0    0  501 -0.00000000000E+00 -0.00000000000E+00 -0.10644762483E+04  0.10644762483E+04  0.00000000000E+00 0.  1.
        -24    2    1    2    0    0  0.23618368514E+03  0.11778957324E+04  0.10025367798E+04  0.15667292297E+04  0.79620315538E+02 0.  0.
    5000000    2    1    2    0    0 -0.23618368514E+03 -0.11778957324E+04 -0.20615525567E+03  0.13586047911E+04  0.60007157864E+03 0.  0.
        -24    2    4    4    0    0  0.19033296671E+03 -0.32092498254E+03 -0.40545024289E+02  0.38329907363E+03  0.77812583922E+02 0.  0.
         24    2    4    4    0    0 -0.42651665185E+03 -0.85697074988E+03 -0.16561023138E+03  0.97530571750E+03  0.86482214402E+02 0.  0.
         13    1    5    5    0    0  0.90146002566E+02 -0.16792823700E+03  0.17580064537E+02  0.19140337831E+03  0.00000000000E+00 0. -1.
        -14    1    5    5    0    0  0.10018696415E+03 -0.15299674554E+03 -0.58125088827E+02  0.19189569532E+03  0.00000000000E+00 0.  1.
         15    1    3    3    0    0  0.38937174900E+02  0.90556140870E+02  0.91972216604E+02  0.13482790733E+03  0.17770000000E+01 0. -1.
        -16    1    3    3    0    0  0.19724651024E+03  0.10873395915E+04  0.91056456323E+03  0.14319013224E+04  0.00000000000E+00 0.  1.
          4    1    6    6  502    0 -0.18491872062E+03 -0.31171416774E+03 -0.29849075998E+02  0.36366416230E+03  0.00000000000E+00 0. -1.
         -3    1    6    6    0  502 -0.24159793124E+03 -0.54525658214E+03 -0.13576115538E+03  0.61164155521E+03  0.00000000000E+00 0.  1.
<mgrwt>
<rscale>  0 0.12679852E+04</rscale>
<asrwt>0</asrwt>
<pdfrwt beam="1">  1        1 0.28628581E+00 0.12679852E+04</pdfrwt>
<pdfrwt beam="2">  1       -2 0.16376558E+00 0.12679852E+04</pdfrwt>
<totfact> 0.74346618E-01</totfact>
</mgrwt>
</event>
<event>
12    3  0.1092576E-007  0.9756722E+03  0.7818608E-02  0.9335637E-01
         -2   -1    0    0    0  501 -0.00000000000E+00  0.00000000000E+00  0.11442868592E+04  0.11442868592E+04  0.00000000000E+00 0.  1.
          1   -1    0    0  501    0  0.00000000000E+00 -0.00000000000E+00 -0.14704262745E+04  0.14704262745E+04  0.00000000000E+00 0. -1.
        -24    2    1    2    0    0 -0.96606572782E+03 -0.10032177920E+03  0.59973126973E+03  0.11447937250E+04  0.86761899246E+02 0.  0.
    5000000    2    1    2    0    0  0.96606572782E+03  0.10032177920E+03 -0.92587068498E+03  0.14699194086E+04  0.60006590693E+03 0.  0.
        -24    2    4    4    0    0  0.49711946092E+03  0.56493451109E+01 -0.10168588492E+03  0.51362948503E+03  0.79470467305E+02 0.  0.
         24    2    4    4    0    0  0.46894626690E+03  0.94672434088E+02 -0.82418480007E+03  0.95628992359E+03  0.79601270584E+02 0.  0.
         11    1    5    5    0    0  0.21307489696E+03 -0.15140816628E+02 -0.78187624270E+01  0.21375520833E+03  0.00000000000E+00 0. -1.
        -12    1    5    5    0    0  0.28404456396E+03  0.20790161738E+02 -0.93867122490E+02  0.29987427670E+03  0.00000000000E+00 0.  1.
         15    1    3    3    0    0 -0.49001497767E+03 -0.88510730034E+02  0.33223891225E+03  0.59861062488E+03  0.17770000000E+01 0. -1.
        -16    1    3    3    0    0 -0.47605075014E+03 -0.11811049166E+02  0.26749235748E+03  0.54618310016E+03  0.00000000000E+00 0.  1.
          2    1    6    6  502    0  0.34685906728E+03  0.61498387298E+02 -0.66892269666E+03  0.75600981363E+03  0.00000000000E+00 0. -1.
         -1    1    6    6    0  502  0.12208719961E+03  0.33174046790E+02 -0.15526210340E+03  0.20028010996E+03  0.00000000000E+00 0.  1.
<mgrwt>
<rscale>  0 0.97567218E+03</rscale>
<asrwt>0</asrwt>
<pdfrwt beam="1">  1        1 0.22621943E+00 0.97567218E+03</pdfrwt>
<pdfrwt beam="2">  1       -2 0.17604413E+00 0.97567218E+03</pdfrwt>
<totfact> 0.11638273E+00</totfact>
</mgrwt>
</event>
<event>
12    3  0.1197910E-007  0.1253721E+04  0.7818608E-02  0.9067092E-01
          1   -1    0    0  501    0  0.00000000000E+00  0.00000000000E+00  0.14724951341E+04  0.14724951341E+04  0.00000000000E+00 0. -1.
         -2   -1    0    0    0  501 -0.00000000000E+00 -0.00000000000E+00 -0.12330001009E+04  0.12330001009E+04  0.00000000000E+00 0.  1.
        -24    2    1    2    0    0 -0.12022650106E+04  0.79123536126E+02  0.54547293670E+03  0.13251336620E+04  0.82078058380E+02 0.  0.
    5000000    2    1    2    0    0  0.12022650106E+04 -0.79123536126E+02 -0.30597790348E+03  0.13803615730E+04  0.60006158443E+03 0.  0.
        -24    2    4    4    0    0  0.84922137386E+03  0.16555771883E+03 -0.41166588443E+02  0.86953289780E+03  0.76200211681E+02 0.  0.
         24    2    4    4    0    0  0.35304363677E+03 -0.24468125495E+03 -0.26481131504E+03  0.51082867523E+03  0.79449209387E+02 0.  0.
         11    1    5    5    0    0  0.50320366517E+03  0.13611561500E+03 -0.25531639500E+02  0.52191307122E+03  0.00000000000E+00 0. -1.
        -12    1    5    5    0    0  0.34601770869E+03  0.29442103829E+02 -0.15634948943E+02  0.34761982658E+03  0.00000000000E+00 0.  1.
         15    1    3    3    0    0 -0.32870797116E+03 -0.14268790627E+02  0.14102282634E+03  0.35797084234E+03  0.17770000000E+01 0. -1.
        -16    1    3    3    0    0 -0.87355703948E+03  0.93392326752E+02  0.40445011036E+03  0.96716281963E+03  0.00000000000E+00 0.  1.
          2    1    6    6  502    0  0.28095367597E+03 -0.17459194859E+03 -0.23565379297E+03  0.40614040269E+03  0.00000000000E+00 0. -1.
         -1    1    6    6    0  502  0.72089960797E+02 -0.70089306360E+02 -0.29157522072E+02  0.10468827254E+03  0.00000000000E+00 0.  1.
<mgrwt>
<rscale>  0 0.12537212E+04</rscale>
<asrwt>0</asrwt>
<pdfrwt beam="1">  1        1 0.22653771E+00 0.12537212E+04</pdfrwt>
<pdfrwt beam="2">  1       -2 0.18969232E+00 0.12537212E+04</pdfrwt>
<totfact> 0.90402594E-01</totfact>
</mgrwt>
</event>
<event>
12    3  0.1092576E-007  0.9319105E+03  0.7818608E-02  0.9386548E-01
          1   -1    0    0  501    0  0.00000000000E+00  0.00000000000E+00  0.18049731090E+04  0.18049731090E+04  0.00000000000E+00 0. -1.
         -2   -1    0    0    0  501 -0.00000000000E+00 -0.00000000000E+00 -0.77970637651E+03  0.77970637651E+03  0.00000000000E+00 0.  1.
        -24    2    1    2    0    0 -0.83982720828E+03  0.13555057155E+03  0.12558346336E+04  0.15188528968E+04  0.78165196337E+02 0.  0.
    5000000    2    1    2    0    0  0.83982720828E+03 -0.13555057155E+03 -0.23056790112E+03  0.10658265887E+04  0.59928379168E+03 0.  0.
        -24    2    4    4    0    0  0.25427287414E+03 -0.30779377873E+03  0.35491649678E+01  0.40724223019E+03  0.80261651723E+02 0.  0.
         24    2    4    4    0    0  0.58555433414E+03  0.17224320718E+03 -0.23411706608E+03  0.65858435852E+03  0.79880886349E+02 0.  0.
         13    1    5    5    0    0  0.18605007542E+03 -0.22520584127E+03 -0.33187337501E+02  0.29399608990E+03  0.00000000000E+00 0. -1.
        -14    1    5    5    0    0  0.68222798720E+02 -0.82587937458E+02  0.36736502469E+02  0.11324614030E+03  0.00000000000E+00 0.  1.
         15    1    3    3    0    0 -0.39608000889E+03  0.10195344497E+03  0.62042147553E+03  0.74310150277E+03  0.17770000000E+01 0. -1.
        -16    1    3    3    0    0 -0.44374719938E+03  0.33597126573E+02  0.63541315810E+03  0.77575139405E+03  0.00000000000E+00 0.  1.
          2    1    6    6  502    0  0.34413788369E+03  0.93044115320E+02 -0.17766620575E+03  0.39831315701E+03  0.00000000000E+00 0. -1.
         -1    1    6    6    0  502  0.24141645045E+03  0.79199091858E+02 -0.56450860335E+02  0.26027120151E+03  0.00000000000E+00 0.  1.
<mgrwt>
<rscale>  0 0.93191052E+03</rscale>
<asrwt>0</asrwt>
<pdfrwt beam="1">  1        1 0.27768817E+00 0.93191052E+03</pdfrwt>
<pdfrwt beam="2">  1       -2 0.11995483E+00 0.93191052E+03</pdfrwt>
<totfact> 0.19070488E+00</totfact>
</mgrwt>
</event>
<event>
12    3  0.1092576E-007  0.7018486E+03  0.7818608E-02  0.9714076E-01
          1   -1    0    0  501    0  0.00000000000E+00  0.00000000000E+00  0.19497976691E+04  0.19497976691E+04  0.00000000000E+00 0. -1.
         -2   -1    0    0    0  501 -0.00000000000E+00 -0.00000000000E+00 -0.31890157978E+03  0.31890157978E+03  0.00000000000E+00 0.  1.
        -24    2    1    2    0    0  0.20923501624E+03  0.59448876932E+03  0.10333637185E+04  0.12130500663E+04  0.80334922478E+02 0.  0.
    5000000    2    1    2    0    0 -0.20923501624E+03 -0.59448876932E+03  0.59753237083E+03  0.10556491826E+04  0.60012838100E+03 0.  0.
        -24    2    4    4    0    0  0.52244322140E+02  0.22222717617E+02  0.30576214790E+03  0.32060667015E+03  0.77941179621E+02 0.  0.
         24    2    4    4    0    0 -0.26147933838E+03 -0.61671148693E+03  0.29177022294E+03  0.73504251246E+03  0.80331373800E+02 0.  0.
         11    1    5    5    0    0  0.45769742361E+01  0.42731233448E+02  0.11038460769E+03  0.11845534441E+03  0.00000000000E+00 0. -1.
        -12    1    5    5    0    0  0.47667347904E+02 -0.20508515831E+02  0.19537754021E+03  0.20215132574E+03  0.00000000000E+00 0.  1.
         15    1    3    3    0    0  0.16320749613E+03  0.36007418628E+03  0.67833805272E+03  0.78513424197E+03  0.17770000000E+01 0. -1.
        -16    1    3    3    0    0  0.46027520114E+02  0.23441458304E+03  0.35502566580E+03  0.42791582434E+03  0.00000000000E+00 0.  1.
          4    1    6    6  502    0 -0.25492764035E+03 -0.53506918204E+03  0.25936966979E+03  0.64696194400E+03  0.00000000000E+00 0. -1.
         -3    1    6    6    0  502 -0.65516980321E+01 -0.81642304894E+02  0.32400553141E+02  0.88080568455E+02  0.00000000000E+00 0.  1.
<mgrwt>
<rscale>  0 0.70184862E+03</rscale>
<asrwt>0</asrwt>
<pdfrwt beam="1">  1        1 0.29996887E+00 0.70184862E+03</pdfrwt>
<pdfrwt beam="2">  1       -2 0.49061783E-01 0.70184862E+03</pdfrwt>
<totfact> 0.11658392E+01</totfact>
</mgrwt>
</event>
<event>
12    3  0.1092576E-007  0.7935295E+03  0.7818608E-02  0.9569430E-01
          1   -1    0    0  501    0  0.00000000000E+00  0.00000000000E+00  0.15600813680E+04  0.15600813680E+04  0.00000000000E+00 0. -1.
         -2   -1    0    0    0  501 -0.00000000000E+00 -0.00000000000E+00 -0.77906417472E+03  0.77906417472E+03  0.00000000000E+00 0.  1.
        -24    2    1    2    0    0 -0.24297063268E+03 -0.64729497268E+03  0.11561138030E+04  0.13495918980E+04  0.82302221204E+02 0.  0.
    5000000    2    1    2    0    0  0.24297063268E+03  0.64729497268E+03 -0.37509660976E+03  0.98955364469E+03  0.60041105841E+03 0.  0.
        -24    2    4    4    0    0  0.17686745527E+03  0.74534174297E+03 -0.28529224201E+03  0.82135226315E+03  0.80071632142E+02 0.  0.
         24    2    4    4    0    0  0.66103177409E+02 -0.98046770291E+02 -0.89804367748E+02  0.16820138154E+03  0.79019497955E+02 0.  0.
         13    1    5    5    0    0  0.68238549654E+02  0.44892645616E+03 -0.18186067158E+03  0.48914697850E+03  0.00000000000E+00 0. -1.
        -14    1    5    5    0    0  0.10862890562E+03  0.29641528681E+03 -0.10343157043E+03  0.33220528465E+03  0.00000000000E+00 0.  1.
         15    1    3    3    0    0 -0.10278743684E+03 -0.19537406812E+03  0.31768819914E+03  0.38686591123E+03  0.17770000000E+01 0. -1.
        -16    1    3    3    0    0 -0.14018319584E+03 -0.45192090456E+03  0.83842560386E+03  0.96272598676E+03  0.00000000000E+00 0.  1.
          4    1    6    6  502    0  0.48919082864E+02 -0.41185710816E+02 -0.87989565005E+02  0.10877271254E+03  0.00000000000E+00 0. -1.
         -3    1    6    6    0  502  0.17184094545E+02 -0.56861059475E+02 -0.18148027427E+01  0.59428668999E+02  0.00000000000E+00 0.  1.
<mgrwt>
<rscale>  0 0.79352953E+03</rscale>
<asrwt>0</asrwt>
<pdfrwt beam="1">  1        1 0.24001252E+00 0.79352953E+03</pdfrwt>
<pdfrwt beam="2">  1       -2 0.11985603E+00 0.79352953E+03</pdfrwt>
<totfact> 0.28555381E+00</totfact>
</mgrwt>
</event>
<event>
12    3  0.1092576E-007  0.5246262E+03  0.7818608E-02  0.1007544E+00
         -2   -1    0    0    0  501 -0.00000000000E+00  0.00000000000E+00  0.16201046159E+04  0.16201046159E+04  0.00000000000E+00 0.  1.
          1   -1    0    0  501    0  0.00000000000E+00 -0.00000000000E+00 -0.18090519226E+03  0.18090519226E+03  0.00000000000E+00 0. -1.
        -24    2    1    2    0    0 -0.25311104688E+03  0.26937340920E+03  0.50641873510E+03  0.63198061096E+03  0.79450120966E+02 0.  0.
    5000000    2    1    2    0    0  0.25311104688E+03 -0.26937340920E+03  0.93278068857E+03  0.11690291972E+04  0.59993517597E+03 0.  0.
        -24    2    4    4    0    0 -0.64671752890E+02 -0.33452385363E+03  0.33518073268E+03  0.48421560821E+03  0.77652993508E+02 0.  0.
         24    2    4    4    0    0  0.31778279977E+03  0.65150444430E+02  0.59759995589E+03  0.68481358902E+03  0.81323159012E+02 0.  0.
         13    1    5    5    0    0  0.21473321624E+00 -0.59444170570E+02  0.10090534083E+03  0.11711337812E+03  0.00000000000E+00 0. -1.
        -14    1    5    5    0    0 -0.64886486106E+02 -0.27507968306E+03  0.23427539185E+03  0.36710223009E+03  0.00000000000E+00 0.  1.
         15    1    3    3    0    0 -0.21858619486E+03  0.18380689680E+03  0.37372100290E+03  0.47035672168E+03  0.17770000000E+01 0. -1.
        -16    1    3    3    0    0 -0.34524852022E+02  0.85566512403E+02  0.13269773220E+03  0.16162388927E+03  0.00000000000E+00 0.  1.
          4    1    6    6  502    0  0.84486944904E+02  0.43452027477E+02  0.23052328405E+03  0.24933332517E+03  0.00000000000E+00 0. -1.
         -3    1    6    6    0  502  0.23329585487E+03  0.21698416952E+02  0.36707667183E+03  0.43548026385E+03  0.00000000000E+00 0.  1.
<mgrwt>
<rscale>  0 0.52462623E+03</rscale>
<asrwt>0</asrwt>
<pdfrwt beam="1">  1        1 0.27831569E-01 0.52462623E+03</pdfrwt>
<pdfrwt beam="2">  1       -2 0.24924685E+00 0.52462623E+03</pdfrwt>
<totfact> 0.10159503E+01</totfact>
</mgrwt>
</event>
<event>
12    3  0.1092576E-007  0.5425321E+03  0.7818608E-02  0.1003237E+00
         -2   -1    0    0    0  501 -0.00000000000E+00  0.00000000000E+00  0.24047432902E+03  0.24047432902E+03  0.00000000000E+00 0.  1.
          1   -1    0    0  501    0  0.00000000000E+00 -0.00000000000E+00 -0.16554721649E+04  0.16554721649E+04  0.00000000000E+00 0. -1.
        -24    2    1    2    0    0 -0.37730542206E+03 -0.72611708377E+02 -0.99281219474E+03  0.10678616453E+04  0.83789007679E+02 0.  0.
    5000000    2    1    2    0    0  0.37730542206E+03  0.72611708377E+02 -0.42218564119E+03  0.82808484864E+03  0.59987661999E+03 0.  0.
        -24    2    4    4    0    0 -0.13713043719E+03 -0.31397848671E+02 -0.26592527485E+02  0.16480980455E+03  0.81636557095E+02 0.  0.
         24    2    4    4    0    0  0.51443585925E+03  0.10400955705E+03 -0.39559311370E+03  0.66327504409E+03  0.89317586502E+02 0.  0.
         11    1    5    5    0    0 -0.12350488082E+03  0.44995139652E+01 -0.26583279328E+02  0.12641349593E+03  0.00000000000E+00 0. -1.
        -12    1    5    5    0    0 -0.13625556365E+02 -0.35897362636E+02 -0.92481577616E-02  0.38396308625E+02  0.00000000000E+00 0.  1.
         15    1    3    3    0    0 -0.19470237787E+02 -0.25697990949E+02 -0.87277346613E+02  0.93058959048E+02  0.17770000000E+01 0. -1.
        -16    1    3    3    0    0 -0.35783518428E+03 -0.46913717427E+02 -0.90553484812E+03  0.97480268627E+03  0.00000000000E+00 0.  1.
          2    1    6    6  502    0  0.47889044436E+03  0.76534063264E+02 -0.37857387238E+03  0.61523304315E+03  0.00000000000E+00 0. -1.
         -1    1    6    6    0  502  0.35545414898E+02  0.27475493783E+02 -0.17019241319E+02  0.48042000936E+02  0.00000000000E+00 0.  1.
<mgrwt>
<rscale>  0 0.54253214E+03</rscale>
<asrwt>0</asrwt>
<pdfrwt beam="1">  1        1 0.25468801E+00 0.54253214E+03</pdfrwt>
<pdfrwt beam="2">  1       -2 0.36996052E-01 0.54253214E+03</pdfrwt>
<totfact> 0.32746017E+01</totfact>
</mgrwt>
</event>
<event>
12    3  0.1092576E-007  0.5154207E+03  0.7818608E-02  0.1009830E+00
         -4   -1    0    0    0  501 -0.00000000000E+00  0.00000000000E+00  0.27677433198E+03  0.27677433198E+03  0.00000000000E+00 0.  1.
          3   -1    0    0  501    0  0.00000000000E+00 -0.00000000000E+00 -0.20295840627E+04  0.20295840627E+04  0.00000000000E+00 0. -1.
        -24    2    1    2    0    0 -0.78889266421E+02 -0.49638492890E+03 -0.16294529330E+03  0.53431348061E+03  0.79487187370E+02 0.  0.
    5000000    2    1    2    0    0  0.78889266421E+02  0.49638492890E+03 -0.15898644374E+04  0.17720449141E+04  0.59987726589E+03 0.  0.
        -24    2    4    4    0    0  0.71721215605E+02  0.94071338635E+02 -0.11928824254E+04  0.12013060072E+04  0.78576666876E+02 0.  0.
         24    2    4    4    0    0  0.71680508156E+01  0.40231359026E+03 -0.39698201201E+03  0.57073890687E+03  0.78997317003E+02 0.  0.
         13    1    5    5    0    0  0.31511530797E+02  0.52303714973E+02 -0.93476960341E+03  0.93676190499E+03  0.00000000000E+00 0. -1.
        -14    1    5    5    0    0  0.40209684809E+02  0.41767623662E+02 -0.25811282199E+03  0.26454410221E+03  0.00000000000E+00 0.  1.
         15    1    3    3    0    0  0.11187737761E+02 -0.15896000250E+03 -0.58961037011E+02  0.16992059759E+03  0.17770000000E+01 0. -1.
        -16    1    3    3    0    0 -0.90077004182E+02 -0.33742492640E+03 -0.10398425629E+03  0.36439288302E+03  0.00000000000E+00 0.  1.
          2    1    6    6  502    0 -0.76618261028E+01  0.26001437249E+03 -0.30402815075E+03  0.40012409816E+03  0.00000000000E+00 0. -1.
         -1    1    6    6    0  502  0.14829876918E+02  0.14229921777E+03 -0.92953861263E+02  0.17061480871E+03  0.00000000000E+00 0.  1.
<mgrwt>
<rscale>  0 0.51542069E+03</rscale>
<asrwt>0</asrwt>
<pdfrwt beam="1">  1        3 0.31224369E+00 0.51542069E+03</pdfrwt>
<pdfrwt beam="2">  1       -4 0.42580668E-01 0.51542069E+03</pdfrwt>
<totfact> 0.42023239E-01</totfact>
</mgrwt>
</event>
<event>
12    3  0.1092576E-007  0.5072170E+03  0.7818608E-02  0.1011912E+00
         -2   -1    0    0    0  501 -0.00000000000E+00  0.00000000000E+00  0.22507749339E+03  0.22507749339E+03  0.00000000000E+00 0.  1.
          1   -1    0    0  501    0  0.00000000000E+00 -0.00000000000E+00 -0.18731302785E+04  0.18731302785E+04  0.00000000000E+00 0. -1.
        -24    2    1    2    0    0 -0.13075251850E+03 -0.31566487993E+03 -0.45823211592E+02  0.35354204181E+03  0.78432589458E+02 0.  0.
    5000000    2    1    2    0    0  0.13075251850E+03  0.31566487993E+03 -0.16022295735E+04  0.17446657301E+04  0.59998197139E+03 0.  0.
        -24    2    4    4    0    0  0.33765343616E+03  0.84560630449E+02 -0.99798146654E+03  0.10599344883E+04  0.79584978124E+02 0.  0.
         24    2    4    4    0    0 -0.20690091766E+03  0.23110424948E+03 -0.60424810697E+03  0.68473124179E+03  0.86740618238E+02 0.  0.
         11    1    5    5    0    0  0.13339238907E+03 -0.49923468571E+01 -0.34564505022E+03  0.37052524034E+03  0.00000000000E+00 0. -1.
        -12    1    5    5    0    0  0.20426104709E+03  0.89552977306E+02 -0.65233641632E+03  0.68940924795E+03  0.00000000000E+00 0.  1.
         15    1    3    3    0    0 -0.41855959061E+02 -0.80233931362E+02  0.21512269463E+02  0.93034082556E+02  0.17770000000E+01 0. -1.
        -16    1    3    3    0    0 -0.88896559436E+02 -0.23543094857E+03 -0.67335481055E+02  0.26050795925E+03  0.00000000000E+00 0.  1.
          4    1    6    6  502    0 -0.20997694978E+03  0.21956267361E+03 -0.59909253848E+03  0.67172163635E+03  0.00000000000E+00 0. -1.
         -3    1    6    6    0  502  0.30760321147E+01  0.11541575875E+02 -0.51555684849E+01  0.13009605438E+02  0.00000000000E+00 0.  1.
<mgrwt>
<rscale>  0 0.50721702E+03</rscale>
<asrwt>0</asrwt>
<pdfrwt beam="1">  1        1 0.28817390E+00 0.50721702E+03</pdfrwt>
<pdfrwt beam="2">  1       -2 0.34627306E-01 0.50721702E+03</pdfrwt>
<totfact> 0.26776778E+01</totfact>
</mgrwt>
</event>
<event>
12    3  0.1092576E-007  0.5162103E+03  0.7818608E-02  0.1009632E+00
         -2   -1    0    0    0  501 -0.00000000000E+00  0.00000000000E+00  0.50901569971E+03  0.50901569971E+03  0.00000000000E+00 0.  1.
          1   -1    0    0  501    0  0.00000000000E+00 -0.00000000000E+00 -0.83420851131E+03  0.83420851131E+03  0.00000000000E+00 0. -1.
        -24    2    1    2    0    0  0.22982149647E+03 -0.40831152797E+03  0.77943097101E+02  0.48171840854E+03  0.80257551851E+02 0.  0.
    5000000    2    1    2    0    0 -0.22982149647E+03  0.40831152797E+03 -0.40313590870E+03  0.86150580248E+03  0.60011454132E+03 0.  0.
        -24    2    4    4    0    0  0.30924600426E+02  0.28232609877E+01 -0.36017056916E+03  0.37025494142E+03  0.80009880899E+02 0.  0.
         24    2    4    4    0    0 -0.26074609690E+03  0.40548826698E+03 -0.42965339543E+02  0.49125086106E+03  0.84095935601E+02 0.  0.
         13    1    5    5    0    0  0.43638269786E+02  0.27740761300E+02 -0.16023480395E+03  0.16837173404E+03  0.00000000000E+00 0. -1.
        -14    1    5    5    0    0 -0.12713669360E+02 -0.24917500312E+02 -0.19993576521E+03  0.20188320738E+03  0.00000000000E+00 0.  1.
         15    1    3    3    0    0  0.14984391975E+03 -0.25527154230E+03  0.10062782188E+02  0.29617761210E+03  0.17770000000E+01 0. -1.
        -16    1    3    3    0    0  0.79977576722E+02 -0.15303998567E+03  0.67880314912E+02  0.18554079644E+03  0.00000000000E+00 0.  1.
          4    1    6    6  502    0 -0.21107631945E+03  0.35642787462E+03 -0.62085357763E+02  0.41886589034E+03  0.00000000000E+00 0. -1.
         -3    1    6    6    0  502 -0.49669777441E+02  0.49060392362E+02  0.19120018219E+02  0.72384970723E+02  0.00000000000E+00 0.  1.
<mgrwt>
<rscale>  0 0.51621026E+03</rscale>
<asrwt>0</asrwt>
<pdfrwt beam="1">  1        1 0.12833977E+00 0.51621026E+03</pdfrwt>
<pdfrwt beam="2">  1       -2 0.78310108E-01 0.51621026E+03</pdfrwt>
<totfact> 0.27514212E+01</totfact>
</mgrwt>
</event>
<event>
12    3  0.1092576E-007  0.3847177E+03  0.7818608E-02  0.1049204E+00
          1   -1    0    0  501    0  0.00000000000E+00  0.00000000000E+00  0.20323571040E+03  0.20323571040E+03  0.00000000000E+00 0. -1.
         -2   -1    0    0    0  501 -0.00000000000E+00 -0.00000000000E+00 -0.10920584855E+04  0.10920584855E+04  0.00000000000E+00 0.  1.
        -24    2    1    2    0    0  0.13108609208E+03 -0.23045565780E+03 -0.35035526092E+03  0.44655737217E+03  0.79820448765E+02 0.  0.
    5000000    2    1    2    0    0 -0.13108609208E+03  0.23045565780E+03 -0.53846751423E+03  0.84873682377E+03  0.60009462453E+03 0.  0.
        -24    2    4    4    0    0 -0.27647485681E+03  0.13791456772E+03 -0.57253293435E+03  0.65551506096E+03  0.80294830465E+02 0.  0.
         24    2    4    4    0    0  0.14538876473E+03  0.92541090083E+02  0.34065420113E+02  0.19322176281E+03  0.80451541400E+02 0.  0.
         11    1    5    5    0    0 -0.60063843874E+02 -0.33393174436E+00 -0.14249234224E+03  0.15463455128E+03  0.00000000000E+00 0. -1.
        -12    1    5    5    0    0 -0.21641101293E+03  0.13824849946E+03 -0.43004059210E+03  0.50088050968E+03  0.00000000000E+00 0.  1.
         15    1    3    3    0    0  0.59645841712E+02 -0.15382688151E+03 -0.26141978474E+03  0.30913394749E+03  0.17770000000E+01 0. -1.
        -16    1    3    3    0    0  0.71440250369E+02 -0.76628776294E+02 -0.88935476174E+02  0.13742342468E+03  0.00000000000E+00 0.  1.
          2    1    6    6  502    0  0.63590532856E+02  0.62284410126E+01 -0.13223530688E+02  0.65248839914E+02  0.00000000000E+00 0. -1.
         -1    1    6    6    0  502  0.81798231871E+02  0.86312649071E+02  0.47288950801E+02  0.12797292290E+03  0.00000000000E+00 0.  1.
<mgrwt>
<rscale>  0 0.38471768E+03</rscale>
<asrwt>0</asrwt>
<pdfrwt beam="1">  1        1 0.31267032E-01 0.38471768E+03</pdfrwt>
<pdfrwt beam="2">  1       -2 0.16800900E+00 0.38471768E+03</pdfrwt>
<totfact> 0.29397291E+01</totfact>
</mgrwt>
</event>
<event>
12    3  0.1092576E-007  0.2856715E+03  0.7818608E-02  0.1092631E+00
          1   -1    0    0  501    0  0.00000000000E+00  0.00000000000E+00  0.28485751137E+03  0.28485751137E+03  0.00000000000E+00 0. -1.
         -2   -1    0    0    0  501 -0.00000000000E+00 -0.00000000000E+00 -0.72904929178E+03  0.72904929178E+03  0.00000000000E+00 0.  1.
        -24    2    1    2    0    0  0.15814397715E+03 -0.19267694668E+03 -0.12420492094E+03  0.28959366346E+03  0.79395870401E+02 0.  0.
    5000000    2    1    2    0    0 -0.15814397715E+03  0.19267694668E+03 -0.31998685947E+03  0.72431313970E+03  0.60008666942E+03 0.  0.
        -24    2    4    4    0    0 -0.15170017298E+03  0.72027878645E+02  0.14605694010E+03  0.23606333134E+03  0.78691224840E+02 0.  0.
         24    2    4    4    0    0 -0.64438041708E+01  0.12064906803E+03 -0.46604379957E+03  0.48824980836E+03  0.81199335081E+02 0.  0.
         13    1    5    5    0    0 -0.73670814974E+02  0.27681806339E+02  0.19791928995E+02  0.81150427199E+02  0.00000000000E+00 0. -1.
        -14    1    5    5    0    0 -0.78029358007E+02  0.44346072306E+02  0.12626501110E+03  0.15491290414E+03  0.00000000000E+00 0.  1.
         15    1    3    3    0    0  0.95005816651E+02 -0.16491624691E+03 -0.10763572124E+03  0.21865973545E+03  0.17770000000E+01 0. -1.
        -16    1    3    3    0    0  0.63138160502E+02 -0.27760699769E+02 -0.16569199698E+02  0.70933928002E+02  0.00000000000E+00 0.  1.
          2    1    6    6  502    0 -0.33574578663E+02  0.10901512434E+03 -0.39921031601E+03  0.41518721811E+03  0.00000000000E+00 0. -1.
         -1    1    6    6    0  502  0.27130774492E+02  0.11633943691E+02 -0.66833483554E+02  0.73062590252E+02  0.00000000000E+00 0.  1.
<mgrwt>
<rscale>  0 0.28567155E+03</rscale>
<asrwt>0</asrwt>
<pdfrwt beam="1">  1        1 0.43824232E-01 0.28567155E+03</pdfrwt>
<pdfrwt beam="2">  1       -2 0.11216143E+00 0.28567155E+03</pdfrwt>
<totfact> 0.54169273E+01</totfact>
</mgrwt>
</event>
<event>
12    3  0.1092576E-007  0.5195813E+03  0.7818608E-02  0.1008791E+00
          1   -1    0    0  501    0  0.00000000000E+00  0.00000000000E+00  0.44424682578E+03  0.44424682578E+03  0.00000000000E+00 0. -1.
         -2   -1    0    0    0  501 -0.00000000000E+00 -0.00000000000E+00 -0.85346455324E+03  0.85346455324E+03  0.00000000000E+00 0.  1.
        -24    2    1    2    0    0 -0.41716762531E+03  0.10785468246E+03 -0.34176052800E+03  0.55574063922E+03  0.79912073219E+02 0.  0.
    5000000    2    1    2    0    0  0.41716762531E+03 -0.10785468246E+03 -0.67457199469E+02  0.74197073980E+03  0.60025714892E+03 0.  0.
        -24    2    4    4    0    0 -0.34476621789E+02  0.79392929483E+02 -0.19765588346E+03  0.22975694437E+03  0.78921039772E+02 0.  0.
         24    2    4    4    0    0  0.45164424710E+03 -0.18724761194E+03  0.13019868399E+03  0.51221379543E+03  0.79793989751E+02 0.  0.
         13    1    5    5    0    0  0.16954877111E+02 -0.28935655420E+01 -0.51712211709E+02  0.54497645997E+02  0.00000000000E+00 0. -1.
        -14    1    5    5    0    0 -0.51431498900E+02  0.82286495025E+02 -0.14594367175E+03  0.17525929837E+03  0.00000000000E+00 0.  1.
         15    1    3    3    0    0 -0.24672189000E+03  0.45577405383E+02 -0.15286588519E+03  0.29380287178E+03  0.17770000000E+01 0. -1.
        -16    1    3    3    0    0 -0.17044573532E+03  0.62277277077E+02 -0.18889464281E+03  0.26193776744E+03  0.00000000000E+00 0.  1.
          2    1    6    6  502    0  0.68459828062E+02 -0.52847273618E+02  0.44245483328E+02  0.97145484620E+02  0.00000000000E+00 0. -1.
         -1    1    6    6    0  502  0.38318441904E+03 -0.13440033833E+03  0.85953200662E+02  0.41506831081E+03  0.00000000000E+00 0.  1.
<mgrwt>
<rscale>  0 0.51958132E+03</rscale>
<asrwt>0</asrwt>
<pdfrwt beam="1">  1        1 0.68345665E-01 0.51958132E+03</pdfrwt>
<pdfrwt beam="2">  1       -2 0.13130224E+00 0.51958132E+03</pdfrwt>
<totfact> 0.20100874E+01</totfact>
</mgrwt>
</event>
<event>
12    3  0.1092576E-007  0.6066200E+03  0.7818608E-02  0.9891766E-01
         -2   -1    0    0    0  501 -0.00000000000E+00  0.00000000000E+00  0.15893591988E+04  0.15893591988E+04  0.00000000000E+00 0.  1.
          1   -1    0    0  501    0  0.00000000000E+00 -0.00000000000E+00 -0.40979021855E+03  0.40979021855E+03  0.00000000000E+00 0. -1.
        -24    2    1    2    0    0  0.33653730217E+03 -0.31585769928E+03  0.11499274802E+04  0.12415921663E+04  0.78704865544E+02 0.  0.
    5000000    2    1    2    0    0 -0.33653730217E+03  0.31585769928E+03  0.29641500126E+02  0.75755725109E+03  0.59999244012E+03 0.  0.
        -24    2    4    4    0    0 -0.99819983239E+02 -0.16823566368E+03 -0.13795847806E+02  0.21119573412E+03  0.78396716174E+02 0.  0.
         24    2    4    4    0    0 -0.23671731893E+03  0.48409336296E+03  0.43437347933E+02  0.54636151696E+03  0.79010321328E+02 0.  0.
         13    1    5    5    0    0 -0.71255661126E+02 -0.45124327513E+02 -0.69829541877E+01  0.84630584455E+02  0.00000000000E+00 0. -1.
        -14    1    5    5    0    0 -0.28564322113E+02 -0.12311133617E+03 -0.68128936185E+01  0.12656514967E+03  0.00000000000E+00 0.  1.
         15    1    3    3    0    0  0.83808110270E+02 -0.10550372778E+03  0.41833424653E+03  0.43950146242E+03  0.17770000000E+01 0. -1.
        -16    1    3    3    0    0  0.25272919190E+03 -0.21035397151E+03  0.73159323363E+03  0.80209070389E+03  0.00000000000E+00 0.  1.
          4    1    6    6  502    0 -0.74539614384E+02  0.14294567116E+03  0.49296338560E+02  0.16858157673E+03  0.00000000000E+00 0. -1.
         -3    1    6    6    0  502 -0.16217770455E+03  0.34114769180E+03 -0.58589906280E+01  0.37777994024E+03  0.00000000000E+00 0.  1.
<mgrwt>
<rscale>  0 0.60662003E+03</rscale>
<asrwt>0</asrwt>
<pdfrwt beam="1">  1        1 0.63044650E-01 0.60662003E+03</pdfrwt>
<pdfrwt beam="2">  1       -2 0.24451680E+00 0.60662003E+03</pdfrwt>
<totfact> 0.37207935E+00</totfact>
</mgrwt>
</event>
<event>
12    3  0.1092576E-007  0.5842628E+03  0.7818608E-02  0.9938605E-01
         -2   -1    0    0    0  501 -0.00000000000E+00  0.00000000000E+00  0.40802366485E+03  0.40802366485E+03  0.00000000000E+00 0.  1.
          1   -1    0    0  501    0  0.00000000000E+00 -0.00000000000E+00 -0.21776748162E+04  0.21776748162E+04  0.00000000000E+00 0. -1.
        -24    2    1    2    0    0 -0.12799555908E+02 -0.56298766719E+03  0.67596363522E+02  0.57259306898E+03  0.78578700954E+02 0.  0.
    5000000    2    1    2    0    0  0.12799555908E+02  0.56298766719E+03 -0.18372475149E+04  0.20131054121E+04  0.59999668932E+03 0.  0.
        -24    2    4    4    0    0 -0.49312480476E+02  0.62969131744E+02 -0.66086308686E+01  0.11276126748E+03  0.79212354841E+02 0.  0.
         24    2    4    4    0    0  0.62112036385E+02  0.50001853544E+03 -0.18306388840E+04  0.19003441446E+04  0.78693731709E+02 0.  0.
         11    1    5    5    0    0 -0.36454608487E+02  0.73375165393E+01  0.27501348595E+02  0.46250424900E+02  0.00000000000E+00 0. -1.
        -12    1    5    5    0    0 -0.12857871990E+02  0.55631615205E+02 -0.34109979463E+02  0.66510842585E+02  0.00000000000E+00 0.  1.
         15    1    3    3    0    0 -0.28870129372E+02 -0.33142562902E+03  0.72784816805E+01  0.33276503116E+03  0.17770000000E+01 0. -1.
        -16    1    3    3    0    0  0.16070573464E+02 -0.23156203817E+03  0.60317881842E+02  0.23982803782E+03  0.00000000000E+00 0.  1.
          2    1    6    6  502    0  0.72879078033E+02  0.28571373453E+03 -0.10164045354E+04  0.10583108607E+04  0.00000000000E+00 0. -1.
         -1    1    6    6    0  502 -0.10767041648E+02  0.21430480091E+03 -0.81423434857E+03  0.84203328395E+03  0.00000000000E+00 0.  1.
<mgrwt>
<rscale>  0 0.58426281E+03</rscale>
<asrwt>0</asrwt>
<pdfrwt beam="1">  1        1 0.33502689E+00 0.58426281E+03</pdfrwt>
<pdfrwt beam="2">  1       -2 0.62772872E-01 0.58426281E+03</pdfrwt>
<totfact> 0.50355511E+00</totfact>
</mgrwt>
</event>
<event>
12    3  0.1092576E-007  0.1140015E+04  0.7818608E-02  0.9167045E-01
         -2   -1    0    0    0  501 -0.00000000000E+00  0.00000000000E+00  0.13126605797E+04  0.13126605797E+04  0.00000000000E+00 0.  1.
          1   -1    0    0  501    0  0.00000000000E+00 -0.00000000000E+00 -0.13471887808E+04  0.13471887808E+04  0.00000000000E+00 0. -1.
        -24    2    1    2    0    0 -0.95704642493E+03  0.58047916411E+03  0.56379672054E+03  0.12559683278E+04  0.81827739269E+02 0.  0.
    5000000    2    1    2    0    0  0.95704642493E+03 -0.58047916411E+03 -0.59832492168E+03  0.14038810327E+04  0.59999610207E+03 0.  0.
        -24    2    4    4    0    0  0.36405831624E+03 -0.38268058440E+03 -0.55834130127E+03  0.77281746278E+03  0.80739920541E+02 0.  0.
         24    2    4    4    0    0  0.59298810868E+03 -0.19779857971E+03 -0.39983620409E+02  0.63106356987E+03  0.76703090811E+02 0.  0.
         13    1    5    5    0    0  0.23819511321E+03 -0.27961932669E+03 -0.43056982435E+03  0.56596312023E+03  0.00000000000E+00 0. -1.
        -14    1    5    5    0    0  0.12586320303E+03 -0.10306125771E+03 -0.12777147692E+03  0.20685434255E+03  0.00000000000E+00 0.  1.
         15    1    3    3    0    0 -0.16618034376E+03  0.74304358164E+02  0.69763407687E+02  0.19495418712E+03  0.17770000000E+01 0. -1.
        -16    1    3    3    0    0 -0.79086608116E+03  0.50617480595E+03  0.49403331285E+03  0.10610141407E+04  0.00000000000E+00 0.  1.
          2    1    6    6  502    0  0.31142337680E+02  0.52856644829E+01  0.48636005922E+01  0.31959944554E+02  0.00000000000E+00 0. -1.
         -1    1    6    6    0  502  0.56184577100E+03 -0.20308424419E+03 -0.44847221002E+02  0.59910362531E+03  0.00000000000E+00 0.  1.
<mgrwt>
<rscale>  0 0.11400145E+04</rscale>
<asrwt>0</asrwt>
<pdfrwt beam="1">  1        1 0.20725981E+00 0.11400145E+04</pdfrwt>
<pdfrwt beam="2">  1       -2 0.20194778E+00 0.11400145E+04</pdfrwt>
<totfact> 0.92993685E-01</totfact>
</mgrwt>
</event>
<event>
12    3  0.1097726E-007  0.2036710E+04  0.7818608E-02  0.8589647E-01
          1   -1    0    0  501    0  0.00000000000E+00  0.00000000000E+00  0.23910387161E+04  0.23910387161E+04  0.00000000000E+00 0. -1.
         -2   -1    0    0    0  501 -0.00000000000E+00 -0.00000000000E+00 -0.17618809916E+04  0.17618809916E+04  0.00000000000E+00 0.  1.
        -24    2    1    2    0    0  0.16752329232E+04  0.10998131178E+04  0.43335902371E+03  0.20518748453E+04  0.79975599703E+02 0.  0.
    5000000    2    1    2    0    0 -0.16752329232E+04 -0.10998131178E+04  0.19579870084E+03  0.21010448624E+04  0.60004844940E+03 0.  0.
        -24    2    4    4    0    0 -0.15672371184E+04 -0.82131665592E+03  0.24627443478E+03  0.17881606887E+04  0.77937904234E+02 0.  0.
         24    2    4    4    0    0 -0.10799580474E+03 -0.27849646189E+03 -0.50475733940E+02  0.31288417365E+03  0.78264508423E+02 0.  0.
         13    1    5    5    0    0 -0.14048154468E+04 -0.73675386117E+03  0.19659608506E+03  0.15984250725E+04  0.00000000000E+00 0. -1.
        -14    1    5    5    0    0 -0.16242167158E+03 -0.84562794748E+02  0.49678349728E+02  0.18973561628E+03  0.00000000000E+00 0.  1.
         15    1    3    3    0    0  0.62104479470E+03  0.36779135616E+03  0.13667966283E+03  0.73460983294E+03  0.17770000000E+01 0. -1.
        -16    1    3    3    0    0  0.10541881285E+04  0.73202176165E+03  0.29667936088E+03  0.13172650124E+04  0.00000000000E+00 0.  1.
          2    1    6    6  502    0 -0.74699477156E+02 -0.18203190385E+03 -0.70267518193E+02  0.20893336263E+03  0.00000000000E+00 0. -1.
         -1    1    6    6    0  502 -0.33296327585E+02 -0.96464558043E+02  0.19791784253E+02  0.10395081103E+03  0.00000000000E+00 0.  1.
<mgrwt>
<rscale>  0 0.20367105E+04</rscale>
<asrwt>0</asrwt>
<pdfrwt beam="1">  1        1 0.36785211E+00 0.20367105E+04</pdfrwt>
<pdfrwt beam="2">  1       -2 0.27105861E+00 0.20367105E+04</pdfrwt>
<totfact> 0.59803164E-02</totfact>
</mgrwt>
</event>
<event>
12    3  0.1092576E-007  0.9853828E+03  0.7818608E-02  0.9324724E-01
          1   -1    0    0  501    0  0.00000000000E+00  0.00000000000E+00  0.65070037931E+03  0.65070037931E+03  0.00000000000E+00 0. -1.
         -2   -1    0    0    0  501 -0.00000000000E+00 -0.00000000000E+00 -0.21729728370E+04  0.21729728370E+04  0.00000000000E+00 0.  1.
        -24    2    1    2    0    0 -0.24526006917E+03  0.94382385967E+03 -0.13476003768E+04  0.16654481968E+04  0.82066687352E+02 0.  0.
    5000000    2    1    2    0    0  0.24526006917E+03 -0.94382385967E+03 -0.17467208092E+03  0.11582250195E+04  0.60001573343E+03 0.  0.
        -24    2    4    4    0    0  0.72282110101E+02 -0.17157783777E+03 -0.28978891791E+03  0.35472298435E+03  0.84776888501E+02 0.  0.
         24    2    4    4    0    0  0.17297795907E+03 -0.77224602190E+03  0.11511683699E+03  0.80350203517E+03  0.77963720394E+02 0.  0.
         11    1    5    5    0    0 -0.69412203792E+01 -0.60782074553E+02 -0.50256486086E+02  0.79172946901E+02  0.00000000000E+00 0. -1.
        -12    1    5    5    0    0  0.79223330480E+02 -0.11079576322E+03 -0.23953243183E+03  0.27555003745E+03  0.00000000000E+00 0.  1.
         15    1    3    3    0    0 -0.12222957500E+03  0.32139942243E+03 -0.49305939408E+03  0.60112260111E+03  0.17770000000E+01 0. -1.
        -16    1    3    3    0    0 -0.12303049417E+03  0.62242443724E+03 -0.85454098273E+03  0.10643255957E+04  0.00000000000E+00 0.  1.
          4    1    6    6  502    0  0.41332173990E+02 -0.35835658346E+03  0.60238407303E+02  0.36572729626E+03  0.00000000000E+00 0. -1.
         -3    1    6    6    0  502  0.13164578508E+03 -0.41388943844E+03  0.54878429687E+02  0.43777473891E+03  0.00000000000E+00 0.  1.
<mgrwt>
<rscale>  0 0.98538278E+03</rscale>
<asrwt>0</asrwt>
<pdfrwt beam="1">  1        1 0.10010775E+00 0.98538278E+03</pdfrwt>
<pdfrwt beam="2">  1       -2 0.33430352E+00 0.98538278E+03</pdfrwt>
<totfact> 0.52854182E-01</totfact>
</mgrwt>
</event>
<event>
12    3  0.1092576E-007  0.1472302E+04  0.7818608E-02  0.8903083E-01
         -2   -1    0    0    0  501 -0.00000000000E+00  0.00000000000E+00  0.89873857127E+03  0.89873857127E+03  0.00000000000E+00 0.  1.
          1   -1    0    0  501    0  0.00000000000E+00 -0.00000000000E+00 -0.33902963499E+04  0.33902963499E+04  0.00000000000E+00 0. -1.
        -24    2    1    2    0    0  0.13483694880E+04  0.44026034331E+03 -0.73905163347E+02  0.14225092628E+04  0.78365703732E+02 0.  0.
    5000000    2    1    2    0    0 -0.13483694880E+04 -0.44026034331E+03 -0.24176526153E+04  0.28665256584E+04  0.59999644674E+03 0.  0.
        -24    2    4    4    0    0 -0.74303447565E+03  0.46574284741E+02 -0.10188388904E+04  0.12642897779E+04  0.78272356955E+02 0.  0.
         24    2    4    4    0    0 -0.60533501231E+03 -0.48683462805E+03 -0.13988137249E+04  0.16022358805E+04  0.83913930246E+02 0.  0.
         13    1    5    5    0    0 -0.16313181522E+03 -0.47901372386E+01 -0.17699315056E+03  0.24075196758E+03  0.00000000000E+00 0. -1.
        -14    1    5    5    0    0 -0.57990266043E+03  0.51364421980E+02 -0.84184573983E+03  0.10235378103E+04  0.00000000000E+00 0.  1.
         15    1    3    3    0    0  0.13106797374E+04  0.42870517876E+03 -0.84781142489E+02  0.13816151794E+04  0.17770000000E+01 0. -1.
        -16    1    3    3    0    0  0.37689750613E+02  0.11555164546E+02  0.10875979142E+02  0.40894083328E+02  0.00000000000E+00 0.  1.
          2    1    6    6  502    0 -0.40007683981E+03 -0.27270944629E+03 -0.83840641626E+03  0.96817211211E+03  0.00000000000E+00 0. -1.
         -1    1    6    6    0  502 -0.20525817251E+03 -0.21412518176E+03 -0.56040730861E+03  0.63406376839E+03  0.00000000000E+00 0.  1.
<mgrwt>
<rscale>  0 0.14723023E+04</rscale>
<asrwt>0</asrwt>
<pdfrwt beam="1">  1        1 0.52158407E+00 0.14723023E+04</pdfrwt>
<pdfrwt beam="2">  1       -2 0.13826747E+00 0.14723023E+04</pdfrwt>
<totfact> 0.94800425E-02</totfact>
</mgrwt>
</event>
<event>
12    3  0.1092576E-007  0.1126502E+04  0.7818608E-02  0.9179739E-01
         -2   -1    0    0    0  501 -0.00000000000E+00  0.00000000000E+00  0.10422995158E+04  0.10422995158E+04  0.00000000000E+00 0.  1.
          1   -1    0    0  501    0  0.00000000000E+00 -0.00000000000E+00 -0.15001113302E+04  0.15001113302E+04  0.00000000000E+00 0. -1.
        -24    2    1    2    0    0 -0.52418035715E+03 -0.99481573941E+03 -0.56973629551E+03  0.12630766122E+04  0.79622106010E+02 0.  0.
    5000000    2    1    2    0    0  0.52418035715E+03  0.99481573941E+03  0.11192448111E+03  0.12793342337E+04  0.59978795408E+03 0.  0.
        -24    2    4    4    0    0  0.43561531317E+03  0.75838490398E+03  0.32091045958E+03  0.93542898399E+03  0.84471873244E+02 0.  0.
         24    2    4    4    0    0  0.88565043978E+02  0.23643083543E+03 -0.20898597847E+03  0.34390524971E+03  0.10417473123E+03 0.  0.
         11    1    5    5    0    0  0.35668308528E+03  0.60211535166E+03  0.22122965364E+03  0.73396749225E+03  0.00000000000E+00 0. -1.
        -12    1    5    5    0    0  0.78932227889E+02  0.15626955232E+03  0.99680805937E+02  0.20146149174E+03  0.00000000000E+00 0.  1.
         15    1    3    3    0    0 -0.29216484556E+03 -0.51150159651E+03 -0.25975931609E+03  0.64379518500E+03  0.17770000000E+01 0. -1.
        -16    1    3    3    0    0 -0.23201551159E+03 -0.48331414290E+03 -0.30997697942E+03  0.61928142723E+03  0.00000000000E+00 0.  1.
          4    1    6    6  502    0  0.33251376033E+02  0.10995245917E+03 -0.31607009263E+02  0.11913941548E+03  0.00000000000E+00 0. -1.
         -3    1    6    6    0  502  0.55313667945E+02  0.12647837626E+03 -0.17737896921E+03  0.22476583423E+03  0.00000000000E+00 0.  1.
<mgrwt>
<rscale>  0 0.11265023E+04</rscale>
<asrwt>0</asrwt>
<pdfrwt beam="1">  1        1 0.23078636E+00 0.11265023E+04</pdfrwt>
<pdfrwt beam="2">  1       -2 0.16035377E+00 0.11265023E+04</pdfrwt>
<totfact> 0.14119997E+00</totfact>
</mgrwt>
</event>
<event>
12    3  0.1092576E-007  0.5433459E+03  0.7818608E-02  0.1003046E+00
         -2   -1    0    0    0  501 -0.00000000000E+00  0.00000000000E+00  0.62667888221E+03  0.62667888221E+03  0.00000000000E+00 0.  1.
          1   -1    0    0  501    0  0.00000000000E+00 -0.00000000000E+00 -0.77668098109E+03  0.77668098109E+03  0.00000000000E+00 0. -1.
        -24    2    1    2    0    0  0.27316479359E+03  0.34729796485E+03 -0.41658676132E+03  0.61237703556E+03  0.78906420022E+02 0.  0.
    5000000    2    1    2    0    0 -0.27316479359E+03 -0.34729796485E+03  0.26658466244E+03  0.79098282774E+03  0.59945939869E+03 0.  0.
        -24    2    4    4    0    0 -0.15889604762E+03  0.88225405322E+02 -0.83183307429E+02  0.21527990633E+03  0.79964362958E+02 0.  0.
         24    2    4    4    0    0 -0.11426874598E+03 -0.43552337017E+03  0.34976796987E+03  0.57570292140E+03  0.79738752752E+02 0.  0.
         13    1    5    5    0    0 -0.17676464364E+02  0.80616628062E+01 -0.44198360659E+02  0.48279839318E+02  0.00000000000E+00 0. -1.
        -14    1    5    5    0    0 -0.14121958325E+03  0.80163742516E+02 -0.38984946770E+02  0.16700006701E+03  0.00000000000E+00 0.  1.
         15    1    3    3    0    0  0.12634307927E+03  0.22154928851E+03 -0.25099301474E+03  0.35783699096E+03  0.17770000000E+01 0. -1.
        -16    1    3    3    0    0  0.14682171433E+03  0.12574867634E+03 -0.16559374658E+03  0.25454004460E+03  0.00000000000E+00 0.  1.
          2    1    6    6  502    0  0.14403889925E+01 -0.12702818314E+03  0.11239036154E+03  0.16961670731E+03  0.00000000000E+00 0. -1.
         -1    1    6    6    0  502 -0.11570913497E+03 -0.30849518703E+03  0.23737760833E+03  0.40608621409E+03  0.00000000000E+00 0.  1.
<mgrwt>
<rscale>  0 0.54334587E+03</rscale>
<asrwt>0</asrwt>
<pdfrwt beam="1">  1        1 0.11948938E+00 0.54334587E+03</pdfrwt>
<pdfrwt beam="2">  1       -2 0.96412136E-01 0.54334587E+03</pdfrwt>
<totfact> 0.19114041E+01</totfact>
</mgrwt>
</event>
<event>
12    3  0.1092576E-007  0.4004879E+03  0.7818608E-02  0.1043611E+00
         -2   -1    0    0    0  501 -0.00000000000E+00  0.00000000000E+00  0.47873737023E+03  0.47873737023E+03  0.00000000000E+00 0.  1.
          1   -1    0    0  501    0  0.00000000000E+00 -0.00000000000E+00 -0.48770658752E+03  0.48770658752E+03  0.00000000000E+00 0. -1.
        -24    2    1    2    0    0 -0.18616946250E+03 -0.21517421639E+03 -0.17864468109E+01  0.30271195837E+03  0.10330695128E+03 0.  0.
    5000000    2    1    2    0    0  0.18616946250E+03  0.21517421639E+03 -0.71827704850E+01  0.66373199938E+03  0.59960784072E+03 0.  0.
        -24    2    4    4    0    0  0.58921841884E+02  0.32450052959E+03 -0.20146639045E+03  0.39487087540E+03  0.81005707218E+02 0.  0.
         24    2    4    4    0    0  0.12724762061E+03 -0.10932631320E+03  0.19428361997E+03  0.26886112398E+03  0.79974866623E+02 0.  0.
         11    1    5    5    0    0  0.13734323359E+02  0.37594441611E+02 -0.59189979335E+02  0.71452273105E+02  0.00000000000E+00 0. -1.
        -12    1    5    5    0    0  0.45187518525E+02  0.28690608798E+03 -0.14227641112E+03  0.32341860229E+03  0.00000000000E+00 0.  1.
         15    1    3    3    0    0 -0.65206573026E+02 -0.13037284400E+03 -0.37915469783E+02  0.15063105987E+03  0.17770000000E+01 0. -1.
        -16    1    3    3    0    0 -0.12096288947E+03 -0.84801372387E+02  0.36129022972E+02  0.15208089850E+03  0.00000000000E+00 0.  1.
          4    1    6    6  502    0  0.13212580754E+03 -0.11019270774E+03  0.16237408505E+03  0.23656924008E+03  0.00000000000E+00 0. -1.
         -3    1    6    6    0  502 -0.48781869241E+01  0.86639453959E+00  0.31909534922E+02  0.32291883904E+02  0.00000000000E+00 0.  1.
<mgrwt>
<rscale>  0 0.40048786E+03</rscale>
<asrwt>0</asrwt>
<pdfrwt beam="1">  1        1 0.75031783E-01 0.40048786E+03</pdfrwt>
<pdfrwt beam="2">  1       -2 0.73651903E-01 0.40048786E+03</pdfrwt>
<totfact> 0.69764631E+01</totfact>
</mgrwt>
</event>
<event>
12    3  0.1092576E-007  0.5924548E+03  0.7818608E-02  0.9921185E-01
          1   -1    0    0  501    0  0.00000000000E+00  0.00000000000E+00  0.55855785136E+03  0.55855785136E+03  0.00000000000E+00 0. -1.
         -2   -1    0    0    0  501 -0.00000000000E+00 -0.00000000000E+00 -0.69346936660E+03  0.69346936660E+03  0.00000000000E+00 0.  1.
        -24    2    1    2    0    0  0.43883448924E+03 -0.18928271475E+01 -0.23067041231E+03  0.50252337993E+03  0.82107347566E+02 0.  0.
    5000000    2    1    2    0    0 -0.43883448924E+03  0.18928271475E+01  0.95758897073E+02  0.74950383803E+03  0.60000578757E+03 0.  0.
        -24    2    4    4    0    0  0.11255238523E+03  0.10901541477E+03  0.16999933983E+02  0.17688607941E+03  0.80295001429E+02 0.  0.
         24    2    4    4    0    0 -0.55138687447E+03 -0.10712258762E+03  0.78758963090E+02  0.57261775862E+03  0.78647244767E+02 0.  0.
         11    1    5    5    0    0  0.82994355605E+01  0.59729988758E+02  0.11838226938E+02  0.61454827350E+02  0.00000000000E+00 0. -1.
        -12    1    5    5    0    0  0.10425294967E+03  0.49285426014E+02  0.51617070453E+01  0.11543125206E+03  0.00000000000E+00 0.  1.
         15    1    3    3    0    0  0.29236827625E+03  0.36255607147E+02 -0.14118125270E+03  0.32669401870E+03  0.17770000000E+01 0. -1.
        -16    1    3    3    0    0  0.14646621298E+03 -0.38148434294E+02 -0.89489159609E+02  0.17582936124E+03  0.00000000000E+00 0.  1.
          2    1    6    6  502    0 -0.93593439558E+02 -0.19934551472E+01  0.38377188875E+02  0.10117566119E+03  0.00000000000E+00 0. -1.
         -1    1    6    6    0  502 -0.45779343491E+03 -0.10512913248E+03  0.40381774215E+02  0.47144209743E+03  0.00000000000E+00 0.  1.
<mgrwt>
<rscale>  0 0.59245475E+03</rscale>
<asrwt>0</asrwt>
<pdfrwt beam="1">  1        1 0.85931977E-01 0.59245475E+03</pdfrwt>
<pdfrwt beam="2">  1       -2 0.10668760E+00 0.59245475E+03</pdfrwt>
<totfact> 0.24290713E+01</totfact>
</mgrwt>
</event>
<event>
12    3  0.1092576E-007  0.7553163E+03  0.7818608E-02  0.9627047E-01
         -2   -1    0    0    0  501 -0.00000000000E+00  0.00000000000E+00  0.70848484621E+03  0.70848484621E+03  0.00000000000E+00 0.  1.
          1   -1    0    0  501    0  0.00000000000E+00 -0.00000000000E+00 -0.82719202961E+03  0.82719202961E+03  0.00000000000E+00 0. -1.
        -24    2    1    2    0    0 -0.51586851963E+03  0.38699429332E+03 -0.42276844707E+02  0.65146064592E+03  0.82028830148E+02 0.  0.
    5000000    2    1    2    0    0  0.51586851963E+03 -0.38699429332E+03 -0.76430338700E+02  0.88421622990E+03  0.60009318604E+03 0.  0.
        -24    2    4    4    0    0  0.61730125306E+03 -0.23450376443E+03  0.13757562313E+02  0.66647420690E+03  0.89138910572E+02 0.  0.
         24    2    4    4    0    0 -0.10143273343E+03 -0.15249052889E+03 -0.90187901013E+02  0.21774202300E+03  0.75734868309E+02 0.  0.
         11    1    5    5    0    0  0.52202008003E+03 -0.16330552746E+03  0.22234655191E+01  0.54697221415E+03  0.00000000000E+00 0. -1.
        -12    1    5    5    0    0  0.95281173036E+02 -0.71198236976E+02  0.11534096794E+02  0.11950199276E+03  0.00000000000E+00 0.  1.
         15    1    3    3    0    0 -0.28483664249E+03  0.24959626352E+03  0.37669895571E+01  0.37874471034E+03  0.17770000000E+01 0. -1.
        -16    1    3    3    0    0 -0.23103187713E+03  0.13739802980E+03 -0.46043834264E+02  0.27271593558E+03  0.00000000000E+00 0.  1.
          2    1    6    6  502    0 -0.76896156911E+01  0.81478775759E+01 -0.39465445361E+00  0.11210434898E+02  0.00000000000E+00 0. -1.
         -1    1    6    6    0  502 -0.93743117743E+02 -0.16063840646E+03 -0.89793246560E+02  0.20653158810E+03  0.00000000000E+00 0.  1.
<mgrwt>
<rscale>  0 0.75531634E+03</rscale>
<asrwt>0</asrwt>
<pdfrwt beam="1">  1        1 0.12726031E+00 0.75531634E+03</pdfrwt>
<pdfrwt beam="2">  1       -2 0.10899767E+00 0.75531634E+03</pdfrwt>
<totfact> 0.12588798E+01</totfact>
</mgrwt>
</event>
<event>
12    3  0.1758797E-007  0.8974320E+03  0.7818608E-02  0.9428797E-01
         -2   -1    0    0    0  501 -0.00000000000E+00  0.00000000000E+00  0.48776240794E+03  0.48776240794E+03  0.00000000000E+00 0.  1.
          1   -1    0    0  501    0  0.00000000000E+00 -0.00000000000E+00 -0.21056151602E+04  0.21056151602E+04  0.00000000000E+00 0. -1.
        -24    2    1    2    0    0  0.71931550210E+03  0.47725673550E+03 -0.32194367995E+03  0.92469629374E+03  0.78909564991E+02 0.  0.
    5000000    2    1    2    0    0 -0.71931550210E+03 -0.47725673550E+03 -0.12959090723E+04  0.16686812744E+04  0.59994007090E+03 0.  0.
        -24    2    4    4    0    0 -0.44283317841E+03 -0.47347156553E+03 -0.49937463989E+03  0.82222493033E+03  0.80014110074E+02 0.  0.
         24    2    4    4    0    0 -0.27648232369E+03 -0.37851699662E+01 -0.79653443243E+03  0.84645634408E+03  0.74595157739E+02 0.  0.
         11    1    5    5    0    0 -0.27934750469E+03 -0.25128139184E+03 -0.25921447377E+03  0.45647509206E+03  0.00000000000E+00 0. -1.
        -12    1    5    5    0    0 -0.16348567372E+03 -0.22219017369E+03 -0.24016016612E+03  0.36574983826E+03  0.00000000000E+00 0.  1.
         15    1    3    3    0    0  0.46310604990E+03  0.34521897381E+03 -0.19383114049E+03  0.60927581774E+03  0.17770000000E+01 0. -1.
        -16    1    3    3    0    0  0.25620945221E+03  0.13203776168E+03 -0.12811253945E+03  0.31542047600E+03  0.00000000000E+00 0.  1.
          2    1    6    6  502    0 -0.11797938155E+03 -0.12736918565E+02 -0.24018640623E+03  0.26790086470E+03  0.00000000000E+00 0. -1.
         -1    1    6    6    0  502 -0.15850294214E+03  0.89517485984E+01 -0.55634802620E+03  0.57855547938E+03  0.00000000000E+00 0.  1.
<mgrwt>
<rscale>  0 0.89743200E+03</rscale>
<asrwt>0</asrwt>
<pdfrwt beam="1">  1        1 0.32394079E+00 0.89743200E+03</pdfrwt>
<pdfrwt beam="2">  1       -2 0.75040371E-01 0.89743200E+03</pdfrwt>
<totfact> 0.36181693E+00</totfact>
</mgrwt>
</event>
<event>
12    3  0.1092576E-007  0.7621653E+03  0.7818608E-02  0.9616456E-01
          1   -1    0    0  501    0  0.00000000000E+00  0.00000000000E+00  0.10258701606E+04  0.10258701606E+04  0.00000000000E+00 0. -1.
         -2   -1    0    0    0  501 -0.00000000000E+00 -0.00000000000E+00 -0.72402939906E+03  0.72402939906E+03  0.00000000000E+00 0.  1.
        -24    2    1    2    0    0 -0.65869764152E+03 -0.11897096858E+03  0.48778387560E+03  0.83194637469E+03  0.78517429656E+02 0.  0.
    5000000    2    1    2    0    0  0.65869764152E+03  0.11897096858E+03 -0.18594311402E+03  0.91795318501E+03  0.60002211118E+03 0.  0.
        -24    2    4    4    0    0  0.22268150830E+03 -0.20318162038E+03  0.59380346441E+02  0.31744145969E+03  0.79832510852E+02 0.  0.
         24    2    4    4    0    0  0.43601613322E+03  0.32215258896E+03 -0.24532346046E+03  0.60051172532E+03  0.80860206469E+02 0.  0.
         11    1    5    5    0    0  0.13098083552E+03 -0.16136616103E+03  0.61143080999E+02  0.21664139391E+03  0.00000000000E+00 0. -1.
        -12    1    5    5    0    0  0.91700672784E+02 -0.41815459344E+02 -0.17627345580E+01  0.10080006579E+03  0.00000000000E+00 0.  1.
         15    1    3    3    0    0 -0.11002434027E+03  0.72869296400E+01  0.66658100071E+02  0.12886005910E+03  0.17770000000E+01 0. -1.
        -16    1    3    3    0    0 -0.54867330124E+03 -0.12625789822E+03  0.42112577553E+03  0.70308631559E+03  0.00000000000E+00 0.  1.
          4    1    6    6  502    0  0.37114935689E+03  0.28202806200E+03 -0.23935151134E+03  0.52400459812E+03  0.00000000000E+00 0. -1.
         -1    1    6    6    0  502  0.64866776328E+02  0.40124526963E+02 -0.59719491227E+01  0.76507127194E+02  0.00000000000E+00 0.  1.
<mgrwt>
<rscale>  0 0.76216527E+03</rscale>
<asrwt>0</asrwt>
<pdfrwt beam="1">  1        1 0.15782618E+00 0.76216527E+03</pdfrwt>
<pdfrwt beam="2">  1       -2 0.11138914E+00 0.76216527E+03</pdfrwt>
<totfact> 0.82583839E+00</totfact>
</mgrwt>
</event>
<event>
12    3  0.1092576E-007  0.5412726E+03  0.7818608E-02  0.1003534E+00
         -2   -1    0    0    0  501 -0.00000000000E+00  0.00000000000E+00  0.47286461703E+03  0.47286461703E+03  0.00000000000E+00 0.  1.
          1   -1    0    0  501    0  0.00000000000E+00 -0.00000000000E+00 -0.10638282239E+04  0.10638282239E+04  0.00000000000E+00 0. -1.
        -24    2    1    2    0    0  0.12135355869E+03  0.43451851764E+03 -0.63683145354E+03  0.78439828782E+03  0.78697810211E+02 0.  0.
    5000000    2    1    2    0    0 -0.12135355869E+03 -0.43451851764E+03  0.45867846679E+02  0.75229455311E+03  0.60025845008E+03 0.  0.
        -24    2    4    4    0    0  0.45588725167E+02 -0.44587724671E+03 -0.15347566973E+03  0.48041102958E+03  0.79719038805E+02 0.  0.
         24    2    4    4    0    0 -0.16694228386E+03  0.11358729071E+02  0.19934351641E+03  0.27188352352E+03  0.78638832418E+02 0.  0.
         13    1    5    5    0    0 -0.82336781582E+01 -0.27054434148E+03 -0.10821891779E+03  0.29150191822E+03  0.00000000000E+00 0. -1.
        -14    1    5    5    0    0  0.53822403325E+02 -0.17533290524E+03 -0.45256751938E+02  0.18890911136E+03  0.00000000000E+00 0.  1.
         15    1    3    3    0    0  0.98488453853E+02  0.21811227459E+03 -0.30729782559E+03  0.38949717741E+03  0.17770000000E+01 0. -1.
        -16    1    3    3    0    0  0.22865104842E+02  0.21640624306E+03 -0.32953362795E+03  0.39490111041E+03  0.00000000000E+00 0.  1.
          2    1    6    6  502    0 -0.83139715809E+02  0.24571588918E+02  0.49877676788E+02  0.10001878808E+03  0.00000000000E+00 0. -1.
         -3    1    6    6    0  502 -0.83802568052E+02 -0.13212859847E+02  0.14946583962E+03  0.17186473545E+03  0.00000000000E+00 0.  1.
<mgrwt>
<rscale>  0 0.54127258E+03</rscale>
<asrwt>0</asrwt>
<pdfrwt beam="1">  1        1 0.16366588E+00 0.54127258E+03</pdfrwt>
<pdfrwt beam="2">  1       -2 0.72748404E-01 0.54127258E+03</pdfrwt>
<totfact> 0.21269932E+01</totfact>
</mgrwt>
</event>
<event>
12    3  0.1092576E-007  0.1578685E+04  0.7818608E-02  0.8833751E-01
          1   -1    0    0  501    0  0.00000000000E+00  0.00000000000E+00  0.14109053841E+04  0.14109053841E+04  0.00000000000E+00 0. -1.
         -2   -1    0    0    0  501 -0.00000000000E+00 -0.00000000000E+00 -0.23611659439E+04  0.23611659439E+04  0.00000000000E+00 0.  1.
        -24    2    1    2    0    0 -0.10464835260E+04  0.11130498886E+04 -0.13959800076E+04  0.20710250349E+04  0.79854170418E+02 0.  0.
    5000000    2    1    2    0    0  0.10464835260E+04 -0.11130498886E+04  0.44571944774E+03  0.17010462932E+04  0.60073691457E+03 0.  0.
        -24    2    4    4    0    0  0.10528233161E+04 -0.81846954018E+03  0.37525956347E+03  0.13876582387E+04  0.80289005225E+02 0.  0.
         24    2    4    4    0    0 -0.63397900275E+01 -0.29458034843E+03  0.70459884265E+02  0.31338805446E+03  0.80185427404E+02 0.  0.
         13    1    5    5    0    0  0.80926216474E+03 -0.60740798326E+03  0.31529618366E+03  0.10598402676E+04  0.00000000000E+00 0. -1.
        -14    1    5    5    0    0  0.24356115133E+03 -0.21106155693E+03  0.59963379818E+02  0.32781797109E+03  0.00000000000E+00 0.  1.
         15    1    3    3    0    0 -0.91876946819E+03  0.99832057758E+03 -0.12102075707E+04  0.18180722849E+04  0.17770000000E+01 0. -1.
        -16    1    3    3    0    0 -0.12771405786E+03  0.11472931103E+03 -0.18577243690E+03  0.25295274993E+03  0.00000000000E+00 0.  1.
          2    1    6    6  502    0  0.23976298284E+01 -0.79579518624E+02  0.56754308156E+02  0.97773717876E+02  0.00000000000E+00 0. -1.
         -1    1    6    6    0  502 -0.87374198559E+01 -0.21500082981E+03  0.13705576110E+02  0.21561433659E+03  0.00000000000E+00 0.  1.
<mgrwt>
<rscale>  0 0.15786849E+04</rscale>
<asrwt>0</asrwt>
<pdfrwt beam="1">  1        1 0.21706237E+00 0.15786849E+04</pdfrwt>
<pdfrwt beam="2">  1       -2 0.36325630E+00 0.15786849E+04</pdfrwt>
<totfact> 0.79454434E-02</totfact>
</mgrwt>
</event>
<event>
12    3  0.1092576E-007  0.1052568E+04  0.7818608E-02  0.9252697E-01
          1   -1    0    0  501    0  0.00000000000E+00  0.00000000000E+00  0.31455603559E+04  0.31455603559E+04  0.00000000000E+00 0. -1.
         -2   -1    0    0    0  501 -0.00000000000E+00 -0.00000000000E+00 -0.10201207143E+04  0.10201207143E+04  0.00000000000E+00 0.  1.
        -24    2    1    2    0    0 -0.64013623678E+03  0.72981500168E+03 -0.64595506816E+03  0.11685201258E+04  0.76006551872E+02 0.  0.
    5000000    2    1    2    0    0  0.64013623678E+03 -0.72981500168E+03  0.27713947098E+04  0.29971609445E+04  0.59995062406E+03 0.  0.
        -24    2    4    4    0    0  0.63960965978E+03 -0.31742827890E+03  0.18343833299E+04  0.19703720990E+04  0.86849169756E+02 0.  0.
         24    2    4    4    0    0  0.52657700333E+00 -0.41238672278E+03  0.93701137988E+03  0.10267888455E+04  0.79005827517E+02 0.  0.
         13    1    5    5    0    0  0.60122785748E+03 -0.29619109485E+03  0.17683009819E+04  0.18910559124E+04  0.00000000000E+00 0. -1.
        -14    1    5    5    0    0  0.38381802297E+02 -0.21237184045E+02  0.66082347983E+02  0.79316186549E+02  0.00000000000E+00 0.  1.
         15    1    3    3    0    0 -0.55200773282E+03  0.60801610912E+03 -0.51661615719E+03  0.97020180253E+03  0.17770000000E+01 0. -1.
        -16    1    3    3    0    0 -0.88128503961E+02  0.12179889257E+03 -0.12933891098E+03  0.19831832324E+03  0.00000000000E+00 0.  1.
          4    1    6    6  502    0 -0.31615917183E+02 -0.32211920169E+03  0.70366469494E+03  0.77453492447E+03  0.00000000000E+00 0. -1.
         -3    1    6    6    0  502  0.32142494186E+02 -0.90267521092E+02  0.23334668494E+03  0.25225392102E+03  0.00000000000E+00 0.  1.
<mgrwt>
<rscale>  0 0.10525677E+04</rscale>
<asrwt>0</asrwt>
<pdfrwt beam="1">  1        1 0.48393236E+00 0.10525677E+04</pdfrwt>
<pdfrwt beam="2">  1       -2 0.15694165E+00 0.10525677E+04</pdfrwt>
<totfact> 0.11017298E-01</totfact>
</mgrwt>
</event>
<event>
12    3  0.1092576E-007  0.1627941E+04  0.7818608E-02  0.8803565E-01
         -2   -1    0    0    0  501 -0.00000000000E+00  0.00000000000E+00  0.55657568834E+03  0.55657568834E+03  0.00000000000E+00 0.  1.
          1   -1    0    0  501    0  0.00000000000E+00 -0.00000000000E+00 -0.55161154865E+04  0.55161154865E+04  0.00000000000E+00 0. -1.
        -24    2    1    2    0    0 -0.11711713099E+04  0.10763061455E+04 -0.13695630996E+04  0.21004475690E+04  0.78100899289E+02 0.  0.
    5000000    2    1    2    0    0  0.11711713099E+04 -0.10763061455E+04 -0.35899766986E+04  0.39722436059E+04  0.60059088582E+03 0.  0.
        -24    2    4    4    0    0  0.90057042436E+03 -0.10628375887E+04 -0.31942434467E+04  0.34861297027E+04  0.96219945434E+02 0.  0.
         24    2    4    4    0    0  0.27060088550E+03 -0.13468556843E+02 -0.39573325183E+03  0.48611390316E+03  0.79345314825E+02 0.  0.
         13    1    5    5    0    0  0.60039814081E+03 -0.74906846422E+03 -0.21074846859E+04  0.23158309940E+04  0.00000000000E+00 0. -1.
        -14    1    5    5    0    0  0.30017228355E+03 -0.31376912443E+03 -0.10867587609E+04  0.11702987087E+04  0.00000000000E+00 0.  1.
         15    1    3    3    0    0 -0.38915606029E+03  0.35894152979E+03 -0.50488471206E+03  0.73156899283E+03  0.17770000000E+01 0. -1.
        -16    1    3    3    0    0 -0.78201524958E+03  0.71736461571E+03 -0.86467838757E+03  0.13688785762E+04  0.00000000000E+00 0.  1.
          2    1    6    6  502    0  0.75602918454E+02 -0.44856247431E+00 -0.55653248587E+02  0.93879106117E+02  0.00000000000E+00 0. -1.
         -1    1    6    6    0  502  0.19499796705E+03 -0.13019994369E+02 -0.34008000324E+03  0.39223479704E+03  0.00000000000E+00 0.  1.
<mgrwt>
<rscale>  0 0.16279406E+04</rscale>
<asrwt>0</asrwt>
<pdfrwt beam="1">  1        1 0.84863315E+00 0.16279406E+04</pdfrwt>
<pdfrwt beam="2">  1       -2 0.85627029E-01 0.16279406E+04</pdfrwt>
<totfact> 0.14613332E-03</totfact>
</mgrwt>
</event>
<event>
12    3  0.1092576E-007  0.1503771E+04  0.7818608E-02  0.8881949E-01
         -2   -1    0    0    0  501 -0.00000000000E+00  0.00000000000E+00  0.27606090065E+04  0.27606090065E+04  0.00000000000E+00 0.  1.
          1   -1    0    0  501    0  0.00000000000E+00 -0.00000000000E+00 -0.11251522660E+04  0.11251522660E+04  0.00000000000E+00 0. -1.
        -24    2    1    2    0    0  0.14576473584E+04 -0.91358578966E+02 -0.18677186192E+03  0.14745947822E+04  0.80397959673E+02 0.  0.
    5000000    2    1    2    0    0 -0.14576473584E+04  0.91358578966E+02  0.18222286024E+04  0.24111664903E+04  0.60010378565E+03 0.  0.
        -24    2    4    4    0    0 -0.53303652997E+03 -0.20365903607E+03  0.45867950360E+03  0.73646263378E+03  0.79908564440E+02 0.  0.
         24    2    4    4    0    0 -0.92461082838E+03  0.29501761504E+03  0.13635490988E+04  0.16747038566E+04  0.58534479296E+02 0.  0.
         13    1    5    5    0    0 -0.40748207965E+03 -0.18290509874E+03  0.38319169763E+03  0.58849961556E+03  0.00000000000E+00 0. -1.
        -14    1    5    5    0    0 -0.12555445032E+03 -0.20753937333E+02  0.75487805971E+02  0.14796301822E+03  0.00000000000E+00 0.  1.
         15    1    3    3    0    0  0.12469775930E+04 -0.53638477333E+02 -0.17389686679E+03  0.12601878756E+04  0.17770000000E+01 0. -1.
        -16    1    3    3    0    0  0.21066976531E+03 -0.37720101633E+02 -0.12874995126E+02  0.21440690656E+03  0.00000000000E+00 0.  1.
          2    1    6    6  502    0 -0.64184890973E+02  0.92835868386E+01  0.10920164086E+03  0.12700741546E+03  0.00000000000E+00 0. -1.
         -1    1    6    6    0  502 -0.86042593741E+03  0.28573402820E+03  0.12543474579E+04  0.15476964411E+04  0.00000000000E+00 0.  1.
<mgrwt>
<rscale>  0 0.15037710E+04</rscale>
<asrwt>0</asrwt>
<pdfrwt beam="1">  1        1 0.17310035E+00 0.15037710E+04</pdfrwt>
<pdfrwt beam="2">  1       -2 0.42470907E+00 0.15037710E+04</pdfrwt>
<totfact> 0.51478918E-02</totfact>
</mgrwt>
</event>
<event>
12    3  0.1092576E-007  0.9523551E+03  0.7818608E-02  0.9362402E-01
          1   -1    0    0  501    0  0.00000000000E+00  0.00000000000E+00  0.19481708104E+04  0.19481708104E+04  0.00000000000E+00 0. -1.
         -2   -1    0    0    0  501 -0.00000000000E+00 -0.00000000000E+00 -0.73669697015E+03  0.73669697015E+03  0.00000000000E+00 0.  1.
        -24    2    1    2    0    0 -0.23624523467E+03 -0.88744299610E+03 -0.15283372781E+03  0.93423264859E+03  0.77882033259E+02 0.  0.
    5000000    2    1    2    0    0  0.23624523467E+03  0.88744299610E+03  0.13643075681E+04  0.17506351320E+04  0.60001778536E+03 0.  0.
        -24    2    4    4    0    0  0.31438221605E+03  0.66450667418E+03  0.61658642095E+03  0.96249070295E+03  0.76185569357E+02 0.  0.
         24    2    4    4    0    0 -0.78136981377E+02  0.22293632192E+03  0.74772114712E+03  0.78814442901E+03  0.79238473239E+02 0.  0.
         13    1    5    5    0    0  0.20097286648E+03  0.47250476807E+03  0.39197763154E+03  0.64598553586E+03  0.00000000000E+00 0. -1.
        -14    1    5    5    0    0  0.11340934956E+03  0.19200190611E+03  0.22460878941E+03  0.31650516709E+03  0.00000000000E+00 0.  1.
         15    1    3    3    0    0 -0.21133405779E+03 -0.68939378523E+03 -0.13732565466E+03  0.73402136771E+03  0.17770000000E+01 0. -1.
        -16    1    3    3    0    0 -0.24911176881E+02 -0.19804921087E+03 -0.15508073154E+02  0.20021128088E+03  0.00000000000E+00 0.  1.
          4    1    6    6  502    0 -0.56877971772E+02  0.21860083967E+03  0.65277304936E+03  0.69074893033E+03  0.00000000000E+00 0. -1.
         -3    1    6    6    0  502 -0.21259009604E+02  0.43354822499E+01  0.94948097757E+02  0.97395498681E+02  0.00000000000E+00 0.  1.
<mgrwt>
<rscale>  0 0.95235513E+03</rscale>
<asrwt>0</asrwt>
<pdfrwt beam="1">  1        1 0.29971858E+00 0.95235513E+03</pdfrwt>
<pdfrwt beam="2">  1       -2 0.11333800E+00 0.95235513E+03</pdfrwt>
<totfact> 0.17516392E+00</totfact>
</mgrwt>
</event>
<event>
12    3  0.1092576E-007  0.4839531E+03  0.7818608E-02  0.1018054E+00
         -2   -1    0    0    0  501 -0.00000000000E+00  0.00000000000E+00  0.59958331287E+03  0.59958331287E+03  0.00000000000E+00 0.  1.
          1   -1    0    0  501    0  0.00000000000E+00 -0.00000000000E+00 -0.14836743735E+04  0.14836743735E+04  0.00000000000E+00 0. -1.
        -24    2    1    2    0    0  0.18220420978E+03  0.42442430828E+03  0.38426396181E+03  0.60635079614E+03  0.81658607156E+02 0.  0.
    5000000    2    1    2    0    0 -0.18220420978E+03 -0.42442430828E+03 -0.12683550225E+04  0.14769068903E+04  0.59932890131E+03 0.  0.
        -24    2    4    4    0    0 -0.85397418080E+02 -0.57532521329E+02  0.19996255231E+02  0.13146405585E+03  0.79247950962E+02 0.  0.
         24    2    4    4    0    0 -0.96806791705E+02 -0.36689178695E+03 -0.12883512777E+04  0.13454428344E+04  0.79914126811E+02 0.  0.
         11    1    5    5    0    0 -0.41059763008E+02 -0.28061347375E+01 -0.24745140235E+02  0.48021875179E+02  0.00000000000E+00 0. -1.
        -12    1    5    5    0    0 -0.44337655072E+02 -0.54726386592E+02  0.44741395466E+02  0.83442180670E+02  0.00000000000E+00 0.  1.
         15    1    3    3    0    0  0.66800802127E+02  0.25805535079E+03  0.21898288579E+03  0.34498054037E+03  0.17770000000E+01 0. -1.
        -16    1    3    3    0    0  0.11540340766E+03  0.16636895748E+03  0.16528107601E+03  0.26137025577E+03  0.00000000000E+00 0.  1.
          4    1    6    6  502    0 -0.10777622621E+03 -0.35542242787E+03 -0.12476421538E+04  0.13017495001E+04  0.00000000000E+00 0. -1.
         -3    1    6    6    0  502  0.10969434509E+02 -0.11469359080E+02 -0.40709123894E+02  0.43693334267E+02  0.00000000000E+00 0.  1.
<mgrwt>
<rscale>  0 0.48395312E+03</rscale>
<asrwt>0</asrwt>
<pdfrwt beam="1">  1        1 0.22825760E+00 0.48395312E+03</pdfrwt>
<pdfrwt beam="2">  1       -2 0.92243586E-01 0.48395312E+03</pdfrwt>
<totfact> 0.63691274E+00</totfact>
</mgrwt>
</event>
<event>
12    3  0.1092576E-007  0.8279932E+03  0.7818608E-02  0.9520359E-01
         -2   -1    0    0    0  501 -0.00000000000E+00  0.00000000000E+00  0.27859294478E+03  0.27859294478E+03  0.00000000000E+00 0.  1.
          1   -1    0    0  501    0  0.00000000000E+00 -0.00000000000E+00 -0.26999160888E+04  0.26999160888E+04  0.00000000000E+00 0. -1.
        -24    2    1    2    0    0  0.33883672298E+03 -0.67519336074E+03 -0.90750837050E+03  0.11834201634E+04  0.78838070379E+02 0.  0.
    5000000    2    1    2    0    0 -0.33883672298E+03  0.67519336074E+03 -0.15138147735E+04  0.17950888702E+04  0.60001040334E+03 0.  0.
        -24    2    4    4    0    0  0.92388456317E+02  0.33408239209E+03 -0.89719717511E+03  0.96503824652E+03  0.78672578877E+02 0.  0.
         24    2    4    4    0    0 -0.43122517930E+03  0.34111096865E+03 -0.61661759840E+03  0.83005062365E+03  0.80342560182E+02 0.  0.
         13    1    5    5    0    0 -0.11598398428E+01  0.60558169200E+00  0.14525581197E+01  0.19549636155E+01  0.00000000000E+00 0. -1.
        -14    1    5    5    0    0  0.93548296160E+02  0.33347681040E+03 -0.89864973323E+03  0.96308328291E+03  0.00000000000E+00 0.  1.
         15    1    3    3    0    0  0.11610545528E+03 -0.18956627778E+03 -0.22041546234E+03  0.31305268596E+03  0.17770000000E+01 0. -1.
        -16    1    3    3    0    0  0.22273126770E+03 -0.48562708297E+03 -0.68709290815E+03  0.87036747742E+03  0.00000000000E+00 0.  1.
          4    1    6    6  502    0 -0.90195512149E+02  0.48558129041E+02 -0.78792693326E+02  0.12923393838E+03  0.00000000000E+00 0. -1.
         -3    1    6    6    0  502 -0.34102966715E+03  0.29255283961E+03 -0.53782490507E+03  0.70081668527E+03  0.00000000000E+00 0.  1.
<mgrwt>
<rscale>  0 0.82799317E+03</rscale>
<asrwt>0</asrwt>
<pdfrwt beam="1">  1        1 0.41537170E+00 0.82799317E+03</pdfrwt>
<pdfrwt beam="2">  1       -2 0.42860454E-01 0.82799317E+03</pdfrwt>
<totfact> 0.46495973E+00</totfact>
</mgrwt>
</event>
<event>
12    3  0.1092576E-007  0.5079458E+03  0.7818608E-02  0.1011726E+00
          1   -1    0    0  501    0  0.00000000000E+00  0.00000000000E+00  0.16044538034E+04  0.16044538034E+04  0.00000000000E+00 0. -1.
         -2   -1    0    0    0  501 -0.00000000000E+00 -0.00000000000E+00 -0.20426535530E+03  0.20426535530E+03  0.00000000000E+00 0.  1.
        -24    2    1    2    0    0 -0.29888864680E+02 -0.33136502559E+03  0.89248348259E+03  0.95535721042E+03  0.74057466830E+02 0.  0.
    5000000    2    1    2    0    0  0.29888864680E+02  0.33136502559E+03  0.50770496547E+03  0.85336194823E+03  0.59980510027E+03 0.  0.
        -24    2    4    4    0    0 -0.21637721152E+03  0.35724059448E+03  0.29580369849E+03  0.51816578964E+03  0.80969238018E+02 0.  0.
         24    2    4    4    0    0  0.24626607620E+03 -0.25875568881E+02  0.21190126698E+03  0.33519615859E+03  0.78344064465E+02 0.  0.
         13    1    5    5    0    0 -0.14449188761E+03  0.22018025576E+03  0.23124418910E+03  0.35047271735E+03  0.00000000000E+00 0. -1.
        -14    1    5    5    0    0 -0.71885323910E+02  0.13706033871E+03  0.64559509393E+02  0.16769307229E+03  0.00000000000E+00 0.  1.
         15    1    3    3    0    0 -0.44393155016E+02 -0.15110342556E+03  0.35818923901E+03  0.39128721689E+03  0.17770000000E+01 0. -1.
        -16    1    3    3    0    0  0.14504290336E+02 -0.18026160004E+03  0.53429424358E+03  0.56406999354E+03  0.00000000000E+00 0.  1.
          4    1    6    6  502    0  0.56759002824E+02 -0.39926169821E+02  0.63896039780E+02  0.94331263840E+02  0.00000000000E+00 0. -1.
         -3    1    6    6    0  502  0.18950707338E+03  0.14050600941E+02  0.14800522720E+03  0.24086489475E+03  0.00000000000E+00 0.  1.
<mgrwt>
<rscale>  0 0.50794579E+03</rscale>
<asrwt>0</asrwt>
<pdfrwt beam="1">  1        1 0.24683904E+00 0.50794579E+03</pdfrwt>
<pdfrwt beam="2">  1       -2 0.31425440E-01 0.50794579E+03</pdfrwt>
<totfact> 0.48452015E+01</totfact>
</mgrwt>
</event>
<event>
12    3  0.1092576E-007  0.7320817E+03  0.7818608E-02  0.9663888E-01
          1   -1    0    0  501    0  0.00000000000E+00  0.00000000000E+00  0.17025392573E+04  0.17025392573E+04  0.00000000000E+00 0. -1.
         -2   -1    0    0    0  501 -0.00000000000E+00 -0.00000000000E+00 -0.65196293846E+03  0.65196293846E+03  0.00000000000E+00 0.  1.
        -24    2    1    2    0    0 -0.56776898314E+03 -0.38126428672E+03 -0.27930048435E+03  0.74312032148E+03  0.80591420810E+02 0.  0.
    5000000    2    1    2    0    0  0.56776898314E+03  0.38126428672E+03  0.13298768032E+04  0.16113818743E+04  0.60021259445E+03 0.  0.
        -24    2    4    4    0    0  0.11512434432E+03  0.27864621684E+03  0.97016785611E+03  0.10187257009E+04  0.75359511098E+02 0.  0.
         24    2    4    4    0    0  0.45264463882E+03  0.10261806988E+03  0.35970894710E+03  0.59265617335E+03  0.80207081182E+02 0.  0.
         11    1    5    5    0    0  0.68125726549E+02  0.23365783415E+03  0.71047591200E+03  0.75100806893E+03  0.00000000000E+00 0. -1.
        -12    1    5    5    0    0  0.46998617770E+02  0.44988382690E+02  0.25969194411E+03  0.26771763200E+03  0.00000000000E+00 0.  1.
         15    1    3    3    0    0 -0.28135046229E+03 -0.15075334874E+03 -0.15648847470E+03  0.35549466273E+03  0.17770000000E+01 0. -1.
        -16    1    3    3    0    0 -0.28641852085E+03 -0.23051093798E+03 -0.12281200965E+03  0.38762565875E+03  0.00000000000E+00 0.  1.
          4    1    6    6  502    0  0.15194705197E+03  0.66997247417E+02  0.15493305626E+03  0.22711404555E+03  0.00000000000E+00 0. -1.
         -3    1    6    6    0  502  0.30069758685E+03  0.35620822464E+02  0.20477589084E+03  0.36554212780E+03  0.00000000000E+00 0.  1.
<mgrwt>
<rscale>  0 0.73208171E+03</rscale>
<asrwt>0</asrwt>
<pdfrwt beam="1">  1        1 0.26192911E+00 0.73208171E+03</pdfrwt>
<pdfrwt beam="2">  1       -2 0.10030199E+00 0.73208171E+03</pdfrwt>
<totfact> 0.35548301E+00</totfact>
</mgrwt>
</event>
<event>
12    3  0.1092576E-007  0.8387136E+03  0.7818608E-02  0.9505612E-01
         -2   -1    0    0    0  501 -0.00000000000E+00  0.00000000000E+00  0.42542379249E+03  0.42542379249E+03  0.00000000000E+00 0.  1.
          1   -1    0    0  501    0  0.00000000000E+00 -0.00000000000E+00 -0.17449391219E+04  0.17449391219E+04  0.00000000000E+00 0. -1.
        -24    2    1    2    0    0  0.63909933632E+02  0.74980005058E+03 -0.51054682940E+03  0.91318168379E+03  0.83415389098E+02 0.  0.
    5000000    2    1    2    0    0 -0.63909933632E+02 -0.74980005058E+03 -0.80896850005E+03  0.12571812306E+04  0.59982498874E+03 0.  0.
        -24    2    4    4    0    0 -0.13407982434E+03  0.18487291560E+02 -0.27177854889E+03  0.31408005595E+03  0.80396036354E+02 0.  0.
         24    2    4    4    0    0  0.70169890705E+02 -0.76828734214E+03 -0.53718995116E+03  0.94310117469E+03  0.75349375719E+02 0.  0.
         11    1    5    5    0    0 -0.11907842332E+03  0.37546279074E+02 -0.17941107578E+03  0.21858117048E+03  0.00000000000E+00 0. -1.
        -12    1    5    5    0    0 -0.15001401017E+02 -0.19058987514E+02 -0.92367473108E+02  0.95498885470E+02  0.00000000000E+00 0.  1.
         15    1    3    3    0    0  0.80038175767E+02  0.69636868566E+03 -0.48005493366E+03  0.84958304657E+03  0.17770000000E+01 0. -1.
        -16    1    3    3    0    0 -0.16128242135E+02  0.53431364921E+02 -0.30491895733E+02  0.63598637226E+02  0.00000000000E+00 0.  1.
          2    1    6    6  502    0  0.95105962008E+01 -0.14628828516E+03 -0.67851614786E+02  0.16153809286E+03  0.00000000000E+00 0. -1.
         -1    1    6    6    0  502  0.60659294505E+02 -0.62199905698E+03 -0.46933833637E+03  0.78156308183E+03  0.00000000000E+00 0.  1.
<mgrwt>
<rscale>  0 0.83871355E+03</rscale>
<asrwt>0</asrwt>
<pdfrwt beam="1">  1        1 0.26845217E+00 0.83871355E+03</pdfrwt>
<pdfrwt beam="2">  1       -2 0.65449814E-01 0.83871355E+03</pdfrwt>
<totfact> 0.85920447E+00</totfact>
</mgrwt>
</event>
<event>
12    3  0.1092576E-007  0.1355693E+04  0.7818608E-02  0.8986529E-01
          1   -1    0    0  501    0  0.00000000000E+00  0.00000000000E+00  0.87746591163E+03  0.87746591163E+03  0.00000000000E+00 0. -1.
         -2   -1    0    0    0  501 -0.00000000000E+00 -0.00000000000E+00 -0.26166929560E+04  0.26166929560E+04  0.00000000000E+00 0.  1.
        -24    2    1    2    0    0 -0.94073658862E+03  0.88767731291E+03 -0.16039220818E+04  0.20620391951E+04  0.80518671655E+02 0.  0.
    5000000    2    1    2    0    0  0.94073658862E+03 -0.88767731291E+03 -0.13530496251E+03  0.14321196725E+04  0.59975243435E+03 0.  0.
        -24    2    4    4    0    0  0.59831217406E+03 -0.88650079265E+03 -0.13629585523E+03  0.10805678703E+04  0.72036443795E+02 0.  0.
         24    2    4    4    0    0  0.34242441456E+03 -0.11765202667E+01  0.99089271950E+00  0.35155180220E+03  0.79572758350E+02 0.  0.
         11    1    5    5    0    0  0.25926473024E+03 -0.37417271315E+03 -0.22590392189E+02  0.45577817568E+03  0.00000000000E+00 0. -1.
        -12    1    5    5    0    0  0.33904744382E+03 -0.51232807950E+03 -0.11370546304E+03  0.62478969464E+03  0.00000000000E+00 0.  1.
         15    1    3    3    0    0 -0.76923191306E+03  0.69843025016E+03 -0.12463959720E+04  0.16226609711E+04  0.17770000000E+01 0. -1.
        -16    1    3    3    0    0 -0.17150467556E+03  0.18924706276E+03 -0.35752610988E+03  0.43937822403E+03  0.00000000000E+00 0.  1.
          2    1    6    6  502    0  0.55663046550E+02  0.21692001734E+02  0.20650924891E+02  0.63209005603E+02  0.00000000000E+00 0. -1.
         -1    1    6    6    0  502  0.28676136801E+03 -0.22868522001E+02 -0.19660032172E+02  0.28834279660E+03  0.00000000000E+00 0.  1.
<mgrwt>
<rscale>  0 0.13556934E+04</rscale>
<asrwt>0</asrwt>
<pdfrwt beam="1">  1        1 0.13499476E+00 0.13556934E+04</pdfrwt>
<pdfrwt beam="2">  1       -2 0.40256814E+00 0.13556934E+04</pdfrwt>
<totfact> 0.11526798E-01</totfact>
</mgrwt>
</event>
<event>
12    3  0.1092576E-007  0.1573800E+04  0.7818608E-02  0.8836807E-01
         -4   -1    0    0    0  501 -0.00000000000E+00  0.00000000000E+00  0.17065294232E+04  0.17065294232E+04  0.00000000000E+00 0.  1.
          3   -1    0    0  501    0  0.00000000000E+00 -0.00000000000E+00 -0.14655942160E+04  0.14655942160E+04  0.00000000000E+00 0. -1.
        -24    2    1    2    0    0  0.95602468145E+03 -0.11784106962E+04 -0.19683967125E+02  0.15196866324E+04  0.80156358046E+02 0.  0.
    5000000    2    1    2    0    0 -0.95602468145E+03  0.11784106962E+04  0.26061917432E+03  0.16524370068E+04  0.59999228918E+03 0.  0.
        -24    2    4    4    0    0  0.63078899144E+02  0.14528111032E+03  0.35970308243E+02  0.18184777026E+03  0.81787529230E+02 0.  0.
         24    2    4    4    0    0 -0.10191035806E+04  0.10331295859E+04  0.22464886607E+03  0.14705892366E+04  0.78973036695E+02 0.  0.
         13    1    5    5    0    0 -0.62567703048E+01  0.88139955026E+02  0.19892333798E+02  0.90573195762E+02  0.00000000000E+00 0. -1.
        -14    1    5    5    0    0  0.69335669449E+02  0.57141155299E+02  0.16077974445E+02  0.91274574494E+02  0.00000000000E+00 0.  1.
         15    1    3    3    0    0  0.54291947317E+03 -0.63470239329E+03 -0.44237336144E+02  0.83640228481E+03  0.17770000000E+01 0. -1.
        -16    1    3    3    0    0  0.41310520828E+03 -0.54370830290E+03  0.24553369018E+02  0.68328434761E+03  0.00000000000E+00 0.  1.
          2    1    6    6  502    0 -0.49958461127E+03  0.52053230480E+03  0.15036334469E+03  0.73698561695E+03  0.00000000000E+00 0. -1.
         -1    1    6    6    0  502 -0.51951896933E+03  0.51259728107E+03  0.74285521387E+02  0.73360361963E+03  0.00000000000E+00 0.  1.
<mgrwt>
<rscale>  0 0.15738001E+04</rscale>
<asrwt>0</asrwt>
<pdfrwt beam="1">  1        3 0.22547603E+00 0.15738001E+04</pdfrwt>
<pdfrwt beam="2">  1       -4 0.26254299E+00 0.15738001E+04</pdfrwt>
<totfact> 0.11320458E-02</totfact>
</mgrwt>
</event>
<event>
12    3  0.1092576E-007  0.1119512E+04  0.7818608E-02  0.9186380E-01
          1   -1    0    0  501    0  0.00000000000E+00  0.00000000000E+00  0.98269208454E+03  0.98269208454E+03  0.00000000000E+00 0. -1.
         -2   -1    0    0    0  501 -0.00000000000E+00 -0.00000000000E+00 -0.13417615817E+04  0.13417615817E+04  0.00000000000E+00 0.  1.
        -24    2    1    2    0    0 -0.10506199740E+04  0.18119485088E+03 -0.99958232482E+02  0.10739242825E+04  0.81779047104E+02 0.  0.
    5000000    2    1    2    0    0  0.10506199740E+04 -0.18119485088E+03 -0.25911126471E+03  0.12505293838E+04  0.60004265557E+03 0.  0.
        -24    2    4    4    0    0  0.12166929940E+03  0.14089853319E+03  0.64289466806E+02  0.21249731795E+03  0.79788216672E+02 0.  0.
         24    2    4    4    0    0  0.92895067458E+03 -0.32209338407E+03 -0.32340073151E+03  0.10380320658E+04  0.78924221258E+02 0.  0.
         11    1    5    5    0    0  0.66222728355E+02  0.67085124384E+02  0.73761642157E+02  0.11969395773E+03  0.00000000000E+00 0. -1.
        -12    1    5    5    0    0  0.55446571049E+02  0.73813408810E+02 -0.94721753514E+01  0.92803360215E+02  0.00000000000E+00 0.  1.
         15    1    3    3    0    0 -0.15554901172E+03  0.15171128358E+02 -0.41489509412E+02  0.16171022015E+03  0.17770000000E+01 0. -1.
        -16    1    3    3    0    0 -0.89507096227E+03  0.16602372252E+03 -0.58468723069E+02  0.91221406233E+03  0.00000000000E+00 0.  1.
          4    1    6    6  502    0  0.10709020570E+03 -0.62138954083E+02 -0.52388715652E+02  0.13444009558E+03  0.00000000000E+00 0. -1.
         -3    1    6    6    0  502  0.82186046888E+03 -0.25995442999E+03 -0.27101201586E+03  0.90359197026E+03  0.00000000000E+00 0.  1.
<mgrwt>
<rscale>  0 0.11195121E+04</rscale>
<asrwt>0</asrwt>
<pdfrwt beam="1">  1        1 0.15118340E+00 0.11195121E+04</pdfrwt>
<pdfrwt beam="2">  1       -2 0.20642486E+00 0.11195121E+04</pdfrwt>
<totfact> 0.16260833E+00</totfact>
</mgrwt>
</event>
<event>
12    3  0.1092576E-007  0.1296221E+04  0.7818608E-02  0.9032567E-01
          1   -1    0    0  501    0  0.00000000000E+00  0.00000000000E+00  0.11668174173E+04  0.11668174173E+04  0.00000000000E+00 0. -1.
         -2   -1    0    0    0  501 -0.00000000000E+00 -0.00000000000E+00 -0.16075932265E+04  0.16075932265E+04  0.00000000000E+00 0.  1.
        -24    2    1    2    0    0 -0.10458536092E+04 -0.71556658363E+03  0.95327529744E+02  0.12733602957E+04  0.80708099289E+02 0.  0.
    5000000    2    1    2    0    0  0.10458536092E+04  0.71556658363E+03 -0.53610333887E+03  0.15010503481E+04  0.59991670251E+03 0.  0.
        -24    2    4    4    0    0  0.16885092875E+03 -0.10770827192E+02  0.81119249781E+02  0.20356418396E+03  0.78939200973E+02 0.  0.
         24    2    4    4    0    0  0.87700268048E+03  0.72633741082E+03 -0.61722258865E+03  0.12974861641E+04  0.76202927670E+02 0.  0.
         13    1    5    5    0    0  0.17526078938E+03 -0.19191417356E+01  0.79708427152E+02  0.19254469807E+03  0.00000000000E+00 0. -1.
        -14    1    5    5    0    0 -0.64098606303E+01 -0.88516854561E+01  0.14108226285E+01  0.11019485887E+02  0.00000000000E+00 0.  1.
         15    1    3    3    0    0 -0.93736375734E+03 -0.63252965848E+03  0.10899420609E+03  0.11360578670E+04  0.17770000000E+01 0. -1.
        -16    1    3    3    0    0 -0.10848985189E+03 -0.83036925147E+02 -0.13666676347E+02  0.13730242876E+03  0.00000000000E+00 0.  1.
          4    1    6    6  502    0  0.37679613320E+03  0.30358322453E+03 -0.22027993546E+03  0.53165905445E+03  0.00000000000E+00 0. -1.
         -3    1    6    6    0  502  0.50020654728E+03  0.42275418629E+03 -0.39694265319E+03  0.76582710966E+03  0.00000000000E+00 0.  1.
<mgrwt>
<rscale>  0 0.12962209E+04</rscale>
<asrwt>0</asrwt>
<pdfrwt beam="1">  1        1 0.17951037E+00 0.12962209E+04</pdfrwt>
<pdfrwt beam="2">  1       -2 0.24732203E+00 0.12962209E+04</pdfrwt>
<totfact> 0.63869298E-01</totfact>
</mgrwt>
</event>
<event>
12    3  0.1092576E-007  0.4615491E+03  0.7818608E-02  0.1024333E+00
         -2   -1    0    0    0  501 -0.00000000000E+00  0.00000000000E+00  0.42164998590E+03  0.42164998590E+03  0.00000000000E+00 0.  1.
          1   -1    0    0  501    0  0.00000000000E+00 -0.00000000000E+00 -0.92937589983E+03  0.92937589983E+03  0.00000000000E+00 0. -1.
        -24    2    1    2    0    0  0.22263772699E+03  0.34893559587E+03 -0.45432905516E+03  0.62035718609E+03  0.84288435952E+02 0.  0.
    5000000    2    1    2    0    0 -0.22263772699E+03 -0.34893559587E+03 -0.53396858773E+02  0.73066869964E+03  0.59975154570E+03 0.  0.
        -24    2    4    4    0    0 -0.23188590501E+03 -0.10845423052E+03  0.22782266782E+03  0.35174795520E+03  0.79309917103E+02 0.  0.
         24    2    4    4    0    0  0.92481780226E+01 -0.24048136534E+03 -0.28121952660E+03  0.37892074444E+03  0.81115304072E+02 0.  0.
         11    1    5    5    0    0 -0.14871046768E+03 -0.43659423580E+02  0.17518680935E+03  0.23390461012E+03  0.00000000000E+00 0. -1.
        -12    1    5    5    0    0 -0.83175437326E+02 -0.64794806942E+02  0.52635858470E+02  0.11784334507E+03  0.00000000000E+00 0.  1.
         15    1    3    3    0    0  0.43761716061E+02  0.21333344941E+02 -0.43807266964E+02  0.65516667855E+02  0.17770000000E+01 0. -1.
        -16    1    3    3    0    0  0.17887601093E+03  0.32760225093E+03 -0.41052178819E+03  0.55484051824E+03  0.00000000000E+00 0.  1.
          2    1    6    6  502    0  0.97702299120E+01 -0.22211748513E+03 -0.28363721384E+03  0.36039104271E+03  0.00000000000E+00 0. -1.
         -1    1    6    6    0  502 -0.52205188936E+00 -0.18363880210E+02  0.24176872408E+01  0.18529701728E+02  0.00000000000E+00 0.  1.
<mgrwt>
<rscale>  0 0.46154914E+03</rscale>
<asrwt>0</asrwt>
<pdfrwt beam="1">  1        1 0.14298091E+00 0.46154914E+03</pdfrwt>
<pdfrwt beam="2">  1       -2 0.64869228E-01 0.46154914E+03</pdfrwt>
<totfact> 0.34977311E+01</totfact>
</mgrwt>
</event>
<event>
12    3  0.1092576E-007  0.8860041E+03  0.7818608E-02  0.9443248E-01
         -2   -1    0    0    0  501 -0.00000000000E+00  0.00000000000E+00  0.89510390965E+03  0.89510390965E+03  0.00000000000E+00 0.  1.
          1   -1    0    0  501    0  0.00000000000E+00 -0.00000000000E+00 -0.11886183955E+04  0.11886183955E+04  0.00000000000E+00 0. -1.
        -24    2    1    2    0    0 -0.46477276811E+03 -0.74865886745E+03 -0.47227233517E+03  0.10028318142E+04  0.78273004759E+02 0.  0.
    5000000    2    1    2    0    0  0.46477276811E+03  0.74865886745E+03  0.17875784935E+03  0.10808904909E+04  0.59988837195E+03 0.  0.
        -24    2    4    4    0    0  0.17295741907E+03  0.29351789487E+03 -0.21212846670E+03  0.40954086933E+03  0.81597878927E+02 0.  0.
         24    2    4    4    0    0  0.29181534903E+03  0.45514097259E+03  0.39088631605E+03  0.67134962156E+03  0.74891250786E+02 0.  0.
         13    1    5    5    0    0  0.17297136630E+03  0.25516220414E+03 -0.20584545751E+03  0.37067397583E+03  0.00000000000E+00 0. -1.
        -14    1    5    5    0    0 -0.13947223238E-01  0.38355690727E+02 -0.62830091899E+01  0.38866893498E+02  0.00000000000E+00 0.  1.
         15    1    3    3    0    0 -0.34169727830E+03 -0.53127583976E+03 -0.37602923085E+03  0.73512732781E+03  0.17770000000E+01 0. -1.
        -16    1    3    3    0    0 -0.12307548981E+03 -0.21738302769E+03 -0.96243104321E+02  0.26770448642E+03  0.00000000000E+00 0.  1.
          2    1    6    6  502    0  0.26404531021E+03  0.43750642426E+03  0.37958563589E+03  0.63656661245E+03  0.00000000000E+00 0. -1.
         -1    1    6    6    0  502  0.27770038826E+02  0.17634548326E+02  0.11300680154E+02  0.34783009114E+02  0.00000000000E+00 0.  1.
<mgrwt>
<rscale>  0 0.88600407E+03</rscale>
<asrwt>0</asrwt>
<pdfrwt beam="1">  1        1 0.18286437E+00 0.88600407E+03</pdfrwt>
<pdfrwt beam="2">  1       -2 0.13770829E+00 0.88600407E+03</pdfrwt>
<totfact> 0.36165376E+00</totfact>
</mgrwt>
</event>
<event>
12    3  0.1118344E-007  0.1310747E+04  0.7818608E-02  0.9021086E-01
         -2   -1    0    0    0  501 -0.00000000000E+00  0.00000000000E+00  0.13646254092E+04  0.13646254092E+04  0.00000000000E+00 0.  1.
          1   -1    0    0  501    0  0.00000000000E+00 -0.00000000000E+00 -0.12800922416E+04  0.12800922416E+04  0.00000000000E+00 0. -1.
        -24    2    1    2    0    0 -0.94395015061E+03  0.80532514001E+03  0.20839136112E+03  0.12607771816E+04  0.80880617319E+02 0.  0.
    5000000    2    1    2    0    0  0.94395015061E+03 -0.80532514001E+03 -0.12385819345E+03  0.13839404692E+04  0.60029984360E+03 0.  0.
        -24    2    4    4    0    0  0.29039517204E+03 -0.62840875215E+03 -0.52644672821E+02  0.69872471580E+03  0.78853352371E+02 0.  0.
         24    2    4    4    0    0  0.65355497857E+03 -0.17691638786E+03 -0.71213520632E+02  0.68521575339E+03  0.77561233014E+02 0.  0.
         13    1    5    5    0    0  0.10515393966E+03 -0.14550409464E+03 -0.13570799921E+02  0.18003599416E+03  0.00000000000E+00 0. -1.
        -14    1    5    5    0    0  0.18524123238E+03 -0.48290465751E+03 -0.39073872901E+02  0.51868872165E+03  0.00000000000E+00 0.  1.
         15    1    3    3    0    0 -0.45547484875E+03  0.44021350975E+03  0.96519122705E+02  0.64075297174E+03  0.17770000000E+01 0. -1.
        -16    1    3    3    0    0 -0.48847530185E+03  0.36511163026E+03  0.11187223842E+03  0.62002420985E+03  0.00000000000E+00 0.  1.
          4    1    6    6  502    0  0.40223370128E+03 -0.14751488856E+03 -0.41204689915E+02  0.43040727138E+03  0.00000000000E+00 0. -1.
         -3    1    6    6    0  502  0.25132127729E+03 -0.29401499302E+02 -0.30008830717E+02  0.25480848201E+03  0.00000000000E+00 0.  1.
<mgrwt>
<rscale>  0 0.13107470E+04</rscale>
<asrwt>0</asrwt>
<pdfrwt beam="1">  1        1 0.19693727E+00 0.13107470E+04</pdfrwt>
<pdfrwt beam="2">  1       -2 0.20994237E+00 0.13107470E+04</pdfrwt>
<totfact> 0.90448406E-01</totfact>
</mgrwt>
</event>
<event>
12    3  0.1092576E-007  0.3877698E+03  0.7818608E-02  0.1048099E+00
          1   -1    0    0  501    0  0.00000000000E+00  0.00000000000E+00  0.45017979497E+03  0.45017979497E+03  0.00000000000E+00 0. -1.
         -2   -1    0    0    0  501 -0.00000000000E+00 -0.00000000000E+00 -0.38485833326E+03  0.38485833326E+03  0.00000000000E+00 0.  1.
        -24    2    1    2    0    0 -0.13982224540E+03 -0.73892604742E+02 -0.85541326084E+02  0.19641367197E+03  0.79060955736E+02 0.  0.
    5000000    2    1    2    0    0  0.13982224540E+03  0.73892604742E+02  0.15086278779E+03  0.63862445626E+03  0.60005936211E+03 0.  0.
        -24    2    4    4    0    0  0.12011378281E+03  0.32325161636E+03  0.12148455995E+03  0.37412536976E+03  0.79324433158E+02 0.  0.
         24    2    4    4    0    0  0.19708462592E+02 -0.24935901162E+03  0.29378227840E+02  0.26449908650E+03  0.80798182623E+02 0.  0.
         13    1    5    5    0    0  0.11979135588E+03  0.23069275179E+03  0.74971441791E+02  0.27053619306E+03  0.00000000000E+00 0. -1.
        -14    1    5    5    0    0  0.32242693327E+00  0.92558864567E+02  0.46513118162E+02  0.10358917670E+03  0.00000000000E+00 0.  1.
         15    1    3    3    0    0 -0.58356780051E+02 -0.45371302846E+01 -0.64966198484E+02  0.87463500980E+02  0.17770000000E+01 0. -1.
        -16    1    3    3    0    0 -0.81465465351E+02 -0.69355474457E+02 -0.20575127600E+02  0.10895017099E+03  0.00000000000E+00 0.  1.
          2    1    6    6  502    0 -0.22194656695E+02 -0.93240391393E+02 -0.14667229489E+02  0.96961337624E+02  0.00000000000E+00 0. -1.
         -1    1    6    6    0  502  0.41903119287E+02 -0.15611862022E+03  0.44045457329E+02  0.16753774887E+03  0.00000000000E+00 0.  1.
<mgrwt>
<rscale>  0 0.38776977E+03</rscale>
<asrwt>0</asrwt>
<pdfrwt beam="1">  1        1 0.69258430E-01 0.38776977E+03</pdfrwt>
<pdfrwt beam="2">  1       -2 0.59208974E-01 0.38776977E+03</pdfrwt>
<totfact> 0.12386897E+02</totfact>
</mgrwt>
</event>
<event>
12    3  0.1092576E-007  0.4543227E+03  0.7818608E-02  0.1026441E+00
          1   -1    0    0  501    0  0.00000000000E+00  0.00000000000E+00  0.81263434898E+03  0.81263434898E+03  0.00000000000E+00 0. -1.
         -2   -1    0    0    0  501 -0.00000000000E+00 -0.00000000000E+00 -0.52188522052E+03  0.52188522052E+03  0.00000000000E+00 0.  1.
        -24    2    1    2    0    0 -0.31617388587E+03  0.29389000632E+03 -0.16279160133E+03  0.46715804835E+03  0.73472952551E+02 0.  0.
    5000000    2    1    2    0    0  0.31617388587E+03 -0.29389000632E+03  0.45354072978E+03  0.86736152115E+03  0.60023291552E+03 0.  0.
        -24    2    4    4    0    0  0.71077441767E+02 -0.18178484887E+03  0.53489069497E+03  0.57505456038E+03  0.80510606947E+02 0.  0.
         24    2    4    4    0    0  0.24509644411E+03 -0.11210515744E+03 -0.81349965192E+02  0.29230696077E+03  0.78649279963E+02 0.  0.
         13    1    5    5    0    0  0.30426840908E+02 -0.10741326167E+03  0.40381881651E+03  0.41896663113E+03  0.00000000000E+00 0. -1.
        -14    1    5    5    0    0  0.40650600859E+02 -0.74371587199E+02  0.13107187846E+03  0.15608792925E+03  0.00000000000E+00 0.  1.
         15    1    3    3    0    0 -0.13762068516E+03  0.14116803576E+03 -0.11208502406E+03  0.22679082357E+03  0.17770000000E+01 0. -1.
        -16    1    3    3    0    0 -0.17855320071E+03  0.15272197055E+03 -0.50706577269E+02  0.24036722479E+03  0.00000000000E+00 0.  1.
          2    1    6    6  502    0  0.22400664954E+03 -0.72819055682E+02 -0.75420913206E+02  0.24732551033E+03  0.00000000000E+00 0. -1.
         -1    1    6    6    0  502  0.21089794563E+02 -0.39286101763E+02 -0.59290519858E+01  0.44981450442E+02  0.00000000000E+00 0.  1.
<mgrwt>
<rscale>  0 0.45432269E+03</rscale>
<asrwt>0</asrwt>
<pdfrwt beam="1">  1        1 0.12502067E+00 0.45432269E+03</pdfrwt>
<pdfrwt beam="2">  1       -2 0.80290033E-01 0.45432269E+03</pdfrwt>
<totfact> 0.27378776E+01</totfact>
</mgrwt>
</event>
<event>
12    3  0.1092576E-007  0.5860995E+03  0.7818608E-02  0.9934672E-01
          1   -1    0    0  501    0  0.00000000000E+00  0.00000000000E+00  0.41995911224E+03  0.41995911224E+03  0.00000000000E+00 0. -1.
         -2   -1    0    0    0  501 -0.00000000000E+00 -0.00000000000E+00 -0.98517206680E+03  0.98517206680E+03  0.00000000000E+00 0.  1.
        -24    2    1    2    0    0 -0.60136680019E+02 -0.43037949730E+03  0.46615817755E+02  0.44430934484E+03  0.79967665179E+02 0.  0.
    5000000    2    1    2    0    0  0.60136680019E+02  0.43037949730E+03 -0.61182877231E+03  0.96082183419E+03  0.60000101538E+03 0.  0.
        -24    2    4    4    0    0 -0.67210974736E+02  0.54321979635E+03 -0.44558815240E+03  0.71001434696E+03  0.77243181345E+02 0.  0.
         24    2    4    4    0    0  0.12734765475E+03 -0.11284029906E+03 -0.16624061992E+03  0.25080748723E+03  0.79486437065E+02 0.  0.
         13    1    5    5    0    0 -0.61409701535E+02  0.28728762063E+03 -0.27484633427E+03  0.40230067844E+03  0.00000000000E+00 0. -1.
        -14    1    5    5    0    0 -0.58012732013E+01  0.25593217572E+03 -0.17074181812E+03  0.30771366852E+03  0.00000000000E+00 0.  1.
         15    1    3    3    0    0 -0.31211187568E+02 -0.56977607447E+02  0.23382984999E+02  0.69068861988E+02  0.17770000000E+01 0. -1.
        -16    1    3    3    0    0 -0.28925492451E+02 -0.37340188985E+03  0.23232832756E+02  0.37524048286E+03  0.00000000000E+00 0.  1.
          2    1    6    6  502    0  0.64179087895E+02 -0.99417836558E+02 -0.79062003915E+02  0.14231536112E+03  0.00000000000E+00 0. -1.
         -3    1    6    6    0  502  0.63168566860E+02 -0.13422462497E+02 -0.87178616003E+02  0.10849212611E+03  0.00000000000E+00 0.  1.
<mgrwt>
<rscale>  0 0.58609953E+03</rscale>
<asrwt>0</asrwt>
<pdfrwt beam="1">  1        1 0.64609095E-01 0.58609953E+03</pdfrwt>
<pdfrwt beam="2">  1       -2 0.15156493E+00 0.58609953E+03</pdfrwt>
<totfact> 0.14839732E+01</totfact>
</mgrwt>
</event>
<event>
12    3  0.1092576E-007  0.1202763E+04  0.7818608E-02  0.9110441E-01
         -2   -1    0    0    0  501 -0.00000000000E+00  0.00000000000E+00  0.68062398766E+03  0.68062398766E+03  0.00000000000E+00 0.  1.
          1   -1    0    0  501    0  0.00000000000E+00 -0.00000000000E+00 -0.23248216965E+04  0.23248216965E+04  0.00000000000E+00 0. -1.
        -24    2    1    2    0    0  0.29334263003E+03  0.11308873633E+04 -0.10127123630E+04  0.15481658065E+04  0.79214311973E+02 0.  0.
    5000000    2    1    2    0    0 -0.29334263003E+03 -0.11308873633E+04 -0.63148534585E+03  0.14572798777E+04  0.59994564149E+03 0.  0.
        -24    2    4    4    0    0 -0.54627053878E+02 -0.92457502264E+01  0.59092017543E+02  0.11625235140E+03  0.83385512865E+02 0.  0.
         24    2    4    4    0    0 -0.23871557615E+03 -0.11216416131E+04 -0.69057736339E+03  0.13410275263E+04  0.79954342505E+02 0.  0.
         11    1    5    5    0    0  0.74430511346E+01 -0.22694664735E+02  0.45375684955E+02  0.51277671581E+02  0.00000000000E+00 0. -1.
        -12    1    5    5    0    0 -0.62070105012E+02  0.13448914508E+02  0.13716332588E+02  0.64974679817E+02  0.00000000000E+00 0.  1.
         15    1    3    3    0    0  0.51789368402E+02  0.24274430113E+03 -0.17591833744E+03  0.30423240062E+03  0.17770000000E+01 0. -1.
        -16    1    3    3    0    0  0.24155326162E+03  0.88814306218E+03 -0.83679402560E+03  0.12439334059E+04  0.00000000000E+00 0.  1.
          4    1    6    6  502    0 -0.38958933814E+02 -0.36038019119E+03 -0.22251837481E+03  0.42533058655E+03  0.00000000000E+00 0. -1.
         -3    1    6    6    0  502 -0.19975664233E+03 -0.76126142189E+03 -0.46805898858E+03  0.91569693972E+03  0.00000000000E+00 0.  1.
<mgrwt>
<rscale>  0 0.12027635E+04</rscale>
<asrwt>0</asrwt>
<pdfrwt beam="1">  1        1 0.35766488E+00 0.12027635E+04</pdfrwt>
<pdfrwt beam="2">  1       -2 0.10471138E+00 0.12027635E+04</pdfrwt>
<totfact> 0.11436673E+00</totfact>
</mgrwt>
</event>
<event>
12    3  0.1092576E-007  0.1022761E+04  0.7818608E-02  0.9283927E-01
         -2   -1    0    0    0  501 -0.00000000000E+00  0.00000000000E+00  0.90393224192E+03  0.90393224192E+03  0.00000000000E+00 0.  1.
          1   -1    0    0  501    0  0.00000000000E+00 -0.00000000000E+00 -0.14584748260E+04  0.14584748260E+04  0.00000000000E+00 0. -1.
        -24    2    1    2    0    0  0.76336144851E+03 -0.61390434632E+03  0.17941785598E+03  0.99923539706E+03  0.81739612103E+02 0.  0.
    5000000    2    1    2    0    0 -0.76336144851E+03  0.61390434632E+03 -0.73396044007E+03  0.13631716709E+04  0.59994985558E+03 0.  0.
        -24    2    4    4    0    0 -0.75270936576E+03  0.41296162981E+03 -0.75489366774E+03  0.11460669415E+04  0.80599551723E+02 0.  0.
         24    2    4    4    0    0 -0.10652082756E+02  0.20094271651E+03  0.20933227674E+02  0.21710472941E+03  0.78770688252E+02 0.  0.
         11    1    5    5    0    0 -0.57410907405E+03  0.27488713625E+03 -0.56272773004E+03  0.84960382811E+03  0.00000000000E+00 0. -1.
        -12    1    5    5    0    0 -0.17860029170E+03  0.13807449356E+03 -0.19216593770E+03  0.29646311336E+03  0.00000000000E+00 0.  1.
         15    1    3    3    0    0  0.31554370788E+03 -0.22385549637E+03  0.37908189991E+02  0.38874066347E+03  0.17770000000E+01 0. -1.
        -16    1    3    3    0    0  0.44781774063E+03 -0.39004884995E+03  0.14150966599E+03  0.61049473359E+03  0.00000000000E+00 0.  1.
          4    1    6    6  502    0  0.68405973976E+01  0.37739285013E+02  0.35577556153E+02  0.52314528650E+02  0.00000000000E+00 0. -1.
         -3    1    6    6    0  502 -0.17492680153E+02  0.16320343149E+03 -0.14644328479E+02  0.16479020076E+03  0.00000000000E+00 0.  1.
<mgrwt>
<rscale>  0 0.10227611E+04</rscale>
<asrwt>0</asrwt>
<pdfrwt beam="1">  1        1 0.22438074E+00 0.10227611E+04</pdfrwt>
<pdfrwt beam="2">  1       -2 0.13906650E+00 0.10227611E+04</pdfrwt>
<totfact> 0.22313218E+00</totfact>
</mgrwt>
</event>
<event>
12    3  0.1092576E-007  0.1116039E+04  0.7818608E-02  0.9189699E-01
          1   -1    0    0  501    0  0.00000000000E+00  0.00000000000E+00  0.57155849354E+03  0.57155849354E+03  0.00000000000E+00 0. -1.
         -2   -1    0    0    0  501 -0.00000000000E+00 -0.00000000000E+00 -0.24275839255E+04  0.24275839255E+04  0.00000000000E+00 0.  1.
        -24    2    1    2    0    0 -0.58141325492E+03 -0.90215316230E+03 -0.56175268666E+03  0.12139751456E+04  0.79043480562E+02 0.  0.
    5000000    2    1    2    0    0  0.58141325492E+03  0.90215316230E+03 -0.12942727452E+04  0.17851672734E+04  0.59979876108E+03 0.  0.
        -24    2    4    4    0    0  0.52374359952E+03  0.43676916329E+03 -0.10384823636E+04  0.12450029115E+04  0.80696779122E+02 0.  0.
         24    2    4    4    0    0  0.57669655399E+02  0.46538399901E+03 -0.25579038165E+03  0.54016436190E+03  0.80254363382E+02 0.  0.
         11    1    5    5    0    0  0.50639132744E+02  0.77870553855E+02 -0.13939806514E+03  0.16751109064E+03  0.00000000000E+00 0. -1.
        -12    1    5    5    0    0  0.47310446678E+03  0.35889860944E+03 -0.89908429846E+03  0.10774918209E+04  0.00000000000E+00 0.  1.
         15    1    3    3    0    0 -0.12607226945E+03 -0.17301613915E+03 -0.14560612822E+03  0.25890751985E+03  0.17770000000E+01 0. -1.
        -16    1    3    3    0    0 -0.45534098548E+03 -0.72913702314E+03 -0.41614655845E+03  0.95506762571E+03  0.00000000000E+00 0.  1.
          2    1    6    6  502    0 -0.73484111148E+01  0.16411635366E+02 -0.26047699867E+02  0.31651596953E+02  0.00000000000E+00 0. -1.
         -1    1    6    6    0  502  0.65018066514E+02  0.44897236364E+03 -0.22974268178E+03  0.50851276495E+03  0.00000000000E+00 0.  1.
<mgrwt>
<rscale>  0 0.11160391E+04</rscale>
<asrwt>0</asrwt>
<pdfrwt beam="1">  1        1 0.87932077E-01 0.11160391E+04</pdfrwt>
<pdfrwt beam="2">  1       -2 0.37347445E+00 0.11160391E+04</pdfrwt>
<totfact> 0.35607268E-01</totfact>
</mgrwt>
</event>
<event>
12    3  0.1092576E-007  0.1485568E+04  0.7818608E-02  0.8894107E-01
         -2   -1    0    0    0  501 -0.00000000000E+00  0.00000000000E+00  0.20037329558E+04  0.20037329558E+04  0.00000000000E+00 0.  1.
          1   -1    0    0  501    0  0.00000000000E+00 -0.00000000000E+00 -0.11261960472E+04  0.11261960472E+04  0.00000000000E+00 0. -1.
        -24    2    1    2    0    0  0.14335541441E+04 -0.14763292280E+03  0.41925495166E+03  0.15030035241E+04  0.79824274893E+02 0.  0.
    5000000    2    1    2    0    0 -0.14335541441E+04  0.14763292280E+03  0.45828195697E+03  0.16269254789E+04  0.59999266466E+03 0.  0.
        -24    2    4    4    0    0 -0.70376347112E+02 -0.10002839046E+03  0.14183158340E+03  0.20350941915E+03  0.79632760230E+02 0.  0.
         24    2    4    4    0    0 -0.13631777970E+04  0.24766131327E+03  0.31645037357E+03  0.14234160597E+04  0.79891224460E+02 0.  0.
         11    1    5    5    0    0 -0.44635242155E+02 -0.79260448029E+01  0.72047795436E+02  0.85123509419E+02  0.00000000000E+00 0. -1.
        -12    1    5    5    0    0 -0.25741104957E+02 -0.92102345662E+02  0.69783787965E+02  0.11838590973E+03  0.00000000000E+00 0.  1.
         15    1    3    3    0    0  0.13048974786E+04 -0.15712907185E+03  0.37992955504E+03  0.13681361772E+04  0.17770000000E+01 0. -1.
        -16    1    3    3    0    0  0.12865666555E+03  0.94961490470E+01  0.39325396622E+02  0.13486734689E+03  0.00000000000E+00 0.  1.
          4    1    6    6  502    0 -0.11238430440E+03  0.37740227443E+02  0.42019752615E+02  0.12577844113E+03  0.00000000000E+00 0. -1.
         -3    1    6    6    0  502 -0.12507934926E+04  0.20992108582E+03  0.27443062095E+03  0.12976376186E+04  0.00000000000E+00 0.  1.
<mgrwt>
<rscale>  0 0.14855678E+04</rscale>
<asrwt>0</asrwt>
<pdfrwt beam="1">  1        1 0.17326093E+00 0.14855678E+04</pdfrwt>
<pdfrwt beam="2">  1       -2 0.30826661E+00 0.14855678E+04</pdfrwt>
<totfact> 0.28499028E-01</totfact>
</mgrwt>
</event>
<event>
12    3  0.1092576E-007  0.9143789E+03  0.7818608E-02  0.9407783E-01
          1   -1    0    0  501    0  0.00000000000E+00  0.00000000000E+00  0.81439711303E+03  0.81439711303E+03  0.00000000000E+00 0. -1.
         -4   -1    0    0    0  501 -0.00000000000E+00 -0.00000000000E+00 -0.12451302402E+04  0.12451302402E+04  0.00000000000E+00 0.  1.
        -24    2    1    2    0    0 -0.87406576112E+03  0.14598835569E+03 -0.43193696071E+03  0.98935097347E+03  0.83320201146E+02 0.  0.
    5000000    2    1    2    0    0  0.87406576112E+03 -0.14598835569E+03  0.12038335299E+01  0.10701763798E+04  0.59997706610E+03 0.  0.
        -24    2    4    4    0    0  0.61547262584E+03  0.33080272639E+02  0.24082720465E+03  0.66651415987E+03  0.79639972399E+02 0.  0.
         24    2    4    4    0    0  0.25859313528E+03 -0.17906862832E+03 -0.23962337112E+03  0.40366221991E+03  0.81165537799E+02 0.  0.
         11    1    5    5    0    0  0.34753867869E+03  0.57982596499E+02  0.13219732686E+03  0.37632598623E+03  0.00000000000E+00 0. -1.
        -12    1    5    5    0    0  0.26793394715E+03 -0.24902323860E+02  0.10862987779E+03  0.29018817364E+03  0.00000000000E+00 0.  1.
         15    1    3    3    0    0 -0.66573751588E+03  0.11322801204E+03 -0.28873145579E+03  0.73443586108E+03  0.17770000000E+01 0. -1.
        -16    1    3    3    0    0 -0.20832824525E+03  0.32760343647E+02 -0.14320550493E+03  0.25491511239E+03  0.00000000000E+00 0.  1.
          4    1    6    6  502    0  0.91246914435E+02 -0.27356999968E+02 -0.10001952850E+03  0.13812425899E+03  0.00000000000E+00 0. -1.
         -3    1    6    6    0  502  0.16734622085E+03 -0.15171162836E+03 -0.13960384262E+03  0.26553796091E+03  0.00000000000E+00 0.  1.
<mgrwt>
<rscale>  0 0.91437889E+03</rscale>
<asrwt>0</asrwt>
<pdfrwt beam="1">  1        1 0.12529186E+00 0.91437889E+03</pdfrwt>
<pdfrwt beam="2">  1       -4 0.19155850E+00 0.91437889E+03</pdfrwt>
<totfact> 0.15339442E+00</totfact>
</mgrwt>
</event>
<event>
12    3  0.1092576E-007  0.6156048E+03  0.7818608E-02  0.9873550E-01
         -2   -1    0    0    0  501 -0.00000000000E+00  0.00000000000E+00  0.83745870203E+03  0.83745870203E+03  0.00000000000E+00 0.  1.
          1   -1    0    0  501    0  0.00000000000E+00 -0.00000000000E+00 -0.77313791608E+03  0.77313791608E+03  0.00000000000E+00 0. -1.
        -24    2    1    2    0    0 -0.40527967601E+03 -0.26995946178E+03  0.51775141500E+03  0.71477832886E+03  0.75576483608E+02 0.  0.
    5000000    2    1    2    0    0  0.40527967601E+03  0.26995946178E+03 -0.45343062905E+03  0.89581828925E+03  0.59980108802E+03 0.  0.
        -24    2    4    4    0    0  0.18381664926E+03 -0.16152084109E+03 -0.26502785587E+03  0.36946484969E+03  0.79918509205E+02 0.  0.
         24    2    4    4    0    0  0.22146302675E+03  0.43148030288E+03 -0.18840277318E+03  0.52635343956E+03  0.79568928679E+02 0.  0.
         11    1    5    5    0    0  0.17255552301E+03 -0.12002807809E+03 -0.24252911133E+03  0.32094005342E+03  0.00000000000E+00 0. -1.
        -12    1    5    5    0    0  0.11261126256E+02 -0.41492763007E+02 -0.22498744540E+02  0.48524796263E+02  0.00000000000E+00 0.  1.
         15    1    3    3    0    0 -0.29347516917E+03 -0.19706988617E+03  0.32411801067E+03  0.47960385478E+03  0.17770000000E+01 0. -1.
        -16    1    3    3    0    0 -0.11180450685E+03 -0.72889575616E+02  0.19363340433E+03  0.23517447408E+03  0.00000000000E+00 0.  1.
          4    1    6    6  502    0  0.17281662904E+03  0.25542817016E+03 -0.10761008568E+03  0.32663292535E+03  0.00000000000E+00 0. -1.
         -3    1    6    6    0  502  0.48646397716E+02  0.17605213271E+03 -0.80792687504E+02  0.19972051421E+03  0.00000000000E+00 0.  1.
<mgrwt>
<rscale>  0 0.61560476E+03</rscale>
<asrwt>0</asrwt>
<pdfrwt beam="1">  1        1 0.11894430E+00 0.61560476E+03</pdfrwt>
<pdfrwt beam="2">  1       -2 0.12883980E+00 0.61560476E+03</pdfrwt>
<totfact> 0.94412403E+00</totfact>
</mgrwt>
</event>
<event>
12    3  0.1092576E-007  0.9211664E+03  0.7818608E-02  0.9399502E-01
         -2   -1    0    0    0  501 -0.00000000000E+00  0.00000000000E+00  0.49072588493E+03  0.49072588493E+03  0.00000000000E+00 0.  1.
          1   -1    0    0  501    0  0.00000000000E+00 -0.00000000000E+00 -0.18411745677E+04  0.18411745677E+04  0.00000000000E+00 0. -1.
        -24    2    1    2    0    0 -0.80988825402E+03  0.18316687307E+03 -0.85292249962E+03  0.11930853715E+04  0.80664898401E+02 0.  0.
    5000000    2    1    2    0    0  0.80988825402E+03 -0.18316687307E+03 -0.49752618314E+03  0.11388150812E+04  0.59991532636E+03 0.  0.
        -24    2    4    4    0    0  0.66331476308E+03 -0.37297206233E+03 -0.42771541634E+03  0.87683937796E+03  0.82535950816E+02 0.  0.
         24    2    4    4    0    0  0.14657349094E+03  0.18980518926E+03 -0.69810766798E+02  0.26197570321E+03  0.79043834643E+02 0.  0.
         11    1    5    5    0    0  0.35030331529E+03 -0.16195782157E+03 -0.18439143080E+03  0.42771830499E+03  0.00000000000E+00 0. -1.
        -12    1    5    5    0    0  0.31301144779E+03 -0.21101424076E+03 -0.24332398555E+03  0.44912107298E+03  0.00000000000E+00 0.  1.
         15    1    3    3    0    0 -0.19018313899E+03  0.78566243517E+02 -0.21105027738E+03  0.29476712552E+03  0.17770000000E+01 0. -1.
        -16    1    3    3    0    0 -0.61970511502E+03  0.10460062955E+03 -0.64187222224E+03  0.89831824593E+03  0.00000000000E+00 0.  1.
          2    1    6    6  502    0  0.95516804485E+02  0.84097756757E+02 -0.68606201628E+02  0.14457767301E+03  0.00000000000E+00 0. -1.
         -1    1    6    6    0  502  0.51056686452E+02  0.10570743250E+03 -0.12045651700E+01  0.11739803020E+03  0.00000000000E+00 0.  1.
<mgrwt>
<rscale>  0 0.92116645E+03</rscale>
<asrwt>0</asrwt>
<pdfrwt beam="1">  1        1 0.28325762E+00 0.92116645E+03</pdfrwt>
<pdfrwt beam="2">  1       -2 0.75496290E-01 0.92116645E+03</pdfrwt>
<totfact> 0.53576764E+00</totfact>
</mgrwt>
</event>
<event>
12    3  0.1092576E-007  0.8300847E+03  0.7818608E-02  0.9517463E-01
         -2   -1    0    0    0  501 -0.00000000000E+00  0.00000000000E+00  0.39522538251E+03  0.39522538251E+03  0.00000000000E+00 0.  1.
          1   -1    0    0  501    0  0.00000000000E+00 -0.00000000000E+00 -0.18025015218E+04  0.18025015218E+04  0.00000000000E+00 0. -1.
        -24    2    1    2    0    0  0.56835648406E+03  0.46568119837E+03 -0.63903066510E+03  0.97702508483E+03  0.79559750885E+02 0.  0.
    5000000    2    1    2    0    0 -0.56835648406E+03 -0.46568119837E+03 -0.76824547421E+03  0.12207018195E+04  0.60001979300E+03 0.  0.
        -24    2    4    4    0    0  0.93501592772E+01  0.96922261209E+02 -0.18184393731E+03  0.22050095691E+03  0.77923707977E+02 0.  0.
         24    2    4    4    0    0 -0.57770664334E+03 -0.56260345958E+03 -0.58640153690E+03  0.10002008626E+04  0.79166814774E+02 0.  0.
         11    1    5    5    0    0 -0.23841051244E+02  0.23567157836E+02 -0.10093680992E+03  0.10635810383E+03  0.00000000000E+00 0. -1.
        -12    1    5    5    0    0  0.33191210521E+02  0.73355103373E+02 -0.80907127383E+02  0.11414285308E+03  0.00000000000E+00 0.  1.
         15    1    3    3    0    0  0.40331974464E+03  0.35565812336E+03 -0.50456997139E+03  0.73739645435E+03  0.17770000000E+01 0. -1.
        -16    1    3    3    0    0  0.16503673942E+03  0.11002307501E+03 -0.13446069370E+03  0.23962863048E+03  0.00000000000E+00 0.  1.
          4    1    6    6  502    0 -0.42081167393E+03 -0.35996628611E+03 -0.38987531825E+03  0.67724512241E+03  0.00000000000E+00 0. -1.
         -3    1    6    6    0  502 -0.15689496941E+03 -0.20263717346E+03 -0.19652621866E+03  0.32295574018E+03  0.00000000000E+00 0.  1.
<mgrwt>
<rscale>  0 0.83008467E+03</rscale>
<asrwt>0</asrwt>
<pdfrwt beam="1">  1        1 0.27730792E+00 0.83008467E+03</pdfrwt>
<pdfrwt beam="2">  1       -2 0.60803905E-01 0.83008467E+03</pdfrwt>
<totfact> 0.92092061E+00</totfact>
</mgrwt>
</event>
<event>
12    3  0.1092576E-007  0.7247381E+03  0.7818608E-02  0.9675838E-01
         -2   -1    0    0    0  501 -0.00000000000E+00  0.00000000000E+00  0.92012978077E+03  0.92012978077E+03  0.00000000000E+00 0.  1.
          1   -1    0    0  501    0  0.00000000000E+00 -0.00000000000E+00 -0.83424322763E+03  0.83424322763E+03  0.00000000000E+00 0. -1.
        -24    2    1    2    0    0 -0.19884791374E+03 -0.68714005431E+03  0.32674731083E+03  0.79019260114E+03  0.77062278147E+02 0.  0.
    5000000    2    1    2    0    0  0.19884791374E+03  0.68714005431E+03 -0.24086075769E+03  0.96418040726E+03  0.59994000209E+03 0.  0.
        -24    2    4    4    0    0  0.40360968814E+02  0.21528713261E+03 -0.37585453068E+03  0.44252657434E+03  0.81151608078E+02 0.  0.
         24    2    4    4    0    0  0.15848694493E+03  0.47185292171E+03  0.13499377299E+03  0.52165383292E+03  0.78333334049E+02 0.  0.
         11    1    5    5    0    0  0.45206899672E+02  0.89397122578E+02 -0.11281392085E+03  0.15087242969E+03  0.00000000000E+00 0. -1.
        -12    1    5    5    0    0 -0.48459308582E+01  0.12589001003E+03 -0.26304060983E+03  0.29165414465E+03  0.00000000000E+00 0.  1.
         15    1    3    3    0    0 -0.10012674327E+03 -0.21601062310E+03  0.10563720325E+03  0.26047712078E+03  0.17770000000E+01 0. -1.
        -16    1    3    3    0    0 -0.98721170471E+02 -0.47112943122E+03  0.22111010758E+03  0.52971548036E+03  0.00000000000E+00 0.  1.
          2    1    6    6  502    0  0.84858988385E+02  0.13815461830E+03  0.45861803980E+02  0.16849644368E+03  0.00000000000E+00 0. -1.
         -1    1    6    6    0  502  0.73627956541E+02  0.33369830340E+03  0.89131969011E+02  0.35315738924E+03  0.00000000000E+00 0.  1.
<mgrwt>
<rscale>  0 0.72473813E+03</rscale>
<asrwt>0</asrwt>
<pdfrwt beam="1">  1        1 0.12834511E+00 0.72473813E+03</pdfrwt>
<pdfrwt beam="2">  1       -2 0.14155843E+00 0.72473813E+03</pdfrwt>
<totfact> 0.64817294E+00</totfact>
</mgrwt>
</event>
<event>
12    3  0.1092576E-007  0.1152820E+04  0.7818608E-02  0.9155186E-01
          1   -1    0    0  501    0  0.00000000000E+00  0.00000000000E+00  0.15931829134E+04  0.15931829134E+04  0.00000000000E+00 0. -1.
         -2   -1    0    0    0  501 -0.00000000000E+00 -0.00000000000E+00 -0.93251501221E+03  0.93251501221E+03  0.00000000000E+00 0.  1.
        -24    2    1    2    0    0 -0.88341443737E+03 -0.67599096840E+03  0.58540458404E+03  0.12596407534E+04  0.81310780410E+02 0.  0.
    5000000    2    1    2    0    0  0.88341443737E+03  0.67599096840E+03  0.75263317147E+02  0.12660571722E+04  0.59987610300E+03 0.  0.
        -24    2    4    4    0    0 -0.15157667934E+02  0.14208040580E+03  0.14090672486E+03  0.21577119229E+03  0.79283703902E+02 0.  0.
         24    2    4    4    0    0  0.89857210531E+03  0.53391056260E+03 -0.65643407711E+02  0.10502859799E+04  0.79367911669E+02 0.  0.
         13    1    5    5    0    0  0.38186701029E+01  0.91292949693E+02  0.13243339131E+03  0.16089620269E+03  0.00000000000E+00 0. -1.
        -14    1    5    5    0    0 -0.18976338037E+02  0.50787456107E+02  0.84733335483E+01  0.54874989608E+02  0.00000000000E+00 0.  1.
         15    1    3    3    0    0 -0.76217325623E+03 -0.54963585473E+03  0.47892018856E+03  0.10546920641E+04  0.17770000000E+01 0. -1.
        -16    1    3    3    0    0 -0.12124118114E+03 -0.12635511367E+03  0.10648439548E+03  0.20494868927E+03  0.00000000000E+00 0.  1.
          4    1    6    6  502    0  0.11615764640E+03  0.71949036946E+02  0.18059894997E+02  0.13782388233E+03  0.00000000000E+00 0. -1.
         -3    1    6    6    0  502  0.78241445891E+03  0.46196152565E+03 -0.83703302708E+02  0.91246209761E+03  0.00000000000E+00 0.  1.
<mgrwt>
<rscale>  0 0.11528204E+04</rscale>
<asrwt>0</asrwt>
<pdfrwt beam="1">  1        1 0.24510506E+00 0.11528204E+04</pdfrwt>
<pdfrwt beam="2">  1       -2 0.14346385E+00 0.11528204E+04</pdfrwt>
<totfact> 0.16362547E+00</totfact>
</mgrwt>
</event>
<event>
12    3  0.1092576E-007  0.7218658E+03  0.7818608E-02  0.9680552E-01
         -2   -1    0    0    0  501 -0.00000000000E+00  0.00000000000E+00  0.51715366952E+03  0.51715366952E+03  0.00000000000E+00 0.  1.
          1   -1    0    0  501    0  0.00000000000E+00 -0.00000000000E+00 -0.11070141994E+04  0.11070141994E+04  0.00000000000E+00 0. -1.
        -24    2    1    2    0    0 -0.51251950367E+03  0.32398223551E+03 -0.46972061910E+02  0.61306058832E+03  0.77435003589E+02 0.  0.
    5000000    2    1    2    0    0  0.51251950367E+03 -0.32398223551E+03 -0.54288846799E+03  0.10111072806E+04  0.59997442752E+03 0.  0.
        -24    2    4    4    0    0  0.27715805351E+03 -0.47471211901E+03 -0.41788530959E+03  0.69463024238E+03  0.75596687033E+02 0.  0.
         24    2    4    4    0    0  0.23536145016E+03  0.15072988351E+03 -0.12500315841E+03  0.31647703824E+03  0.80108776808E+02 0.  0.
         11    1    5    5    0    0  0.42230140432E+02 -0.13758982065E+03 -0.10463765792E+03  0.17794207755E+03  0.00000000000E+00 0. -1.
        -12    1    5    5    0    0  0.23492791308E+03 -0.33712229837E+03 -0.31324765166E+03  0.51668816483E+03  0.00000000000E+00 0.  1.
         15    1    3    3    0    0 -0.16222525443E+03  0.13648114990E+03  0.68132923788E+01  0.21211722263E+03  0.17770000000E+01 0. -1.
        -16    1    3    3    0    0 -0.35029424924E+03  0.18750108560E+03 -0.53785354289E+02  0.40094336568E+03  0.00000000000E+00 0.  1.
          2    1    6    6  502    0  0.11887439850E+03  0.80231141678E+02 -0.20578201117E+02  0.14488485454E+03  0.00000000000E+00 0. -1.
         -1    1    6    6    0  502  0.11648705165E+03  0.70498741831E+02 -0.10442495729E+03  0.17159218370E+03  0.00000000000E+00 0.  1.
<mgrwt>
<rscale>  0 0.72186585E+03</rscale>
<asrwt>0</asrwt>
<pdfrwt beam="1">  1        1 0.17030988E+00 0.72186585E+03</pdfrwt>
<pdfrwt beam="2">  1       -2 0.79562103E-01 0.72186585E+03</pdfrwt>
<totfact> 0.15809905E+01</totfact>
</mgrwt>
</event>
<event>
12    3  0.1092576E-007  0.4610660E+03  0.7818608E-02  0.1024473E+00
         -2   -1    0    0    0  501 -0.00000000000E+00  0.00000000000E+00  0.26204943293E+03  0.26204943293E+03  0.00000000000E+00 0.  1.
          1   -1    0    0  501    0  0.00000000000E+00 -0.00000000000E+00 -0.17728050893E+04  0.17728050893E+04  0.00000000000E+00 0. -1.
        -24    2    1    2    0    0  0.21155522291E+03  0.36925353045E+03 -0.11227689052E+04  0.12031857240E+04  0.77084951861E+02 0.  0.
    5000000    2    1    2    0    0 -0.21155522291E+03 -0.36925353045E+03 -0.38798675115E+03  0.83166879824E+03  0.60002957328E+03 0.  0.
        -24    2    4    4    0    0 -0.18353031343E+03 -0.91037750355E+02  0.11676907991E+03  0.24904121573E+03  0.80095325520E+02 0.  0.
         24    2    4    4    0    0 -0.28024909482E+02 -0.27821578009E+03 -0.50475583106E+03  0.58262758251E+03  0.80542132226E+02 0.  0.
         13    1    5    5    0    0 -0.89844533468E+02 -0.71553786452E+02  0.99171015736E+02  0.15174608697E+03  0.00000000000E+00 0. -1.
        -14    1    5    5    0    0 -0.93685779965E+02 -0.19483963904E+02  0.17598064177E+02  0.97295128757E+02  0.00000000000E+00 0.  1.
         15    1    3    3    0    0  0.18877346833E+03  0.28990564387E+03 -0.96473028488E+03  0.10248845715E+04  0.17770000000E+01 0. -1.
        -16    1    3    3    0    0  0.22781754586E+02  0.79347886577E+02 -0.15803862033E+03  0.17830115244E+03  0.00000000000E+00 0.  1.
          2    1    6    6  502    0 -0.32135481032E+02 -0.10486241548E+03 -0.13277103855E+03  0.17221197403E+03  0.00000000000E+00 0. -1.
         -1    1    6    6    0  502  0.41105715507E+01 -0.17335336461E+03 -0.37198479252E+03  0.41041560848E+03  0.00000000000E+00 0.  1.
<mgrwt>
<rscale>  0 0.46106597E+03</rscale>
<asrwt>0</asrwt>
<pdfrwt beam="1">  1        1 0.27273924E+00 0.46106597E+03</pdfrwt>
<pdfrwt beam="2">  1       -2 0.40315299E-01 0.46106597E+03</pdfrwt>
<totfact> 0.23537359E+01</totfact>
</mgrwt>
</event>
<event>
12    3  0.1092576E-007  0.1574803E+04  0.7818608E-02  0.8836179E-01
          1   -1    0    0  501    0  0.00000000000E+00  0.00000000000E+00  0.33537978771E+04  0.33537978771E+04  0.00000000000E+00 0. -1.
         -2   -1    0    0    0  501 -0.00000000000E+00 -0.00000000000E+00 -0.11558959261E+04  0.11558959261E+04  0.00000000000E+00 0.  1.
        -24    2    1    2    0    0 -0.12925252378E+04 -0.81380650133E+03 -0.26288243700E+03  0.15519069315E+04  0.80033969566E+02 0.  0.
    5000000    2    1    2    0    0  0.12925252378E+04  0.81380650133E+03  0.24607843880E+04  0.29577868717E+04  0.60011737360E+03 0.  0.
        -24    2    4    4    0    0  0.86380277476E+03  0.82043498028E+03  0.16421246475E+04  0.20302990335E+04  0.79196064787E+02 0.  0.
         24    2    4    4    0    0  0.42872246307E+03 -0.66284789491E+01  0.81865974045E+03  0.92748783822E+03  0.78632260177E+02 0.  0.
         13    1    5    5    0    0  0.42267162710E+03  0.35494299788E+03  0.79457269946E+03  0.96746142601E+03  0.00000000000E+00 0. -1.
        -14    1    5    5    0    0  0.44113114766E+03  0.46549198240E+03  0.84755194808E+03  0.10628376074E+04  0.00000000000E+00 0.  1.
         15    1    3    3    0    0 -0.67289277011E+03 -0.43010717220E+03 -0.97267623114E+02  0.80451290101E+03  0.17770000000E+01 0. -1.
        -16    1    3    3    0    0 -0.61963246771E+03 -0.38369932912E+03 -0.16561481388E+03  0.74739403048E+03  0.00000000000E+00 0.  1.
          2    1    6    6  502    0  0.12986663294E+03  0.33360386242E+01  0.32933318671E+03  0.35402940467E+03  0.00000000000E+00 0. -1.
         -1    1    6    6    0  502  0.29885583012E+03 -0.99645175733E+01  0.48932655374E+03  0.57345843355E+03  0.00000000000E+00 0.  1.
<mgrwt>
<rscale>  0 0.15748027E+04</rscale>
<asrwt>0</asrwt>
<pdfrwt beam="1">  1        1 0.51596890E+00 0.15748027E+04</pdfrwt>
<pdfrwt beam="2">  1       -2 0.17783014E+00 0.15748027E+04</pdfrwt>
<totfact> 0.50233381E-02</totfact>
</mgrwt>
</event>
<event>
12    3  0.1092576E-007  0.5797582E+03  0.7818608E-02  0.9948315E-01
          1   -1    0    0  501    0  0.00000000000E+00  0.00000000000E+00  0.49727645851E+03  0.49727645851E+03  0.00000000000E+00 0. -1.
         -2   -1    0    0    0  501 -0.00000000000E+00 -0.00000000000E+00 -0.72914760423E+03  0.72914760423E+03  0.00000000000E+00 0.  1.
        -24    2    1    2    0    0  0.41761508613E+03 -0.98606959256E+02 -0.22006960964E+03  0.48868378052E+03  0.79091792724E+02 0.  0.
    5000000    2    1    2    0    0 -0.41761508613E+03  0.98606959256E+02 -0.11801536073E+02  0.73774028223E+03  0.59999646265E+03 0.  0.
        -24    2    4    4    0    0 -0.15824914715E+03  0.33159994659E+03  0.32616782812E+02  0.37738677064E+03  0.79722035732E+02 0.  0.
         24    2    4    4    0    0 -0.25936593897E+03 -0.23299298733E+03 -0.44418318885E+02  0.36035351159E+03  0.79531401452E+02 0.  0.
         11    1    5    5    0    0 -0.12596613445E+03  0.26246404277E+03  0.58244628490E+02  0.29689607192E+03  0.00000000000E+00 0. -1.
        -12    1    5    5    0    0 -0.32283012706E+02  0.69135903820E+02 -0.25627845677E+02  0.80490698720E+02  0.00000000000E+00 0.  1.
         15    1    3    3    0    0  0.30626911262E+02 -0.27129417336E+02 -0.34698921111E+02  0.53676678676E+02  0.17770000000E+01 0. -1.
        -16    1    3    3    0    0  0.38698817486E+03 -0.71477541920E+02 -0.18537068853E+03  0.43500710184E+03  0.00000000000E+00 0.  1.
          2    1    6    6  502    0 -0.13987132130E+03 -0.72605730778E+02 -0.18648742139E+02  0.15869264081E+03  0.00000000000E+00 0. -1.
         -1    1    6    6    0  502 -0.11949461767E+03 -0.16038725655E+03 -0.25769576746E+02  0.20166087078E+03  0.00000000000E+00 0.  1.
<mgrwt>
<rscale>  0 0.57975822E+03</rscale>
<asrwt>0</asrwt>
<pdfrwt beam="1">  1        1 0.76504070E-01 0.57975822E+03</pdfrwt>
<pdfrwt beam="2">  1       -2 0.11217655E+00 0.57975822E+03</pdfrwt>
<totfact> 0.25308275E+01</totfact>
</mgrwt>
</event>
<event>
12    3  0.1092576E-007  0.6107600E+03  0.7818608E-02  0.9883331E-01
         -4   -1    0    0    0  501 -0.00000000000E+00  0.00000000000E+00  0.18590823878E+03  0.18590823878E+03  0.00000000000E+00 0.  1.
          3   -1    0    0  501    0  0.00000000000E+00 -0.00000000000E+00 -0.28756246179E+04  0.28756246179E+04  0.00000000000E+00 0. -1.
        -24    2    1    2    0    0  0.47705164143E+03 -0.32362862843E+02 -0.34568984265E+03  0.59515488684E+03  0.77988771857E+02 0.  0.
    5000000    2    1    2    0    0 -0.47705164143E+03  0.32362862843E+02 -0.23440265365E+04  0.24663779699E+04  0.59994521664E+03 0.  0.
        -24    2    4    4    0    0 -0.57469004516E+03  0.11021478271E+03 -0.20904500651E+04  0.21722680290E+04  0.79692965852E+02 0.  0.
         24    2    4    4    0    0  0.97638403733E+02 -0.77851919863E+02 -0.25357647142E+03  0.29410994088E+03  0.81273926702E+02 0.  0.
         11    1    5    5    0    0 -0.26390794668E+03  0.10304887016E+02 -0.92890985023E+03  0.96572620596E+03  0.00000000000E+00 0. -1.
        -12    1    5    5    0    0 -0.31078209848E+03  0.99909895689E+02 -0.11615402149E+04  0.12065418230E+04  0.00000000000E+00 0.  1.
         15    1    3    3    0    0  0.42638873090E+03 -0.52759867691E+02 -0.31210370068E+03  0.53103938760E+03  0.17770000000E+01 0. -1.
        -16    1    3    3    0    0  0.50662910525E+02  0.20397004848E+02 -0.33586141973E+02  0.64115499236E+02  0.00000000000E+00 0.  1.
          4    1    6    6  502    0 -0.18609138704E+01 -0.40319515834E+02 -0.48476510314E+02  0.63080095195E+02  0.00000000000E+00 0. -1.
         -3    1    6    6    0  502  0.99499317604E+02 -0.37532404029E+02 -0.20509996110E+03  0.23102984569E+03  0.00000000000E+00 0.  1.
<mgrwt>
<rscale>  0 0.61076000E+03</rscale>
<asrwt>0</asrwt>
<pdfrwt beam="1">  1        3 0.44240376E+00 0.61076000E+03</pdfrwt>
<pdfrwt beam="2">  1       -4 0.28601270E-01 0.61076000E+03</pdfrwt>
<totfact> 0.18939012E-01</totfact>
</mgrwt>
</event>
<event>
12    3  0.1092576E-007  0.1051820E+04  0.7818608E-02  0.9253467E-01
         -2   -1    0    0    0  501 -0.00000000000E+00  0.00000000000E+00  0.11472407137E+04  0.11472407137E+04  0.00000000000E+00 0.  1.
          1   -1    0    0  501    0  0.00000000000E+00 -0.00000000000E+00 -0.10075216675E+04  0.10075216675E+04  0.00000000000E+00 0. -1.
        -24    2    1    2    0    0  0.84690666894E+03 -0.46918616567E+03 -0.14160473757E+03  0.98145972239E+03  0.76319859991E+02 0.  0.
    5000000    2    1    2    0    0 -0.84690666894E+03  0.46918616567E+03  0.28132378369E+03  0.11733026588E+04  0.60009123800E+03 0.  0.
        -24    2    4    4    0    0 -0.15715386750E+03  0.40428417771E+03  0.79351952514E+02  0.44713500963E+03  0.74094197163E+02 0.  0.
         24    2    4    4    0    0 -0.68975280144E+03  0.64901987955E+02  0.20197183117E+03  0.72616764916E+03  0.80966900467E+02 0.  0.
         13    1    5    5    0    0 -0.11528604182E+03  0.19989864712E+03  0.53776050647E+02  0.23694346199E+03  0.00000000000E+00 0. -1.
        -14    1    5    5    0    0 -0.41867825682E+02  0.20438553059E+03  0.25575901868E+02  0.21019154764E+03  0.00000000000E+00 0.  1.
         15    1    3    3    0    0  0.71474087365E+03 -0.40014618096E+03 -0.91839775846E+02  0.82426281292E+03  0.17770000000E+01 0. -1.
        -16    1    3    3    0    0  0.13216579529E+03 -0.69039984706E+02 -0.49764961726E+02  0.15719690947E+03  0.00000000000E+00 0.  1.
          4    1    6    6  502    0 -0.28278004980E+03 -0.63155765070E+01  0.10559626963E+03  0.30191888850E+03  0.00000000000E+00 0. -1.
         -3    1    6    6    0  502 -0.40697275164E+03  0.71217564462E+02  0.96375561542E+02  0.42424876067E+03  0.00000000000E+00 0.  1.
<mgrwt>
<rscale>  0 0.10518199E+04</rscale>
<asrwt>0</asrwt>
<pdfrwt beam="1">  1        1 0.15500333E+00 0.10518199E+04</pdfrwt>
<pdfrwt beam="2">  1       -2 0.17649857E+00 0.10518199E+04</pdfrwt>
<totfact> 0.24854815E+00</totfact>
</mgrwt>
</event>
<event>
12    3  0.1092576E-007  0.7830568E+03  0.7818608E-02  0.9584871E-01
         -2   -1    0    0    0  501 -0.00000000000E+00  0.00000000000E+00  0.68500912613E+03  0.68500912613E+03  0.00000000000E+00 0.  1.
          1   -1    0    0  501    0  0.00000000000E+00 -0.00000000000E+00 -0.13412034417E+04  0.13412034417E+04  0.00000000000E+00 0. -1.
        -24    2    1    2    0    0 -0.85624351111E+02 -0.66164357874E+03 -0.87374568684E+03  0.11030004576E+04  0.89859497546E+02 0.  0.
    5000000    2    1    2    0    0  0.85624351111E+02  0.66164357874E+03  0.21755137132E+03  0.92321211023E+03  0.59990686487E+03 0.  0.
        -24    2    4    4    0    0 -0.16721741558E+03  0.45041227936E+01  0.17491120724E+02  0.18677337599E+03  0.81218245984E+02 0.  0.
         24    2    4    4    0    0  0.25284176669E+03  0.65713945595E+03  0.20006025059E+03  0.73643873423E+03  0.80973340488E+02 0.  0.
         13    1    5    5    0    0 -0.13750380151E+02 -0.26065568917E+02  0.29123660939E+01  0.29613657551E+02  0.00000000000E+00 0. -1.
        -14    1    5    5    0    0 -0.15346703543E+03  0.30569691711E+02  0.14578754630E+02  0.15715971844E+03  0.00000000000E+00 0.  1.
         15    1    3    3    0    0 -0.97061928435E+02 -0.43492752896E+03 -0.59973499110E+03  0.74717346759E+03  0.17770000000E+01 0. -1.
        -16    1    3    3    0    0  0.11437577324E+02 -0.22671604978E+03 -0.27401069574E+03  0.35582698996E+03  0.00000000000E+00 0.  1.
          4    1    6    6  502    0  0.11750681444E+03  0.21345733065E+03  0.89506032918E+02  0.25958276787E+03  0.00000000000E+00 0. -1.
         -3    1    6    6    0  502  0.13533495224E+03  0.44368212530E+03  0.11055421768E+03  0.47685596636E+03  0.00000000000E+00 0.  1.
<mgrwt>
<rscale>  0 0.78305679E+03</rscale>
<asrwt>0</asrwt>
<pdfrwt beam="1">  1        1 0.20633899E+00 0.78305679E+03</pdfrwt>
<pdfrwt beam="2">  1       -2 0.10538602E+00 0.78305679E+03</pdfrwt>
<totfact> 0.55409850E+00</totfact>
</mgrwt>
</event>
<event>
12    3  0.1092576E-007  0.1004832E+04  0.7818608E-02  0.9303261E-01
         -2   -1    0    0    0  501 -0.00000000000E+00  0.00000000000E+00  0.16879675184E+04  0.16879675184E+04  0.00000000000E+00 0.  1.
          1   -1    0    0  501    0  0.00000000000E+00 -0.00000000000E+00 -0.61561752913E+03  0.61561752913E+03  0.00000000000E+00 0. -1.
        -24    2    1    2    0    0 -0.48605102099E+03  0.79036270633E+03  0.54339045599E+03  0.10782647607E+04  0.80392188561E+02 0.  0.
    5000000    2    1    2    0    0  0.48605102099E+03 -0.79036270633E+03  0.52895953332E+03  0.12253202869E+04  0.60057706827E+03 0.  0.
        -24    2    4    4    0    0  0.37180933553E+03 -0.11615723762E+03  0.85631421179E+02  0.40654893772E+03  0.78832814414E+02 0.  0.
         24    2    4    4    0    0  0.11424168547E+03 -0.67420546871E+03  0.44332811214E+03  0.81877134914E+03  0.79009685652E+02 0.  0.
         13    1    5    5    0    0  0.30314253893E+03 -0.86875506303E+02  0.99399655324E+02  0.33064035444E+03  0.00000000000E+00 0. -1.
        -14    1    5    5    0    0  0.68666796598E+02 -0.29281731318E+02 -0.13768234145E+02  0.75908583279E+02  0.00000000000E+00 0.  1.
         15    1    3    3    0    0 -0.19470637529E+03  0.24439457619E+03  0.17939200271E+03  0.36031087940E+03  0.17770000000E+01 0. -1.
        -16    1    3    3    0    0 -0.29134464570E+03  0.54596813014E+03  0.36399845329E+03  0.71795388132E+03  0.00000000000E+00 0.  1.
          4    1    6    6  502    0  0.71864010754E+02 -0.20492325296E+03  0.13738348816E+03  0.25696731011E+03  0.00000000000E+00 0. -1.
         -3    1    6    6    0  502  0.42377674713E+02 -0.46928221574E+03  0.30594462398E+03  0.56180403903E+03  0.00000000000E+00 0.  1.
<mgrwt>
<rscale>  0 0.10048317E+04</rscale>
<asrwt>0</asrwt>
<pdfrwt beam="1">  1        1 0.94710390E-01 0.10048317E+04</pdfrwt>
<pdfrwt beam="2">  1       -2 0.25968731E+00 0.10048317E+04</pdfrwt>
<totfact> 0.16243516E+00</totfact>
</mgrwt>
</event>
<event>
12    3  0.1092576E-007  0.6080968E+03  0.7818608E-02  0.9888749E-01
          1   -1    0    0  501    0  0.00000000000E+00  0.00000000000E+00  0.13759969241E+04  0.13759969241E+04  0.00000000000E+00 0. -1.
         -2   -1    0    0    0  501 -0.00000000000E+00 -0.00000000000E+00 -0.62133136604E+03  0.62133136604E+03  0.00000000000E+00 0.  1.
        -24    2    1    2    0    0 -0.53132131927E+03 -0.19523617557E+03  0.98706862725E+03  0.11403537095E+04  0.75383017266E+02 0.  0.
    5000000    2    1    2    0    0  0.53132131927E+03  0.19523617557E+03 -0.23240306921E+03  0.85697458063E+03  0.59997894688E+03 0.  0.
        -24    2    4    4    0    0  0.30772657518E+03 -0.42512134996E+02 -0.37360994779E+03  0.49243637148E+03  0.80039116527E+02 0.  0.
         24    2    4    4    0    0  0.22359474409E+03  0.23774831056E+03  0.14120687858E+03  0.36453820914E+03  0.80186374183E+02 0.  0.
         13    1    5    5    0    0  0.24851728655E+03 -0.65859223215E+02 -0.30299474746E+03  0.39737148361E+03  0.00000000000E+00 0. -1.
        -14    1    5    5    0    0  0.59209288630E+02  0.23347088219E+02 -0.70615200331E+02  0.95064887872E+02  0.00000000000E+00 0.  1.
         15    1    3    3    0    0 -0.42561445965E+03 -0.15685304718E+03  0.72545483389E+03  0.85559243826E+03  0.17770000000E+01 0. -1.
        -16    1    3    3    0    0 -0.10570685963E+03 -0.38383128388E+02  0.26161379337E+03  0.28476127124E+03  0.00000000000E+00 0.  1.
          4    1    6    6  502    0  0.17714910318E+03  0.21205117974E+03  0.14361220666E+03  0.31140323294E+03  0.00000000000E+00 0. -1.
         -3    1    6    6    0  502  0.46445640914E+02  0.25697130828E+02 -0.24053280799E+01  0.53134976200E+02  0.00000000000E+00 0.  1.
<mgrwt>
<rscale>  0 0.60809680E+03</rscale>
<asrwt>0</asrwt>
<pdfrwt beam="1">  1        1 0.21169183E+00 0.60809680E+03</pdfrwt>
<pdfrwt beam="2">  1       -2 0.95589441E-01 0.60809680E+03</pdfrwt>
<totfact> 0.67808023E+00</totfact>
</mgrwt>
</event>
<event>
12    3  0.2407423E-007  0.1641793E+04  0.7818608E-02  0.8795277E-01
         -4   -1    0    0    0  501 -0.00000000000E+00  0.00000000000E+00  0.15457864092E+04  0.15457864092E+04  0.00000000000E+00 0.  1.
          1   -1    0    0  501    0  0.00000000000E+00 -0.00000000000E+00 -0.18122964365E+04  0.18122964365E+04  0.00000000000E+00 0. -1.
        -24    2    1    2    0    0 -0.15178506220E+04 -0.55551633718E+03 -0.34046123800E+02  0.16184608539E+04  0.76075524131E+02 0.  0.
    5000000    2    1    2    0    0  0.15178506220E+04  0.55551633718E+03 -0.23246390357E+03  0.17396219918E+04  0.59981355117E+03 0.  0.
        -24    2    4    4    0    0  0.60272358188E+03  0.23044364760E+02  0.12173289162E+03  0.62045607047E+03  0.79624616627E+02 0.  0.
         24    2    4    4    0    0  0.91512704014E+03  0.53247197242E+03 -0.35419679519E+03  0.11191659213E+04  0.78058239105E+02 0.  0.
         11    1    5    5    0    0  0.33661207234E+03  0.29081901376E+02  0.31209585290E+02  0.33930440970E+03  0.00000000000E+00 0. -1.
        -12    1    5    5    0    0  0.26611150955E+03 -0.60375366159E+01  0.90523306331E+02  0.28115166077E+03  0.00000000000E+00 0.  1.
         15    1    3    3    0    0 -0.93117716958E+03 -0.37999630531E+03 -0.18893385882E+02  0.10059066711E+04  0.17770000000E+01 0. -1.
        -16    1    3    3    0    0 -0.58667345245E+03 -0.17552003187E+03 -0.15152737918E+02  0.61255418280E+03  0.00000000000E+00 0.  1.
          4    1    6    6  502    0  0.23134578791E+03  0.97598812211E+02 -0.92954422949E+02  0.26774414368E+03  0.00000000000E+00 0. -1.
         -3    1    6    6    0  502  0.68378125224E+03  0.43487316021E+03 -0.26124237224E+03  0.85142177764E+03  0.00000000000E+00 0.  1.
<mgrwt>
<rscale>  0 0.16417925E+04</rscale>
<asrwt>0</asrwt>
<pdfrwt beam="1">  1        1 0.27881484E+00 0.16417925E+04</pdfrwt>
<pdfrwt beam="2">  1       -4 0.23781329E+00 0.16417925E+04</pdfrwt>
<totfact> 0.13336031E-01</totfact>
</mgrwt>
</event>
<event>
12    3  0.1092576E-007  0.9765866E+03  0.7818608E-02  0.9334604E-01
         -2   -1    0    0    0  501 -0.00000000000E+00  0.00000000000E+00  0.16472751630E+04  0.16472751630E+04  0.00000000000E+00 0.  1.
          1   -1    0    0  501    0  0.00000000000E+00 -0.00000000000E+00 -0.59544629909E+03  0.59544629909E+03  0.00000000000E+00 0. -1.
        -24    2    1    2    0    0 -0.56275551317E+03 -0.69468768187E+03  0.56724060115E+03  0.10618764270E+04  0.80838751529E+02 0.  0.
    5000000    2    1    2    0    0  0.56275551317E+03  0.69468768187E+03  0.48458826279E+03  0.11808450351E+04  0.60023701112E+03 0.  0.
        -24    2    4    4    0    0  0.49228017106E+03  0.16518954988E+03  0.32445823530E+03  0.61736885628E+03  0.79017745109E+02 0.  0.
         24    2    4    4    0    0  0.70475342112E+02  0.52949813199E+03  0.16013002749E+03  0.56347617881E+03  0.80800573964E+02 0.  0.
         13    1    5    5    0    0  0.17156643505E+03  0.85388731621E+02  0.15189513185E+03  0.24453713053E+03  0.00000000000E+00 0. -1.
        -14    1    5    5    0    0  0.32071373601E+03  0.79800818258E+02  0.17256310345E+03  0.37283172575E+03  0.00000000000E+00 0.  1.
         15    1    3    3    0    0 -0.24191090354E+03 -0.24528371043E+03  0.19393759566E+03  0.39534786276E+03  0.17770000000E+01 0. -1.
        -16    1    3    3    0    0 -0.32084460963E+03 -0.44940397144E+03  0.37330300550E+03  0.66652856427E+03  0.00000000000E+00 0.  1.
          2    1    6    6  502    0  0.33872917226E+02  0.30615567646E+03  0.13308267578E+03  0.33554384414E+03  0.00000000000E+00 0. -1.
         -1    1    6    6    0  502  0.36602424886E+02  0.22334245554E+03  0.27047351702E+02  0.22793233467E+03  0.00000000000E+00 0.  1.
<mgrwt>
<rscale>  0 0.97658657E+03</rscale>
<asrwt>0</asrwt>
<pdfrwt beam="1">  1        1 0.91607124E-01 0.97658657E+03</pdfrwt>
<pdfrwt beam="2">  1       -2 0.25342695E+00 0.97658657E+03</pdfrwt>
<totfact> 0.18671280E+00</totfact>
</mgrwt>
</event>
<event>
12    3  0.1092576E-007  0.1035905E+04  0.7818608E-02  0.9270018E-01
         -2   -1    0    0    0  501 -0.00000000000E+00  0.00000000000E+00  0.46678651386E+03  0.46678651386E+03  0.00000000000E+00 0.  1.
          1   -1    0    0  501    0  0.00000000000E+00 -0.00000000000E+00 -0.26721544907E+04  0.26721544907E+04  0.00000000000E+00 0. -1.
        -24    2    1    2    0    0 -0.98357011990E+03  0.17501700548E+03 -0.64526561466E+03  0.11918450403E+04  0.78011240131E+02 0.  0.
    5000000    2    1    2    0    0  0.98357011990E+03 -0.17501700548E+03 -0.15601023622E+04  0.19470959643E+04  0.59935146677E+03 0.  0.
        -24    2    4    4    0    0  0.38321960381E+03 -0.25436016555E+03 -0.10575631339E+04  0.11560720561E+04  0.80662619149E+02 0.  0.
         24    2    4    4    0    0  0.60035051609E+03  0.79343160069E+02 -0.50253922827E+03  0.79102390819E+03  0.80355884390E+02 0.  0.
         11    1    5    5    0    0  0.24235400526E+03 -0.18414762958E+03 -0.77501788035E+03  0.83264549972E+03  0.00000000000E+00 0. -1.
        -12    1    5    5    0    0  0.14086559855E+03 -0.70212535962E+02 -0.28254525359E+03  0.32342655641E+03  0.00000000000E+00 0.  1.
         15    1    3    3    0    0 -0.29440989317E+03  0.25335320902E+02 -0.16287857437E+03  0.33741910349E+03  0.17770000000E+01 0. -1.
        -16    1    3    3    0    0 -0.68916022673E+03  0.14968168457E+03 -0.48238704029E+03  0.85442593678E+03  0.00000000000E+00 0.  1.
          2    1    6    6  502    0  0.37270818433E+03  0.82120806077E+02 -0.28700850569E+03  0.47752392589E+03  0.00000000000E+00 0. -1.
         -1    1    6    6    0  502  0.22764233176E+03 -0.27776460081E+01 -0.21553072258E+03  0.31349998230E+03  0.00000000000E+00 0.  1.
<mgrwt>
<rscale>  0 0.10359052E+04</rscale>
<asrwt>0</asrwt>
<pdfrwt beam="1">  1        1 0.41110069E+00 0.10359052E+04</pdfrwt>
<pdfrwt beam="2">  1       -2 0.71813309E-01 0.10359052E+04</pdfrwt>
<totfact> 0.16053756E+00</totfact>
</mgrwt>
</event>
<event>
12    3  0.1092576E-007  0.9336188E+03  0.7818608E-02  0.9384505E-01
          1   -1    0    0  501    0  0.00000000000E+00  0.00000000000E+00  0.11505499856E+04  0.11505499856E+04  0.00000000000E+00 0. -1.
         -2   -1    0    0    0  501 -0.00000000000E+00 -0.00000000000E+00 -0.92233314642E+03  0.92233314642E+03  0.00000000000E+00 0.  1.
        -24    2    1    2    0    0  0.32856362656E+03 -0.79497882064E+03 -0.27854526461E+03  0.90804630877E+03  0.83757103925E+02 0.  0.
    5000000    2    1    2    0    0 -0.32856362656E+03  0.79497882064E+03  0.50676210374E+03  0.11648368232E+04  0.60007633928E+03 0.  0.
        -24    2    4    4    0    0  0.12676920867E+03  0.32693831441E+03  0.43918993887E+02  0.36041747780E+03  0.70801035181E+02 0.  0.
         24    2    4    4    0    0 -0.45533283523E+03  0.46804050623E+03  0.46284310985E+03  0.80441934541E+03  0.80478771275E+02 0.  0.
         11    1    5    5    0    0  0.76846388580E+02  0.18493306362E+03  0.59941607917E+02  0.20904210537E+03  0.00000000000E+00 0. -1.
        -12    1    5    5    0    0  0.49922820093E+02  0.14200525079E+03 -0.16022614030E+02  0.15137537243E+03  0.00000000000E+00 0.  1.
         15    1    3    3    0    0  0.22272886386E+03 -0.45816806168E+03 -0.13576903194E+03  0.52722149739E+03  0.17770000000E+01 0. -1.
        -16    1    3    3    0    0  0.10583476270E+03 -0.33681075896E+03 -0.14277623267E+03  0.38082481138E+03  0.00000000000E+00 0.  1.
          4    1    6    6  502    0 -0.15049458004E+03  0.13111689821E+03  0.10170068412E+03  0.22401626898E+03  0.00000000000E+00 0. -1.
         -3    1    6    6    0  502 -0.30483825519E+03  0.33692360802E+03  0.36114242573E+03  0.58040307643E+03  0.00000000000E+00 0.  1.
<mgrwt>
<rscale>  0 0.93361882E+03</rscale>
<asrwt>0</asrwt>
<pdfrwt beam="1">  1        1 0.17700769E+00 0.93361882E+03</pdfrwt>
<pdfrwt beam="2">  1       -2 0.14189741E+00 0.93361882E+03</pdfrwt>
<totfact> 0.35477139E+00</totfact>
</mgrwt>
</event>
<event>
12    3  0.1092576E-007  0.5591262E+03  0.7818608E-02  0.9994034E-01
         -2   -1    0    0    0  501 -0.00000000000E+00  0.00000000000E+00  0.16514729738E+03  0.16514729738E+03  0.00000000000E+00 0.  1.
          1   -1    0    0  501    0  0.00000000000E+00 -0.00000000000E+00 -0.22148611849E+04  0.22148611849E+04  0.00000000000E+00 0. -1.
        -24    2    1    2    0    0  0.45046023870E+03 -0.11743186119E+02 -0.71763915306E+03  0.85112974694E+03  0.79771944094E+02 0.  0.
    5000000    2    1    2    0    0 -0.45046023870E+03  0.11743186119E+02 -0.13320747345E+04  0.15288787354E+04  0.59999563341E+03 0.  0.
        -24    2    4    4    0    0  0.44955262176E+02 -0.13087247495E+03 -0.91590943442E+02  0.18330500684E+03  0.77866837070E+02 0.  0.
         24    2    4    4    0    0 -0.49541550087E+03  0.14261566107E+03 -0.12404837910E+04  0.13455737285E+04  0.77413679346E+02 0.  0.
         11    1    5    5    0    0  0.53378165358E+02 -0.12087168599E+03 -0.10173114462E+03  0.16675856439E+03  0.00000000000E+00 0. -1.
        -12    1    5    5    0    0 -0.84229031816E+01 -0.10000788955E+02  0.10140201179E+02  0.16546442448E+02  0.00000000000E+00 0.  1.
         15    1    3    3    0    0  0.78624615616E+02 -0.15475462556E+02 -0.81703889718E+02  0.11445524648E+03  0.17770000000E+01 0. -1.
        -16    1    3    3    0    0  0.37183562308E+03  0.37322764369E+01 -0.63593526334E+03  0.73667450046E+03  0.00000000000E+00 0.  1.
          4    1    6    6  502    0 -0.42797138073E+03  0.14929117656E+03 -0.10638599619E+04  0.11563932621E+04  0.00000000000E+00 0. -1.
         -1    1    6    6    0  502 -0.67444120145E+02 -0.66755154878E+01 -0.17662382914E+03  0.18918046640E+03  0.00000000000E+00 0.  1.
<mgrwt>
<rscale>  0 0.55912617E+03</rscale>
<asrwt>0</asrwt>
<pdfrwt beam="1">  1        1 0.34074785E+00 0.55912617E+03</pdfrwt>
<pdfrwt beam="2">  1       -2 0.25407279E-01 0.55912617E+03</pdfrwt>
<totfact> 0.27848054E+01</totfact>
</mgrwt>
</event>
<event>
12    3  0.1092576E-007  0.8863385E+03  0.7818608E-02  0.9442822E-01
          1   -1    0    0  501    0  0.00000000000E+00  0.00000000000E+00  0.24250957716E+04  0.24250957716E+04  0.00000000000E+00 0. -1.
         -2   -1    0    0    0  501 -0.00000000000E+00 -0.00000000000E+00 -0.70849976481E+03  0.70849976481E+03  0.00000000000E+00 0.  1.
        -24    2    1    2    0    0 -0.58304719602E+03 -0.58567401336E+03  0.19205284298E+04  0.20921487639E+04  0.75491177712E+02 0.  0.
    5000000    2    1    2    0    0  0.58304719602E+03  0.58567401336E+03 -0.20393242304E+03  0.10414467725E+04  0.60005405091E+03 0.  0.
        -24    2    4    4    0    0  0.64861928707E+03  0.52125752659E+03 -0.42648905674E+02  0.83705925339E+03  0.80205211496E+02 0.  0.
         24    2    4    4    0    0 -0.65572091049E+02  0.64416486775E+02 -0.16128351737E+03  0.20438751908E+03  0.85514338494E+02 0.  0.
         13    1    5    5    0    0  0.26980225935E+03  0.26116127638E+03 -0.39146619084E+02  0.37753268628E+03  0.00000000000E+00 0. -1.
        -14    1    5    5    0    0  0.37881702772E+03  0.26009625021E+03 -0.35022865896E+01  0.45952656711E+03  0.00000000000E+00 0.  1.
         15    1    3    3    0    0 -0.53860771437E+03 -0.54456948156E+03  0.18228946509E+04  0.19772714169E+04  0.17770000000E+01 0. -1.
        -16    1    3    3    0    0 -0.44439481653E+02 -0.41104531802E+02  0.97633778933E+02  0.11487734700E+03  0.00000000000E+00 0.  1.
          4    1    6    6  502    0 -0.77809681715E+02  0.50987298457E+02 -0.85140693706E+02  0.12610705332E+03  0.00000000000E+00 0. -1.
         -3    1    6    6    0  502  0.12237590666E+02  0.13429188318E+02 -0.76142823663E+02  0.78280465760E+02  0.00000000000E+00 0.  1.
<mgrwt>
<rscale>  0 0.88633851E+03</rscale>
<asrwt>0</asrwt>
<pdfrwt beam="1">  1        1 0.37309165E+00 0.88633851E+03</pdfrwt>
<pdfrwt beam="2">  1       -2 0.10899996E+00 0.88633851E+03</pdfrwt>
<totfact> 0.92684889E-01</totfact>
</mgrwt>
</event>
<event>
12    3  0.1092576E-007  0.7471810E+03  0.7818608E-02  0.9639783E-01
         -2   -1    0    0    0  501 -0.00000000000E+00  0.00000000000E+00  0.27405127034E+04  0.27405127034E+04  0.00000000000E+00 0.  1.
          1   -1    0    0  501    0  0.00000000000E+00 -0.00000000000E+00 -0.36788383192E+03  0.36788383192E+03  0.00000000000E+00 0. -1.
        -24    2    1    2    0    0 -0.26262120290E+03 -0.58511440048E+03  0.20871225615E+04  0.21848996912E+04  0.79858098342E+02 0.  0.
    5000000    2    1    2    0    0  0.26262120290E+03  0.58511440048E+03  0.28550630994E+03  0.92349684411E+03  0.60000317517E+03 0.  0.
        -24    2    4    4    0    0  0.33028911754E+03  0.92448425143E+02  0.16405382320E+02  0.35211103576E+03  0.77945060543E+02 0.  0.
         24    2    4    4    0    0 -0.67667914634E+02  0.49266597534E+03  0.26910092762E+03  0.57138580835E+03  0.82266170516E+02 0.  0.
         13    1    5    5    0    0  0.13637018060E+03  0.94846993521E+01 -0.19733975838E+02  0.13811667344E+03  0.00000000000E+00 0. -1.
        -14    1    5    5    0    0  0.19391893693E+03  0.82963725791E+02  0.36139358159E+02  0.21399436232E+03  0.00000000000E+00 0.  1.
         15    1    3    3    0    0 -0.24728149743E+03 -0.48881608738E+03  0.18127244326E+04  0.18936901363E+04  0.17770000000E+01 0. -1.
        -16    1    3    3    0    0 -0.15339705469E+02 -0.96298313098E+02  0.27439812896E+03  0.29120955486E+03  0.00000000000E+00 0.  1.
          4    1    6    6  502    0 -0.50083807190E+02  0.14677825357E+03  0.56809723001E+02  0.16516533563E+03  0.00000000000E+00 0. -1.
         -3    1    6    6    0  502 -0.17584107444E+02  0.34588772176E+03  0.21229120462E+03  0.40622047273E+03  0.00000000000E+00 0.  1.
<mgrwt>
<rscale>  0 0.74718097E+03</rscale>
<asrwt>0</asrwt>
<pdfrwt beam="1">  1        1 0.56597514E-01 0.74718097E+03</pdfrwt>
<pdfrwt beam="2">  1       -2 0.42161733E+00 0.74718097E+03</pdfrwt>
<totfact> 0.33584033E-01</totfact>
</mgrwt>
</event>
<event>
12    3  0.1092576E-007  0.1011305E+04  0.7818608E-02  0.9296232E-01
         -2   -1    0    0    0  501 -0.00000000000E+00  0.00000000000E+00  0.78922983860E+03  0.78922983860E+03  0.00000000000E+00 0.  1.
          1   -1    0    0  501    0  0.00000000000E+00 -0.00000000000E+00 -0.13508248270E+04  0.13508248270E+04  0.00000000000E+00 0. -1.
        -24    2    1    2    0    0 -0.24972845780E+03  0.90957624740E+03 -0.30658575431E+03  0.99343845107E+03  0.56849616138E+02 0.  0.
    5000000    2    1    2    0    0  0.24972845780E+03 -0.90957624740E+03 -0.25500923411E+03  0.11466162146E+04  0.60000481794E+03 0.  0.
        -24    2    4    4    0    0  0.19159520825E+03 -0.47395918188E+02 -0.17460999885E+03  0.27502756838E+03  0.78717309280E+02 0.  0.
         24    2    4    4    0    0  0.58133249544E+02 -0.86218032921E+03 -0.80399235256E+02  0.87158864618E+03  0.80425968139E+02 0.  0.
         13    1    5    5    0    0  0.92886896084E+02 -0.62556270462E+02 -0.10287929435E+03  0.15207041673E+03  0.00000000000E+00 0. -1.
        -14    1    5    5    0    0  0.98708312169E+02  0.15160352274E+02 -0.71730704504E+02  0.12295715165E+03  0.00000000000E+00 0.  1.
         15    1    3    3    0    0 -0.18393897041E+03  0.59949836043E+03 -0.22382339291E+03  0.66583173395E+03  0.17770000000E+01 0. -1.
        -16    1    3    3    0    0 -0.65789487388E+02  0.31007788696E+03 -0.82762361397E+02  0.32760671711E+03  0.00000000000E+00 0.  1.
          4    1    6    6  502    0  0.48673979628E+01 -0.54848734847E+03 -0.72760425196E+02  0.55331378301E+03  0.00000000000E+00 0. -1.
         -3    1    6    6    0  502  0.53265851581E+02 -0.31369298074E+03 -0.76388100599E+01  0.31827486317E+03  0.00000000000E+00 0.  1.
<mgrwt>
<rscale>  0 0.10113053E+04</rscale>
<asrwt>0</asrwt>
<pdfrwt beam="1">  1        1 0.20781920E+00 0.10113053E+04</pdfrwt>
<pdfrwt beam="2">  1       -2 0.12141998E+00 0.10113053E+04</pdfrwt>
<totfact> 0.37534578E+00</totfact>
</mgrwt>
</event>
<event>
12    3  0.1092576E-007  0.7217763E+03  0.7818608E-02  0.9680700E-01
          1   -1    0    0  501    0  0.00000000000E+00  0.00000000000E+00  0.14212280407E+04  0.14212280407E+04  0.00000000000E+00 0. -1.
         -2   -1    0    0    0  501 -0.00000000000E+00 -0.00000000000E+00 -0.66644217186E+03  0.66644217186E+03  0.00000000000E+00 0.  1.
        -24    2    1    2    0    0  0.41318145978E+03 -0.44660784719E+03  0.10222174665E+04  0.11922126523E+04  0.79151574067E+02 0.  0.
    5000000    2    1    2    0    0 -0.41318145978E+03  0.44660784719E+03 -0.26743159761E+03  0.89545756028E+03  0.60012256664E+03 0.  0.
        -24    2    4    4    0    0 -0.22379096503E+03  0.56238206276E+03 -0.12999931394E+03  0.62420289975E+03  0.79833939463E+02 0.  0.
         24    2    4    4    0    0 -0.18939049475E+03 -0.11577421557E+03 -0.13743228367E+03  0.27125466053E+03  0.73614059626E+02 0.  0.
         11    1    5    5    0    0 -0.91197727650E+02  0.19279243346E+03 -0.95441997184E+01  0.21348779749E+03  0.00000000000E+00 0. -1.
        -12    1    5    5    0    0 -0.13259323738E+03  0.36958962929E+03 -0.12045511423E+03  0.41071510226E+03  0.00000000000E+00 0.  1.
         15    1    3    3    0    0  0.75777562640E+02 -0.13174852037E+03  0.26032313741E+03  0.30144851173E+03  0.17770000000E+01 0. -1.
        -16    1    3    3    0    0  0.33740389714E+03 -0.31485932682E+03  0.76189432907E+03  0.89076414059E+03  0.00000000000E+00 0.  1.
          4    1    6    6  502    0 -0.61759639964E+02 -0.55296491153E+02 -0.14796832467E+02  0.84207489651E+02  0.00000000000E+00 0. -1.
         -3    1    6    6    0  502 -0.12763085479E+03 -0.60477724416E+02 -0.12263545120E+03  0.18704717088E+03  0.00000000000E+00 0.  1.
<mgrwt>
<rscale>  0 0.72177630E+03</rscale>
<asrwt>0</asrwt>
<pdfrwt beam="1">  1        1 0.21865047E+00 0.72177630E+03</pdfrwt>
<pdfrwt beam="2">  1       -2 0.10252957E+00 0.72177630E+03</pdfrwt>
<totfact> 0.52505337E+00</totfact>
</mgrwt>
</event>
<event>
12    3  0.1092576E-007  0.9549287E+03  0.7818608E-02  0.9359408E-01
          1   -1    0    0  501    0  0.00000000000E+00  0.00000000000E+00  0.14172929264E+04  0.14172929264E+04  0.00000000000E+00 0. -1.
         -2   -1    0    0    0  501 -0.00000000000E+00 -0.00000000000E+00 -0.74718935018E+03  0.74718935018E+03  0.00000000000E+00 0.  1.
        -24    2    1    2    0    0  0.50268069990E+03  0.77548737294E+03  0.48656215890E+03  0.10475014558E+04  0.80299525672E+02 0.  0.
    5000000    2    1    2    0    0 -0.50268069990E+03 -0.77548737294E+03  0.18354141733E+03  0.11169808208E+04  0.59990845171E+03 0.  0.
        -24    2    4    4    0    0 -0.91336259198E+02 -0.43120343115E+03 -0.15884225325E+03  0.47557378426E+03  0.81614040323E+02 0.  0.
         24    2    4    4    0    0 -0.41134444070E+03 -0.34428394180E+03  0.34238367058E+03  0.64140703651E+03  0.80254140855E+02 0.  0.
         11    1    5    5    0    0 -0.76305703053E+02 -0.19881227273E+03 -0.10062854016E+03  0.23553127860E+03  0.00000000000E+00 0. -1.
        -12    1    5    5    0    0 -0.15030556145E+02 -0.23239115842E+03 -0.58213713093E+02  0.24004250565E+03  0.00000000000E+00 0.  1.
         15    1    3    3    0    0  0.34766983482E+03  0.48610255458E+03  0.34424603372E+03  0.68969449546E+03  0.17770000000E+01 0. -1.
        -16    1    3    3    0    0  0.15501086508E+03  0.28938481836E+03  0.14231612518E+03  0.35780696036E+03  0.00000000000E+00 0.  1.
          2    1    6    6  502    0 -0.11936008534E+03 -0.75462079992E+02  0.55674257323E+02  0.15179255060E+03  0.00000000000E+00 0. -1.
         -1    1    6    6    0  502 -0.29198435537E+03 -0.26882186181E+03  0.28670941326E+03  0.48961448591E+03  0.00000000000E+00 0.  1.
<mgrwt>
<rscale>  0 0.95492868E+03</rscale>
<asrwt>0</asrwt>
<pdfrwt beam="1">  1        1 0.21804507E+00 0.95492868E+03</pdfrwt>
<pdfrwt beam="2">  1       -2 0.11495221E+00 0.95492868E+03</pdfrwt>
<totfact> 0.38852375E+00</totfact>
</mgrwt>
</event>
<event>
12    3  0.1092576E-007  0.5939325E+03  0.7818608E-02  0.9918075E-01
          1   -1    0    0  501    0  0.00000000000E+00  0.00000000000E+00  0.65639391523E+03  0.65639391523E+03  0.00000000000E+00 0. -1.
         -2   -1    0    0    0  501 -0.00000000000E+00 -0.00000000000E+00 -0.66757344961E+03  0.66757344961E+03  0.00000000000E+00 0.  1.
        -24    2    1    2    0    0 -0.16398220264E+03 -0.41499030859E+03 -0.27575582986E+03  0.53088605072E+03  0.81802213531E+02 0.  0.
    5000000    2    1    2    0    0  0.16398220264E+03  0.41499030859E+03  0.26457629549E+03  0.79308131413E+03  0.59989185332E+03 0.  0.
        -24    2    4    4    0    0  0.36605842878E+03  0.14959553136E+03  0.16403949307E+03  0.43543212743E+03  0.79464369540E+02 0.  0.
         24    2    4    4    0    0 -0.20207622614E+03  0.26539477723E+03  0.10053680242E+03  0.35764918670E+03  0.80846169704E+02 0.  0.
         11    1    5    5    0    0  0.82441759166E+02  0.19821208114E+02  0.40327384089E+01  0.84886906673E+02  0.00000000000E+00 0. -1.
        -12    1    5    5    0    0  0.28361666961E+03  0.12977432325E+03  0.16000675466E+03  0.35054522075E+03  0.00000000000E+00 0.  1.
         15    1    3    3    0    0 -0.22803107209E+02 -0.10982906855E+03 -0.10550900610E+03  0.15400556513E+03  0.17770000000E+01 0. -1.
        -16    1    3    3    0    0 -0.14117909543E+03 -0.30516124005E+03 -0.17024682377E+03  0.37688048559E+03  0.00000000000E+00 0.  1.
          4    1    6    6  502    0 -0.10054874788E+03  0.69867068928E+02  0.26961410954E+02  0.12537294645E+03  0.00000000000E+00 0. -1.
         -3    1    6    6    0  502 -0.10152747826E+03  0.19552770830E+03  0.73575391462E+02  0.23227624025E+03  0.00000000000E+00 0.  1.
<mgrwt>
<rscale>  0 0.59393252E+03</rscale>
<asrwt>0</asrwt>
<pdfrwt beam="1">  1        1 0.10098368E+00 0.59393252E+03</pdfrwt>
<pdfrwt beam="2">  1       -2 0.10270361E+00 0.59393252E+03</pdfrwt>
<totfact> 0.21104827E+01</totfact>
</mgrwt>
</event>
<event>
12    3  0.1366836E-007  0.8419721E+03  0.7818608E-02  0.9501176E-01
          1   -1    0    0  501    0  0.00000000000E+00  0.00000000000E+00  0.19819180209E+04  0.19819180209E+04  0.00000000000E+00 0. -1.
         -2   -1    0    0    0  501 -0.00000000000E+00 -0.00000000000E+00 -0.48505327815E+03  0.48505327815E+03  0.00000000000E+00 0.  1.
        -24    2    1    2    0    0  0.71774670110E+03  0.28820650430E+03  0.13400924764E+03  0.78897049188E+03  0.79326178199E+02 0.  0.
    5000000    2    1    2    0    0 -0.71774670110E+03 -0.28820650430E+03  0.13628554951E+04  0.16780008072E+04  0.60007357234E+03 0.  0.
        -24    2    4    4    0    0 -0.18356606527E+03 -0.32072335851E+03  0.85881428945E+03  0.93850825208E+03  0.81705461510E+02 0.  0.
         24    2    4    4    0    0 -0.53418063583E+03  0.32516854217E+02  0.50404120565E+03  0.73949255507E+03  0.79908726151E+02 0.  0.
         11    1    5    5    0    0 -0.12695698392E+03 -0.18766175648E+03  0.43113648236E+03  0.48704586748E+03  0.00000000000E+00 0. -1.
        -12    1    5    5    0    0 -0.56609081352E+02 -0.13306160204E+03  0.42767780709E+03  0.45146238459E+03  0.00000000000E+00 0.  1.
         15    1    3    3    0    0  0.16071565596E+03  0.54299626527E+02 -0.21695057048E+01  0.16966389125E+03  0.17770000000E+01 0. -1.
        -16    1    3    3    0    0  0.55703104515E+03  0.23390687777E+03  0.13617875334E+03  0.61930660063E+03  0.00000000000E+00 0.  1.
          4    1    6    6  502    0 -0.25611154457E+03 -0.16378588065E+02  0.20734177835E+03  0.32992725631E+03  0.00000000000E+00 0. -1.
         -3    1    6    6    0  502 -0.27806909126E+03  0.48895442282E+02  0.29669942730E+03  0.40956529876E+03  0.00000000000E+00 0.  1.
<mgrwt>
<rscale>  0 0.84197206E+03</rscale>
<asrwt>0</asrwt>
<pdfrwt beam="1">  1        1 0.30491046E+00 0.84197206E+03</pdfrwt>
<pdfrwt beam="2">  1       -2 0.74623582E-01 0.84197206E+03</pdfrwt>
<totfact> 0.44699000E+00</totfact>
</mgrwt>
</event>
<event>
12    3  0.1092576E-007  0.9851608E+03  0.7818608E-02  0.9324972E-01
          1   -1    0    0  501    0  0.00000000000E+00  0.00000000000E+00  0.24396198473E+04  0.24396198473E+04  0.00000000000E+00 0. -1.
         -2   -1    0    0    0  501 -0.00000000000E+00 -0.00000000000E+00 -0.83663219345E+03  0.83663219345E+03  0.00000000000E+00 0.  1.
        -24    2    1    2    0    0  0.81379254812E+03  0.53051955656E+03  0.18654101962E+04  0.21046990176E+04  0.79331226861E+02 0.  0.
    5000000    2    1    2    0    0 -0.81379254812E+03 -0.53051955656E+03 -0.26242254234E+03  0.11715530231E+04  0.59996798575E+03 0.  0.
        -24    2    4    4    0    0 -0.22542645392E+03 -0.45883243193E+02 -0.32119023594E+03  0.40280865517E+03  0.78544808127E+02 0.  0.
         24    2    4    4    0    0 -0.58836609420E+03 -0.48463631337E+03  0.58767693598E+02  0.76874436793E+03  0.80419179128E+02 0.  0.
         13    1    5    5    0    0 -0.11720313450E+03 -0.39376729025E+02 -0.11033846759E+03  0.16571565694E+03  0.00000000000E+00 0. -1.
        -14    1    5    5    0    0 -0.10822331942E+03 -0.65065141675E+01 -0.21085176834E+03  0.23709299822E+03  0.00000000000E+00 0.  1.
         15    1    3    3    0    0  0.53368960075E+03  0.37839271737E+03  0.11946835445E+04  0.13620857417E+04  0.17770000000E+01 0. -1.
        -16    1    3    3    0    0  0.28010294737E+03  0.15212683920E+03  0.67072665165E+03  0.74261327591E+03  0.00000000000E+00 0.  1.
          2    1    6    6  502    0 -0.32659125311E+03 -0.31231847436E+03  0.13496811833E+02  0.45209162784E+03  0.00000000000E+00 0. -1.
         -1    1    6    6    0  502 -0.26177484110E+03 -0.17231783900E+03  0.45270881764E+02  0.31665274009E+03  0.00000000000E+00 0.  1.
<mgrwt>
<rscale>  0 0.98516076E+03</rscale>
<asrwt>0</asrwt>
<pdfrwt beam="1">  1        1 0.37532613E+00 0.98516076E+03</pdfrwt>
<pdfrwt beam="2">  1       -2 0.12871265E+00 0.98516076E+03</pdfrwt>
<totfact> 0.59058851E-01</totfact>
</mgrwt>
</event>
<event>
12    3  0.1092576E-007  0.1144623E+04  0.7818608E-02  0.9162759E-01
          1   -1    0    0  501    0  0.00000000000E+00  0.00000000000E+00  0.11115951536E+04  0.11115951536E+04  0.00000000000E+00 0. -1.
         -2   -1    0    0    0  501 -0.00000000000E+00 -0.00000000000E+00 -0.21083463235E+04  0.21083463235E+04  0.00000000000E+00 0.  1.
        -24    2    1    2    0    0 -0.10893254983E+04 -0.34033718887E+03  0.49640775987E+03  0.12471403447E+04  0.80491813115E+02 0.  0.
    5000000    2    1    2    0    0  0.10893254983E+04  0.34033718887E+03 -0.14931589298E+04  0.19728011324E+04  0.59996772813E+03 0.  0.
        -24    2    4    4    0    0  0.44856608032E+03  0.11578788867E+03 -0.20321233524E+03  0.51223362339E+03  0.80434247433E+02 0.  0.
         24    2    4    4    0    0  0.64075941799E+03  0.22454930021E+03 -0.12899465946E+04  0.14605675090E+04  0.91105496433E+02 0.  0.
         13    1    5    5    0    0  0.15931000887E+03  0.14171161063E+02 -0.39800620626E+02  0.16481683814E+03  0.00000000000E+00 0. -1.
        -14    1    5    5    0    0  0.28925607145E+03  0.10161672760E+03 -0.16341171462E+03  0.34741678525E+03  0.00000000000E+00 0.  1.
         15    1    3    3    0    0 -0.83661676302E+03 -0.22906806063E+03  0.35977322688E+03  0.93906321250E+03  0.17770000000E+01 0. -1.
        -16    1    3    3    0    0 -0.25270873529E+03 -0.11126912825E+03  0.13663453299E+03  0.30807713223E+03  0.00000000000E+00 0.  1.
          4    1    6    6  502    0  0.11639794373E+03  0.33750407279E+02 -0.31069110681E+03  0.33349143190E+03  0.00000000000E+00 0. -1.
         -3    1    6    6    0  502  0.52436147427E+03  0.19079889293E+03 -0.97925548776E+03  0.11270760771E+04  0.00000000000E+00 0.  1.
<mgrwt>
<rscale>  0 0.11446226E+04</rscale>
<asrwt>0</asrwt>
<pdfrwt beam="1">  1        1 0.17101464E+00 0.11446226E+04</pdfrwt>
<pdfrwt beam="2">  1       -2 0.32436097E+00 0.11446226E+04</pdfrwt>
<totfact> 0.24278903E-01</totfact>
</mgrwt>
</event>
<event>
12    3  0.1092576E-007  0.6871442E+03  0.7818608E-02  0.9739473E-01
          1   -1    0    0  501    0  0.00000000000E+00  0.00000000000E+00  0.16121569527E+04  0.16121569527E+04  0.00000000000E+00 0. -1.
         -2   -1    0    0    0  501 -0.00000000000E+00 -0.00000000000E+00 -0.35795567990E+03  0.35795567990E+03  0.00000000000E+00 0.  1.
        -24    2    1    2    0    0 -0.31573016742E+03  0.54490823597E+03  0.66745350864E+03  0.92093713742E+03  0.77591885058E+02 0.  0.
    5000000    2    1    2    0    0  0.31573016742E+03 -0.54490823597E+03  0.58674776419E+03  0.10491754952E+04  0.59990478971E+03 0.  0.
        -24    2    4    4    0    0  0.28096149656E+03 -0.58380868196E+03  0.25128774860E+03  0.70017186672E+03  0.85575526155E+02 0.  0.
         24    2    4    4    0    0  0.34768670856E+02  0.38900445985E+02  0.33546001559E+03  0.34900362848E+03  0.80919747062E+02 0.  0.
         11    1    5    5    0    0  0.19017797309E+03 -0.42475152243E+03  0.14050576669E+03  0.48613103967E+03  0.00000000000E+00 0. -1.
        -12    1    5    5    0    0  0.90783523474E+02 -0.15905715953E+03  0.11078198191E+03  0.21404082706E+03  0.00000000000E+00 0.  1.
         15    1    3    3    0    0 -0.12807754705E+03  0.17833683529E+03  0.18944151553E+03  0.28999850070E+03  0.17770000000E+01 0. -1.
        -16    1    3    3    0    0 -0.18765262037E+03  0.36657140069E+03  0.47801199312E+03  0.63093863671E+03  0.00000000000E+00 0.  1.
          2    1    6    6  502    0  0.16297395805E+02  0.62399775706E+02  0.25900176064E+03  0.26691056392E+03  0.00000000000E+00 0. -1.
         -1    1    6    6    0  502  0.18471275051E+02 -0.23499329721E+02  0.76458254948E+02  0.82093064561E+02  0.00000000000E+00 0.  1.
<mgrwt>
<rscale>  0 0.68714423E+03</rscale>
<asrwt>0</asrwt>
<pdfrwt beam="1">  1        1 0.24802414E+00 0.68714423E+03</pdfrwt>
<pdfrwt beam="2">  1       -2 0.55070106E-01 0.68714423E+03</pdfrwt>
<totfact> 0.15522062E+01</totfact>
</mgrwt>
</event>
<event>
12    3  0.1092576E-007  0.5676540E+03  0.7818608E-02  0.9974884E-01
          1   -1    0    0  501    0  0.00000000000E+00  0.00000000000E+00  0.15481170010E+04  0.15481170010E+04  0.00000000000E+00 0. -1.
         -2   -1    0    0    0  501 -0.00000000000E+00 -0.00000000000E+00 -0.24877450515E+03  0.24877450515E+03  0.00000000000E+00 0.  1.
        -24    2    1    2    0    0 -0.32256874682E+03  0.34309510253E+03  0.46574210423E+03  0.66705931271E+03  0.79294219328E+02 0.  0.
    5000000    2    1    2    0    0  0.32256874682E+03 -0.34309510253E+03  0.83360039166E+03  0.11298321935E+04  0.59988859520E+03 0.  0.
        -24    2    4    4    0    0 -0.10635247333E+03 -0.77750649354E+02  0.41606440081E+01  0.15683761015E+03  0.84998311394E+02 0.  0.
         24    2    4    4    0    0  0.42892122015E+03 -0.26534445318E+03  0.82943974765E+03  0.97299458333E+03  0.66083827696E+02 0.  0.
         13    1    5    5    0    0 -0.29021196518E+02 -0.67911254658E+02  0.21619495676E+02  0.76951744294E+02  0.00000000000E+00 0. -1.
        -14    1    5    5    0    0 -0.77331276816E+02 -0.98393946957E+01 -0.17458851668E+02  0.79885865856E+02  0.00000000000E+00 0.  1.
         15    1    3    3    0    0 -0.19541270021E+03  0.16116801084E+03  0.21558971526E+03  0.33263092787E+03  0.17770000000E+01 0. -1.
        -16    1    3    3    0    0 -0.12715604661E+03  0.18192709169E+03  0.25015238897E+03  0.33442838484E+03  0.00000000000E+00 0.  1.
          2    1    6    6  502    0  0.26399180388E+03 -0.19841157329E+03  0.51946286473E+03  0.61554893612E+03  0.00000000000E+00 0. -1.
         -1    1    6    6    0  502  0.16492941628E+03 -0.66932879884E+02  0.30997688292E+03  0.35744564721E+03  0.00000000000E+00 0.  1.
<mgrwt>
<rscale>  0 0.56765396E+03</rscale>
<asrwt>0</asrwt>
<pdfrwt beam="1">  1        1 0.23817184E+00 0.56765396E+03</pdfrwt>
<pdfrwt beam="2">  1       -2 0.38273002E-01 0.56765396E+03</pdfrwt>
<totfact> 0.36086132E+01</totfact>
</mgrwt>
</event>
<event>
12    3  0.1092576E-007  0.4463168E+03  0.7818608E-02  0.1028826E+00
         -2   -1    0    0    0  501 -0.00000000000E+00  0.00000000000E+00  0.14889705602E+03  0.14889705602E+03  0.00000000000E+00 0.  1.
          1   -1    0    0  501    0  0.00000000000E+00 -0.00000000000E+00 -0.19555950163E+04  0.19555950163E+04  0.00000000000E+00 0. -1.
        -24    2    1    2    0    0 -0.35892119326E+02 -0.31693629566E+03 -0.98426897129E+03  0.10376430278E+04  0.78617971765E+02 0.  0.
    5000000    2    1    2    0    0  0.35892119326E+02  0.31693629566E+03 -0.82242898903E+03  0.10668490446E+04  0.60003381755E+03 0.  0.
        -24    2    4    4    0    0  0.13711720861E+03  0.40725307521E+03 -0.32383893055E+03  0.54399855561E+03  0.80041110701E+02 0.  0.
         24    2    4    4    0    0 -0.10122508928E+03 -0.90316779546E+02 -0.49859005848E+03  0.52285048898E+03  0.79855795318E+02 0.  0.
         13    1    5    5    0    0  0.98163515856E+02  0.23924501529E+03 -0.23757062522E+03  0.35116101030E+03  0.00000000000E+00 0. -1.
        -14    1    5    5    0    0  0.38953692750E+02  0.16800805992E+03 -0.86268305325E+02  0.19283754531E+03  0.00000000000E+00 0.  1.
         15    1    3    3    0    0  0.18866605491E+02 -0.75730019159E+02 -0.30186581283E+03  0.31179658640E+03  0.17770000000E+01 0. -1.
        -16    1    3    3    0    0 -0.54758724817E+02 -0.24120627650E+03 -0.68240315846E+03  0.72584644137E+03  0.00000000000E+00 0.  1.
          4    1    6    6  502    0 -0.22199452539E+02 -0.26599687368E+02 -0.27647570647E+03  0.27863807229E+03  0.00000000000E+00 0. -1.
         -3    1    6    6    0  502 -0.79025636740E+02 -0.63717092178E+02 -0.22211435201E+03  0.24421241670E+03  0.00000000000E+00 0.  1.
<mgrwt>
<rscale>  0 0.44631677E+03</rscale>
<asrwt>0</asrwt>
<pdfrwt beam="1">  1        1 0.30086074E+00 0.44631677E+03</pdfrwt>
<pdfrwt beam="2">  1       -2 0.22907242E-01 0.44631677E+03</pdfrwt>
<totfact> 0.50789313E+01</totfact>
</mgrwt>
</event>
<event>
12    3  0.1092576E-007  0.3525162E+03  0.7818608E-02  0.1061587E+00
          1   -1    0    0  501    0  0.00000000000E+00  0.00000000000E+00  0.56656300863E+03  0.56656300863E+03  0.00000000000E+00 0. -1.
         -2   -1    0    0    0  501 -0.00000000000E+00 -0.00000000000E+00 -0.27286494220E+03  0.27286494220E+03  0.00000000000E+00 0.  1.
        -24    2    1    2    0    0  0.25502647639E+02  0.11826106997E+03 -0.29123523105E+02  0.14745872335E+03  0.79119086121E+02 0.  0.
    5000000    2    1    2    0    0 -0.25502647639E+02 -0.11826106997E+03  0.32282158954E+03  0.69196922747E+03  0.59997630569E+03 0.  0.
        -24    2    4    4    0    0  0.13033425562E+03 -0.29191489121E+03  0.65314087532E+02  0.33576125346E+03  0.79173021900E+02 0.  0.
         24    2    4    4    0    0 -0.15583690326E+03  0.17365382124E+03  0.25750750201E+03  0.35620797402E+03  0.78314858824E+02 0.  0.
         13    1    5    5    0    0  0.52387075708E+02 -0.18218216117E+03  0.87705783260E+01  0.18976740656E+03  0.00000000000E+00 0. -1.
        -14    1    5    5    0    0  0.77947179911E+02 -0.10973273004E+03  0.56543509206E+02  0.14599384690E+03  0.00000000000E+00 0.  1.
         15    1    3    3    0    0 -0.28240117607E+02  0.45027387375E+02 -0.46554758783E+01  0.53383527806E+02  0.17770000000E+01 0. -1.
        -16    1    3    3    0    0  0.53742765246E+02  0.73233682592E+02 -0.24468047227E+02  0.94075195548E+02  0.00000000000E+00 0.  1.
          2    1    6    6  502    0 -0.90821645883E+02  0.70739990872E+02  0.77030279484E+02  0.13851491482E+03  0.00000000000E+00 0. -1.
         -3    1    6    6    0  502 -0.65015257375E+02  0.10291383037E+03  0.18047722252E+03  0.21769305920E+03  0.00000000000E+00 0.  1.
<mgrwt>
<rscale>  0 0.35251624E+03</rscale>
<asrwt>0</asrwt>
<pdfrwt beam="1">  1        1 0.87163539E-01 0.35251624E+03</pdfrwt>
<pdfrwt beam="2">  1       -2 0.41979222E-01 0.35251624E+03</pdfrwt>
<totfact> 0.18193816E+02</totfact>
</mgrwt>
</event>
<event>
12    3  0.1092576E-007  0.8193074E+03  0.7818608E-02  0.9532483E-01
          1   -1    0    0  501    0  0.00000000000E+00  0.00000000000E+00  0.17586008748E+04  0.17586008748E+04  0.00000000000E+00 0. -1.
         -2   -1    0    0    0  501 -0.00000000000E+00 -0.00000000000E+00 -0.44754735865E+03  0.44754735865E+03  0.00000000000E+00 0.  1.
        -24    2    1    2    0    0 -0.74908824379E+03  0.21084383315E+03  0.69406676365E+03  0.10458172209E+04  0.80104107753E+02 0.  0.
    5000000    2    1    2    0    0  0.74908824379E+03 -0.21084383315E+03  0.61698675248E+03  0.11603310126E+04  0.60008923255E+03 0.  0.
        -24    2    4    4    0    0  0.73840266362E+01  0.16526222238E+02 -0.79936144928E+02  0.11446329236E+03  0.79902554164E+02 0.  0.
         24    2    4    4    0    0  0.74170421715E+03 -0.22737005539E+03  0.69692289741E+03  0.10458677202E+04  0.79469965351E+02 0.  0.
         11    1    5    5    0    0 -0.12506975864E+02  0.43655526236E+02 -0.60382692767E+02  0.75553285846E+02  0.00000000000E+00 0. -1.
        -12    1    5    5    0    0  0.19891002500E+02 -0.27129303998E+02 -0.19553452161E+02  0.38910006518E+02  0.00000000000E+00 0.  1.
         15    1    3    3    0    0 -0.46713529062E+03  0.15978278248E+03  0.40213461627E+03  0.63675845079E+03  0.17770000000E+01 0. -1.
        -16    1    3    3    0    0 -0.28195295317E+03  0.51061050666E+02  0.29193214737E+03  0.40905877007E+03  0.00000000000E+00 0.  1.
          4    1    6    6  502    0  0.38229667392E+03 -0.15593764691E+03  0.35018252073E+03  0.54138257678E+03  0.00000000000E+00 0. -1.
         -3    1    6    6    0  502  0.35940754324E+03 -0.71432408480E+02  0.34674037668E+03  0.50448514343E+03  0.00000000000E+00 0.  1.
<mgrwt>
<rscale>  0 0.81930737E+03</rscale>
<asrwt>0</asrwt>
<pdfrwt beam="1">  1        1 0.27055398E+00 0.81930737E+03</pdfrwt>
<pdfrwt beam="2">  1       -2 0.68853441E-01 0.81930737E+03</pdfrwt>
<totfact> 0.75563792E+00</totfact>
</mgrwt>
</event>
<event>
12    3  0.1092576E-007  0.4178771E+03  0.7818608E-02  0.1037759E+00
          3   -1    0    0  501    0  0.00000000000E+00  0.00000000000E+00  0.30977049127E+03  0.30977049127E+03  0.00000000000E+00 0. -1.
         -4   -1    0    0    0  501 -0.00000000000E+00 -0.00000000000E+00 -0.89921526895E+03  0.89921526895E+03  0.00000000000E+00 0.  1.
        -24    2    1    2    0    0 -0.15129924204E+03  0.23797018968E+03  0.39649867456E+02  0.29505716412E+03  0.77235654288E+02 0.  0.
    5000000    2    1    2    0    0  0.15129924204E+03 -0.23797018968E+03 -0.62909464513E+03  0.91392859610E+03  0.59998677853E+03 0.  0.
        -24    2    4    4    0    0  0.30508465149E+03 -0.21059233949E+03 -0.63341547207E+03  0.73800343457E+03  0.77512135538E+02 0.  0.
         24    2    4    4    0    0 -0.15378540945E+03 -0.27377850194E+02  0.43208269335E+01  0.17592516153E+03  0.80817659419E+02 0.  0.
         13    1    5    5    0    0  0.19577046053E+03 -0.15645537363E+03 -0.36031636705E+03  0.43889889669E+03  0.00000000000E+00 0. -1.
        -14    1    5    5    0    0  0.10931419096E+03 -0.54136965860E+02 -0.27309910501E+03  0.29910453788E+03  0.00000000000E+00 0.  1.
         15    1    3    3    0    0 -0.56038520112E+02  0.43741296967E+02 -0.13289164789E+02  0.72342079224E+02  0.17770000000E+01 0. -1.
        -16    1    3    3    0    0 -0.95260721927E+02  0.19422889271E+03  0.52939032245E+02  0.22271508490E+03  0.00000000000E+00 0.  1.
          2    1    6    6  502    0 -0.65745503635E+02 -0.52532106460E+02  0.57469093048E+01  0.84351173222E+02  0.00000000000E+00 0. -1.
         -1    1    6    6    0  502 -0.88039905814E+02  0.25154256266E+02 -0.14260823713E+01  0.91573988310E+02  0.00000000000E+00 0.  1.
<mgrwt>
<rscale>  0 0.41787707E+03</rscale>
<asrwt>0</asrwt>
<pdfrwt beam="1">  1        3 0.47656999E-01 0.41787707E+03</pdfrwt>
<pdfrwt beam="2">  1       -4 0.13834081E+00 0.41787707E+03</pdfrwt>
<totfact> 0.36439093E+00</totfact>
</mgrwt>
</event>
<event>
12    3  0.1092576E-007  0.3309904E+03  0.7818608E-02  0.1070699E+00
         -2   -1    0    0    0  501 -0.00000000000E+00  0.00000000000E+00  0.55080716911E+03  0.55080716911E+03  0.00000000000E+00 0.  1.
          1   -1    0    0  501    0  0.00000000000E+00 -0.00000000000E+00 -0.47613860177E+03  0.47613860177E+03  0.00000000000E+00 0. -1.
        -24    2    1    2    0    0  0.28716831496E+03 -0.70088890111E+02  0.17328407255E+03  0.35076947871E+03  0.75058402328E+02 0.  0.
    5000000    2    1    2    0    0 -0.28716831496E+03  0.70088890111E+02 -0.98615505208E+02  0.67617629217E+03  0.60009271500E+03 0.  0.
        -24    2    4    4    0    0 -0.14693439872E+03 -0.40764337348E+02  0.23409908273E+03  0.29019567222E+03  0.78483749352E+02 0.  0.
         24    2    4    4    0    0 -0.14023391624E+03  0.11085322746E+03 -0.33271458794E+03  0.38598061996E+03  0.79549058158E+02 0.  0.
         13    1    5    5    0    0 -0.32343086103E+02  0.22706871075E+02  0.41847820138E+02  0.57557947001E+02  0.00000000000E+00 0. -1.
        -14    1    5    5    0    0 -0.11459131262E+03 -0.63471208422E+02  0.19225126259E+03  0.23263772522E+03  0.00000000000E+00 0.  1.
         15    1    3    3    0    0  0.17650671162E+03 -0.72021962151E+01  0.11486158294E+03  0.21071979461E+03  0.17770000000E+01 0. -1.
        -16    1    3    3    0    0  0.11066160335E+03 -0.62886693896E+02  0.58422489604E+02  0.14004968410E+03  0.00000000000E+00 0.  1.
          4    1    6    6  502    0 -0.12191631422E+03  0.65033319417E+02 -0.18967758243E+03  0.23467105826E+03  0.00000000000E+00 0. -1.
         -3    1    6    6    0  502 -0.18317602020E+02  0.45819908042E+02 -0.14303700551E+03  0.15130956170E+03  0.00000000000E+00 0.  1.
<mgrwt>
<rscale>  0 0.33099039E+03</rscale>
<asrwt>0</asrwt>
<pdfrwt beam="1">  1        1 0.73252092E-01 0.33099039E+03</pdfrwt>
<pdfrwt beam="2">  1       -2 0.84739565E-01 0.33099039E+03</pdfrwt>
<totfact> 0.53244096E+01</totfact>
</mgrwt>
</event>
<event>
12    3  0.1092576E-007  0.5179604E+03  0.7818608E-02  0.1009194E+00
         -4   -1    0    0    0  501 -0.00000000000E+00  0.00000000000E+00  0.17511735863E+04  0.17511735863E+04  0.00000000000E+00 0.  1.
          1   -1    0    0  501    0  0.00000000000E+00 -0.00000000000E+00 -0.17268796300E+03  0.17268796300E+03  0.00000000000E+00 0. -1.
        -24    2    1    2    0    0  0.30327951381E+03 -0.22383659120E+03  0.46384419094E+03  0.60308164798E+03  0.80465878533E+02 0.  0.
    5000000    2    1    2    0    0 -0.30327951381E+03  0.22383659120E+03  0.11146414324E+04  0.13207799013E+04  0.59996061696E+03 0.  0.
        -24    2    4    4    0    0 -0.44595259608E+03  0.10376538901E+03  0.96201370510E+03  0.10672303420E+04  0.62203376774E+02 0.  0.
         24    2    4    4    0    0  0.14267308226E+03  0.12007120220E+03  0.15262772725E+03  0.25354955935E+03  0.78863514499E+02 0.  0.
         13    1    5    5    0    0 -0.18897588838E+03  0.34513965290E+02  0.33693075039E+03  0.38784717447E+03  0.00000000000E+00 0. -1.
        -14    1    5    5    0    0 -0.25697670770E+03  0.69251423717E+02  0.62508295472E+03  0.67938316749E+03  0.00000000000E+00 0.  1.
         15    1    3    3    0    0  0.26668998144E+03 -0.16648895532E+03  0.35010266161E+03  0.47054983779E+03  0.17770000000E+01 0. -1.
        -16    1    3    3    0    0  0.36589532372E+02 -0.57347635881E+02  0.11374152933E+03  0.13253181020E+03  0.00000000000E+00 0.  1.
          4    1    6    6  502    0  0.44866761438E+02  0.64428807103E+01  0.95774192090E+01  0.46327788124E+02  0.00000000000E+00 0. -1.
         -3    1    6    6    0  502  0.97806320827E+02  0.11362832149E+03  0.14305030805E+03  0.20722177122E+03  0.00000000000E+00 0.  1.
<mgrwt>
<rscale>  0 0.51796037E+03</rscale>
<asrwt>0</asrwt>
<pdfrwt beam="1">  1        1 0.26567380E-01 0.51796037E+03</pdfrwt>
<pdfrwt beam="2">  1       -4 0.26941131E+00 0.51796037E+03</pdfrwt>
<totfact> 0.42677532E+00</totfact>
</mgrwt>
</event>
<event>
12    3  0.1092576E-007  0.1172377E+04  0.7818608E-02  0.9137384E-01
         -2   -1    0    0    0  501 -0.00000000000E+00  0.00000000000E+00  0.59942946053E+03  0.59942946053E+03  0.00000000000E+00 0.  1.
          1   -1    0    0  501    0  0.00000000000E+00 -0.00000000000E+00 -0.25437010098E+04  0.25437010098E+04  0.00000000000E+00 0. -1.
        -24    2    1    2    0    0 -0.48383828027E+03 -0.98443270111E+03 -0.43377585925E+03  0.11823222924E+04  0.80729688875E+02 0.  0.
    5000000    2    1    2    0    0  0.48383828027E+03  0.98443270111E+03 -0.15104956900E+04  0.19608081779E+04  0.59997021296E+03 0.  0.
        -24    2    4    4    0    0 -0.24556289114E+02  0.60510564523E+03 -0.70485155924E+03  0.93262095389E+03  0.78805265297E+02 0.  0.
         24    2    4    4    0    0  0.50839456939E+03  0.37932705588E+03 -0.80564413079E+03  0.10281872240E+04  0.75844898570E+02 0.  0.
         13    1    5    5    0    0  0.17692639428E+02  0.43164743576E+03 -0.50868109306E+03  0.66737470189E+03  0.00000000000E+00 0. -1.
        -14    1    5    5    0    0 -0.42248928541E+02  0.17345820947E+03 -0.19617046618E+03  0.26524625200E+03  0.00000000000E+00 0.  1.
         15    1    3    3    0    0 -0.10038862679E+02 -0.14806032637E+02 -0.19022206429E+02  0.26172493820E+02  0.17770000000E+01 0. -1.
        -16    1    3    3    0    0 -0.47379941759E+03 -0.96962666848E+03 -0.41475365282E+03  0.11561497986E+04  0.00000000000E+00 0.  1.
          2    1    6    6  502    0  0.21441065668E+03  0.19658659155E+03 -0.32977364194E+03  0.43973727678E+03  0.00000000000E+00 0. -1.
         -1    1    6    6    0  502  0.29398391270E+03  0.18274046433E+03 -0.47587048885E+03  0.58844994723E+03  0.00000000000E+00 0.  1.
<mgrwt>
<rscale>  0 0.11723770E+04</rscale>
<asrwt>0</asrwt>
<pdfrwt beam="1">  1        1 0.39133863E+00 0.11723770E+04</pdfrwt>
<pdfrwt beam="2">  1       -2 0.92219915E-01 0.11723770E+04</pdfrwt>
<totfact> 0.10979489E+00</totfact>
</mgrwt>
</event>
<event>
12    3  0.1092576E-007  0.7622736E+03  0.7818608E-02  0.9616289E-01
          1   -1    0    0  501    0  0.00000000000E+00  0.00000000000E+00  0.42834577649E+03  0.42834577649E+03  0.00000000000E+00 0. -1.
         -2   -1    0    0    0  501 -0.00000000000E+00 -0.00000000000E+00 -0.17273326131E+04  0.17273326131E+04  0.00000000000E+00 0.  1.
        -24    2    1    2    0    0 -0.19279473862E+03 -0.61764033752E+03 -0.88840939088E+02  0.65785841707E+03  0.78965731031E+02 0.  0.
    5000000    2    1    2    0    0  0.19279473862E+03  0.61764033752E+03 -0.12101458975E+04  0.14978199725E+04  0.60030173997E+03 0.  0.
        -24    2    4    4    0    0  0.33649252624E+03  0.62794802245E+03 -0.96506220646E+03  0.12023403518E+04  0.82044623235E+02 0.  0.
         24    2    4    4    0    0 -0.14369778762E+03 -0.10307684928E+02 -0.24508369103E+03  0.29547962066E+03  0.80541219758E+02 0.  0.
         13    1    5    5    0    0  0.24395253286E+03  0.40100907729E+03 -0.58370379878E+03  0.74902018869E+03  0.00000000000E+00 0. -1.
        -14    1    5    5    0    0  0.92539993383E+02  0.22693894516E+03 -0.38135840768E+03  0.45332016315E+03  0.00000000000E+00 0.  1.
         15    1    3    3    0    0 -0.15364770881E+03 -0.41060131010E+03 -0.31779880005E+02  0.43956134132E+03  0.17770000000E+01 0. -1.
        -16    1    3    3    0    0 -0.39147029816E+02 -0.20703902742E+03 -0.57061059083E+02  0.21829707575E+03  0.00000000000E+00 0.  1.
          2    1    6    6  502    0 -0.67215527586E+02 -0.40797234826E+02 -0.87185316864E+02  0.11740366687E+03  0.00000000000E+00 0. -1.
         -1    1    6    6    0  502 -0.76482260033E+02  0.30489549898E+02 -0.15789837417E+03  0.17807595379E+03  0.00000000000E+00 0.  1.
<mgrwt>
<rscale>  0 0.76227360E+03</rscale>
<asrwt>0</asrwt>
<pdfrwt beam="1">  1        1 0.65899351E-01 0.76227360E+03</pdfrwt>
<pdfrwt beam="2">  1       -2 0.26574348E+00 0.76227360E+03</pdfrwt>
<totfact> 0.25521528E+00</totfact>
</mgrwt>
</event>
<event>
12    3  0.1092576E-007  0.6303522E+03  0.7818608E-02  0.9844362E-01
          1   -1    0    0  501    0  0.00000000000E+00  0.00000000000E+00  0.11969985312E+04  0.11969985312E+04  0.00000000000E+00 0. -1.
         -2   -1    0    0    0  501 -0.00000000000E+00 -0.00000000000E+00 -0.98651059832E+03  0.98651059832E+03  0.00000000000E+00 0.  1.
        -24    2    1    2    0    0 -0.52901671789E+03 -0.22427972028E+03 -0.72739061115E+03  0.93040429846E+03  0.79968598075E+02 0.  0.
    5000000    2    1    2    0    0  0.52901671789E+03  0.22427972028E+03  0.93787854398E+03  0.12531048310E+04  0.60041275262E+03 0.  0.
        -24    2    4    4    0    0  0.89640929205E+01 -0.46351306080E+02 -0.46685005019E+02  0.10448054524E+03  0.80671532169E+02 0.  0.
         24    2    4    4    0    0  0.52005262497E+03  0.27063102636E+03  0.98456354900E+03  0.11486242858E+04  0.79224255661E+02 0.  0.
         11    1    5    5    0    0 -0.17945158536E+02 -0.59888322562E+02 -0.37872242678E+02  0.73095462647E+02  0.00000000000E+00 0. -1.
        -12    1    5    5    0    0  0.26909251457E+02  0.13537016482E+02 -0.88127623408E+01  0.31385082591E+02  0.00000000000E+00 0.  1.
         15    1    3    3    0    0 -0.38932269342E+03 -0.18891303306E+03 -0.58655360786E+03  0.72890917562E+03  0.17770000000E+01 0. -1.
        -16    1    3    3    0    0 -0.13969402446E+03 -0.35366687222E+02 -0.14083700329E+03  0.20149512285E+03  0.00000000000E+00 0.  1.
          4    1    6    6  502    0  0.51597304522E+03  0.27546146320E+03  0.96925075597E+03  0.11320575202E+04  0.00000000000E+00 0. -1.
         -3    1    6    6    0  502  0.40795797441E+01 -0.48304368432E+01  0.15312793029E+02  0.16566765566E+02  0.00000000000E+00 0.  1.
<mgrwt>
<rscale>  0 0.63035219E+03</rscale>
<asrwt>0</asrwt>
<pdfrwt beam="1">  1        1 0.18415362E+00 0.63035219E+03</pdfrwt>
<pdfrwt beam="2">  1       -2 0.15177086E+00 0.63035219E+03</pdfrwt>
<totfact> 0.28728716E+00</totfact>
</mgrwt>
</event>
<event>
12    3  0.1092576E-007  0.7919284E+03  0.7818608E-02  0.9571775E-01
          1   -1    0    0  501    0  0.00000000000E+00  0.00000000000E+00  0.21277474326E+04  0.21277474326E+04  0.00000000000E+00 0. -1.
         -2   -1    0    0    0  501 -0.00000000000E+00 -0.00000000000E+00 -0.57573078256E+03  0.57573078256E+03  0.00000000000E+00 0.  1.
        -24    2    1    2    0    0 -0.46228420515E+03 -0.60373797513E+03  0.15574180152E+04  0.17348008838E+04  0.76006599790E+02 0.  0.
    5000000    2    1    2    0    0  0.46228420515E+03  0.60373797513E+03 -0.54013652132E+01  0.96867733136E+03  0.60008363467E+03 0.  0.
        -24    2    4    4    0    0  0.46974930974E+03  0.46138503254E+03 -0.22087054573E+03  0.69861463895E+03  0.75749940827E+02 0.  0.
         24    2    4    4    0    0 -0.74651045873E+01  0.14235294260E+03  0.21546918051E+03  0.27006269241E+03  0.78656226902E+02 0.  0.
         11    1    5    5    0    0  0.28731408969E+03  0.28476185957E+03 -0.17419493085E+03  0.44043453172E+03  0.00000000000E+00 0. -1.
        -12    1    5    5    0    0  0.18243522005E+03  0.17662317297E+03 -0.46675614876E+02  0.25818010723E+03  0.00000000000E+00 0.  1.
         15    1    3    3    0    0 -0.78559731005E+02 -0.14142576630E+03  0.37796217978E+03  0.41113434031E+03  0.17770000000E+01 0. -1.
        -16    1    3    3    0    0 -0.38372447415E+03 -0.46231220883E+03  0.11794558355E+04  0.13236665435E+04  0.00000000000E+00 0.  1.
          4    1    6    6  502    0 -0.34611373220E+02  0.25899879889E+02  0.56273598545E+02  0.70961037391E+02  0.00000000000E+00 0. -1.
         -1    1    6    6    0  502  0.27146268632E+02  0.11645306271E+03  0.15919558197E+03  0.19910165502E+03  0.00000000000E+00 0.  1.
<mgrwt>
<rscale>  0 0.79192837E+03</rscale>
<asrwt>0</asrwt>
<pdfrwt beam="1">  1        1 0.32734575E+00 0.79192837E+03</pdfrwt>
<pdfrwt beam="2">  1       -2 0.88573968E-01 0.79192837E+03</pdfrwt>
<totfact> 0.24422777E+00</totfact>
</mgrwt>
</event>
<event>
12    3  0.1092576E-007  0.8305156E+03  0.7818608E-02  0.9516868E-01
          1   -1    0    0  501    0  0.00000000000E+00  0.00000000000E+00  0.12271184214E+04  0.12271184214E+04  0.00000000000E+00 0. -1.
         -2   -1    0    0    0  501 -0.00000000000E+00 -0.00000000000E+00 -0.91790575682E+03  0.91790575682E+03  0.00000000000E+00 0.  1.
        -24    2    1    2    0    0  0.52451351875E+03 -0.55813628279E+03 -0.46699832065E+03  0.90040248640E+03  0.77502674159E+02 0.  0.
    5000000    2    1    2    0    0 -0.52451351875E+03  0.55813628279E+03  0.77621098521E+03  0.12446216918E+04  0.59995759902E+03 0.  0.
        -24    2    4    4    0    0 -0.12014974669E+03  0.43912405591E+03  0.64853525851E+03  0.79729460300E+03  0.88401381903E+02 0.  0.
         24    2    4    4    0    0 -0.40436377206E+03  0.11901222688E+03  0.12767572670E+03  0.44732708880E+03  0.78271724693E+02 0.  0.
         13    1    5    5    0    0 -0.60469387685E+02  0.35744577757E+03  0.50068846098E+03  0.61815286597E+03  0.00000000000E+00 0. -1.
        -14    1    5    5    0    0 -0.59680359001E+02  0.81678278340E+02  0.14784679753E+03  0.17914173702E+03  0.00000000000E+00 0.  1.
         15    1    3    3    0    0  0.20326222822E+03 -0.16878643618E+03 -0.14057916741E+03  0.29928256631E+03  0.17770000000E+01 0. -1.
        -16    1    3    3    0    0  0.32125129053E+03 -0.38934984661E+03 -0.32641915324E+03  0.60111992009E+03  0.00000000000E+00 0.  1.
          4    1    6    6  502    0 -0.26888553720E+03  0.11603175446E+03  0.95720023382E+02  0.30809920973E+03  0.00000000000E+00 0. -1.
         -3    1    6    6    0  502 -0.13547823487E+03  0.29804724157E+01  0.31955703317E+02  0.13922787908E+03  0.00000000000E+00 0.  1.
<mgrwt>
<rscale>  0 0.83051561E+03</rscale>
<asrwt>0</asrwt>
<pdfrwt beam="1">  1        1 0.18878745E+00 0.83051561E+03</pdfrwt>
<pdfrwt beam="2">  1       -2 0.14121627E+00 0.83051561E+03</pdfrwt>
<totfact> 0.31997031E+00</totfact>
</mgrwt>
</event>
<event>
12    3  0.1092576E-007  0.5438817E+03  0.7818608E-02  0.1002920E+00
          1   -1    0    0  501    0  0.00000000000E+00  0.00000000000E+00  0.50314901275E+04  0.50314901275E+04  0.00000000000E+00 0. -1.
         -2   -1    0    0    0  501 -0.00000000000E+00 -0.00000000000E+00 -0.10094350909E+03  0.10094350909E+03  0.00000000000E+00 0.  1.
        -24    2    1    2    0    0  0.47764680628E+03  0.23003588890E+03  0.29104188020E+04  0.29593707568E+04  0.79212950095E+02 0.  0.
    5000000    2    1    2    0    0 -0.47764680628E+03 -0.23003588890E+03  0.20201278164E+04  0.21730628798E+04  0.60018572389E+03 0.  0.
        -24    2    4    4    0    0 -0.12760277828E+03 -0.11317586764E+03  0.15892788569E+04  0.16002504419E+04  0.76830631281E+02 0.  0.
         24    2    4    4    0    0 -0.35004402800E+03 -0.11686002126E+03  0.43084895954E+03  0.57281243788E+03  0.79348452686E+02 0.  0.
         11    1    5    5    0    0 -0.27200271152E+02  0.74395471852E+01  0.33666265185E+03  0.33784159419E+03  0.00000000000E+00 0. -1.
        -12    1    5    5    0    0 -0.10040250713E+03 -0.12061541482E+03  0.12526162050E+04  0.12624088477E+04  0.00000000000E+00 0.  1.
         15    1    3    3    0    0  0.11422674907E+03  0.27508911232E+02  0.53019450525E+03  0.54305972188E+03  0.17770000000E+01 0. -1.
        -16    1    3    3    0    0  0.36342005721E+03  0.20252697766E+03  0.23802242967E+04  0.24163110349E+04  0.00000000000E+00 0.  1.
          2    1    6    6  502    0 -0.21951217775E+03 -0.70344325612E+02  0.32496573228E+03  0.39841767968E+03  0.00000000000E+00 0. -1.
         -1    1    6    6    0  502 -0.13053185026E+03 -0.46515695646E+02  0.10588322726E+03  0.17439475820E+03  0.00000000000E+00 0.  1.
<mgrwt>
<rscale>  0 0.54388171E+03</rscale>
<asrwt>0</asrwt>
<pdfrwt beam="1">  1        1 0.77407521E+00 0.54388171E+03</pdfrwt>
<pdfrwt beam="2">  1       -2 0.15529775E-01 0.54388171E+03</pdfrwt>
<totfact> 0.28362350E-01</totfact>
</mgrwt>
</event>
<event>
12    3  0.1092576E-007  0.9457538E+03  0.7818608E-02  0.9370128E-01
         -2   -1    0    0    0  501 -0.00000000000E+00  0.00000000000E+00  0.39282979602E+03  0.39282979602E+03  0.00000000000E+00 0.  1.
          1   -1    0    0  501    0  0.00000000000E+00 -0.00000000000E+00 -0.24867301313E+04  0.24867301313E+04  0.00000000000E+00 0. -1.
        -24    2    1    2    0    0 -0.63364275876E+03  0.58731865553E+03 -0.61050693748E+03  0.10610391298E+04  0.81479846324E+02 0.  0.
    5000000    2    1    2    0    0  0.63364275876E+03 -0.58731865553E+03 -0.14833933979E+04  0.18185207976E+04  0.60009630024E+03 0.  0.
        -24    2    4    4    0    0  0.10436242934E+03 -0.46195976636E+03 -0.50749081309E+03  0.69843862697E+03  0.77273849866E+02 0.  0.
         24    2    4    4    0    0  0.52928032942E+03 -0.12535888917E+03 -0.97590258476E+03  0.11200821706E+04  0.79659875559E+02 0.  0.
         13    1    5    5    0    0  0.10490606020E+03 -0.30059833168E+03 -0.32926089098E+03  0.45801459890E+03  0.00000000000E+00 0. -1.
        -14    1    5    5    0    0 -0.54363085755E+00 -0.16136143467E+03 -0.17822992211E+03  0.24042402807E+03  0.00000000000E+00 0.  1.
         15    1    3    3    0    0 -0.43085448577E+03  0.38889692422E+03 -0.45501851900E+03  0.73751028192E+03  0.17770000000E+01 0. -1.
        -16    1    3    3    0    0 -0.20278827299E+03  0.19842173131E+03 -0.15548841848E+03  0.32352884786E+03  0.00000000000E+00 0.  1.
          4    1    6    6  502    0  0.29902521557E+03 -0.38270164375E+02 -0.48833616908E+03  0.57389275920E+03  0.00000000000E+00 0. -1.
         -3    1    6    6    0  502  0.23025511385E+03 -0.87088724800E+02 -0.48756641568E+03  0.54618941141E+03  0.00000000000E+00 0.  1.
<mgrwt>
<rscale>  0 0.94575378E+03</rscale>
<asrwt>0</asrwt>
<pdfrwt beam="1">  1        1 0.38257387E+00 0.94575378E+03</pdfrwt>
<pdfrwt beam="2">  1       -2 0.60435353E-01 0.94575378E+03</pdfrwt>
<totfact> 0.31716751E+00</totfact>
</mgrwt>
</event>
<event>
12    3  0.1092576E-007  0.8678341E+03  0.7818608E-02  0.9466708E-01
         -2   -1    0    0    0  501 -0.00000000000E+00  0.00000000000E+00  0.61717004834E+03  0.61717004834E+03  0.00000000000E+00 0.  1.
          1   -1    0    0  501    0  0.00000000000E+00 -0.00000000000E+00 -0.15656405358E+04  0.15656405358E+04  0.00000000000E+00 0. -1.
        -24    2    1    2    0    0 -0.41179008662E+03 -0.74654970307E+03 -0.71206048079E+03  0.11137649783E+04  0.80837887835E+02 0.  0.
    5000000    2    1    2    0    0  0.41179008662E+03  0.74654970307E+03 -0.23641000668E+03  0.10690456058E+04  0.60005106567E+03 0.  0.
        -24    2    4    4    0    0  0.24089454174E+03  0.26230696962E+03 -0.38310703983E+03  0.52907317197E+03  0.79449926217E+02 0.  0.
         24    2    4    4    0    0  0.17089554487E+03  0.48424273344E+03  0.14669703315E+03  0.53997243382E+03  0.79711339226E+02 0.  0.
         13    1    5    5    0    0  0.20689173581E+03  0.19385829473E+03 -0.26307253232E+03  0.38677174928E+03  0.00000000000E+00 0. -1.
        -14    1    5    5    0    0  0.34002805937E+02  0.68448674892E+02 -0.12003450750E+03  0.14230142268E+03  0.00000000000E+00 0.  1.
         15    1    3    3    0    0 -0.22141957706E+02 -0.89859955736E+02 -0.68639097119E+02  0.11523697895E+03  0.17770000000E+01 0. -1.
        -16    1    3    3    0    0 -0.38964812891E+03 -0.65668974733E+03 -0.64342138367E+03  0.99852799939E+03  0.00000000000E+00 0.  1.
          2    1    6    6  502    0  0.94627352214E+02  0.15500026769E+03  0.46220289167E+02  0.18739192592E+03  0.00000000000E+00 0. -1.
         -1    1    6    6    0  502  0.76268192659E+02  0.32924246575E+03  0.10047674398E+03  0.35258050790E+03  0.00000000000E+00 0.  1.
<mgrwt>
<rscale>  0 0.86783408E+03</rscale>
<asrwt>0</asrwt>
<pdfrwt beam="1">  1        1 0.24086777E+00 0.86783408E+03</pdfrwt>
<pdfrwt beam="2">  1       -2 0.94949240E-01 0.86783408E+03</pdfrwt>
<totfact> 0.49098101E+00</totfact>
</mgrwt>
</event>
<event>
12    3  0.1092576E-007  0.9222940E+03  0.7818608E-02  0.9398134E-01
         -2   -1    0    0    0  501 -0.00000000000E+00  0.00000000000E+00  0.89073308365E+03  0.89073308365E+03  0.00000000000E+00 0.  1.
          1   -1    0    0  501    0  0.00000000000E+00 -0.00000000000E+00 -0.98409130149E+03  0.98409130149E+03  0.00000000000E+00 0. -1.
        -24    2    1    2    0    0  0.74503364460E+03  0.36723327271E+03  0.68523202288E+02  0.83736786498E+03  0.80957420213E+02 0.  0.
    5000000    2    1    2    0    0 -0.74503364460E+03 -0.36723327271E+03 -0.16188142013E+03  0.10374565202E+04  0.60014583967E+03 0.  0.
        -24    2    4    4    0    0  0.49258945737E+02 -0.17352217584E+03  0.11858545055E+02  0.19759415394E+03  0.79789945079E+02 0.  0.
         24    2    4    4    0    0 -0.79429259033E+03 -0.19371109687E+03 -0.17373996519E+03  0.83986236622E+03  0.82210161108E+02 0.  0.
         13    1    5    5    0    0 -0.18709830099E+02 -0.56093048206E+02 -0.10580063463E+02  0.60070171818E+02  0.00000000000E+00 0. -1.
        -14    1    5    5    0    0  0.67968775836E+02 -0.11742912763E+03  0.22438608517E+02  0.13752398212E+03  0.00000000000E+00 0.  1.
         15    1    3    3    0    0  0.52566975614E+03  0.27339739563E+03  0.83173181262E+02  0.59832747243E+03  0.17770000000E+01 0. -1.
        -16    1    3    3    0    0  0.21936388846E+03  0.93835877073E+02 -0.14649978974E+02  0.23904039255E+03  0.00000000000E+00 0.  1.
          2    1    6    6  502    0 -0.60173075846E+03 -0.12793699154E+03 -0.16140939116E+03  0.63600375080E+03  0.00000000000E+00 0. -1.
         -1    1    6    6    0  502 -0.19256183188E+03 -0.65774105321E+02 -0.12330574027E+02  0.20385861542E+03  0.00000000000E+00 0.  1.
<mgrwt>
<rscale>  0 0.92229401E+03</rscale>
<asrwt>0</asrwt>
<pdfrwt beam="1">  1        1 0.15139866E+00 0.92229401E+03</pdfrwt>
<pdfrwt beam="2">  1       -2 0.13703586E+00 0.92229401E+03</pdfrwt>
<totfact> 0.52051370E+00</totfact>
</mgrwt>
</event>
<event>
12    3  0.1092576E-007  0.7970667E+03  0.7818608E-02  0.9564273E-01
          1   -1    0    0  501    0  0.00000000000E+00  0.00000000000E+00  0.18096433386E+04  0.18096433386E+04  0.00000000000E+00 0. -1.
         -2   -1    0    0    0  501 -0.00000000000E+00 -0.00000000000E+00 -0.35441363001E+03  0.35441363001E+03  0.00000000000E+00 0.  1.
        -24    2    1    2    0    0 -0.66111998135E+03 -0.18064176396E+03  0.67597135045E+03  0.96538610604E+03  0.72951973810E+02 0.  0.
    5000000    2    1    2    0    0  0.66111998135E+03  0.18064176396E+03  0.77925835812E+03  0.11986708625E+04  0.59988096436E+03 0.  0.
        -24    2    4    4    0    0  0.43151274200E+03 -0.17861324527E+03  0.45521547113E+03  0.65706237118E+03  0.80024349919E+02 0.  0.
         24    2    4    4    0    0  0.22960723935E+03  0.35925500923E+03  0.32404288699E+03  0.54160849137E+03  0.80946397621E+02 0.  0.
         11    1    5    5    0    0  0.69202332096E+02 -0.62026350875E+02  0.80421087388E+02  0.12289744614E+03  0.00000000000E+00 0. -1.
        -12    1    5    5    0    0  0.36231040990E+03 -0.11658689440E+03  0.37479438374E+03  0.53416492504E+03  0.00000000000E+00 0.  1.
         15    1    3    3    0    0 -0.32236654966E+03 -0.52200555932E+02  0.33627700012E+03  0.46875416683E+03  0.17770000000E+01 0. -1.
        -16    1    3    3    0    0 -0.33875343168E+03 -0.12844120803E+03  0.33969435033E+03  0.49663193921E+03  0.00000000000E+00 0.  1.
          4    1    6    6  502    0  0.17014344644E+03  0.20493476400E+03  0.22623710815E+03  0.34947142796E+03  0.00000000000E+00 0. -1.
         -3    1    6    6    0  502  0.59463792914E+02  0.15432024524E+03  0.97805778843E+02  0.19213706340E+03  0.00000000000E+00 0.  1.
<mgrwt>
<rscale>  0 0.79706671E+03</rscale>
<asrwt>0</asrwt>
<pdfrwt beam="1">  1        1 0.27840666E+00 0.79706671E+03</pdfrwt>
<pdfrwt beam="2">  1       -2 0.54525175E-01 0.79706671E+03</pdfrwt>
<totfact> 0.11496252E+01</totfact>
</mgrwt>
</event>
<event>
12    3  0.1092576E-007  0.1175179E+04  0.7818608E-02  0.9134864E-01
         -2   -1    0    0    0  501 -0.00000000000E+00  0.00000000000E+00  0.78738283373E+03  0.78738283373E+03  0.00000000000E+00 0.  1.
          1   -1    0    0  501    0  0.00000000000E+00 -0.00000000000E+00 -0.21587891125E+04  0.21587891125E+04  0.00000000000E+00 0. -1.
        -24    2    1    2    0    0 -0.84742812051E+03 -0.70664548342E+03 -0.12725835586E+04  0.16862844024E+04  0.81264466513E+02 0.  0.
    5000000    2    1    2    0    0  0.84742812051E+03  0.70664548342E+03 -0.98822720110E+02  0.12598875438E+04  0.60005702584E+03 0.  0.
        -24    2    4    4    0    0  0.48917157796E+03  0.73318291772E+03 -0.28612661527E+02  0.88553376823E+03  0.80655729894E+02 0.  0.
         24    2    4    4    0    0  0.35825654256E+03 -0.26537434298E+02 -0.70210058583E+02  0.37435377554E+03  0.78481279479E+02 0.  0.
         13    1    5    5    0    0  0.21409042784E+03  0.35298622106E+03 -0.49503076460E+02  0.41579386495E+03  0.00000000000E+00 0. -1.
        -14    1    5    5    0    0  0.27508115012E+03  0.38019669666E+03  0.20890414933E+02  0.46973990328E+03  0.00000000000E+00 0.  1.
         15    1    3    3    0    0 -0.19047458884E+03 -0.12513443160E+03 -0.23238892034E+03  0.32549495079E+03  0.17770000000E+01 0. -1.
        -16    1    3    3    0    0 -0.65695353167E+03 -0.58151105182E+03 -0.10401946383E+04  0.13607894516E+04  0.00000000000E+00 0.  1.
          4    1    6    6  502    0  0.16661316523E+03 -0.38390602661E+02 -0.62975821820E+02  0.18220795629E+03  0.00000000000E+00 0. -1.
         -3    1    6    6    0  502  0.19164337733E+03  0.11853168362E+02 -0.72342367631E+01  0.19214581925E+03  0.00000000000E+00 0.  1.
<mgrwt>
<rscale>  0 0.11751794E+04</rscale>
<asrwt>0</asrwt>
<pdfrwt beam="1">  1        1 0.33212140E+00 0.11751794E+04</pdfrwt>
<pdfrwt beam="2">  1       -2 0.12113582E+00 0.11751794E+04</pdfrwt>
<totfact> 0.10409171E+00</totfact>
</mgrwt>
</event>
<event>
12    3  0.1092576E-007  0.1810077E+04  0.7818608E-02  0.8700959E-01
         -2   -1    0    0    0  501 -0.00000000000E+00  0.00000000000E+00  0.28016412544E+04  0.28016412544E+04  0.00000000000E+00 0.  1.
          1   -1    0    0  501    0  0.00000000000E+00 -0.00000000000E+00 -0.12019669446E+04  0.12019669446E+04  0.00000000000E+00 0. -1.
        -24    2    1    2    0    0 -0.17657630790E+04 -0.18409596626E+03  0.57360661747E+03  0.18670978116E+04  0.72243411327E+02 0.  0.
    5000000    2    1    2    0    0  0.17657630790E+04  0.18409596626E+03  0.10260676924E+04  0.21365103874E+04  0.60004262369E+03 0.  0.
        -24    2    4    4    0    0  0.53269095897E+03  0.28417271603E+03  0.50848315572E+03  0.79338954855E+03  0.79987910274E+02 0.  0.
         24    2    4    4    0    0  0.12330721200E+04 -0.10007674977E+03  0.51758453664E+03  0.13431208388E+04  0.74817285323E+02 0.  0.
         13    1    5    5    0    0  0.67310442297E+02  0.63820466496E+02  0.97480665643E+02  0.13455938377E+03  0.00000000000E+00 0. -1.
        -14    1    5    5    0    0  0.46538051668E+03  0.22035224953E+03  0.41100249007E+03  0.65883016478E+03  0.00000000000E+00 0.  1.
         15    1    3    3    0    0 -0.75437629917E+03 -0.80383230122E+02  0.28267036832E+03  0.80959913493E+03  0.17770000000E+01 0. -1.
        -16    1    3    3    0    0 -0.10113867798E+04 -0.10371273614E+03  0.29093624915E+03  0.10574986766E+04  0.00000000000E+00 0.  1.
          2    1    6    6  502    0  0.79352055421E+03 -0.61020704716E+02  0.29402412182E+03  0.84843890798E+03  0.00000000000E+00 0. -1.
         -1    1    6    6    0  502  0.43955156578E+03 -0.39056045051E+02  0.22356041482E+03  0.49468193085E+03  0.00000000000E+00 0.  1.
<mgrwt>
<rscale>  0 0.18100771E+04</rscale>
<asrwt>0</asrwt>
<pdfrwt beam="1">  1        1 0.18491799E+00 0.18100771E+04</pdfrwt>
<pdfrwt beam="2">  1       -2 0.43102173E+00 0.18100771E+04</pdfrwt>
<totfact> 0.39568508E-02</totfact>
</mgrwt>
</event>
<event>
12    3  0.1092576E-007  0.1357180E+04  0.7818608E-02  0.8985411E-01
          1   -1    0    0  501    0  0.00000000000E+00  0.00000000000E+00  0.18335818457E+04  0.18335818457E+04  0.00000000000E+00 0. -1.
         -2   -1    0    0    0  501 -0.00000000000E+00 -0.00000000000E+00 -0.10571100619E+04  0.10571100619E+04  0.00000000000E+00 0.  1.
        -24    2    1    2    0    0 -0.12783593473E+04  0.22115605298E+03  0.84524022913E+02  0.13026252439E+04  0.81090043932E+02 0.  0.
    5000000    2    1    2    0    0  0.12783593473E+04 -0.22115605298E+03  0.69194776088E+03  0.15880666637E+04  0.60004283512E+03 0.  0.
        -24    2    4    4    0    0  0.69763777784E+03 -0.40025789555E+03  0.47795504026E+03  0.93887654748E+03  0.78379199347E+02 0.  0.
         24    2    4    4    0    0  0.58072156941E+03  0.17910184257E+03  0.21399272062E+03  0.64919011618E+03  0.79623559801E+02 0.  0.
         11    1    5    5    0    0  0.32822359429E+02 -0.48530358362E+01  0.31581315310E+02  0.45806535691E+02  0.00000000000E+00 0. -1.
        -12    1    5    5    0    0  0.66481541841E+03 -0.39540485971E+03  0.44637372495E+03  0.89307001179E+03  0.00000000000E+00 0.  1.
         15    1    3    3    0    0 -0.43029668455E+03  0.68060799308E+02  0.66270887846E+02  0.44066143176E+03  0.17770000000E+01 0. -1.
        -16    1    3    3    0    0 -0.84806266270E+03  0.15309525367E+03  0.18253135067E+02  0.86196381217E+03  0.00000000000E+00 0.  1.
          4    1    6    6  502    0  0.38648252148E+03  0.91495377453E+02  0.16780848071E+03  0.43116102526E+03  0.00000000000E+00 0. -1.
         -3    1    6    6    0  502  0.19423904793E+03  0.87606465113E+02  0.46184239911E+02  0.21802909092E+03  0.00000000000E+00 0.  1.
<mgrwt>
<rscale>  0 0.13571802E+04</rscale>
<asrwt>0</asrwt>
<pdfrwt beam="1">  1        1 0.28208951E+00 0.13571802E+04</pdfrwt>
<pdfrwt beam="2">  1       -2 0.16263232E+00 0.13571802E+04</pdfrwt>
<totfact> 0.78331902E-01</totfact>
</mgrwt>
</event>
<event>
12    3  0.1092576E-007  0.1085276E+04  0.7818608E-02  0.9219663E-01
         -2   -1    0    0    0  501 -0.00000000000E+00  0.00000000000E+00  0.15628227410E+04  0.15628227410E+04  0.00000000000E+00 0.  1.
          1   -1    0    0  501    0  0.00000000000E+00 -0.00000000000E+00 -0.26994797099E+04  0.26994797099E+04  0.00000000000E+00 0. -1.
        -24    2    1    2    0    0  0.44787351669E+03 -0.97776241699E+03  0.12047087358E+04  0.16167989682E+04  0.78139199596E+02 0.  0.
    5000000    2    1    2    0    0 -0.44787351669E+03  0.97776241699E+03 -0.23413657048E+04  0.26455034827E+04  0.60007106424E+03 0.  0.
        -24    2    4    4    0    0 -0.28306434812E+03  0.79212461920E+03 -0.21818775892E+04  0.23397678509E+04  0.79604926512E+02 0.  0.
         24    2    4    4    0    0 -0.16480916856E+03  0.18563779779E+03 -0.15948811564E+03  0.30573563180E+03  0.80089721631E+02 0.  0.
         11    1    5    5    0    0 -0.21895371605E+03  0.65345171385E+03 -0.17048451186E+04  0.18388683342E+04  0.00000000000E+00 0. -1.
        -12    1    5    5    0    0 -0.64110632071E+02  0.13867290535E+03 -0.47703247059E+03  0.50089951669E+03  0.00000000000E+00 0.  1.
         15    1    3    3    0    0  0.65900545883E+02 -0.12724564182E+03  0.12418993329E+03  0.18963288894E+03  0.17770000000E+01 0. -1.
        -16    1    3    3    0    0  0.38197297081E+03 -0.85051677517E+03  0.10805188025E+04  0.14271660793E+04  0.00000000000E+00 0.  1.
          4    1    6    6  502    0 -0.10012316178E+02  0.37073601720E+02 -0.77403056424E-02  0.38401803078E+02  0.00000000000E+00 0. -1.
         -3    1    6    6    0  502 -0.15479685239E+03  0.14856419607E+03 -0.15948037533E+03  0.26733382872E+03  0.00000000000E+00 0.  1.
<mgrwt>
<rscale>  0 0.10852761E+04</rscale>
<asrwt>0</asrwt>
<pdfrwt beam="1">  1        1 0.41530457E+00 0.10852761E+04</pdfrwt>
<pdfrwt beam="2">  1       -2 0.24043427E+00 0.10852761E+04</pdfrwt>
<totfact> 0.63590389E-02</totfact>
</mgrwt>
</event>
<event>
12    3  0.1092576E-007  0.1301539E+04  0.7818608E-02  0.9028346E-01
         -2   -1    0    0    0  501 -0.00000000000E+00  0.00000000000E+00  0.66141876498E+03  0.66141876498E+03  0.00000000000E+00 0.  1.
          1   -1    0    0  501    0  0.00000000000E+00 -0.00000000000E+00 -0.28541150527E+04  0.28541150527E+04  0.00000000000E+00 0. -1.
        -24    2    1    2    0    0 -0.11502259465E+04  0.59004951512E+03 -0.12920933988E+04  0.18295425221E+04  0.80884674612E+02 0.  0.
    5000000    2    1    2    0    0  0.11502259465E+04 -0.59004951512E+03 -0.90060288889E+03  0.16859912956E+04  0.60025238594E+03 0.  0.
        -24    2    4    4    0    0  0.73786979961E+03 -0.45244116291E+03 -0.88950504799E+03  0.12437372949E+04  0.80674538731E+02 0.  0.
         24    2    4    4    0    0  0.41235614693E+03 -0.13760835222E+03 -0.11097840900E+02  0.44225400068E+03  0.80571636041E+02 0.  0.
         11    1    5    5    0    0  0.25888139504E+03 -0.17264051353E+03 -0.37336945200E+03  0.48603402278E+03  0.00000000000E+00 0. -1.
        -12    1    5    5    0    0  0.47898840457E+03 -0.27980064938E+03 -0.51613559599E+03  0.75770327210E+03  0.00000000000E+00 0.  1.
         15    1    3    3    0    0 -0.39694811764E+03  0.24706258900E+03 -0.46130371674E+03  0.65681961587E+03  0.17770000000E+01 0. -1.
        -16    1    3    3    0    0 -0.75327782889E+03  0.34298692612E+03 -0.83078968207E+03  0.11727229062E+04  0.00000000000E+00 0.  1.
          4    1    6    6  502    0  0.22568358645E+03 -0.11679011178E+03 -0.27017969606E+00  0.25411234602E+03  0.00000000000E+00 0. -1.
         -3    1    6    6    0  502  0.18667256048E+03 -0.20818240435E+02 -0.10827661204E+02  0.18814165466E+03  0.00000000000E+00 0.  1.
<mgrwt>
<rscale>  0 0.13015391E+04</rscale>
<asrwt>0</asrwt>
<pdfrwt beam="1">  1        1 0.43909463E+00 0.13015391E+04</pdfrwt>
<pdfrwt beam="2">  1       -2 0.10175673E+00 0.13015391E+04</pdfrwt>
<totfact> 0.51832231E-01</totfact>
</mgrwt>
</event>
<event>
12    3  0.1092576E-007  0.6993643E+03  0.7818608E-02  0.9718320E-01
          1   -1    0    0  501    0  0.00000000000E+00  0.00000000000E+00  0.11446205861E+04  0.11446205861E+04  0.00000000000E+00 0. -1.
         -2   -1    0    0    0  501 -0.00000000000E+00 -0.00000000000E+00 -0.78640853284E+03  0.78640853284E+03  0.00000000000E+00 0.  1.
        -24    2    1    2    0    0  0.47511362260E+03 -0.43315705712E+03  0.73031017179E+03  0.97612043502E+03  0.78103560303E+02 0.  0.
    5000000    2    1    2    0    0 -0.47511362260E+03  0.43315705712E+03 -0.37209811853E+03  0.95490868391E+03  0.60002966117E+03 0.  0.
        -24    2    4    4    0    0 -0.66997571871E+02 -0.57164878998E+02  0.10267040619E+03  0.15558861359E+03  0.76877216040E+02 0.  0.
         24    2    4    4    0    0 -0.40811605073E+03  0.49032193612E+03 -0.47476852472E+03  0.79932007032E+03  0.80827661409E+02 0.  0.
         11    1    5    5    0    0 -0.83023552946E+02 -0.54153671084E+02  0.95935210995E+02  0.13794598633E+03  0.00000000000E+00 0. -1.
        -12    1    5    5    0    0  0.16025981076E+02 -0.30112079144E+01  0.67351951919E+01  0.17642627265E+02  0.00000000000E+00 0.  1.
         15    1    3    3    0    0  0.56486793195E+02 -0.65848903498E+02  0.64651167940E+02  0.10821167748E+03  0.17770000000E+01 0. -1.
        -16    1    3    3    0    0  0.41862682940E+03 -0.36730815363E+03  0.66565900385E+03  0.86790875754E+03  0.00000000000E+00 0.  1.
          2    1    6    6  502    0 -0.33184017468E+03  0.42477935010E+03 -0.36815404494E+03  0.65275784071E+03  0.00000000000E+00 0. -1.
         -1    1    6    6    0  502 -0.76275876048E+02  0.65542586017E+02 -0.10661447978E+03  0.14656222961E+03  0.00000000000E+00 0.  1.
<mgrwt>
<rscale>  0 0.69936435E+03</rscale>
<asrwt>0</asrwt>
<pdfrwt beam="1">  1        1 0.17609548E+00 0.69936435E+03</pdfrwt>
<pdfrwt beam="2">  1       -2 0.12098593E+00 0.69936435E+03</pdfrwt>
<totfact> 0.55399774E+00</totfact>
</mgrwt>
</event>
<event>
12    3  0.1092576E-007  0.5575626E+03  0.7818608E-02  0.9997585E-01
          1   -1    0    0  501    0  0.00000000000E+00  0.00000000000E+00  0.34608326869E+03  0.34608326869E+03  0.00000000000E+00 0. -1.
         -2   -1    0    0    0  501 -0.00000000000E+00 -0.00000000000E+00 -0.25440766603E+04  0.25440766603E+04  0.00000000000E+00 0.  1.
        -24    2    1    2    0    0 -0.38005533538E+03  0.22080836145E+03  0.11440318271E+03  0.46111030469E+03  0.79600467567E+02 0.  0.
    5000000    2    1    2    0    0  0.38005533538E+03 -0.22080836145E+03 -0.23123965743E+04  0.24290496243E+04  0.59992146979E+03 0.  0.
        -24    2    4    4    0    0  0.52960338122E+02 -0.31728506843E+03 -0.64485099156E+03  0.72508812923E+03  0.80283135026E+02 0.  0.
         24    2    4    4    0    0  0.32709499726E+03  0.96476706984E+02 -0.16675455827E+04  0.17039614950E+04  0.80483624796E+02 0.  0.
         11    1    5    5    0    0 -0.15773479217E+02 -0.14655896969E+03 -0.27823770324E+03  0.31487228165E+03  0.00000000000E+00 0. -1.
        -12    1    5    5    0    0  0.68733817339E+02 -0.17072609874E+03 -0.36661328832E+03  0.41021584759E+03  0.00000000000E+00 0.  1.
         15    1    3    3    0    0 -0.29632086307E+03  0.15410249436E+03  0.11733992210E+03  0.35401334396E+03  0.17770000000E+01 0. -1.
        -16    1    3    3    0    0 -0.83734472310E+02  0.66705867091E+02 -0.29367393905E+01  0.10709696072E+03  0.00000000000E+00 0.  1.
          4    1    6    6  502    0  0.23842041106E+03  0.85407918502E+02 -0.10573471267E+04  0.10872542257E+04  0.00000000000E+00 0. -1.
         -3    1    6    6    0  502  0.88674586197E+02  0.11068788483E+02 -0.61019845599E+03  0.61670726930E+03  0.00000000000E+00 0.  1.
<mgrwt>
<rscale>  0 0.55756256E+03</rscale>
<asrwt>0</asrwt>
<pdfrwt beam="1">  1        1 0.53243582E-01 0.55756256E+03</pdfrwt>
<pdfrwt beam="2">  1       -2 0.39139639E+00 0.55756256E+03</pdfrwt>
<totfact> 0.59661492E-01</totfact>
</mgrwt>
</event>
<event>
12    3  0.1092576E-007  0.7121780E+03  0.7818608E-02  0.9696630E-01
         -2   -1    0    0    0  501 -0.00000000000E+00  0.00000000000E+00  0.62729141780E+03  0.62729141780E+03  0.00000000000E+00 0.  1.
          1   -1    0    0  501    0  0.00000000000E+00 -0.00000000000E+00 -0.12455956426E+04  0.12455956426E+04  0.00000000000E+00 0. -1.
        -24    2    1    2    0    0 -0.58927979430E+03  0.36880351856E+02  0.26570408443E+03  0.65217014173E+03  0.78207397086E+02 0.  0.
    5000000    2    1    2    0    0  0.58927979430E+03 -0.36880351856E+02 -0.88400830919E+03  0.12207169186E+04  0.60005688763E+03 0.  0.
        -24    2    4    4    0    0  0.72477013514E+02 -0.25051963590E+03 -0.34444619652E+03  0.43938628877E+03  0.80025764609E+02 0.  0.
         24    2    4    4    0    0  0.51680278079E+03  0.21363928405E+03 -0.53956211267E+03  0.78133062987E+03  0.81384407693E+02 0.  0.
         11    1    5    5    0    0 -0.14977710247E+02 -0.67643761527E+02 -0.10291124752E+03  0.12405940167E+03  0.00000000000E+00 0. -1.
        -12    1    5    5    0    0  0.87454723761E+02 -0.18287587438E+03 -0.24153494900E+03  0.31532688710E+03  0.00000000000E+00 0.  1.
         15    1    3    3    0    0 -0.23906635980E+03  0.31589247275E+02  0.70749079830E+02  0.25131493182E+03  0.17770000000E+01 0. -1.
        -16    1    3    3    0    0 -0.35021343451E+03  0.52911045814E+01  0.19495500460E+03  0.40085520991E+03  0.00000000000E+00 0.  1.
          4    1    6    6  502    0  0.24010439653E+03  0.12311307212E+03 -0.30692584820E+03  0.40866909114E+03  0.00000000000E+00 0. -1.
         -3    1    6    6    0  502  0.27669838426E+03  0.90526211925E+02 -0.23263626447E+03  0.37266153873E+03  0.00000000000E+00 0.  1.
<mgrwt>
<rscale>  0 0.71217800E+03</rscale>
<asrwt>0</asrwt>
<pdfrwt beam="1">  1        1 0.19163010E+00 0.71217800E+03</pdfrwt>
<pdfrwt beam="2">  1       -2 0.96506371E-01 0.71217800E+03</pdfrwt>
<totfact> 0.80593087E+00</totfact>
</mgrwt>
</event>
<event>
12    3  0.1092576E-007  0.1351287E+04  0.7818608E-02  0.8989855E-01
         -2   -1    0    0    0  501 -0.00000000000E+00  0.00000000000E+00  0.15171043002E+04  0.15171043002E+04  0.00000000000E+00 0.  1.
          1   -1    0    0  501    0  0.00000000000E+00 -0.00000000000E+00 -0.17019986582E+04  0.17019986582E+04  0.00000000000E+00 0. -1.
        -24    2    1    2    0    0 -0.49082067746E+03  0.11957298010E+04  0.76715360672E+03  0.15052954154E+04  0.81944718207E+02 0.  0.
    5000000    2    1    2    0    0  0.49082067746E+03 -0.11957298010E+04 -0.95204796471E+03  0.17138075430E+04  0.60005522489E+03 0.  0.
        -24    2    4    4    0    0  0.18656194873E+03 -0.16343111884E+02 -0.13997509295E+03  0.24775681125E+03  0.81963118844E+02 0.  0.
         24    2    4    4    0    0  0.30425872873E+03 -0.11793866892E+04 -0.81207287176E+03  0.14660507318E+04  0.79473659486E+02 0.  0.
         13    1    5    5    0    0  0.11437724153E+03 -0.25100686971E+02 -0.12899579108E+03  0.17421857531E+03  0.00000000000E+00 0. -1.
        -14    1    5    5    0    0  0.72184707203E+02  0.87575750876E+01 -0.10979301876E+02  0.73538235940E+02  0.00000000000E+00 0.  1.
         15    1    3    3    0    0 -0.24761193712E+03  0.56921550110E+03  0.32327557977E+03  0.69987728660E+03  0.17770000000E+01 0. -1.
        -16    1    3    3    0    0 -0.24320874034E+03  0.62651429994E+03  0.44387802696E+03  0.80541812881E+03  0.00000000000E+00 0.  1.
          2    1    6    6  502    0  0.24425015012E+03 -0.82044937943E+03 -0.59133150840E+03  0.10404173551E+04  0.00000000000E+00 0. -1.
         -1    1    6    6    0  502  0.60008578612E+02 -0.35893730972E+03 -0.22074136335E+03  0.42563337665E+03  0.00000000000E+00 0.  1.
<mgrwt>
<rscale>  0 0.13512868E+04</rscale>
<asrwt>0</asrwt>
<pdfrwt beam="1">  1        1 0.26184595E+00 0.13512868E+04</pdfrwt>
<pdfrwt beam="2">  1       -2 0.23340066E+00 0.13512868E+04</pdfrwt>
<totfact> 0.32461010E-01</totfact>
</mgrwt>
</event>
<event>
12    3  0.1092576E-007  0.9951598E+03  0.7818608E-02  0.9313869E-01
          1   -1    0    0  501    0  0.00000000000E+00  0.00000000000E+00  0.14560715623E+04  0.14560715623E+04  0.00000000000E+00 0. -1.
         -2   -1    0    0    0  501 -0.00000000000E+00 -0.00000000000E+00 -0.94607942366E+03  0.94607942366E+03  0.00000000000E+00 0.  1.
        -24    2    1    2    0    0 -0.62011572197E+03 -0.71677018212E+03  0.80080566068E+03  0.12433432422E+04  0.79433677770E+02 0.  0.
    5000000    2    1    2    0    0  0.62011572197E+03  0.71677018212E+03 -0.29081352199E+03  0.11588077438E+04  0.59996656565E+03 0.  0.
        -24    2    4    4    0    0  0.58542949810E+03  0.75436087676E+03 -0.12258602019E+03  0.96595833595E+03  0.79121076898E+02 0.  0.
         24    2    4    4    0    0  0.34686223877E+02 -0.37590694642E+02 -0.16822750180E+03  0.19284940785E+03  0.79209893925E+02 0.  0.
         13    1    5    5    0    0  0.11740738475E+03  0.10968802614E+03 -0.56387231109E+01  0.16077236165E+03  0.00000000000E+00 0. -1.
        -14    1    5    5    0    0  0.46802211335E+03  0.64467285062E+03 -0.11694729708E+03  0.80518597430E+03  0.00000000000E+00 0.  1.
         15    1    3    3    0    0 -0.33766737671E+03 -0.35030956268E+03  0.44944362241E+03  0.66237359130E+03  0.17770000000E+01 0. -1.
        -16    1    3    3    0    0 -0.28244834526E+03 -0.36646061944E+03  0.35136203826E+03  0.58096965090E+03  0.00000000000E+00 0.  1.
          4    1    6    6  502    0 -0.19173758279E+02 -0.18431774734E+02 -0.18005528182E+02  0.32117944696E+02  0.00000000000E+00 0. -1.
         -3    1    6    6    0  502  0.53859982156E+02 -0.19158919908E+02 -0.15022197362E+03  0.16073146315E+03  0.00000000000E+00 0.  1.
<mgrwt>
<rscale>  0 0.99515985E+03</rscale>
<asrwt>0</asrwt>
<pdfrwt beam="1">  1        1 0.22401101E+00 0.99515985E+03</pdfrwt>
<pdfrwt beam="2">  1       -2 0.14555068E+00 0.99515985E+03</pdfrwt>
<totfact> 0.19946396E+00</totfact>
</mgrwt>
</event>
<event>
12    3  0.1092576E-007  0.7225465E+03  0.7818608E-02  0.9679433E-01
          1   -1    0    0  501    0  0.00000000000E+00  0.00000000000E+00  0.12522701978E+04  0.12522701978E+04  0.00000000000E+00 0. -1.
         -2   -1    0    0    0  501 -0.00000000000E+00 -0.00000000000E+00 -0.49516224567E+03  0.49516224567E+03  0.00000000000E+00 0.  1.
        -24    2    1    2    0    0  0.62139521317E+03  0.16153851964E+03  0.53858870869E+03  0.84190951359E+03  0.80666769261E+02 0.  0.
    5000000    2    1    2    0    0 -0.62139521317E+03 -0.16153851964E+03  0.21851924348E+03  0.90552292991E+03  0.59999534377E+03 0.  0.
        -24    2    4    4    0    0  0.15975985816E+02  0.88914481152E+02 -0.89792353505E+02  0.15041674199E+03  0.80009452207E+02 0.  0.
         24    2    4    4    0    0 -0.63737119899E+03 -0.25045300080E+03  0.30831159699E+03  0.75510618792E+03  0.78489255892E+02 0.  0.
         13    1    5    5    0    0  0.29696848075E+02  0.93254732428E+02 -0.53861874789E+02  0.11171145627E+03  0.00000000000E+00 0. -1.
        -14    1    5    5    0    0 -0.13720862259E+02 -0.43402512753E+01 -0.35930478716E+02  0.38705285725E+02  0.00000000000E+00 0.  1.
         15    1    3    3    0    0  0.25398161431E+03  0.10416343195E+03  0.24835107588E+03  0.37018656862E+03  0.17770000000E+01 0. -1.
        -16    1    3    3    0    0  0.36741359886E+03  0.57375087692E+02  0.29023763281E+03  0.47172294497E+03  0.00000000000E+00 0.  1.
          4    1    6    6  502    0 -0.57392364484E+03 -0.20966485362E+03  0.29502160929E+03  0.67851709698E+03  0.00000000000E+00 0. -1.
         -3    1    6    6    0  502 -0.63447554154E+02 -0.40788147175E+02  0.13289987693E+02  0.76589090940E+02  0.00000000000E+00 0.  1.
<mgrwt>
<rscale>  0 0.72254649E+03</rscale>
<asrwt>0</asrwt>
<pdfrwt beam="1">  1        1 0.19265695E+00 0.72254649E+03</pdfrwt>
<pdfrwt beam="2">  1       -2 0.76178808E-01 0.72254649E+03</pdfrwt>
<totfact> 0.13656263E+01</totfact>
</mgrwt>
</event>
<event>
12    3  0.1092576E-007  0.8594573E+03  0.7818608E-02  0.9477731E-01
          1   -1    0    0  501    0  0.00000000000E+00  0.00000000000E+00  0.69995406375E+03  0.69995406375E+03  0.00000000000E+00 0. -1.
         -2   -1    0    0    0  501 -0.00000000000E+00 -0.00000000000E+00 -0.11739962931E+04  0.11739962931E+04  0.00000000000E+00 0.  1.
        -24    2    1    2    0    0 -0.48848147496E+02 -0.76665249640E+03 -0.46039559419E+03  0.89917552937E+03  0.80064584669E+02 0.  0.
    5000000    2    1    2    0    0  0.48848147496E+02  0.76665249640E+03 -0.13646635206E+02  0.97477482752E+03  0.59988127324E+03 0.  0.
        -24    2    4    4    0    0 -0.22876466066E+03  0.52188820414E+03  0.90349864696E+02  0.58253004030E+03  0.80483428161E+02 0.  0.
         24    2    4    4    0    0  0.27761280816E+03  0.24476429225E+03 -0.10399649990E+03  0.39224478723E+03  0.77860587596E+02 0.  0.
         11    1    5    5    0    0 -0.15739385078E+03  0.28993708258E+03  0.80824438638E+02  0.33966001531E+03  0.00000000000E+00 0. -1.
        -12    1    5    5    0    0 -0.71370809885E+02  0.23195112156E+03  0.95254260581E+01  0.24287002499E+03  0.00000000000E+00 0.  1.
         15    1    3    3    0    0 -0.38625746064E+02 -0.56463676403E+03 -0.37899611317E+03  0.68113716319E+03  0.17770000000E+01 0. -1.
        -16    1    3    3    0    0 -0.10222401432E+02 -0.20201573236E+03 -0.81399481024E+02  0.21803836618E+03  0.00000000000E+00 0.  1.
          4    1    6    6  502    0  0.12405846795E+03  0.16076564893E+03 -0.51076603172E+02  0.20939177810E+03  0.00000000000E+00 0. -1.
         -3    1    6    6    0  502  0.15355434020E+03  0.83998643326E+02 -0.52919896729E+02  0.18285300912E+03  0.00000000000E+00 0.  1.
<mgrwt>
<rscale>  0 0.85945726E+03</rscale>
<asrwt>0</asrwt>
<pdfrwt beam="1">  1        1 0.10768524E+00 0.85945726E+03</pdfrwt>
<pdfrwt beam="2">  1       -2 0.18061481E+00 0.85945726E+03</pdfrwt>
<totfact> 0.43341463E+00</totfact>
</mgrwt>
</event>
<event>
12    3  0.1092576E-007  0.5629822E+03  0.7818608E-02  0.9985329E-01
         -2   -1    0    0    0  501 -0.00000000000E+00  0.00000000000E+00  0.49740032456E+03  0.49740032456E+03  0.00000000000E+00 0.  1.
          1   -1    0    0  501    0  0.00000000000E+00 -0.00000000000E+00 -0.11313328209E+04  0.11313328209E+04  0.00000000000E+00 0. -1.
        -24    2    1    2    0    0  0.16306241880E+03 -0.50238321275E+03  0.10004395060E+03  0.54349422897E+03  0.79993374675E+02 0.  0.
    5000000    2    1    2    0    0 -0.16306241880E+03  0.50238321275E+03 -0.73397644694E+03  0.10852389165E+04  0.60003652916E+03 0.  0.
        -24    2    4    4    0    0 -0.11553609377E+03  0.48326938270E+03 -0.19859721018E+03  0.54097449235E+03  0.79464861826E+02 0.  0.
         24    2    4    4    0    0 -0.47526325029E+02  0.19113830043E+02 -0.53537923677E+03  0.54426442414E+03  0.83479016228E+02 0.  0.
         11    1    5    5    0    0 -0.93571630490E+00  0.15552543420E+03 -0.72338842946E+02  0.17152826136E+03  0.00000000000E+00 0. -1.
        -12    1    5    5    0    0 -0.11460037747E+03  0.32774394851E+03 -0.12625836723E+03  0.36944623099E+03  0.00000000000E+00 0.  1.
         15    1    3    3    0    0  0.88270134423E+02 -0.17439148928E+03  0.61333205738E+02  0.20486319342E+03  0.17770000000E+01 0. -1.
        -16    1    3    3    0    0  0.74792284379E+02 -0.32799172346E+03  0.38710744867E+02  0.33863103554E+03  0.00000000000E+00 0.  1.
          4    1    6    6  502    0 -0.23603684738E+02 -0.29138558970E+02 -0.32272093598E+03  0.32489227764E+03  0.00000000000E+00 0. -1.
         -3    1    6    6    0  502 -0.23922640290E+02  0.48252389013E+02 -0.21265830079E+03  0.21937214650E+03  0.00000000000E+00 0.  1.
<mgrwt>
<rscale>  0 0.56298218E+03</rscale>
<asrwt>0</asrwt>
<pdfrwt beam="1">  1        1 0.17405120E+00 0.56298218E+03</pdfrwt>
<pdfrwt beam="2">  1       -2 0.76523127E-01 0.56298218E+03</pdfrwt>
<totfact> 0.16902683E+01</totfact>
</mgrwt>
</event>
<event>
12    3  0.1092576E-007  0.8827097E+03  0.7818608E-02  0.9447457E-01
         -2   -1    0    0    0  501 -0.00000000000E+00  0.00000000000E+00  0.32526415491E+03  0.32526415491E+03  0.00000000000E+00 0.  1.
          1   -1    0    0  501    0  0.00000000000E+00 -0.00000000000E+00 -0.25272229235E+04  0.25272229235E+04  0.00000000000E+00 0. -1.
        -24    2    1    2    0    0  0.76040352198E+02  0.78629417742E+03 -0.12284093603E+04  0.14625625166E+04  0.77838871015E+02 0.  0.
    5000000    2    1    2    0    0 -0.76040352198E+02 -0.78629417742E+03 -0.97354940836E+03  0.13899245619E+04  0.60004263901E+03 0.  0.
        -24    2    4    4    0    0  0.13208177217E+03  0.16362414540E+02 -0.19721757631E+03  0.25133088623E+03  0.80988386937E+02 0.  0.
         24    2    4    4    0    0 -0.20812212437E+03 -0.80265659196E+03 -0.77633183204E+03  0.11385936757E+04  0.78307225337E+02 0.  0.
         13    1    5    5    0    0  0.13717853524E+03  0.12903188508E+02 -0.14985934241E+03  0.20357373433E+03  0.00000000000E+00 0. -1.
        -14    1    5    5    0    0 -0.50967630726E+01  0.34592260312E+01 -0.47358233908E+02  0.47757151898E+02  0.00000000000E+00 0.  1.
         15    1    3    3    0    0  0.23864812917E+02  0.26081188432E+03 -0.34179112203E+03  0.43060039146E+03  0.17770000000E+01 0. -1.
        -16    1    3    3    0    0  0.52175539280E+02  0.52548229310E+03 -0.88661823823E+03  0.10319621251E+04  0.00000000000E+00 0.  1.
          4    1    6    6  502    0 -0.15786437841E+03 -0.69483313194E+03 -0.64129993679E+03  0.95863436833E+03  0.00000000000E+00 0. -1.
         -3    1    6    6    0  502 -0.50257745958E+02 -0.10782346002E+03 -0.13503189526E+03  0.17995930733E+03  0.00000000000E+00 0.  1.
<mgrwt>
<rscale>  0 0.88270966E+03</rscale>
<asrwt>0</asrwt>
<pdfrwt beam="1">  1        1 0.38880354E+00 0.88270966E+03</pdfrwt>
<pdfrwt beam="2">  1       -2 0.50040638E-01 0.88270966E+03</pdfrwt>
<totfact> 0.44459662E+00</totfact>
</mgrwt>
</event>
<event>
12    3  0.1092576E-007  0.5767808E+03  0.7818608E-02  0.9954785E-01
          1   -1    0    0  501    0  0.00000000000E+00  0.00000000000E+00  0.74652316118E+03  0.74652316118E+03  0.00000000000E+00 0. -1.
         -2   -1    0    0    0  501 -0.00000000000E+00 -0.00000000000E+00 -0.54577529234E+03  0.54577529234E+03  0.00000000000E+00 0.  1.
        -24    2    1    2    0    0 -0.37055700810E+03 -0.20244834898E+03  0.33695966709E+03  0.54607948403E+03  0.79769388750E+02 0.  0.
    5000000    2    1    2    0    0  0.37055700810E+03  0.20244834898E+03 -0.13621179825E+03  0.74621896948E+03  0.59999272177E+03 0.  0.
        -24    2    4    4    0    0  0.50606947742E+03  0.46682289679E+02 -0.81794154723E+02  0.52119692667E+03  0.81672519744E+02 0.  0.
         24    2    4    4    0    0 -0.13551246932E+03  0.15576605930E+03 -0.54417643525E+02  0.22502204281E+03  0.71041855640E+02 0.  0.
         13    1    5    5    0    0  0.36793267920E+03  0.64297536727E+02 -0.79744352180E+02  0.38192642139E+03  0.00000000000E+00 0. -1.
        -14    1    5    5    0    0  0.13813679822E+03 -0.17615247048E+02 -0.20498025423E+01  0.13927050528E+03  0.00000000000E+00 0.  1.
         15    1    3    3    0    0 -0.23374363711E+03 -0.14051403473E+03  0.16936341320E+03  0.32104112712E+03  0.17770000000E+01 0. -1.
        -16    1    3    3    0    0 -0.13681337099E+03 -0.61934314256E+02  0.16759625389E+03  0.22503835691E+03  0.00000000000E+00 0.  1.
          4    1    6    6  502    0 -0.11254895543E+03  0.78349292207E+02 -0.27186185205E+02  0.13980331764E+03  0.00000000000E+00 0. -1.
         -3    1    6    6    0  502 -0.22963513894E+02  0.77416767097E+02 -0.27231458320E+02  0.85218725174E+02  0.00000000000E+00 0.  1.
<mgrwt>
<rscale>  0 0.57678079E+03</rscale>
<asrwt>0</asrwt>
<pdfrwt beam="1">  1        1 0.11484972E+00 0.57678079E+03</pdfrwt>
<pdfrwt beam="2">  1       -2 0.83965430E-01 0.57678079E+03</pdfrwt>
<totfact> 0.27801816E+01</totfact>
</mgrwt>
</event>
<event>
12    3  0.1092576E-007  0.6996042E+03  0.7818608E-02  0.9717909E-01
          1   -1    0    0  501    0  0.00000000000E+00  0.00000000000E+00  0.34740003180E+04  0.34740003180E+04  0.00000000000E+00 0. -1.
         -2   -1    0    0    0  501 -0.00000000000E+00 -0.00000000000E+00 -0.15572100850E+03  0.15572100850E+03  0.00000000000E+00 0.  1.
        -24    2    1    2    0    0 -0.60328234096E+03  0.54180446693E+02  0.12087482176E+04  0.13544117648E+04  0.80460370840E+02 0.  0.
    5000000    2    1    2    0    0  0.60328234096E+03 -0.54180446693E+02  0.21095310919E+04  0.22753095617E+04  0.60002255817E+03 0.  0.
        -24    2    4    4    0    0  0.68057620859E+03 -0.19910250733E+02  0.14185123855E+04  0.15754921641E+04  0.80111031827E+02 0.  0.
         24    2    4    4    0    0 -0.77293867636E+02 -0.34270195959E+02  0.69101870639E+03  0.69981739766E+03  0.71335469322E+02 0.  0.
         13    1    5    5    0    0  0.24065820062E+03 -0.84761205158E+01  0.59253690246E+03  0.63960002730E+03  0.00000000000E+00 0. -1.
        -14    1    5    5    0    0  0.43991800797E+03 -0.11434130218E+02  0.82597548304E+03  0.93589213677E+03  0.00000000000E+00 0.  1.
         15    1    3    3    0    0 -0.21573719862E+03  0.51578615539E+02  0.48880420408E+03  0.53678263767E+03  0.17770000000E+01 0. -1.
        -16    1    3    3    0    0 -0.38754514234E+03  0.26018311534E+01  0.71994401354E+03  0.81762912711E+03  0.00000000000E+00 0.  1.
          2    1    6    6  502    0  0.23632853050E+00 -0.31370866907E+02  0.25833611504E+03  0.26023400138E+03  0.00000000000E+00 0. -1.
         -1    1    6    6    0  502 -0.77530196166E+02 -0.28993290526E+01  0.43268259135E+03  0.43958339628E+03  0.00000000000E+00 0.  1.
<mgrwt>
<rscale>  0 0.69960419E+03</rscale>
<asrwt>0</asrwt>
<pdfrwt beam="1">  1        1 0.53446153E+00 0.69960419E+03</pdfrwt>
<pdfrwt beam="2">  1       -2 0.23957081E-01 0.69960419E+03</pdfrwt>
<totfact> 0.38803558E+00</totfact>
</mgrwt>
</event>
<event>
12    3  0.1092576E-007  0.1285789E+04  0.7818608E-02  0.9040911E-01
          1   -1    0    0  501    0  0.00000000000E+00  0.00000000000E+00  0.20706398632E+04  0.20706398632E+04  0.00000000000E+00 0. -1.
         -2   -1    0    0    0  501 -0.00000000000E+00 -0.00000000000E+00 -0.10431107960E+04  0.10431107960E+04  0.00000000000E+00 0.  1.
        -24    2    1    2    0    0  0.10368460267E+04 -0.66196543190E+03  0.12166915997E+04  0.17320463591E+04  0.79988905113E+02 0.  0.
    5000000    2    1    2    0    0 -0.10368460267E+04  0.66196543190E+03 -0.18916253244E+03  0.13817043002E+04  0.60006365762E+03 0.  0.
        -24    2    4    4    0    0  0.53797844205E+02  0.97836640930E+02 -0.34830023033E+01  0.13731509727E+03  0.79856673384E+02 0.  0.
         24    2    4    4    0    0 -0.10906438709E+04  0.56412879097E+03 -0.18567953014E+03  0.12443892029E+04  0.79260673201E+02 0.  0.
         11    1    5    5    0    0  0.51410690804E+02  0.83150183335E+02 -0.33886108029E+02  0.10346632512E+03  0.00000000000E+00 0. -1.
        -12    1    5    5    0    0  0.23871534012E+01  0.14686457595E+02  0.30403105725E+02  0.33848772146E+02  0.00000000000E+00 0.  1.
         15    1    3    3    0    0  0.35144542303E+03 -0.24837086000E+03  0.47134865653E+03  0.63825910351E+03  0.17770000000E+01 0. -1.
        -16    1    3    3    0    0  0.68540060371E+03 -0.41359457190E+03  0.74534294317E+03  0.10937872555E+04  0.00000000000E+00 0.  1.
          2    1    6    6  502    0 -0.10067246950E+04  0.52659558899E+03 -0.15094585785E+03  0.11461161275E+04  0.00000000000E+00 0. -1.
         -1    1    6    6    0  502 -0.83919175969E+02  0.37533201977E+02 -0.34733672289E+02  0.98273075339E+02  0.00000000000E+00 0.  1.
<mgrwt>
<rscale>  0 0.12857891E+04</rscale>
<asrwt>0</asrwt>
<pdfrwt beam="1">  1        1 0.31855998E+00 0.12857891E+04</pdfrwt>
<pdfrwt beam="2">  1       -2 0.16047858E+00 0.12857891E+04</pdfrwt>
<totfact> 0.56558753E-01</totfact>
</mgrwt>
</event>
<event>
12    3  0.1092576E-007  0.8137321E+03  0.7818608E-02  0.9540350E-01
         -2   -1    0    0    0  501 -0.00000000000E+00  0.00000000000E+00  0.65849963676E+03  0.65849963676E+03  0.00000000000E+00 0.  1.
          1   -1    0    0  501    0  0.00000000000E+00 -0.00000000000E+00 -0.11230096469E+04  0.11230096469E+04  0.00000000000E+00 0. -1.
        -24    2    1    2    0    0  0.20812986023E+03 -0.71130835913E+03 -0.34223845950E+03  0.82009626496E+03  0.78441699055E+02 0.  0.
    5000000    2    1    2    0    0 -0.20812986023E+03  0.71130835913E+03 -0.12227155064E+03  0.96141301870E+03  0.60007252890E+03 0.  0.
        -24    2    4    4    0    0  0.15535135076E+03  0.22673290906E+03 -0.19507079985E+03  0.34633418559E+03  0.79705062060E+02 0.  0.
         24    2    4    4    0    0 -0.36348121100E+03  0.48457545007E+03  0.72799249214E+02  0.61507883311E+03  0.78040263302E+02 0.  0.
         11    1    5    5    0    0  0.94834121596E+02  0.18191124155E+03 -0.11021033843E+03  0.23287663927E+03  0.00000000000E+00 0. -1.
        -12    1    5    5    0    0  0.60517229168E+02  0.44821667517E+02 -0.84860461421E+02  0.11345754632E+03  0.00000000000E+00 0.  1.
         15    1    3    3    0    0  0.14867634887E+03 -0.48702329221E+03 -0.27393088366E+03  0.57821936202E+03  0.17770000000E+01 0. -1.
        -16    1    3    3    0    0  0.59453511364E+02 -0.22428506692E+03 -0.68307575848E+02  0.24187690294E+03  0.00000000000E+00 0.  1.
          4    1    6    6  502    0 -0.71601164045E+02  0.92716730478E+02  0.45589629295E+02  0.12570414911E+03  0.00000000000E+00 0. -1.
         -3    1    6    6    0  502 -0.29188004695E+03  0.39185871959E+03  0.27209619920E+02  0.48937468401E+03  0.00000000000E+00 0.  1.
<mgrwt>
<rscale>  0 0.81373209E+03</rscale>
<asrwt>0</asrwt>
<pdfrwt beam="1">  1        1 0.17277071E+00 0.81373209E+03</pdfrwt>
<pdfrwt beam="2">  1       -2 0.10130764E+00 0.81373209E+03</pdfrwt>
<totfact> 0.87125193E+00</totfact>
</mgrwt>
</event>
<event>
12    3  0.1092576E-007  0.3744765E+03  0.7818608E-02  0.1052994E+00
         -2   -1    0    0    0  501 -0.00000000000E+00  0.00000000000E+00  0.15080111004E+04  0.15080111004E+04  0.00000000000E+00 0.  1.
          1   -1    0    0  501    0  0.00000000000E+00 -0.00000000000E+00 -0.50144090240E+03  0.50144090240E+03  0.00000000000E+00 0. -1.
        -24    2    1    2    0    0 -0.12823642309E+03 -0.57444745657E+02  0.13113492796E+04  0.13219552582E+04  0.90467080994E+02 0.  0.
    5000000    2    1    2    0    0  0.12823642309E+03  0.57444745657E+02 -0.30477908156E+03  0.68749674457E+03  0.60001417169E+03 0.  0.
        -24    2    4    4    0    0 -0.17329528218E+03 -0.12603753528E+03 -0.21648598245E+03  0.31497526626E+03  0.80165595070E+02 0.  0.
         24    2    4    4    0    0  0.30153170527E+03  0.18348228094E+03 -0.88293099113E+02  0.37252147832E+03  0.79934121354E+02 0.  0.
         11    1    5    5    0    0 -0.40630731601E+02 -0.76916749406E+02 -0.74277109781E+02  0.11438588955E+03  0.00000000000E+00 0. -1.
        -12    1    5    5    0    0 -0.13266455058E+03 -0.49120785876E+02 -0.14220887266E+03  0.20058937671E+03  0.00000000000E+00 0.  1.
         15    1    3    3    0    0 -0.87410746377E+02  0.68985665346E+01  0.82866226253E+03  0.83329018467E+03  0.17770000000E+01 0. -1.
        -16    1    3    3    0    0 -0.40825676708E+02 -0.64343312192E+02  0.48268701703E+03  0.48866507355E+03  0.00000000000E+00 0.  1.
          4    1    6    6  502    0  0.26881060861E+03  0.14279882479E+03 -0.97261949112E+02  0.31954738993E+03  0.00000000000E+00 0. -1.
         -3    1    6    6    0  502  0.32721096653E+02  0.40683456148E+02  0.89688499984E+01  0.52974088388E+02  0.00000000000E+00 0.  1.
<mgrwt>
<rscale>  0 0.37447652E+03</rscale>
<asrwt>0</asrwt>
<pdfrwt beam="1">  1        1 0.77144755E-01 0.37447652E+03</pdfrwt>
<pdfrwt beam="2">  1       -2 0.23200171E+00 0.37447652E+03</pdfrwt>
<totfact> 0.35529171E+00</totfact>
</mgrwt>
</event>
<event>
12    3  0.1092576E-007  0.1240551E+04  0.7818608E-02  0.9078084E-01
          1   -1    0    0  501    0  0.00000000000E+00  0.00000000000E+00  0.25832568131E+04  0.25832568131E+04  0.00000000000E+00 0. -1.
         -2   -1    0    0    0  501 -0.00000000000E+00 -0.00000000000E+00 -0.89488781363E+03  0.89488781363E+03  0.00000000000E+00 0.  1.
        -24    2    1    2    0    0 -0.95200250677E+03  0.73196688887E+03  0.17622013448E+04  0.21340020688E+04  0.80789544356E+02 0.  0.
    5000000    2    1    2    0    0  0.95200250677E+03 -0.73196688887E+03 -0.73832345372E+02  0.13441425580E+04  0.59931936529E+03 0.  0.
        -24    2    4    4    0    0  0.39763247201E+02  0.49098562888E+02 -0.10266474854E+03  0.14027546278E+03  0.71731235605E+02 0.  0.
         24    2    4    4    0    0  0.91223925956E+03 -0.78106545176E+03  0.28832403163E+02  0.12038670952E+04  0.78873118118E+02 0.  0.
         11    1    5    5    0    0 -0.16894544914E+01  0.33756486646E+02 -0.64710116697E+01  0.34412623253E+02  0.00000000000E+00 0. -1.
        -12    1    5    5    0    0  0.41452701692E+02  0.15342076243E+02 -0.96193736866E+02  0.10586283953E+03  0.00000000000E+00 0.  1.
         15    1    3    3    0    0 -0.71704095486E+03  0.53351694645E+03  0.13667275428E+04  0.16330142061E+04  0.17770000000E+01 0. -1.
        -16    1    3    3    0    0 -0.23496155190E+03  0.19844994242E+03  0.39547380201E+03  0.50098786273E+03  0.00000000000E+00 0.  1.
          2    1    6    6  502    0  0.37067554181E+03 -0.34699059083E+03  0.44006154499E+02  0.50964631761E+03  0.00000000000E+00 0. -1.
         -1    1    6    6    0  502  0.54156371775E+03 -0.43407486093E+03 -0.15173751336E+02  0.69422077757E+03  0.00000000000E+00 0.  1.
<mgrwt>
<rscale>  0 0.12405511E+04</rscale>
<asrwt>0</asrwt>
<pdfrwt beam="1">  1        1 0.39742412E+00 0.12405511E+04</pdfrwt>
<pdfrwt beam="2">  1       -2 0.13767505E+00 0.12405511E+04</pdfrwt>
<totfact> 0.38151254E-01</totfact>
</mgrwt>
</event>
<event>
12    3  0.1092576E-007  0.6632108E+03  0.7818608E-02  0.9782301E-01
          1   -1    0    0  501    0  0.00000000000E+00  0.00000000000E+00  0.25209584275E+03  0.25209584275E+03  0.00000000000E+00 0. -1.
         -2   -1    0    0    0  501 -0.00000000000E+00 -0.00000000000E+00 -0.18180508536E+04  0.18180508536E+04  0.00000000000E+00 0.  1.
        -24    2    1    2    0    0 -0.45148682484E+03 -0.29461458258E+03 -0.56639030313E+03  0.78572913322E+03  0.77033694141E+02 0.  0.
    5000000    2    1    2    0    0  0.45148682484E+03  0.29461458258E+03 -0.99956470774E+03  0.12844175631E+04  0.59996730434E+03 0.  0.
        -24    2    4    4    0    0 -0.85680813615E+02 -0.80392752621E+02 -0.12576553422E+03  0.18937889291E+03  0.79013916408E+02 0.  0.
         24    2    4    4    0    0  0.53716763846E+03  0.37500733520E+03 -0.87379917352E+03  0.10950386702E+04  0.80031996091E+02 0.  0.
         11    1    5    5    0    0 -0.77872789047E+02 -0.84804498497E+02 -0.13437038800E+03  0.17695020602E+03  0.00000000000E+00 0. -1.
        -12    1    5    5    0    0 -0.78080245679E+01  0.44117458761E+01  0.86048537766E+01  0.12428686891E+02  0.00000000000E+00 0.  1.
         15    1    3    3    0    0 -0.76064808045E+02 -0.24729056543E+02 -0.59948886258E+02  0.99972035856E+02  0.17770000000E+01 0. -1.
        -16    1    3    3    0    0 -0.37542201680E+03 -0.26988552604E+03 -0.50644141687E+03  0.68575709736E+03  0.00000000000E+00 0.  1.
          4    1    6    6  502    0  0.12165760766E+03  0.46400436843E+02 -0.16785722944E+03  0.21243734021E+03  0.00000000000E+00 0. -1.
         -3    1    6    6    0  502  0.41551003079E+03  0.32860689836E+03 -0.70594194408E+03  0.88260133002E+03  0.00000000000E+00 0.  1.
<mgrwt>
<rscale>  0 0.66321084E+03</rscale>
<asrwt>0</asrwt>
<pdfrwt beam="1">  1        1 0.38783977E-01 0.66321084E+03</pdfrwt>
<pdfrwt beam="2">  1       -2 0.27970012E+00 0.66321084E+03</pdfrwt>
<totfact> 0.42663934E+00</totfact>
</mgrwt>
</event>
<event>
12    3  0.1092576E-007  0.5508255E+03  0.7818608E-02  0.1001303E+00
          1   -1    0    0  501    0  0.00000000000E+00  0.00000000000E+00  0.64564148438E+03  0.64564148438E+03  0.00000000000E+00 0. -1.
         -2   -1    0    0    0  501 -0.00000000000E+00 -0.00000000000E+00 -0.53652011253E+03  0.53652011253E+03  0.00000000000E+00 0.  1.
        -24    2    1    2    0    0  0.22458756293E+03 -0.33215679181E+03  0.19893406088E+03  0.45469488413E+03  0.80031052125E+02 0.  0.
    5000000    2    1    2    0    0 -0.22458756293E+03  0.33215679181E+03 -0.89812689025E+02  0.72746671278E+03  0.60031141195E+03 0.  0.
        -24    2    4    4    0    0  0.16271719552E+03 -0.32497895690E+02 -0.23207923827E+02  0.18548349128E+03  0.79577125276E+02 0.  0.
         24    2    4    4    0    0 -0.38730475846E+03  0.36465468750E+03 -0.66604765198E+02  0.54198322149E+03  0.79571355358E+02 0.  0.
         13    1    5    5    0    0  0.10570073171E+03 -0.34709549223E+02  0.21105206869E+02  0.11323792319E+03  0.00000000000E+00 0. -1.
        -14    1    5    5    0    0  0.57016463812E+02  0.22116535335E+01 -0.44313130696E+02  0.72245568093E+02  0.00000000000E+00 0.  1.
         15    1    3    3    0    0  0.11541266880E+03 -0.15879679389E+03  0.53577441856E+02  0.20349497752E+03  0.17770000000E+01 0. -1.
        -16    1    3    3    0    0  0.10917489413E+03 -0.17335999792E+03  0.14535661902E+03  0.25119990661E+03  0.00000000000E+00 0.  1.
          4    1    6    6  502    0 -0.33792859415E+03  0.32455179019E+03 -0.32151135051E+02  0.46964166633E+03  0.00000000000E+00 0. -1.
         -3    1    6    6    0  502 -0.49376164302E+02  0.40102897309E+02 -0.34453630147E+02  0.72341555168E+02  0.00000000000E+00 0.  1.
<mgrwt>
<rscale>  0 0.55082553E+03</rscale>
<asrwt>0</asrwt>
<pdfrwt beam="1">  1        1 0.99329459E-01 0.55082553E+03</pdfrwt>
<pdfrwt beam="2">  1       -2 0.82541556E-01 0.55082553E+03</pdfrwt>
<totfact> 0.36012088E+01</totfact>
</mgrwt>
</event>
<event>
12    3  0.1092576E-007  0.1446436E+04  0.7818608E-02  0.8920875E-01
          1   -1    0    0  501    0  0.00000000000E+00  0.00000000000E+00  0.16910899638E+04  0.16910899638E+04  0.00000000000E+00 0. -1.
         -2   -1    0    0    0  501 -0.00000000000E+00 -0.00000000000E+00 -0.13770400713E+04  0.13770400713E+04  0.00000000000E+00 0.  1.
        -24    2    1    2    0    0  0.10340833472E+04  0.99804843164E+03 -0.13931605819E+03  0.14460922895E+04  0.79654910058E+02 0.  0.
    5000000    2    1    2    0    0 -0.10340833472E+04 -0.99804843164E+03  0.45336595071E+03  0.16220377456E+04  0.60003060080E+03 0.  0.
        -24    2    4    4    0    0 -0.58069007563E+03 -0.68491226462E+03 -0.40066965758E+01  0.90149236744E+03  0.79791357765E+02 0.  0.
         24    2    4    4    0    0 -0.45339327162E+03 -0.31313616702E+03  0.45737264729E+03  0.72054537815E+03  0.79851021512E+02 0.  0.
         11    1    5    5    0    0 -0.53192707713E+03 -0.65643837567E+03 -0.26745745051E+00  0.84490107585E+03  0.00000000000E+00 0. -1.
        -12    1    5    5    0    0 -0.48762998502E+02 -0.28473888946E+02 -0.37392391253E+01  0.56591291591E+02  0.00000000000E+00 0.  1.
         15    1    3    3    0    0  0.13072415883E+03  0.13146256345E+03 -0.44673484849E+02  0.19070943676E+03  0.17770000000E+01 0. -1.
        -16    1    3    3    0    0  0.90335918842E+03  0.86658586819E+03 -0.94642573344E+02  0.12553828527E+04  0.00000000000E+00 0.  1.
          2    1    6    6  502    0 -0.36926869813E+03 -0.28182452981E+03  0.35678850438E+03  0.58573242516E+03  0.00000000000E+00 0. -1.
         -1    1    6    6    0  502 -0.84124573484E+02 -0.31311637208E+02  0.10058414291E+03  0.13481295299E+03  0.00000000000E+00 0.  1.
<mgrwt>
<rscale>  0 0.14464355E+04</rscale>
<asrwt>0</asrwt>
<pdfrwt beam="1">  1        1 0.26016769E+00 0.14464355E+04</pdfrwt>
<pdfrwt beam="2">  1       -2 0.21185232E+00 0.14464355E+04</pdfrwt>
<totfact> 0.44735205E-01</totfact>
</mgrwt>
</event>
<event>
12    3  0.1092576E-007  0.7872636E+03  0.7818608E-02  0.9578638E-01
         -2   -1    0    0    0  501 -0.00000000000E+00  0.00000000000E+00  0.59190349977E+03  0.59190349977E+03  0.00000000000E+00 0.  1.
          1   -1    0    0  501    0  0.00000000000E+00 -0.00000000000E+00 -0.15043217589E+04  0.15043217589E+04  0.00000000000E+00 0. -1.
        -24    2    1    2    0    0  0.59684563031E+03  0.49885551876E+03 -0.78093056363E+03  0.11051452198E+04  0.80074194369E+02 0.  0.
    5000000    2    1    2    0    0 -0.59684563031E+03 -0.49885551876E+03 -0.13148769552E+03  0.99108003889E+03  0.59989090208E+03 0.  0.
        -24    2    4    4    0    0 -0.26895251286E+03 -0.15210325043E+03  0.22516863370E+03  0.39038890319E+03  0.78941301999E+02 0.  0.
         24    2    4    4    0    0 -0.32789311744E+03 -0.34675226833E+03 -0.35665632922E+03  0.60069113570E+03  0.76649013532E+02 0.  0.
         13    1    5    5    0    0 -0.47864834188E+02 -0.60827750890E+02  0.76129853502E+02  0.10856708629E+03  0.00000000000E+00 0. -1.
        -14    1    5    5    0    0 -0.22108767868E+03 -0.91275499538E+02  0.14903878020E+03  0.28182181690E+03  0.00000000000E+00 0.  1.
         15    1    3    3    0    0  0.46262529496E+03  0.34920345455E+03 -0.60735919453E+03  0.83955557596E+03  0.17770000000E+01 0. -1.
        -16    1    3    3    0    0  0.13422033535E+03  0.14965206421E+03 -0.17357136910E+03  0.26558964384E+03  0.00000000000E+00 0.  1.
          2    1    6    6  502    0 -0.95513862712E+02 -0.10570983737E+03 -0.64744501322E+02  0.15649063275E+03  0.00000000000E+00 0. -1.
         -1    1    6    6    0  502 -0.23237925473E+03 -0.24104243096E+03 -0.29191182790E+03  0.44420050295E+03  0.00000000000E+00 0.  1.
<mgrwt>
<rscale>  0 0.78726363E+03</rscale>
<asrwt>0</asrwt>
<pdfrwt beam="1">  1        1 0.23143412E+00 0.78726363E+03</pdfrwt>
<pdfrwt beam="2">  1       -2 0.91062077E-01 0.78726363E+03</pdfrwt>
<totfact> 0.60248190E+00</totfact>
</mgrwt>
</event>
<event>
12    3  0.1092576E-007  0.6902378E+03  0.7818608E-02  0.9734074E-01
         -2   -1    0    0    0  501 -0.00000000000E+00  0.00000000000E+00  0.68815306835E+03  0.68815306835E+03  0.00000000000E+00 0.  1.
          1   -1    0    0  501    0  0.00000000000E+00 -0.00000000000E+00 -0.99708950690E+03  0.99708950690E+03  0.00000000000E+00 0. -1.
        -24    2    1    2    0    0 -0.83846566480E+02 -0.64283591579E+03 -0.44644524039E+03  0.79127815810E+03  0.80867233648E+02 0.  0.
    5000000    2    1    2    0    0  0.83846566480E+02  0.64283591579E+03  0.13750880183E+03  0.89396441715E+03  0.59999620599E+03 0.  0.
        -24    2    4    4    0    0  0.19711907574E+03  0.28154754377E+03 -0.17805774843E+03  0.39498770939E+03  0.78649725817E+02 0.  0.
         24    2    4    4    0    0 -0.11327250926E+03  0.36128837202E+03  0.31556655026E+03  0.49897670776E+03  0.77688854611E+02 0.  0.
         11    1    5    5    0    0  0.17297302796E+03  0.20032211838E+03 -0.11132326983E+03  0.28712626129E+03  0.00000000000E+00 0. -1.
        -12    1    5    5    0    0  0.24146047775E+02  0.81225425386E+02 -0.66734478602E+02  0.10786144810E+03  0.00000000000E+00 0.  1.
         15    1    3    3    0    0 -0.35885357108E+02 -0.50842269291E+03 -0.33125475363E+03  0.60787684859E+03  0.17770000000E+01 0. -1.
        -16    1    3    3    0    0 -0.47961209372E+02 -0.13441322288E+03 -0.11519048676E+03  0.18340130951E+03  0.00000000000E+00 0.  1.
          2    1    6    6  502    0 -0.92749367211E+02  0.30237982310E+03  0.29704759234E+03  0.43390468383E+03  0.00000000000E+00 0. -1.
         -1    1    6    6    0  502 -0.20523142045E+02  0.58908548928E+02  0.18518957924E+02  0.65072023934E+02  0.00000000000E+00 0.  1.
<mgrwt>
<rscale>  0 0.69023782E+03</rscale>
<asrwt>0</asrwt>
<pdfrwt beam="1">  1        1 0.15339838E+00 0.69023782E+03</pdfrwt>
<pdfrwt beam="2">  1       -2 0.10586970E+00 0.69023782E+03</pdfrwt>
<totfact> 0.99149145E+00</totfact>
</mgrwt>
</event>
<event>
12    3  0.1092576E-007  0.1073632E+04  0.7818608E-02  0.9231280E-01
         -2   -1    0    0    0  501 -0.00000000000E+00  0.00000000000E+00  0.12136057451E+04  0.12136057451E+04  0.00000000000E+00 0.  1.
          1   -1    0    0  501    0  0.00000000000E+00 -0.00000000000E+00 -0.12828879994E+04  0.12828879994E+04  0.00000000000E+00 0. -1.
        -24    2    1    2    0    0 -0.96517998880E+03 -0.31195068139E+03  0.55906596399E+03  0.11609631180E+04  0.79968562043E+02 0.  0.
    5000000    2    1    2    0    0  0.96517998880E+03  0.31195068139E+03 -0.62834821835E+03  0.13355306265E+04  0.59994577460E+03 0.  0.
        -24    2    4    4    0    0  0.99882056008E+03  0.31387285015E+03 -0.45989843331E+03  0.11464031160E+04  0.81085499182E+02 0.  0.
         24    2    4    4    0    0 -0.33640571282E+02 -0.19221687600E+01 -0.16844978504E+03  0.18912751049E+03  0.79110696960E+02 0.  0.
         11    1    5    5    0    0  0.86625758665E+03  0.27938865125E+03 -0.42778700939E+03  0.10057146466E+04  0.00000000000E+00 0. -1.
        -12    1    5    5    0    0  0.13256297343E+03  0.34484198894E+02 -0.32111423913E+02  0.14068846947E+03  0.00000000000E+00 0.  1.
         15    1    3    3    0    0 -0.19064989138E+03 -0.29877897475E+02  0.96935014662E+02  0.21596209074E+03  0.17770000000E+01 0. -1.
        -16    1    3    3    0    0 -0.77453009742E+03 -0.28207278391E+03  0.46213094933E+03  0.94500102728E+03  0.00000000000E+00 0.  1.
          2    1    6    6  502    0 -0.37337741612E+02  0.31703688926E+02 -0.12358886209E+03  0.13294148214E+03  0.00000000000E+00 0. -1.
         -1    1    6    6    0  502  0.36971703304E+01 -0.33625857686E+02 -0.44860922946E+02  0.56186028344E+02  0.00000000000E+00 0.  1.
<mgrwt>
<rscale>  0 0.10736315E+04</rscale>
<asrwt>0</asrwt>
<pdfrwt beam="1">  1        1 0.19736738E+00 0.10736315E+04</pdfrwt>
<pdfrwt beam="2">  1       -2 0.18670858E+00 0.10736315E+04</pdfrwt>
<totfact> 0.13153584E+00</totfact>
</mgrwt>
</event>
<event>
12    3  0.1092576E-007  0.1037332E+04  0.7818608E-02  0.9268522E-01
          1   -1    0    0  501    0  0.00000000000E+00  0.00000000000E+00  0.18380308935E+04  0.18380308935E+04  0.00000000000E+00 0. -1.
         -2   -1    0    0    0  501 -0.00000000000E+00 -0.00000000000E+00 -0.65949039147E+03  0.65949039147E+03  0.00000000000E+00 0.  1.
        -24    2    1    2    0    0  0.72140866573E+03 -0.70621291300E+03  0.40382564769E+03  0.10906100692E+04  0.84782237979E+02 0.  0.
    5000000    2    1    2    0    0 -0.72140866573E+03  0.70621291300E+03  0.77471485433E+03  0.14069112158E+04  0.60004076696E+03 0.  0.
        -24    2    4    4    0    0 -0.67083024365E+02  0.23874950977E+03  0.48297272984E+03  0.54776609704E+03  0.72688229625E+02 0.  0.
         24    2    4    4    0    0 -0.65432564136E+03  0.46746340323E+03  0.29174212449E+03  0.85914511871E+03  0.79704388214E+02 0.  0.
         11    1    5    5    0    0 -0.21906675038E+02  0.17191211509E+03  0.37381063948E+03  0.41202921246E+03  0.00000000000E+00 0. -1.
        -12    1    5    5    0    0 -0.45176349327E+02  0.66837394677E+02  0.10916209036E+03  0.13573688458E+03  0.00000000000E+00 0.  1.
         15    1    3    3    0    0  0.22332566152E+03 -0.16779855784E+03  0.12283788500E+03  0.30516063119E+03  0.17770000000E+01 0. -1.
        -16    1    3    3    0    0  0.49808300420E+03 -0.53841435516E+03  0.28098776269E+03  0.78544943803E+03  0.00000000000E+00 0.  1.
          2    1    6    6  502    0 -0.21735798364E+03  0.11161375423E+03  0.79035887058E+02  0.25680497392E+03  0.00000000000E+00 0. -1.
         -3    1    6    6    0  502 -0.43696765772E+03  0.35584964900E+03  0.21270623744E+03  0.60234014479E+03  0.00000000000E+00 0.  1.
<mgrwt>
<rscale>  0 0.10373315E+04</rscale>
<asrwt>0</asrwt>
<pdfrwt beam="1">  1        1 0.28277398E+00 0.10373315E+04</pdfrwt>
<pdfrwt beam="2">  1       -2 0.10146006E+00 0.10373315E+04</pdfrwt>
<totfact> 0.26865375E+00</totfact>
</mgrwt>
</event>
<event>
12    3  0.1092576E-007  0.1682087E+04  0.7818608E-02  0.8771647E-01
          3   -1    0    0  501    0  0.00000000000E+00  0.00000000000E+00  0.27065136282E+04  0.27065136282E+04  0.00000000000E+00 0. -1.
         -4   -1    0    0    0  501 -0.00000000000E+00 -0.00000000000E+00 -0.12685542831E+04  0.12685542831E+04  0.00000000000E+00 0.  1.
        -24    2    1    2    0    0  0.70936394969E+03 -0.15125022828E+04  0.14292733925E+04  0.22000028670E+04  0.79560137878E+02 0.  0.
    5000000    2    1    2    0    0 -0.70936394969E+03  0.15125022828E+04  0.86859525391E+01  0.17750650443E+04  0.59993341064E+03 0.  0.
        -24    2    4    4    0    0 -0.36313812468E+03  0.52186836694E+03 -0.25571170773E+03  0.68989414866E+03  0.79684182132E+02 0.  0.
         24    2    4    4    0    0 -0.34622582502E+03  0.99063391586E+03  0.26439766027E+03  0.10851708957E+04  0.80385775306E+02 0.  0.
         13    1    5    5    0    0 -0.21499257514E+03  0.24188375252E+03 -0.11747388695E+03  0.34428138378E+03  0.00000000000E+00 0. -1.
        -14    1    5    5    0    0 -0.14814554953E+03  0.27998461442E+03 -0.13823782078E+03  0.34561276488E+03  0.00000000000E+00 0.  1.
         15    1    3    3    0    0  0.18201976628E+03 -0.33889333765E+03  0.29513146514E+03  0.48485629733E+03  0.17770000000E+01 0. -1.
        -16    1    3    3    0    0  0.52734418342E+03 -0.11736089451E+04  0.11341419274E+04  0.17151465696E+04  0.00000000000E+00 0.  1.
          4    1    6    6  502    0 -0.31773629504E+03  0.81886093577E+03  0.21953209628E+03  0.90536397466E+03  0.00000000000E+00 0. -1.
         -3    1    6    6    0  502 -0.28489529975E+02  0.17177298009E+03  0.44865563985E+02  0.17980692100E+03  0.00000000000E+00 0.  1.
<mgrwt>
<rscale>  0 0.16820874E+04</rscale>
<asrwt>0</asrwt>
<pdfrwt beam="1">  1        3 0.41638671E+00 0.16820874E+04</pdfrwt>
<pdfrwt beam="2">  1       -4 0.19516220E+00 0.16820874E+04</pdfrwt>
<totfact> 0.26563663E-03</totfact>
</mgrwt>
</event>
<event>
12    3  0.1092576E-007  0.6611100E+03  0.7818608E-02  0.9786152E-01
          1   -1    0    0  501    0  0.00000000000E+00  0.00000000000E+00  0.16437709344E+04  0.16437709344E+04  0.00000000000E+00 0. -1.
         -2   -1    0    0    0  501 -0.00000000000E+00 -0.00000000000E+00 -0.38019503922E+03  0.38019503922E+03  0.00000000000E+00 0.  1.
        -24    2    1    2    0    0 -0.35348940735E+02  0.64360790393E+03  0.28916171409E+03  0.71058199018E+03  0.76364823493E+02 0.  0.
    5000000    2    1    2    0    0  0.35348940735E+02 -0.64360790393E+03  0.97441418104E+03  0.13133839834E+04  0.60001150824E+03 0.  0.
        -24    2    4    4    0    0  0.87094617521E+02 -0.48752665184E+03  0.10094740999E+04  0.11272061478E+04  0.79297116084E+02 0.  0.
         24    2    4    4    0    0 -0.51745676786E+02 -0.15608125209E+03 -0.35059918900E+02  0.18617783556E+03  0.79962592636E+02 0.  0.
         13    1    5    5    0    0  0.46693019554E+02 -0.40980493604E+03  0.79748028000E+03  0.89782800172E+03  0.00000000000E+00 0. -1.
        -14    1    5    5    0    0  0.40401597966E+02 -0.77721715797E+02  0.21199381994E+03  0.22937814612E+03  0.00000000000E+00 0.  1.
         15    1    3    3    0    0  0.10973740766E+02  0.19646008189E+03  0.58315344704E+02  0.20523358380E+03  0.17770000000E+01 0. -1.
        -16    1    3    3    0    0 -0.46322681501E+02  0.44714782204E+03  0.23084636938E+03  0.50534840638E+03  0.00000000000E+00 0.  1.
          2    1    6    6  502    0 -0.44493997999E+02 -0.40876415983E+02 -0.36775709826E+02  0.70732242116E+02  0.00000000000E+00 0. -1.
         -1    1    6    6    0  502 -0.72516787864E+01 -0.11520483610E+03  0.17157909252E+01  0.11544559344E+03  0.00000000000E+00 0.  1.
<mgrwt>
<rscale>  0 0.66111003E+03</rscale>
<asrwt>0</asrwt>
<pdfrwt beam="1">  1        1 0.25288783E+00 0.66111003E+03</pdfrwt>
<pdfrwt beam="2">  1       -2 0.58491545E-01 0.66111003E+03</pdfrwt>
<totfact> 0.13083288E+01</totfact>
</mgrwt>
</event>
<event>
12    3  0.1092576E-007  0.6349644E+03  0.7818608E-02  0.9835409E-01
          1   -1    0    0  501    0  0.00000000000E+00  0.00000000000E+00  0.72632094248E+03  0.72632094248E+03  0.00000000000E+00 0. -1.
         -2   -1    0    0    0  501 -0.00000000000E+00 -0.00000000000E+00 -0.72819364412E+03  0.72819364412E+03  0.00000000000E+00 0.  1.
        -24    2    1    2    0    0  0.59501257972E+03 -0.67948002709E+02  0.42532403344E+02  0.60560936957E+03  0.79352391810E+02 0.  0.
    5000000    2    1    2    0    0 -0.59501257972E+03  0.67948002709E+02 -0.44405104980E+02  0.84890521702E+03  0.60000946080E+03 0.  0.
        -24    2    4    4    0    0 -0.26934905043E+03 -0.10880346748E+03  0.23170238548E+03  0.37996907338E+03  0.79393927914E+02 0.  0.
         24    2    4    4    0    0 -0.32566352929E+03  0.17675147019E+03 -0.27610749046E+03  0.46893614364E+03  0.79799398519E+02 0.  0.
         11    1    5    5    0    0 -0.12881547419E+03 -0.24650043881E+02  0.14165288503E+03  0.19304556688E+03  0.00000000000E+00 0. -1.
        -12    1    5    5    0    0 -0.14053357623E+03 -0.84153423596E+02  0.90049500449E+02  0.18692350650E+03  0.00000000000E+00 0.  1.
         15    1    3    3    0    0  0.27458034470E+03 -0.79775717543E+01 -0.12570140733E+02  0.27498940618E+03  0.17770000000E+01 0. -1.
        -16    1    3    3    0    0  0.32043223502E+03 -0.59970430955E+02  0.55102544077E+02  0.33061996339E+03  0.00000000000E+00 0.  1.
          2    1    6    6  502    0 -0.25072258900E+03  0.16018511909E+03 -0.24755858145E+03  0.38704824023E+03  0.00000000000E+00 0. -1.
         -1    1    6    6    0  502 -0.74940940289E+02  0.16566351093E+02 -0.28548909008E+02  0.81887903414E+02  0.00000000000E+00 0.  1.
<mgrwt>
<rscale>  0 0.63496442E+03</rscale>
<asrwt>0</asrwt>
<pdfrwt beam="1">  1        1 0.11174168E+00 0.63496442E+03</pdfrwt>
<pdfrwt beam="2">  1       -2 0.11202979E+00 0.63496442E+03</pdfrwt>
<totfact> 0.14648694E+01</totfact>
</mgrwt>
</event>
<event>
12    3  0.1092576E-007  0.2274465E+04  0.7818608E-02  0.8488058E-01
          1   -1    0    0  501    0  0.00000000000E+00  0.00000000000E+00  0.29758002691E+04  0.29758002691E+04  0.00000000000E+00 0. -1.
         -2   -1    0    0    0  501 -0.00000000000E+00 -0.00000000000E+00 -0.17483318246E+04  0.17483318246E+04  0.00000000000E+00 0.  1.
        -24    2    1    2    0    0 -0.21499807317E+04 -0.62566247349E+03  0.67495436720E+03  0.23410937979E+04  0.10623603490E+03 0.  0.
    5000000    2    1    2    0    0  0.21499807317E+04  0.62566247349E+03  0.55251407729E+03  0.23830382958E+04  0.59977415411E+03 0.  0.
        -24    2    4    4    0    0  0.14919106185E+04  0.16592300536E+03  0.26258749183E+03  0.15259887267E+04  0.79760050478E+02 0.  0.
         24    2    4    4    0    0  0.65807011319E+03  0.45973946813E+03  0.28992658546E+03  0.85704956909E+03  0.77845272760E+02 0.  0.
         13    1    5    5    0    0  0.13016423853E+04  0.16138567112E+03  0.25023318776E+03  0.13352658471E+04  0.00000000000E+00 0. -1.
        -14    1    5    5    0    0  0.19026823319E+03  0.45373342400E+01  0.12354304073E+02  0.19072287957E+03  0.00000000000E+00 0.  1.
         15    1    3    3    0    0 -0.22485596725E+03 -0.32236399533E+02  0.66099291521E+02  0.23658331625E+03  0.17770000000E+01 0. -1.
        -16    1    3    3    0    0 -0.19251247645E+04 -0.59342607395E+03  0.60885507568E+03  0.21045104816E+04  0.00000000000E+00 0.  1.
          2    1    6    6  502    0  0.42672147011E+03  0.26007160875E+03  0.15716185217E+03  0.52385904833E+03  0.00000000000E+00 0. -1.
         -3    1    6    6    0  502  0.23134864308E+03  0.19966785937E+03  0.13276473330E+03  0.33319052076E+03  0.00000000000E+00 0.  1.
<mgrwt>
<rscale>  0 0.22744654E+04</rscale>
<asrwt>0</asrwt>
<pdfrwt beam="1">  1        1 0.45781543E+00 0.22744654E+04</pdfrwt>
<pdfrwt beam="2">  1       -2 0.26897413E+00 0.22744654E+04</pdfrwt>
<totfact> 0.23168529E-02</totfact>
</mgrwt>
</event>
<event>
12    3  0.1092576E-007  0.4528258E+03  0.7818608E-02  0.1026883E+00
          1   -1    0    0  501    0  0.00000000000E+00  0.00000000000E+00  0.15320229744E+04  0.15320229744E+04  0.00000000000E+00 0. -1.
         -2   -1    0    0    0  501 -0.00000000000E+00 -0.00000000000E+00 -0.85150261942E+03  0.85150261942E+03  0.00000000000E+00 0.  1.
        -24    2    1    2    0    0 -0.11816772974E+03 -0.28740845591E+03 -0.74216201934E+03  0.80853111876E+03  0.79692372110E+02 0.  0.
    5000000    2    1    2    0    0  0.11816772974E+03  0.28740845591E+03  0.14226823744E+04  0.15749944751E+04  0.60001268769E+03 0.  0.
        -24    2    4    4    0    0  0.22411860884E+03  0.38322681575E+03  0.12825371076E+04  0.13595223020E+04  0.79419859098E+02 0.  0.
         24    2    4    4    0    0 -0.10595087910E+03 -0.95818359835E+02  0.14014526676E+03  0.21547217313E+03  0.79880002104E+02 0.  0.
         11    1    5    5    0    0  0.19145493964E+03  0.34917266019E+03  0.12012167311E+04  0.12655031314E+04  0.00000000000E+00 0. -1.
        -12    1    5    5    0    0  0.32663669203E+02  0.34054155562E+02  0.81320376496E+02  0.94019170547E+02  0.00000000000E+00 0.  1.
         15    1    3    3    0    0  0.16244804007E+01 -0.37833664976E+02 -0.15214018897E+03  0.15679228288E+03  0.17770000000E+01 0. -1.
        -16    1    3    3    0    0 -0.11979221014E+03 -0.24957479094E+03 -0.59002183037E+03  0.65173883588E+03  0.00000000000E+00 0.  1.
          2    1    6    6  502    0 -0.87339926665E+02 -0.91305165371E+02  0.14815238084E+03  0.19471523813E+03  0.00000000000E+00 0. -1.
         -1    1    6    6    0  502 -0.18610952437E+02 -0.45131944643E+01 -0.80071140763E+01  0.20756935003E+02  0.00000000000E+00 0.  1.
<mgrwt>
<rscale>  0 0.45282582E+03</rscale>
<asrwt>0</asrwt>
<pdfrwt beam="1">  1        1 0.23569584E+00 0.45282582E+03</pdfrwt>
<pdfrwt beam="2">  1       -2 0.13100040E+00 0.45282582E+03</pdfrwt>
<totfact> 0.25599267E+00</totfact>
</mgrwt>
</event>
<event>
12    3  0.1092576E-007  0.5462641E+03  0.7818608E-02  0.1002362E+00
         -2   -1    0    0    0  501 -0.00000000000E+00  0.00000000000E+00  0.30494088813E+03  0.30494088813E+03  0.00000000000E+00 0.  1.
          1   -1    0    0  501    0  0.00000000000E+00 -0.00000000000E+00 -0.13238505252E+04  0.13238505252E+04  0.00000000000E+00 0. -1.
        -24    2    1    2    0    0 -0.33288004122E+03  0.35894757961E+03 -0.41671988111E+03  0.64780907256E+03  0.79678406267E+02 0.  0.
    5000000    2    1    2    0    0  0.33288004122E+03 -0.35894757961E+03 -0.60218975593E+03  0.98098234075E+03  0.60003446898E+03 0.  0.
        -24    2    4    4    0    0  0.29976682541E+03 -0.79172672637E+02 -0.11159958980E+02  0.32072131443E+03  0.81296710512E+02 0.  0.
         24    2    4    4    0    0  0.33113215811E+02 -0.27977490698E+03 -0.59102979695E+03  0.66026102632E+03  0.85193417308E+02 0.  0.
         11    1    5    5    0    0  0.25107630263E+02  0.54920109067E+01  0.18667876187E+02  0.31765466824E+02  0.00000000000E+00 0. -1.
        -12    1    5    5    0    0  0.27465919515E+03 -0.84664683544E+02 -0.29827835167E+02  0.28895584761E+03  0.00000000000E+00 0.  1.
         15    1    3    3    0    0 -0.11819617118E+03  0.17623053554E+03 -0.15137915122E+03  0.26066519080E+03  0.17770000000E+01 0. -1.
        -16    1    3    3    0    0 -0.21468387004E+03  0.18271704407E+03 -0.26534072989E+03  0.38714388176E+03  0.00000000000E+00 0.  1.
          4    1    6    6  502    0 -0.10644763039E+02 -0.85249702769E+02 -0.11020720112E+03  0.13973707447E+03  0.00000000000E+00 0. -1.
         -3    1    6    6    0  502  0.43757978850E+02 -0.19452520421E+03 -0.48082259583E+03  0.52052395185E+03  0.00000000000E+00 0.  1.
<mgrwt>
<rscale>  0 0.54626411E+03</rscale>
<asrwt>0</asrwt>
<pdfrwt beam="1">  1        1 0.20366931E+00 0.54626411E+03</pdfrwt>
<pdfrwt beam="2">  1       -2 0.46913984E-01 0.54626411E+03</pdfrwt>
<totfact> 0.34585015E+01</totfact>
</mgrwt>
</event>
<event>
12    3  0.1092576E-007  0.5977789E+03  0.7818608E-02  0.9910025E-01
          1   -1    0    0  501    0  0.00000000000E+00  0.00000000000E+00  0.84757922841E+03  0.84757922841E+03  0.00000000000E+00 0. -1.
         -2   -1    0    0    0  501 -0.00000000000E+00 -0.00000000000E+00 -0.11490077234E+04  0.11490077234E+04  0.00000000000E+00 0.  1.
        -24    2    1    2    0    0  0.10965688274E+03  0.56230148326E+03  0.55681740083E+03  0.80292870150E+03  0.80257658980E+02 0.  0.
    5000000    2    1    2    0    0 -0.10965688274E+03 -0.56230148326E+03 -0.85824589585E+03  0.11936582503E+04  0.60002200865E+03 0.  0.
        -24    2    4    4    0    0 -0.16030839944E+03 -0.24881506906E+03 -0.36424568348E+02  0.30904430140E+03  0.81079649277E+02 0.  0.
         24    2    4    4    0    0  0.50651516694E+02 -0.31348641420E+03 -0.82182132750E+03  0.88461394895E+03  0.79449583402E+02 0.  0.
         13    1    5    5    0    0 -0.79009414558E+02 -0.18359843164E+03 -0.40887367988E+01  0.19991895723E+03  0.00000000000E+00 0. -1.
        -14    1    5    5    0    0 -0.81298984880E+02 -0.65216637414E+02 -0.32335831549E+02  0.10912534417E+03  0.00000000000E+00 0.  1.
         15    1    3    3    0    0  0.59661780987E+02  0.34516618069E+03  0.39248289172E+03  0.52606577385E+03  0.17770000000E+01 0. -1.
        -16    1    3    3    0    0  0.49995101756E+02  0.21713530257E+03  0.16433450911E+03  0.27686292765E+03  0.00000000000E+00 0.  1.
          4    1    6    6  502    0  0.20654090413E+02 -0.68831242708E+02 -0.28479780031E+03  0.29372456228E+03  0.00000000000E+00 0. -1.
         -3    1    6    6    0  502  0.29997426281E+02 -0.24465517149E+03 -0.53702352720E+03  0.59088938667E+03  0.00000000000E+00 0.  1.
<mgrwt>
<rscale>  0 0.59777890E+03</rscale>
<asrwt>0</asrwt>
<pdfrwt beam="1">  1        1 0.13039681E+00 0.59777890E+03</pdfrwt>
<pdfrwt beam="2">  1       -2 0.17677042E+00 0.59777890E+03</pdfrwt>
<totfact> 0.35390443E+00</totfact>
</mgrwt>
</event>
<event>
12    3  0.1205637E-007  0.1882380E+04  0.7818608E-02  0.8663677E-01
          1   -1    0    0  501    0  0.00000000000E+00  0.00000000000E+00  0.33584687390E+04  0.33584687390E+04  0.00000000000E+00 0. -1.
         -2   -1    0    0    0  501 -0.00000000000E+00 -0.00000000000E+00 -0.12372609504E+04  0.12372609504E+04  0.00000000000E+00 0.  1.
        -24    2    1    2    0    0  0.74001573232E+03 -0.17068102102E+04  0.18458570968E+04  0.26218705420E+04  0.78691418240E+02 0.  0.
    5000000    2    1    2    0    0 -0.74001573232E+03  0.17068102102E+04  0.27535069184E+03  0.19738591474E+04  0.59956446910E+03 0.  0.
        -24    2    4    4    0    0 -0.23729568332E+03  0.10307754665E+04  0.36768318417E+03  0.11227921623E+04  0.81633400612E+02 0.  0.
         24    2    4    4    0    0 -0.50272004900E+03  0.67603474373E+03 -0.92332492324E+02  0.85106698516E+03  0.77712944222E+02 0.  0.
         11    1    5    5    0    0 -0.67966863552E+02  0.38815543182E+03  0.10160107588E+03  0.40694829206E+03  0.00000000000E+00 0. -1.
        -12    1    5    5    0    0 -0.16932881977E+03  0.64262003468E+03  0.26608210829E+03  0.71584387022E+03  0.00000000000E+00 0.  1.
         15    1    3    3    0    0  0.36115964567E+03 -0.73941524129E+03  0.79921623589E+03  0.11471359720E+04  0.17770000000E+01 0. -1.
        -16    1    3    3    0    0  0.37885608665E+03 -0.96739496893E+03  0.10466408609E+04  0.14747345700E+04  0.00000000000E+00 0.  1.
          4    1    6    6  502    0 -0.26278816106E+03  0.39962037810E+03 -0.79307971621E+02  0.48481317902E+03  0.00000000000E+00 0. -1.
         -3    1    6    6    0  502 -0.23993188794E+03  0.27641436563E+03 -0.13024520703E+02  0.36625380615E+03  0.00000000000E+00 0.  1.
<mgrwt>
<rscale>  0 0.18823804E+04</rscale>
<asrwt>0</asrwt>
<pdfrwt beam="1">  1        1 0.51668750E+00 0.18823804E+04</pdfrwt>
<pdfrwt beam="2">  1       -2 0.19034784E+00 0.18823804E+04</pdfrwt>
<totfact> 0.39432032E-02</totfact>
</mgrwt>
</event>
<event>
12    3  0.1289169E-007  0.5415199E+03  0.7818608E-02  0.1003476E+00
         -2   -1    0    0    0  501 -0.00000000000E+00  0.00000000000E+00  0.40995954621E+03  0.40995954621E+03  0.00000000000E+00 0.  1.
          1   -1    0    0  501    0  0.00000000000E+00 -0.00000000000E+00 -0.72190476283E+03  0.72190476283E+03  0.00000000000E+00 0. -1.
        -24    2    1    2    0    0 -0.27651238989E+03 -0.25059286421E+03 -0.11651565906E+03  0.39885270358E+03  0.79067660855E+02 0.  0.
    5000000    2    1    2    0    0  0.27651238989E+03  0.25059286421E+03 -0.19542955756E+03  0.73301160545E+03  0.59988116857E+03 0.  0.
        -24    2    4    4    0    0  0.35500884186E+03 -0.65719233470E+02 -0.85325205647E+02  0.37977546438E+03  0.81232488427E+02 0.  0.
         24    2    4    4    0    0 -0.78496451974E+02  0.31631209768E+03 -0.11010435191E+03  0.35323614108E+03  0.80235696164E+02 0.  0.
         13    1    5    5    0    0  0.10259064793E+03  0.15406599886E+02 -0.10420394108E+02  0.10426307580E+03  0.00000000000E+00 0. -1.
        -14    1    5    5    0    0  0.25241819393E+03 -0.81125833356E+02 -0.74904811539E+02  0.27551238858E+03  0.00000000000E+00 0.  1.
         15    1    3    3    0    0 -0.96770344163E+02 -0.14067124562E+03 -0.50468485921E+02  0.17805371284E+03  0.17770000000E+01 0. -1.
        -16    1    3    3    0    0 -0.17974204573E+03 -0.10992161859E+03 -0.66047173144E+02  0.22079899075E+03  0.00000000000E+00 0.  1.
          4    1    6    6  502    0  0.54909100157E+01  0.10769211214E+03 -0.14252290358E+02  0.10876979770E+03  0.00000000000E+00 0. -1.
         -3    1    6    6    0  502 -0.83987361990E+02  0.20861998554E+03 -0.95852061555E+02  0.24446634338E+03  0.00000000000E+00 0.  1.
<mgrwt>
<rscale>  0 0.54151991E+03</rscale>
<asrwt>0</asrwt>
<pdfrwt beam="1">  1        1 0.11106227E+00 0.54151991E+03</pdfrwt>
<pdfrwt beam="2">  1       -2 0.63070700E-01 0.54151991E+03</pdfrwt>
<totfact> 0.55017709E+01</totfact>
</mgrwt>
</event>
<event>
12    3  0.1092576E-007  0.5789900E+03  0.7818608E-02  0.9949980E-01
         -2   -1    0    0    0  501 -0.00000000000E+00  0.00000000000E+00  0.11219220671E+04  0.11219220671E+04  0.00000000000E+00 0.  1.
          1   -1    0    0  501    0  0.00000000000E+00 -0.00000000000E+00 -0.61234261124E+03  0.61234261124E+03  0.00000000000E+00 0. -1.
        -24    2    1    2    0    0  0.40585561752E+03 -0.15168154858E+03  0.82070202343E+03  0.93135704646E+03  0.78409580306E+02 0.  0.
    5000000    2    1    2    0    0 -0.40585561752E+03  0.15168154858E+03 -0.31112256758E+03  0.80290763186E+03  0.60011443807E+03 0.  0.
        -24    2    4    4    0    0 -0.37047193510E+03 -0.15837707795E+03 -0.11908728163E+03  0.42801147533E+03  0.81726916342E+02 0.  0.
         24    2    4    4    0    0 -0.35383682424E+02  0.31005862653E+03 -0.19203528596E+03  0.37489615653E+03  0.79254149809E+02 0.  0.
         13    1    5    5    0    0 -0.22325245362E+03 -0.84120709866E+02 -0.11044296185E+03  0.26289845891E+03  0.00000000000E+00 0. -1.
        -14    1    5    5    0    0 -0.14721948147E+03 -0.74256368082E+02 -0.86443197823E+01  0.16511301642E+03  0.00000000000E+00 0.  1.
         15    1    3    3    0    0  0.26609032877E+03 -0.10146298492E+03  0.45660325301E+03  0.53813426648E+03  0.17770000000E+01 0. -1.
        -16    1    3    3    0    0  0.13976528875E+03 -0.50218563660E+02  0.36409877042E+03  0.39322277998E+03  0.00000000000E+00 0.  1.
          4    1    6    6  502    0 -0.32689028016E+02  0.42348681391E+02 -0.41870537868E+02  0.67934713582E+02  0.00000000000E+00 0. -1.
         -1    1    6    6    0  502 -0.26946544077E+01  0.26770994514E+03 -0.15016474809E+03  0.30696144295E+03  0.00000000000E+00 0.  1.
<mgrwt>
<rscale>  0 0.57898996E+03</rscale>
<asrwt>0</asrwt>
<pdfrwt beam="1">  1        1 0.94206556E-01 0.57898996E+03</pdfrwt>
<pdfrwt beam="2">  1       -2 0.17260339E+00 0.57898996E+03</pdfrwt>
<totfact> 0.62245356E+00</totfact>
</mgrwt>
</event>
<event>
12    3  0.1092576E-007  0.1304306E+04  0.7818608E-02  0.9026157E-01
          1   -1    0    0  501    0  0.00000000000E+00  0.00000000000E+00  0.19038519095E+04  0.19038519095E+04  0.00000000000E+00 0. -1.
         -2   -1    0    0    0  501 -0.00000000000E+00 -0.00000000000E+00 -0.90663522445E+03  0.90663522445E+03  0.00000000000E+00 0.  1.
        -24    2    1    2    0    0  0.33512861940E+03 -0.11942903674E+04  0.37289196304E+03  0.12976912125E+04  0.79456867037E+02 0.  0.
    5000000    2    1    2    0    0 -0.33512861940E+03  0.11942903674E+04  0.62432472203E+03  0.15127959215E+04  0.60010788057E+03 0.  0.
        -24    2    4    4    0    0 -0.30972168603E+03  0.21300018592E+03  0.25352222346E+03  0.46031262898E+03  0.79483310300E+02 0.  0.
         24    2    4    4    0    0 -0.25406933374E+02  0.98129018146E+03  0.37080249857E+03  0.10524832925E+04  0.81551551301E+02 0.  0.
         13    1    5    5    0    0 -0.21583408579E+02  0.46775947774E+02  0.31660909308E+02  0.60466899989E+02  0.00000000000E+00 0. -1.
        -14    1    5    5    0    0 -0.28813827745E+03  0.16622423815E+03  0.22186131415E+03  0.39984572900E+03  0.00000000000E+00 0.  1.
         15    1    3    3    0    0  0.23322423553E+03 -0.78022598001E+03  0.28121032781E+03  0.86152685978E+03  0.17770000000E+01 0. -1.
        -16    1    3    3    0    0  0.10190438387E+03 -0.41406438737E+03  0.91681635228E+02  0.43616435271E+03  0.00000000000E+00 0.  1.
          2    1    6    6  502    0  0.19386302555E+02  0.48358380967E+03  0.20957543372E+03  0.52740022006E+03  0.00000000000E+00 0. -1.
         -1    1    6    6    0  502 -0.44793235929E+02  0.49770637179E+03  0.16122706485E+03  0.52508307243E+03  0.00000000000E+00 0.  1.
<mgrwt>
<rscale>  0 0.13043062E+04</rscale>
<asrwt>0</asrwt>
<pdfrwt beam="1">  1        1 0.29290029E+00 0.13043062E+04</pdfrwt>
<pdfrwt beam="2">  1       -2 0.13948234E+00 0.13043062E+04</pdfrwt>
<totfact> 0.10650427E+00</totfact>
</mgrwt>
</event>
<event>
12    3  0.1092576E-007  0.6664918E+03  0.7818608E-02  0.9776316E-01
          1   -1    0    0  501    0  0.00000000000E+00  0.00000000000E+00  0.82242188960E+03  0.82242188960E+03  0.00000000000E+00 0. -1.
         -2   -1    0    0    0  501 -0.00000000000E+00 -0.00000000000E+00 -0.60105290152E+03  0.60105290152E+03  0.00000000000E+00 0.  1.
        -24    2    1    2    0    0  0.29197582876E+03  0.48985813207E+03  0.47794653773E+02  0.57774519456E+03  0.79336667209E+02 0.  0.
    5000000    2    1    2    0    0 -0.29197582876E+03 -0.48985813207E+03  0.17357433431E+03  0.84572959657E+03  0.59993301863E+03 0.  0.
        -24    2    4    4    0    0 -0.22144243020E+03  0.26686435322E+02  0.21011464263E+03  0.31672860477E+03  0.80124467605E+02 0.  0.
         24    2    4    4    0    0 -0.70533398559E+02 -0.51654456740E+03 -0.36540308313E+02  0.52900099180E+03  0.81936589947E+02 0.  0.
         11    1    5    5    0    0 -0.19051393680E+02  0.21938516593E+02  0.68621436397E+01  0.29855370149E+02  0.00000000000E+00 0. -1.
        -12    1    5    5    0    0 -0.20239103653E+03  0.47479187294E+01  0.20325249899E+03  0.28687323462E+03  0.00000000000E+00 0.  1.
         15    1    3    3    0    0  0.97662124225E+02  0.22760999095E+03  0.42540426423E+02  0.25131065257E+03  0.17770000000E+01 0. -1.
        -16    1    3    3    0    0  0.19431370454E+03  0.26224814113E+03  0.52542273498E+01  0.32643454199E+03  0.00000000000E+00 0.  1.
          2    1    6    6  502    0  0.91271246121E+01 -0.22464602543E+03 -0.24871301257E+02  0.22620283546E+03  0.00000000000E+00 0. -1.
         -1    1    6    6    0  502 -0.79660523171E+02 -0.29189854196E+03 -0.11669007057E+02  0.30279815633E+03  0.00000000000E+00 0.  1.
<mgrwt>
<rscale>  0 0.66649180E+03</rscale>
<asrwt>0</asrwt>
<pdfrwt beam="1">  1        1 0.12652644E+00 0.66649180E+03</pdfrwt>
<pdfrwt beam="2">  1       -2 0.92469677E-01 0.66649180E+03</pdfrwt>
<totfact> 0.18946541E+01</totfact>
</mgrwt>
</event>
<event>
12    3  0.1092576E-007  0.5891960E+03  0.7818608E-02  0.9928078E-01
          1   -1    0    0  501    0  0.00000000000E+00  0.00000000000E+00  0.44236679009E+03  0.44236679009E+03  0.00000000000E+00 0. -1.
         -2   -1    0    0    0  501 -0.00000000000E+00 -0.00000000000E+00 -0.12135035993E+04  0.12135035993E+04  0.00000000000E+00 0.  1.
        -24    2    1    2    0    0  0.52913522679E+03 -0.63031577792E+02 -0.65000414149E+03  0.84429784681E+03  0.79852377242E+02 0.  0.
    5000000    2    1    2    0    0 -0.52913522679E+03  0.63031577792E+02 -0.12113266769E+03  0.81157254255E+03  0.60001650028E+03 0.  0.
        -24    2    4    4    0    0 -0.55469501071E+03 -0.15010136604E+02  0.93574721623E+02  0.56843507331E+03  0.80314039438E+02 0.  0.
         24    2    4    4    0    0  0.25559783929E+02  0.78041714397E+02 -0.21470738932E+03  0.24313746924E+03  0.79200720827E+02 0.  0.
         13    1    5    5    0    0 -0.31691968669E+03  0.21380109041E+02  0.26657149156E+02  0.31875664774E+03  0.00000000000E+00 0. -1.
        -14    1    5    5    0    0 -0.23777532402E+03 -0.36390245645E+02  0.66917572467E+02  0.24967842557E+03  0.00000000000E+00 0.  1.
         15    1    3    3    0    0  0.42745617120E+03 -0.24541048087E+02 -0.48815002699E+03  0.64931860278E+03  0.17770000000E+01 0. -1.
        -16    1    3    3    0    0  0.10167905558E+03 -0.38490529705E+02 -0.16185411450E+03  0.19497924403E+03  0.00000000000E+00 0.  1.
          2    1    6    6  502    0  0.16173856427E+02  0.66545185086E+02 -0.70924963720E+02  0.98591103901E+02  0.00000000000E+00 0. -1.
         -1    1    6    6    0  502  0.93859275018E+01  0.11496529311E+02 -0.14378242560E+03  0.14454636534E+03  0.00000000000E+00 0.  1.
<mgrwt>
<rscale>  0 0.58919603E+03</rscale>
<asrwt>0</asrwt>
<pdfrwt beam="1">  1        1 0.68056431E-01 0.58919603E+03</pdfrwt>
<pdfrwt beam="2">  1       -2 0.18669286E+00 0.58919603E+03</pdfrwt>
<totfact> 0.77997591E+00</totfact>
</mgrwt>
</event>
<event>
12    3  0.1092576E-007  0.7044860E+03  0.7818608E-02  0.9709591E-01
         -2   -1    0    0    0  501 -0.00000000000E+00  0.00000000000E+00  0.46422735867E+03  0.46422735867E+03  0.00000000000E+00 0.  1.
          1   -1    0    0  501    0  0.00000000000E+00 -0.00000000000E+00 -0.13574762591E+04  0.13574762591E+04  0.00000000000E+00 0. -1.
        -24    2    1    2    0    0 -0.42540440604E+03 -0.42857906831E+03 -0.31040665316E+02  0.60995139854E+03  0.80176425447E+02 0.  0.
    5000000    2    1    2    0    0  0.42540440604E+03  0.42857906831E+03 -0.86220823513E+03  0.12117522192E+04  0.60024284556E+03 0.  0.
        -24    2    4    4    0    0  0.10691028531E+03  0.46126670617E+03 -0.31984438573E+03  0.57701834233E+03  0.80330274350E+02 0.  0.
         24    2    4    4    0    0  0.31849412073E+03 -0.32687637862E+02 -0.54236384941E+03  0.63473387692E+03  0.78876883514E+02 0.  0.
         13    1    5    5    0    0  0.72244246420E+02  0.34685269386E+03 -0.27804193706E+03  0.45037022675E+03  0.00000000000E+00 0. -1.
        -14    1    5    5    0    0  0.34666038892E+02  0.11441401231E+03 -0.41802448667E+02  0.12664811558E+03  0.00000000000E+00 0.  1.
         15    1    3    3    0    0 -0.13537466533E+03 -0.91341546838E+02  0.74659524165E+01  0.16348845943E+03  0.17770000000E+01 0. -1.
        -16    1    3    3    0    0 -0.29002974072E+03 -0.33723752147E+03 -0.38506617732E+02  0.44646293911E+03  0.00000000000E+00 0.  1.
          4    1    6    6  502    0  0.25845962850E+03  0.39817570831E+00 -0.45940357413E+03  0.52711780659E+03  0.00000000000E+00 0. -1.
         -3    1    6    6    0  502  0.60034492233E+02 -0.33085813570E+02 -0.82960275280E+02  0.10761607032E+03  0.00000000000E+00 0.  1.
<mgrwt>
<rscale>  0 0.70448596E+03</rscale>
<asrwt>0</asrwt>
<pdfrwt beam="1">  1        1 0.20884250E+00 0.70448596E+03</pdfrwt>
<pdfrwt beam="2">  1       -2 0.71419595E-01 0.70448596E+03</pdfrwt>
<totfact> 0.13302877E+01</totfact>
</mgrwt>
</event>
<event>
12    3  0.1092576E-007  0.4178397E+03  0.7818608E-02  0.1037772E+00
         -2   -1    0    0    0  501 -0.00000000000E+00  0.00000000000E+00  0.18053902163E+03  0.18053902163E+03  0.00000000000E+00 0.  1.
          1   -1    0    0  501    0  0.00000000000E+00 -0.00000000000E+00 -0.17926460752E+04  0.17926460752E+04  0.00000000000E+00 0. -1.
        -24    2    1    2    0    0 -0.12010739009E+03 -0.37651337284E+03 -0.74662664173E+03  0.84853675730E+03  0.79844732216E+02 0.  0.
    5000000    2    1    2    0    0  0.12010739009E+03  0.37651337284E+03 -0.86548041182E+03  0.11246483395E+04  0.59965776842E+03 0.  0.
        -24    2    4    4    0    0  0.12901782877E+03  0.23134336093E+03 -0.91251727390E+03  0.95330580666E+03  0.77063837508E+02 0.  0.
         24    2    4    4    0    0 -0.89104386856E+01  0.14517001191E+03  0.47036862080E+02  0.17134253285E+03  0.77408454916E+02 0.  0.
         11    1    5    5    0    0 -0.73480315861E+01  0.54775970837E+00 -0.34456896448E+02  0.35235937928E+02  0.00000000000E+00 0. -1.
        -12    1    5    5    0    0  0.13636586036E+03  0.23079560122E+03 -0.87806037745E+03  0.91806986873E+03  0.00000000000E+00 0.  1.
         15    1    3    3    0    0 -0.12817053145E+03 -0.30010231150E+03 -0.60798689289E+03  0.69002920385E+03  0.17770000000E+01 0. -1.
        -16    1    3    3    0    0  0.80631413656E+01 -0.76411061340E+02 -0.13863974884E+03  0.15850755345E+03  0.00000000000E+00 0.  1.
          2    1    6    6  502    0 -0.29567796738E+02  0.39160536060E+02  0.39650298941E+02  0.63086832181E+02  0.00000000000E+00 0. -1.
         -1    1    6    6    0  502  0.20657358052E+02  0.10600947585E+03  0.73865631390E+01  0.10825570067E+03  0.00000000000E+00 0.  1.
<mgrwt>
<rscale>  0 0.41783967E+03</rscale>
<asrwt>0</asrwt>
<pdfrwt beam="1">  1        1 0.27579171E+00 0.41783967E+03</pdfrwt>
<pdfrwt beam="2">  1       -2 0.27775234E-01 0.41783967E+03</pdfrwt>
<totfact> 0.46323246E+01</totfact>
</mgrwt>
</event>
<event>
12    3  0.1092576E-007  0.5011552E+03  0.7818608E-02  0.1013478E+00
          1   -1    0    0  501    0  0.00000000000E+00  0.00000000000E+00  0.90035913774E+03  0.90035913774E+03  0.00000000000E+00 0. -1.
         -2   -1    0    0    0  501 -0.00000000000E+00 -0.00000000000E+00 -0.50122038879E+03  0.50122038879E+03  0.00000000000E+00 0.  1.
        -24    2    1    2    0    0  0.32628143717E+03 -0.18239134484E+03 -0.23849619272E+03  0.44960251838E+03  0.74403035410E+02 0.  0.
    5000000    2    1    2    0    0 -0.32628143717E+03  0.18239134484E+03  0.63763494167E+03  0.95197700815E+03  0.59996310412E+03 0.  0.
        -24    2    4    4    0    0 -0.28683156584E+03  0.34502370874E+03  0.24293044183E+03  0.51642067802E+03  0.79758450097E+02 0.  0.
         24    2    4    4    0    0 -0.39449871335E+02 -0.16263236389E+03  0.39470449983E+03  0.43555633014E+03  0.76890158016E+02 0.  0.
         11    1    5    5    0    0 -0.19514221000E+02  0.20886833540E+02 -0.43381621301E+01  0.28911663515E+02  0.00000000000E+00 0. -1.
        -12    1    5    5    0    0 -0.26731734484E+03  0.32413687520E+03  0.24726860396E+03  0.48750901450E+03  0.00000000000E+00 0.  1.
         15    1    3    3    0    0  0.11828501124E+03 -0.10300222696E+03 -0.78214531028E+02  0.17527542108E+03  0.17770000000E+01 0. -1.
        -16    1    3    3    0    0  0.20799642593E+03 -0.79389117882E+02 -0.16028166169E+03  0.27432709730E+03  0.00000000000E+00 0.  1.
          4    1    6    6  502    0  0.63946965099E+01 -0.74256207750E+02  0.10160833041E+03  0.12601241741E+03  0.00000000000E+00 0. -1.
         -3    1    6    6    0  502 -0.45844567845E+02 -0.88376156145E+02  0.29309616942E+03  0.30954391273E+03  0.00000000000E+00 0.  1.
<mgrwt>
<rscale>  0 0.50115515E+03</rscale>
<asrwt>0</asrwt>
<pdfrwt beam="1">  1        1 0.13851679E+00 0.50115515E+03</pdfrwt>
<pdfrwt beam="2">  1       -2 0.77110829E-01 0.50115515E+03</pdfrwt>
<totfact> 0.25184437E+01</totfact>
</mgrwt>
</event>
<event>
12    3  0.1092576E-007  0.5721987E+03  0.7818608E-02  0.9964825E-01
         -2   -1    0    0    0  501 -0.00000000000E+00  0.00000000000E+00  0.22595892523E+03  0.22595892523E+03  0.00000000000E+00 0.  1.
          1   -1    0    0  501    0  0.00000000000E+00 -0.00000000000E+00 -0.16602672972E+04  0.16602672972E+04  0.00000000000E+00 0. -1.
        -24    2    1    2    0    0  0.26613980634E+03 -0.36941967207E+03 -0.43201959155E+03  0.63274285424E+03  0.80133023623E+02 0.  0.
    5000000    2    1    2    0    0 -0.26613980634E+03  0.36941967207E+03 -0.10022887804E+04  0.12534833681E+04  0.59944679857E+03 0.  0.
        -24    2    4    4    0    0  0.13068670976E+03  0.20114355488E+03 -0.14710544380E+03  0.29259708343E+03  0.80220295805E+02 0.  0.
         24    2    4    4    0    0 -0.39682651610E+03  0.16827611719E+03 -0.85518333657E+03  0.96088628471E+03  0.78586115155E+02 0.  0.
         11    1    5    5    0    0 -0.38752338073E+01  0.16124080827E+02  0.56384791672E+01  0.17515589253E+02  0.00000000000E+00 0. -1.
        -12    1    5    5    0    0  0.13456194357E+03  0.18501947405E+03 -0.15274392297E+03  0.27508149418E+03  0.00000000000E+00 0.  1.
         15    1    3    3    0    0  0.10812055259E+03 -0.21836449816E+03 -0.23099828624E+03  0.33576252609E+03  0.17770000000E+01 0. -1.
        -16    1    3    3    0    0  0.15801925375E+03 -0.15105517391E+03 -0.20102130531E+03  0.29698032815E+03  0.00000000000E+00 0.  1.
          2    1    6    6  502    0 -0.22184530540E+03  0.55826678548E+02 -0.40977709360E+03  0.46930717447E+03  0.00000000000E+00 0. -1.
         -1    1    6    6    0  502 -0.17498121070E+03  0.11244943864E+03 -0.44540624297E+03  0.49157911024E+03  0.00000000000E+00 0.  1.
<mgrwt>
<rscale>  0 0.57219867E+03</rscale>
<asrwt>0</asrwt>
<pdfrwt beam="1">  1        1 0.25542574E+00 0.57219867E+03</pdfrwt>
<pdfrwt beam="2">  1       -2 0.34762912E-01 0.57219867E+03</pdfrwt>
<totfact> 0.36425501E+01</totfact>
</mgrwt>
</event>
<event>
12    3  0.1092576E-007  0.9106572E+03  0.7818608E-02  0.9412357E-01
          1   -1    0    0  501    0  0.00000000000E+00  0.00000000000E+00  0.17259872608E+04  0.17259872608E+04  0.00000000000E+00 0. -1.
         -2   -1    0    0    0  501 -0.00000000000E+00 -0.00000000000E+00 -0.55514985785E+03  0.55514985785E+03  0.00000000000E+00 0.  1.
        -24    2    1    2    0    0 -0.18347049820E+01 -0.84760422459E+03  0.82794658736E+03  0.11875880943E+04  0.80209990331E+02 0.  0.
    5000000    2    1    2    0    0  0.18347049820E+01  0.84760422459E+03  0.34289081557E+03  0.10935490243E+04  0.59986587627E+03 0.  0.
        -24    2    4    4    0    0  0.20406969631E+03  0.66225795098E+03  0.39920495011E+03  0.80365095223E+03  0.79121591537E+02 0.  0.
         24    2    4    4    0    0 -0.20223499133E+03  0.18534627361E+03 -0.56314134543E+02  0.28989807209E+03  0.74949166707E+02 0.  0.
         13    1    5    5    0    0  0.16087163767E+03  0.48573510997E+03  0.25526082309E+03  0.57181847528E+03  0.00000000000E+00 0. -1.
        -14    1    5    5    0    0  0.43198058649E+02  0.17652284101E+03  0.14394412702E+03  0.23183247696E+03  0.00000000000E+00 0.  1.
         15    1    3    3    0    0 -0.29924717245E+02 -0.72290784470E+03  0.69936150166E+03  0.10062807304E+04  0.17770000000E+01 0. -1.
        -16    1    3    3    0    0  0.28090012263E+02 -0.12469637989E+03  0.12858508570E+03  0.18130736392E+03  0.00000000000E+00 0.  1.
          2    1    6    6  502    0 -0.20307581065E+03  0.18070752607E+03 -0.65461594702E+02  0.27960725175E+03  0.00000000000E+00 0. -1.
         -1    1    6    6    0  502  0.84081931807E+00  0.46387475400E+01  0.91474601590E+01  0.10290820338E+02  0.00000000000E+00 0.  1.
<mgrwt>
<rscale>  0 0.91065718E+03</rscale>
<asrwt>0</asrwt>
<pdfrwt beam="1">  1        1 0.26553650E+00 0.91065718E+03</pdfrwt>
<pdfrwt beam="2">  1       -2 0.85407671E-01 0.91065718E+03</pdfrwt>
<totfact> 0.48562794E+00</totfact>
</mgrwt>
</event>
<event>
12    3  0.1092576E-007  0.8046187E+03  0.7818608E-02  0.9553356E-01
          1   -1    0    0  501    0  0.00000000000E+00  0.00000000000E+00  0.18720615197E+04  0.18720615197E+04  0.00000000000E+00 0. -1.
         -2   -1    0    0    0  501 -0.00000000000E+00 -0.00000000000E+00 -0.43677204328E+03  0.43677204328E+03  0.00000000000E+00 0.  1.
        -24    2    1    2    0    0  0.21791246990E+03  0.73026668204E+03  0.31895260848E+03  0.82998022398E+03  0.79756719481E+02 0.  0.
    5000000    2    1    2    0    0 -0.21791246990E+03 -0.73026668204E+03  0.11163368680E+04  0.14788533390E+04  0.60001993641E+03 0.  0.
        -24    2    4    4    0    0 -0.17371949969E+03 -0.80590120569E+02  0.63050678628E+03  0.66259365419E+03  0.69414054269E+02 0.  0.
         24    2    4    4    0    0 -0.44192970211E+02 -0.64967656147E+03  0.48583008168E+03  0.81625968481E+03  0.78843843396E+02 0.  0.
         13    1    5    5    0    0 -0.64640797805E+02 -0.32491876992E+02  0.13742430650E+03  0.15530484483E+03  0.00000000000E+00 0. -1.
        -14    1    5    5    0    0 -0.10907870189E+03 -0.48098243577E+02  0.49308247978E+03  0.50728880936E+03  0.00000000000E+00 0.  1.
         15    1    3    3    0    0  0.18269491715E+03  0.48958059065E+03  0.23064710954E+03  0.57119859451E+03  0.17770000000E+01 0. -1.
        -16    1    3    3    0    0  0.35217552748E+02  0.24068609139E+03  0.88305498935E+02  0.25878162947E+03  0.00000000000E+00 0.  1.
          4    1    6    6  502    0 -0.23518675290E+02 -0.15643706354E+03  0.80456911550E+02  0.17747956940E+03  0.00000000000E+00 0. -1.
         -3    1    6    6    0  502 -0.20674294921E+02 -0.49323949793E+03  0.40537317013E+03  0.63878011542E+03  0.00000000000E+00 0.  1.
<mgrwt>
<rscale>  0 0.80461865E+03</rscale>
<asrwt>0</asrwt>
<pdfrwt beam="1">  1        1 0.28800946E+00 0.80461865E+03</pdfrwt>
<pdfrwt beam="2">  1       -2 0.67195700E-01 0.80461865E+03</pdfrwt>
<totfact> 0.66991910E+00</totfact>
</mgrwt>
</event>
<event>
12    3  0.1884306E-007  0.9405672E+03  0.7818608E-02  0.9376244E-01
          1   -1    0    0  501    0  0.00000000000E+00  0.00000000000E+00  0.20589295683E+04  0.20589295683E+04  0.00000000000E+00 0. -1.
         -2   -1    0    0    0  501 -0.00000000000E+00 -0.00000000000E+00 -0.47914592463E+03  0.47914592463E+03  0.00000000000E+00 0.  1.
        -24    2    1    2    0    0 -0.82332061576E+03 -0.34511529648E+03  0.87129687466E+03  0.12500819231E+04  0.81149038368E+02 0.  0.
    5000000    2    1    2    0    0  0.82332061576E+03  0.34511529648E+03  0.70848676902E+03  0.12879935698E+04  0.60001044149E+03 0.  0.
        -24    2    4    4    0    0  0.30991834376E+03 -0.71277144897E+02  0.48493450733E+03  0.58551409749E+03  0.80842258581E+02 0.  0.
         24    2    4    4    0    0  0.51340227200E+03  0.41639244138E+03  0.22355226168E+03  0.70247947235E+03  0.80853183286E+02 0.  0.
         11    1    5    5    0    0  0.76747292634E+02 -0.45918595284E+02  0.17818363899E+03  0.19936918900E+03  0.00000000000E+00 0. -1.
        -12    1    5    5    0    0  0.23317105112E+03 -0.25358549613E+02  0.30675086835E+03  0.38614490849E+03  0.00000000000E+00 0.  1.
         15    1    3    3    0    0 -0.39058084916E+03 -0.16162700622E+03  0.46915253449E+03  0.63149342610E+03  0.17770000000E+01 0. -1.
        -16    1    3    3    0    0 -0.43273976660E+03 -0.18348829026E+03  0.40214434017E+03  0.61858849698E+03  0.00000000000E+00 0.  1.
          4    1    6    6  502    0  0.14597641622E+03  0.15872197948E+03  0.50338623485E+02  0.22144019029E+03  0.00000000000E+00 0. -1.
         -3    1    6    6    0  502  0.36742585578E+03  0.25767046189E+03  0.17321363820E+03  0.48103928206E+03  0.00000000000E+00 0.  1.
<mgrwt>
<rscale>  0 0.94056722E+03</rscale>
<asrwt>0</asrwt>
<pdfrwt beam="1">  1        1 0.31675839E+00 0.94056722E+03</pdfrwt>
<pdfrwt beam="2">  1       -2 0.73714759E-01 0.94056722E+03</pdfrwt>
<totfact> 0.40229880E+00</totfact>
</mgrwt>
</event>
<event>
12    3  0.1092576E-007  0.7138573E+03  0.7818608E-02  0.9693823E-01
          1   -1    0    0  501    0  0.00000000000E+00  0.00000000000E+00  0.15381622855E+04  0.15381622855E+04  0.00000000000E+00 0. -1.
         -2   -1    0    0    0  501 -0.00000000000E+00 -0.00000000000E+00 -0.39900566608E+03  0.39900566608E+03  0.00000000000E+00 0.  1.
        -24    2    1    2    0    0  0.16751065337E+03 -0.62521974763E+03  0.29519709061E+03  0.71573134760E+03  0.78552452619E+02 0.  0.
    5000000    2    1    2    0    0 -0.16751065337E+03  0.62521974763E+03  0.84395952880E+03  0.12214366040E+04  0.60056651543E+03 0.  0.
        -24    2    4    4    0    0 -0.22128739341E+02  0.61570579515E+03  0.85397102755E+03  0.10553671630E+04  0.70356418690E+02 0.  0.
         24    2    4    4    0    0 -0.14538191402E+03  0.95139524743E+01 -0.10011498756E+02  0.16606944092E+03  0.79072200450E+02 0.  0.
         11    1    5    5    0    0 -0.71915058264E+01  0.53482879203E+03  0.70180175275E+03  0.88239404729E+03  0.00000000000E+00 0. -1.
        -12    1    5    5    0    0 -0.14937233515E+02  0.80877003127E+02  0.15216927480E+03  0.17297311575E+03  0.00000000000E+00 0.  1.
         15    1    3    3    0    0  0.83704036798E+02 -0.19642244000E+03  0.73699442255E+02  0.22588250536E+03  0.17770000000E+01 0. -1.
        -16    1    3    3    0    0  0.83806616567E+02 -0.42879730763E+03  0.22149764835E+03  0.48984884223E+03  0.00000000000E+00 0.  1.
          2    1    6    6  502    0 -0.79920139646E+01  0.20825485045E+02 -0.16987422732E+02  0.28038288922E+02  0.00000000000E+00 0. -1.
         -3    1    6    6    0  502 -0.13738990006E+03 -0.11311532571E+02  0.69759239755E+01  0.13803115200E+03  0.00000000000E+00 0.  1.
<mgrwt>
<rscale>  0 0.71385732E+03</rscale>
<asrwt>0</asrwt>
<pdfrwt beam="1">  1        1 0.23664035E+00 0.71385732E+03</pdfrwt>
<pdfrwt beam="2">  1       -2 0.61385488E-01 0.71385732E+03</pdfrwt>
<totfact> 0.13824787E+01</totfact>
</mgrwt>
</event>
<event>
12    3  0.1092576E-007  0.8177746E+03  0.7818608E-02  0.9534640E-01
          1   -1    0    0  501    0  0.00000000000E+00  0.00000000000E+00  0.42900321964E+03  0.42900321964E+03  0.00000000000E+00 0. -1.
         -2   -1    0    0    0  501 -0.00000000000E+00 -0.00000000000E+00 -0.21042764185E+04  0.21042764185E+04  0.00000000000E+00 0.  1.
        -24    2    1    2    0    0 -0.29048625317E+02  0.81274147802E+03 -0.11007793283E+04  0.13707745646E+04  0.76910626570E+02 0.  0.
    5000000    2    1    2    0    0  0.29048625317E+02 -0.81274147802E+03 -0.57449387052E+03  0.11625050735E+04  0.59998525484E+03 0.  0.
        -24    2    4    4    0    0  0.79288089820E+01 -0.29528734650E+03  0.87126055432E+02  0.31843894984E+03  0.80962535908E+02 0.  0.
         24    2    4    4    0    0  0.21119816335E+02 -0.51745413152E+03 -0.66161992595E+03  0.84406612371E+03  0.80634173365E+02 0.  0.
         11    1    5    5    0    0 -0.92223562972E+01 -0.23887475037E+03  0.98216455366E+02  0.25844277959E+03  0.00000000000E+00 0. -1.
        -12    1    5    5    0    0  0.17151165279E+02 -0.56412596136E+02 -0.11090399934E+02  0.59996170244E+02  0.00000000000E+00 0.  1.
         15    1    3    3    0    0 -0.33881429726E+02  0.51021826637E+03 -0.74711468019E+03  0.90534752095E+03  0.17770000000E+01 0. -1.
        -16    1    3    3    0    0  0.48328044097E+01  0.30252321166E+03 -0.35366464811E+03  0.46542704360E+03  0.00000000000E+00 0.  1.
          4    1    6    6  502    0  0.40144202964E+02 -0.47944741456E+03 -0.61745343628E+03  0.78277080064E+03  0.00000000000E+00 0. -1.
         -3    1    6    6    0  502 -0.19024386630E+02 -0.38006716957E+02 -0.44166489667E+02  0.61295323068E+02  0.00000000000E+00 0.  1.
<mgrwt>
<rscale>  0 0.81777457E+03</rscale>
<asrwt>0</asrwt>
<pdfrwt beam="1">  1        1 0.66000495E-01 0.81777457E+03</pdfrwt>
<pdfrwt beam="2">  1       -2 0.32373483E+00 0.81777457E+03</pdfrwt>
<totfact> 0.11292141E+00</totfact>
</mgrwt>
</event>
<event>
12    3  0.1092576E-007  0.1526397E+04  0.7818608E-02  0.8867086E-01
          3   -1    0    0  501    0  0.00000000000E+00  0.00000000000E+00  0.17276653716E+04  0.17276653716E+04  0.00000000000E+00 0. -1.
         -4   -1    0    0    0  501 -0.00000000000E+00 -0.00000000000E+00 -0.19968765582E+04  0.19968765582E+04  0.00000000000E+00 0.  1.
        -24    2    1    2    0    0 -0.11012990505E+04  0.10458185353E+04 -0.11147565058E+04  0.18856683625E+04  0.80418273333E+02 0.  0.
    5000000    2    1    2    0    0  0.11012990505E+04 -0.10458185353E+04  0.84554531920E+03  0.18388735673E+04  0.59992758093E+03 0.  0.
        -24    2    4    4    0    0  0.52163334246E+03 -0.38585690061E+03  0.67628260194E+03  0.94074510562E+03  0.81586177415E+02 0.  0.
         24    2    4    4    0    0  0.57966570799E+03 -0.65996163469E+03  0.16926271726E+03  0.89812846167E+03  0.80144706178E+02 0.  0.
         13    1    5    5    0    0  0.47508731894E+03 -0.32485527494E+03  0.57361476424E+03  0.81257172485E+03  0.00000000000E+00 0. -1.
        -14    1    5    5    0    0  0.46546023529E+02 -0.61001625669E+02  0.10266783770E+03  0.12817338077E+03  0.00000000000E+00 0.  1.
         15    1    3    3    0    0 -0.66859850070E+03  0.68836397169E+03 -0.70150161591E+03  0.11886869174E+04  0.17770000000E+01 0. -1.
        -16    1    3    3    0    0 -0.43270054976E+03  0.35745456362E+03 -0.41325488988E+03  0.69698144510E+03  0.00000000000E+00 0.  1.
          4    1    6    6  502    0  0.14382903662E+03 -0.13393495996E+03  0.10585886528E+02  0.19681825695E+03  0.00000000000E+00 0. -1.
         -3    1    6    6    0  502  0.43583667137E+03 -0.52602667473E+03  0.15867683073E+03  0.70131020473E+03  0.00000000000E+00 0.  1.
<mgrwt>
<rscale>  0 0.15263973E+04</rscale>
<asrwt>0</asrwt>
<pdfrwt beam="1">  1        3 0.26579467E+00 0.15263973E+04</pdfrwt>
<pdfrwt beam="2">  1       -4 0.30721178E+00 0.15263973E+04</pdfrwt>
<totfact> 0.34772437E-03</totfact>
</mgrwt>
</event>
<event>
12    3  0.1092576E-007  0.1289320E+04  0.7818608E-02  0.9038077E-01
          1   -1    0    0  501    0  0.00000000000E+00  0.00000000000E+00  0.21702602056E+04  0.21702602056E+04  0.00000000000E+00 0. -1.
         -4   -1    0    0    0  501 -0.00000000000E+00 -0.00000000000E+00 -0.89431770654E+03  0.89431770654E+03  0.00000000000E+00 0.  1.
        -24    2    1    2    0    0  0.28146007101E+03 -0.11924557995E+04  0.11701098630E+04  0.16961369059E+04  0.80948791452E+02 0.  0.
    5000000    2    1    2    0    0 -0.28146007101E+03  0.11924557995E+04  0.10583263608E+03  0.13684410063E+04  0.60021632395E+03 0.  0.
        -24    2    4    4    0    0  0.16649345362E+03  0.20548026446E+03  0.47195309481E+02  0.28011110105E+03  0.79326051950E+02 0.  0.
         24    2    4    4    0    0 -0.44795352463E+03  0.98697553500E+03  0.58637326598E+02  0.10883299052E+04  0.78997339093E+02 0.  0.
         13    1    5    5    0    0  0.43324489136E+02  0.79753286980E+02  0.50914061780E+02  0.10406651637E+03  0.00000000000E+00 0. -1.
        -14    1    5    5    0    0  0.12316896448E+03  0.12572697748E+03 -0.37187522996E+01  0.17604458468E+03  0.00000000000E+00 0.  1.
         15    1    3    3    0    0  0.48783681309E+02 -0.30636428790E+03  0.25986735481E+03  0.40468892286E+03  0.17770000000E+01 0. -1.
        -16    1    3    3    0    0  0.23267638970E+03 -0.88609151156E+03  0.91024250822E+03  0.12914479831E+04  0.00000000000E+00 0.  1.
          2    1    6    6  502    0 -0.13437690710E+03  0.36527208572E+03  0.45923648484E+02  0.39190538559E+03  0.00000000000E+00 0. -1.
         -1    1    6    6    0  502 -0.31357661753E+03  0.62170344929E+03  0.12713678114E+02  0.69642451962E+03  0.00000000000E+00 0.  1.
<mgrwt>
<rscale>  0 0.12893204E+04</rscale>
<asrwt>0</asrwt>
<pdfrwt beam="1">  1        1 0.33388618E+00 0.12893204E+04</pdfrwt>
<pdfrwt beam="2">  1       -4 0.13758734E+00 0.12893204E+04</pdfrwt>
<totfact> 0.39777803E-01</totfact>
</mgrwt>
</event>
<event>
12    3  0.1092576E-007  0.4698762E+03  0.7818608E-02  0.1021955E+00
         -2   -1    0    0    0  501 -0.00000000000E+00  0.00000000000E+00  0.86762658035E+03  0.86762658035E+03  0.00000000000E+00 0.  1.
          1   -1    0    0  501    0  0.00000000000E+00 -0.00000000000E+00 -0.45665253167E+03  0.45665253167E+03  0.00000000000E+00 0. -1.
        -24    2    1    2    0    0  0.19272243879E+02 -0.44840821102E+03 -0.26385786601E+02  0.45654950905E+03  0.79371918142E+02 0.  0.
    5000000    2    1    2    0    0 -0.19272243879E+02  0.44840821102E+03  0.43735983528E+03  0.86772960297E+03  0.60019138220E+03 0.  0.
        -24    2    4    4    0    0 -0.82405571297E+02  0.17988149571E+03  0.52464735515E+03  0.56765061714E+03  0.88455328804E+02 0.  0.
         24    2    4    4    0    0  0.63133327418E+02  0.26852671531E+03 -0.87287519876E+02  0.30007898583E+03  0.79598195622E+02 0.  0.
         11    1    5    5    0    0 -0.52835276384E+02  0.15720119302E+03  0.48789160376E+03  0.51530767367E+03  0.00000000000E+00 0. -1.
        -12    1    5    5    0    0 -0.29570294913E+02  0.22680302695E+02  0.36755751388E+02  0.52342943475E+02  0.00000000000E+00 0.  1.
         15    1    3    3    0    0  0.25516968682E+02 -0.32075461125E+03  0.15245150084E+02  0.32213383657E+03  0.17770000000E+01 0. -1.
        -16    1    3    3    0    0 -0.62447248026E+01 -0.12765359976E+03 -0.41630936685E+02  0.13441567249E+03  0.00000000000E+00 0.  1.
          2    1    6    6  502    0  0.78085568901E+02  0.16595008024E+03 -0.53380761786E+02  0.19101385010E+03  0.00000000000E+00 0. -1.
         -1    1    6    6    0  502 -0.14952241483E+02  0.10257663507E+03 -0.33906758090E+02  0.10906513573E+03  0.00000000000E+00 0.  1.
<mgrwt>
<rscale>  0 0.46987619E+03</rscale>
<asrwt>0</asrwt>
<pdfrwt beam="1">  1        1 0.70254236E-01 0.46987619E+03</pdfrwt>
<pdfrwt beam="2">  1       -2 0.13348101E+00 0.46987619E+03</pdfrwt>
<totfact> 0.18707853E+01</totfact>
</mgrwt>
</event>
<event>
12    3  0.1092576E-007  0.9716882E+03  0.7818608E-02  0.9340154E-01
          1   -1    0    0  501    0  0.00000000000E+00  0.00000000000E+00  0.18327244978E+04  0.18327244978E+04  0.00000000000E+00 0. -1.
         -2   -1    0    0    0  501 -0.00000000000E+00 -0.00000000000E+00 -0.64134328353E+03  0.64134328353E+03  0.00000000000E+00 0.  1.
        -24    2    1    2    0    0 -0.53453043729E+03  0.75602509971E+03  0.98021686995E+03  0.13507100786E+04  0.79346484444E+02 0.  0.
    5000000    2    1    2    0    0  0.53453043729E+03 -0.75602509971E+03  0.21116434428E+03  0.11233577027E+04  0.60003783885E+03 0.  0.
        -24    2    4    4    0    0  0.29753470812E+03 -0.10542861778E+03  0.27045912956E+03  0.42384858833E+03  0.82809353841E+02 0.  0.
         24    2    4    4    0    0  0.23699572917E+03 -0.65059648193E+03 -0.59294785278E+02  0.69950911434E+03  0.79714311955E+02 0.  0.
         13    1    5    5    0    0  0.24708230069E+03 -0.11415261050E+03  0.20499471707E+03  0.34073936641E+03  0.00000000000E+00 0. -1.
        -14    1    5    5    0    0  0.50452407428E+02  0.87239927201E+01  0.65464412492E+02  0.83109221914E+02  0.00000000000E+00 0.  1.
         15    1    3    3    0    0 -0.19668397676E+03  0.24303826115E+03  0.28563680234E+03  0.42348993339E+03  0.17770000000E+01 0. -1.
        -16    1    3    3    0    0 -0.33784646053E+03  0.51298683856E+03  0.69458006760E+03  0.92722014524E+03  0.00000000000E+00 0.  1.
          2    1    6    6  502    0  0.11343026172E+03 -0.26723072436E+03 -0.61335111343E+02  0.29671649802E+03  0.00000000000E+00 0. -1.
         -1    1    6    6    0  502  0.12356546745E+03 -0.38336575757E+03  0.20403260657E+01  0.40279261631E+03  0.00000000000E+00 0.  1.
<mgrwt>
<rscale>  0 0.97168815E+03</rscale>
<asrwt>0</asrwt>
<pdfrwt beam="1">  1        1 0.28195761E+00 0.97168815E+03</pdfrwt>
<pdfrwt beam="2">  1       -2 0.98668198E-01 0.97168815E+03</pdfrwt>
<totfact> 0.29184698E+00</totfact>
</mgrwt>
</event>
<event>
12    3  0.1092576E-007  0.8093151E+03  0.7818608E-02  0.9546631E-01
          1   -1    0    0  501    0  0.00000000000E+00  0.00000000000E+00  0.39574720454E+04  0.39574720454E+04  0.00000000000E+00 0. -1.
         -2   -1    0    0    0  501 -0.00000000000E+00 -0.00000000000E+00 -0.24665323457E+03  0.24665323457E+03  0.00000000000E+00 0.  1.
        -24    2    1    2    0    0  0.31783318845E+03  0.73935153226E+03  0.25203449754E+04  0.26469044376E+04  0.79408330113E+02 0.  0.
    5000000    2    1    2    0    0 -0.31783318845E+03 -0.73935153226E+03  0.11904738355E+04  0.15572208424E+04  0.60004181116E+03 0.  0.
        -24    2    4    4    0    0 -0.13434210567E+03 -0.34418239953E+03  0.11739688376E+03  0.39633539689E+03  0.82403840973E+02 0.  0.
         24    2    4    4    0    0 -0.18349108278E+03 -0.39516913273E+03  0.10730769517E+04  0.11608854455E+04  0.79581734048E+02 0.  0.
         11    1    5    5    0    0 -0.88680136934E+02 -0.23442370788E+03  0.11898758000E+03  0.27744672587E+03  0.00000000000E+00 0. -1.
        -12    1    5    5    0    0 -0.45661968737E+02 -0.10975869165E+03 -0.15906962382E+01  0.11888867101E+03  0.00000000000E+00 0.  1.
         15    1    3    3    0    0  0.97698618835E+02  0.32643470297E+03  0.10581147398E+04  0.11116270039E+04  0.17770000000E+01 0. -1.
        -16    1    3    3    0    0  0.22013456962E+03  0.41291682929E+03  0.14622302356E+04  0.15352774337E+04  0.00000000000E+00 0.  1.
          4    1    6    6  502    0 -0.30582681737E+01 -0.57537252538E+02  0.10328290133E+03  0.11826768849E+03  0.00000000000E+00 0. -1.
         -3    1    6    6    0  502 -0.18043281461E+03 -0.33763188019E+03  0.96979405038E+03  0.10426177570E+04  0.00000000000E+00 0.  1.
<mgrwt>
<rscale>  0 0.80931511E+03</rscale>
<asrwt>0</asrwt>
<pdfrwt beam="1">  1        1 0.60884181E+00 0.80931511E+03</pdfrwt>
<pdfrwt beam="2">  1       -2 0.37946654E-01 0.80931511E+03</pdfrwt>
<totfact> 0.65566931E-01</totfact>
</mgrwt>
</event>
<event>
12    3  0.1092576E-007  0.7973410E+03  0.7818608E-02  0.9563874E-01
         -2   -1    0    0    0  501 -0.00000000000E+00  0.00000000000E+00  0.77917787589E+03  0.77917787589E+03  0.00000000000E+00 0.  1.
          1   -1    0    0  501    0  0.00000000000E+00 -0.00000000000E+00 -0.82693852783E+03  0.82693852783E+03  0.00000000000E+00 0. -1.
        -24    2    1    2    0    0 -0.42880366930E+03  0.53776687598E+03 -0.29624080806E+01  0.69239634585E+03  0.79612336843E+02 0.  0.
    5000000    2    1    2    0    0  0.42880366930E+03 -0.53776687598E+03 -0.44798243861E+02  0.91372005787E+03  0.59984303096E+03 0.  0.
        -24    2    4    4    0    0  0.32489669988E+03 -0.65467469472E+03 -0.29970077469E+02  0.73693807997E+03  0.89569563310E+02 0.  0.
         24    2    4    4    0    0  0.10390696942E+03  0.11690781874E+03 -0.14828166392E+02  0.17678197789E+03  0.81042561748E+02 0.  0.
         11    1    5    5    0    0  0.48067523740E+02 -0.10762752559E+03 -0.37797392263E+02  0.12378535440E+03  0.00000000000E+00 0. -1.
        -12    1    5    5    0    0  0.27682917614E+03 -0.54704716913E+03  0.78273147942E+01  0.61315272557E+03  0.00000000000E+00 0.  1.
         15    1    3    3    0    0 -0.14151280487E+03  0.23428380478E+03 -0.17256240529E+02  0.27425482802E+03  0.17770000000E+01 0. -1.
        -16    1    3    3    0    0 -0.28729086442E+03  0.30348307120E+03  0.14293832448E+02  0.41814151783E+03  0.00000000000E+00 0.  1.
          4    1    6    6  502    0  0.17897022884E+02  0.73704488915E+02 -0.25319871560E+02  0.79960934275E+02  0.00000000000E+00 0. -1.
         -3    1    6    6    0  502  0.86009946533E+02  0.43203329822E+02  0.10491705168E+02  0.96821043620E+02  0.00000000000E+00 0.  1.
<mgrwt>
<rscale>  0 0.79734101E+03</rscale>
<asrwt>0</asrwt>
<pdfrwt beam="1">  1        1 0.12722131E+00 0.79734101E+03</pdfrwt>
<pdfrwt beam="2">  1       -2 0.11987352E+00 0.79734101E+03</pdfrwt>
<totfact> 0.99388769E+00</totfact>
</mgrwt>
</event>
<event>
12    3  0.1092576E-007  0.4782584E+03  0.7818608E-02  0.1019615E+00
          1   -1    0    0  501    0  0.00000000000E+00  0.00000000000E+00  0.12414520925E+04  0.12414520925E+04  0.00000000000E+00 0. -1.
         -2   -1    0    0    0  501 -0.00000000000E+00 -0.00000000000E+00 -0.27387826747E+03  0.27387826747E+03  0.00000000000E+00 0.  1.
        -24    2    1    2    0    0 -0.36587116178E+03  0.37954917062E+02  0.63270560838E+03  0.73618030314E+03  0.79641503728E+02 0.  0.
    5000000    2    1    2    0    0  0.36587116178E+03 -0.37954917062E+02  0.33486821663E+03  0.77915005680E+03  0.59969642800E+03 0.  0.
        -24    2    4    4    0    0 -0.65054725124E+02  0.91794732113E+02  0.28880126569E+03  0.31990814566E+03  0.79225377830E+02 0.  0.
         24    2    4    4    0    0  0.43092588690E+03 -0.12974964918E+03  0.46066950940E+02  0.45924191114E+03  0.79049841990E+02 0.  0.
         11    1    5    5    0    0  0.17346011433E+02  0.18033537633E+02  0.77134435407E+02  0.81091391145E+02  0.00000000000E+00 0. -1.
        -12    1    5    5    0    0 -0.82400736557E+02  0.73761194480E+02  0.21166683028E+03  0.23881675451E+03  0.00000000000E+00 0.  1.
         15    1    3    3    0    0 -0.14041441009E+03  0.56306018273E+01  0.17091177157E+03  0.22127336403E+03  0.17770000000E+01 0. -1.
        -16    1    3    3    0    0 -0.22545675168E+03  0.32324315235E+02  0.46179383681E+03  0.51490693911E+03  0.00000000000E+00 0.  1.
          2    1    6    6  502    0  0.13271514787E+03 -0.63485285898E+02  0.44685273961E+02  0.15375456321E+03  0.00000000000E+00 0. -1.
         -1    1    6    6    0  502  0.29821073903E+03 -0.66264363278E+02  0.13816769786E+01  0.30548734793E+03  0.00000000000E+00 0.  1.
<mgrwt>
<rscale>  0 0.47825835E+03</rscale>
<asrwt>0</asrwt>
<pdfrwt beam="1">  1        1 0.19099263E+00 0.47825835E+03</pdfrwt>
<pdfrwt beam="2">  1       -2 0.42135119E-01 0.47825835E+03</pdfrwt>
<totfact> 0.49360562E+01</totfact>
</mgrwt>
</event>
<event>
12    3  0.1092576E-007  0.3440709E+03  0.7818608E-02  0.1065075E+00
          1   -1    0    0  501    0  0.00000000000E+00  0.00000000000E+00  0.96648175767E+03  0.96648175767E+03  0.00000000000E+00 0. -1.
         -2   -1    0    0    0  501 -0.00000000000E+00 -0.00000000000E+00 -0.14577134422E+03  0.14577134422E+03  0.00000000000E+00 0.  1.
        -24    2    1    2    0    0 -0.63998693173E+02 -0.91597812672E+02  0.19441068334E+03  0.23774036883E+03  0.78987196167E+02 0.  0.
    5000000    2    1    2    0    0  0.63998693173E+02  0.91597812672E+02  0.62629973010E+03  0.87451273306E+03  0.60002931290E+03 0.  0.
        -24    2    4    4    0    0 -0.18024845108E+03 -0.12895202694E+03  0.40926855749E+03  0.47231115868E+03  0.80367587376E+02 0.  0.
         24    2    4    4    0    0  0.24424714425E+03  0.22054983961E+03  0.21703117261E+03  0.40220157437E+03  0.79778927778E+02 0.  0.
         13    1    5    5    0    0  0.34077341359E+01 -0.23603183643E+02  0.47149098243E+02  0.52837111912E+02  0.00000000000E+00 0. -1.
        -14    1    5    5    0    0 -0.18365618521E+03 -0.10534884329E+03  0.36211945925E+03  0.41947404677E+03  0.00000000000E+00 0.  1.
         15    1    3    3    0    0 -0.53029204909E+02 -0.30504360635E+02  0.45048679360E+02  0.75994432902E+02  0.17770000000E+01 0. -1.
        -16    1    3    3    0    0 -0.10969488264E+02 -0.61093452036E+02  0.14936200398E+03  0.16174593593E+03  0.00000000000E+00 0.  1.
          4    1    6    6  502    0  0.32216419283E+02  0.34598325400E+02  0.69139903674E+02  0.83757197135E+02  0.00000000000E+00 0. -1.
         -3    1    6    6    0  502  0.21203072497E+03  0.18595151421E+03  0.14789126894E+03  0.31844437724E+03  0.00000000000E+00 0.  1.
<mgrwt>
<rscale>  0 0.34407094E+03</rscale>
<asrwt>0</asrwt>
<pdfrwt beam="1">  1        1 0.14868950E+00 0.34407094E+03</pdfrwt>
<pdfrwt beam="2">  1       -2 0.22426361E-01 0.34407094E+03</pdfrwt>
<totfact> 0.25633725E+02</totfact>
</mgrwt>
</event>
<event>
12    3  0.1092576E-007  0.7918276E+03  0.7818608E-02  0.9571922E-01
         -2   -1    0    0    0  501 -0.00000000000E+00  0.00000000000E+00  0.74850111882E+03  0.74850111882E+03  0.00000000000E+00 0.  1.
          1   -1    0    0  501    0  0.00000000000E+00 -0.00000000000E+00 -0.13318039953E+04  0.13318039953E+04  0.00000000000E+00 0. -1.
        -24    2    1    2    0    0 -0.32896273761E+03  0.65661063682E+03 -0.81900310779E+03  0.11030207088E+04  0.80836764155E+02 0.  0.
    5000000    2    1    2    0    0  0.32896273761E+03 -0.65661063682E+03  0.23570023127E+03  0.97728440533E+03  0.60014681434E+03 0.  0.
        -24    2    4    4    0    0  0.72393593621E+01  0.34849681107E+02 -0.10650149130E+03  0.13760475647E+03  0.79533595145E+02 0.  0.
         24    2    4    4    0    0  0.32172337825E+03 -0.69146031792E+03  0.34220172257E+03  0.83967964886E+03  0.79602703527E+02 0.  0.
         13    1    5    5    0    0  0.39962630437E+02  0.86529380045E+01 -0.74067775526E+02  0.84604494792E+02  0.00000000000E+00 0. -1.
        -14    1    5    5    0    0 -0.32723271074E+02  0.26196743102E+02 -0.32433715771E+02  0.53000261676E+02  0.00000000000E+00 0.  1.
         15    1    3    3    0    0 -0.85511007234E+02  0.10719145578E+03 -0.17228953483E+03  0.22020213916E+03  0.17770000000E+01 0. -1.
        -16    1    3    3    0    0 -0.24345173038E+03  0.54941918104E+03 -0.64671357296E+03  0.88281856968E+03  0.00000000000E+00 0.  1.
          4    1    6    6  502    0  0.76780087647E+02 -0.17976068861E+03  0.51061682455E+02  0.20203064729E+03  0.00000000000E+00 0. -1.
         -3    1    6    6    0  502  0.24494329060E+03 -0.51169962931E+03  0.29114004011E+03  0.63764900157E+03  0.00000000000E+00 0.  1.
<mgrwt>
<rscale>  0 0.79182755E+03</rscale>
<asrwt>0</asrwt>
<pdfrwt beam="1">  1        1 0.20489292E+00 0.79182755E+03</pdfrwt>
<pdfrwt beam="2">  1       -2 0.11515402E+00 0.79182755E+03</pdfrwt>
<totfact> 0.45328017E+00</totfact>
</mgrwt>
</event>
<event>
12    3  0.1606598E-007  0.1010178E+04  0.7818608E-02  0.9297452E-01
         -2   -1    0    0    0  501 -0.00000000000E+00  0.00000000000E+00  0.62244376371E+03  0.62244376371E+03  0.00000000000E+00 0.  1.
          1   -1    0    0  501    0  0.00000000000E+00 -0.00000000000E+00 -0.21134582536E+04  0.21134582536E+04  0.00000000000E+00 0. -1.
        -24    2    1    2    0    0  0.79665868701E+03  0.57302515419E+03 -0.11947738811E+04  0.15481717689E+04  0.79550663471E+02 0.  0.
    5000000    2    1    2    0    0 -0.79665868701E+03 -0.57302515419E+03 -0.29624060880E+03  0.11877302485E+04  0.59993479134E+03 0.  0.
        -24    2    4    4    0    0 -0.22447214553E+03 -0.35501859328E+03 -0.37019599576E+03  0.56562484180E+03  0.80376866689E+02 0.  0.
         24    2    4    4    0    0 -0.57218654148E+03 -0.21800656091E+03  0.73955386957E+02  0.62210540665E+03  0.81372224210E+02 0.  0.
         13    1    5    5    0    0 -0.13656144473E+03 -0.22433143246E+03 -0.17861486973E+03  0.31761122692E+03  0.00000000000E+00 0. -1.
        -14    1    5    5    0    0 -0.87910700803E+02 -0.13068716081E+03 -0.19158112603E+03  0.24801361488E+03  0.00000000000E+00 0.  1.
         15    1    3    3    0    0  0.38361705629E+03  0.30570139643E+03 -0.54686004939E+03  0.73462538821E+03  0.17770000000E+01 0. -1.
        -16    1    3    3    0    0  0.41304163072E+03  0.26732375777E+03 -0.64791383171E+03  0.81354638067E+03  0.00000000000E+00 0.  1.
          2    1    6    6  502    0 -0.32210925947E+03 -0.16559599733E+03  0.43839576880E+02  0.36482642156E+03  0.00000000000E+00 0. -1.
         -1    1    6    6    0  502 -0.25007728200E+03 -0.52410563583E+02  0.30115810077E+02  0.25727898508E+03  0.00000000000E+00 0.  1.
<mgrwt>
<rscale>  0 0.10101777E+04</rscale>
<asrwt>0</asrwt>
<pdfrwt beam="1">  1        1 0.32514743E+00 0.10101777E+04</pdfrwt>
<pdfrwt beam="2">  1       -2 0.95760578E-01 0.10101777E+04</pdfrwt>
<totfact> 0.20164436E+00</totfact>
</mgrwt>
</event>
<event>
12    3  0.1092576E-007  0.1738463E+04  0.7818608E-02  0.8739726E-01
          1   -1    0    0  501    0  0.00000000000E+00  0.00000000000E+00  0.19845054608E+04  0.19845054608E+04  0.00000000000E+00 0. -1.
         -2   -1    0    0    0  501 -0.00000000000E+00 -0.00000000000E+00 -0.15652807697E+04  0.15652807697E+04  0.00000000000E+00 0.  1.
        -24    2    1    2    0    0 -0.49201813887E+03  0.16375125988E+04  0.16250120015E+03  0.17196774307E+04  0.85758180361E+02 0.  0.
    5000000    2    1    2    0    0  0.49201813887E+03 -0.16375125988E+04  0.25672349096E+03  0.18301087998E+04  0.59988491257E+03 0.  0.
        -24    2    4    4    0    0  0.27551673930E+03 -0.31755020047E+03  0.23887105366E+03  0.49021641871E+03  0.80654531462E+02 0.  0.
         24    2    4    4    0    0  0.21650139957E+03 -0.13199623983E+04  0.17852437296E+02  0.13398923811E+04  0.76284300769E+02 0.  0.
         11    1    5    5    0    0  0.18370403252E+03 -0.15214552722E+03  0.12300634709E+03  0.26837659071E+03  0.00000000000E+00 0. -1.
        -12    1    5    5    0    0  0.91812706782E+02 -0.16540467325E+03  0.11586470658E+03  0.22183982801E+03  0.00000000000E+00 0.  1.
         15    1    3    3    0    0 -0.31529895697E+03  0.11010851308E+04  0.14641964585E+03  0.11546617548E+04  0.17770000000E+01 0. -1.
        -16    1    3    3    0    0 -0.17671918190E+03  0.53642746792E+03  0.16081554303E+02  0.56501567587E+03  0.00000000000E+00 0.  1.
          2    1    6    6  502    0  0.21002079900E+03 -0.11508090524E+04  0.13985240278E+01  0.11698171511E+04  0.00000000000E+00 0. -1.
         -1    1    6    6    0  502  0.64806005691E+01 -0.16915334586E+03  0.16453913268E+02  0.17007523000E+03  0.00000000000E+00 0.  1.
<mgrwt>
<rscale>  0 0.17384633E+04</rscale>
<asrwt>0</asrwt>
<pdfrwt beam="1">  1        1 0.30530853E+00 0.17384633E+04</pdfrwt>
<pdfrwt beam="2">  1       -2 0.24081243E+00 0.17384633E+04</pdfrwt>
<totfact> 0.17975828E-01</totfact>
</mgrwt>
</event>
<event>
12    3  0.1092576E-007  0.4276525E+03  0.7818608E-02  0.1034604E+00
          1   -1    0    0  501    0  0.00000000000E+00  0.00000000000E+00  0.26370593303E+03  0.26370593303E+03  0.00000000000E+00 0. -1.
         -2   -1    0    0    0  501 -0.00000000000E+00 -0.00000000000E+00 -0.11475181698E+04  0.11475181698E+04  0.00000000000E+00 0.  1.
        -24    2    1    2    0    0  0.36450920434E+03 -0.84049375615E+02 -0.40581848563E+03  0.55773654096E+03  0.80312814975E+02 0.  0.
    5000000    2    1    2    0    0 -0.36450920434E+03  0.84049375615E+02 -0.47799375118E+03  0.85348756192E+03  0.60002644491E+03 0.  0.
        -24    2    4    4    0    0 -0.71074015077E+02 -0.86099113423E+02  0.10761145908E+03  0.17420205126E+03  0.79382338002E+02 0.  0.
         24    2    4    4    0    0 -0.29343518926E+03  0.17014848904E+03 -0.58560521026E+03  0.67928551065E+03  0.58656833149E+02 0.  0.
         13    1    5    5    0    0 -0.58243682660E+02 -0.99209062243E+02  0.76729657077E+02  0.13828306070E+03  0.00000000000E+00 0. -1.
        -14    1    5    5    0    0 -0.12830332417E+02  0.13109948820E+02  0.30881802007E+02  0.35918990565E+02  0.00000000000E+00 0.  1.
         15    1    3    3    0    0  0.16633920236E+03 -0.71680004006E+02 -0.15946172058E+03  0.24132540537E+03  0.17770000000E+01 0. -1.
        -16    1    3    3    0    0  0.19817000198E+03 -0.12369371608E+02 -0.24635676506E+03  0.31641113559E+03  0.00000000000E+00 0.  1.
          4    1    6    6  502    0 -0.19878717586E+03  0.90032924855E+02 -0.33729025812E+03  0.40172999274E+03  0.00000000000E+00 0. -1.
         -3    1    6    6    0  502 -0.94648013401E+02  0.80115564183E+02 -0.24831495214E+03  0.27755551791E+03  0.00000000000E+00 0.  1.
<mgrwt>
<rscale>  0 0.42765254E+03</rscale>
<asrwt>0</asrwt>
<pdfrwt beam="1">  1        1 0.40570143E-01 0.42765254E+03</pdfrwt>
<pdfrwt beam="2">  1       -2 0.17654126E+00 0.42765254E+03</pdfrwt>
<totfact> 0.18290319E+01</totfact>
</mgrwt>
</event>
<event>
12    3  0.1092576E-007  0.4185848E+03  0.7818608E-02  0.1037528E+00
         -2   -1    0    0    0  501 -0.00000000000E+00  0.00000000000E+00  0.41612127491E+03  0.41612127491E+03  0.00000000000E+00 0.  1.
          1   -1    0    0  501    0  0.00000000000E+00 -0.00000000000E+00 -0.79947564226E+03  0.79947564226E+03  0.00000000000E+00 0. -1.
        -24    2    1    2    0    0 -0.20264401004E+02 -0.32680730111E+03 -0.41129130282E+03  0.53149286865E+03  0.78169531461E+02 0.  0.
    5000000    2    1    2    0    0  0.20264401004E+02  0.32680730111E+03  0.27936935474E+02  0.68410404852E+03  0.60000351568E+03 0.  0.
        -24    2    4    4    0    0  0.18649411817E+03  0.22760983879E+03  0.23797007965E+03  0.38671282874E+03  0.79566062321E+02 0.  0.
         24    2    4    4    0    0 -0.16622971717E+03  0.99197462316E+02 -0.21003314418E+03  0.29739121978E+03  0.82795896935E+02 0.  0.
         13    1    5    5    0    0  0.14011018631E+03  0.10923107468E+03  0.13633259015E+03  0.22393942734E+03  0.00000000000E+00 0. -1.
        -14    1    5    5    0    0  0.46383931862E+02  0.11837876412E+03  0.10163748951E+03  0.16277340139E+03  0.00000000000E+00 0.  1.
         15    1    3    3    0    0  0.16136956835E+02 -0.83974188271E+02 -0.67186530378E+02  0.10876237063E+03  0.17770000000E+01 0. -1.
        -16    1    3    3    0    0 -0.36401357839E+02 -0.24283311284E+03 -0.34410477244E+03  0.42273049802E+03  0.00000000000E+00 0.  1.
          4    1    6    6  502    0 -0.91765985119E+02  0.85812803064E+02 -0.86515211679E+02  0.15254414130E+03  0.00000000000E+00 0. -1.
         -3    1    6    6    0  502 -0.74463732050E+02  0.13384659252E+02 -0.12351793250E+03  0.14484707848E+03  0.00000000000E+00 0.  1.
<mgrwt>
<rscale>  0 0.41858481E+03</rscale>
<asrwt>0</asrwt>
<pdfrwt beam="1">  1        1 0.12299625E+00 0.41858481E+03</pdfrwt>
<pdfrwt beam="2">  1       -2 0.64018658E-01 0.41858481E+03</pdfrwt>
<totfact> 0.46245175E+01</totfact>
</mgrwt>
</event>
<event>
12    3  0.1092576E-007  0.5063615E+03  0.7818608E-02  0.1012132E+00
         -2   -1    0    0    0  501 -0.00000000000E+00  0.00000000000E+00  0.70440747104E+03  0.70440747104E+03  0.00000000000E+00 0.  1.
          1   -1    0    0  501    0  0.00000000000E+00 -0.00000000000E+00 -0.53219707761E+03  0.53219707761E+03  0.00000000000E+00 0. -1.
        -24    2    1    2    0    0  0.79851870869E+01 -0.46107093216E+03  0.81194058967E+02  0.47438572067E+03  0.76152275519E+02 0.  0.
    5000000    2    1    2    0    0 -0.79851870869E+01  0.46107093216E+03  0.91016334467E+02  0.76221882798E+03  0.60003616632E+03 0.  0.
        -24    2    4    4    0    0 -0.13319090961E+03  0.31366944332E+03 -0.20050613160E+03  0.40324526701E+03  0.79219306247E+02 0.  0.
         24    2    4    4    0    0  0.12520572252E+03  0.14740148884E+03  0.29152246607E+03  0.35897356097E+03  0.80454940090E+02 0.  0.
         11    1    5    5    0    0 -0.58093038070E+02  0.21973126860E+03 -0.15276234327E+03  0.27384843435E+03  0.00000000000E+00 0. -1.
        -12    1    5    5    0    0 -0.75097871540E+02  0.93938174714E+02 -0.47743788335E+02  0.12939683266E+03  0.00000000000E+00 0.  1.
         15    1    3    3    0    0  0.36150426673E+02 -0.18483654418E+03  0.50688795178E+02  0.19504848910E+03  0.17770000000E+01 0. -1.
        -16    1    3    3    0    0 -0.28165239586E+02 -0.27623438798E+03  0.30505263790E+02  0.27933723157E+03  0.00000000000E+00 0.  1.
          2    1    6    6  502    0  0.19343546887E+02  0.56186426964E+02  0.14397737460E+03  0.15575805526E+03  0.00000000000E+00 0. -1.
         -1    1    6    6    0  502  0.10586217564E+03  0.91215061879E+02  0.14754509147E+03  0.20321550571E+03  0.00000000000E+00 0.  1.
<mgrwt>
<rscale>  0 0.50636152E+03</rscale>
<asrwt>0</asrwt>
<pdfrwt beam="1">  1        1 0.81876473E-01 0.50636152E+03</pdfrwt>
<pdfrwt beam="2">  1       -2 0.10837038E+00 0.50636152E+03</pdfrwt>
<totfact> 0.25269116E+01</totfact>
</mgrwt>
</event>
<event>
12    3  0.1092576E-007  0.5296709E+03  0.7818608E-02  0.1006312E+00
          1   -1    0    0  501    0  0.00000000000E+00  0.00000000000E+00  0.24748072739E+04  0.24748072739E+04  0.00000000000E+00 0. -1.
         -2   -1    0    0    0  501 -0.00000000000E+00 -0.00000000000E+00 -0.16977697820E+03  0.16977697820E+03  0.00000000000E+00 0.  1.
        -24    2    1    2    0    0 -0.15767897211E+02  0.46776287872E+03  0.12991075858E+04  0.13833306807E+04  0.82900634207E+02 0.  0.
    5000000    2    1    2    0    0  0.15767897211E+02 -0.46776287872E+03  0.10059227098E+04  0.12612535714E+04  0.59985776311E+03 0.  0.
        -24    2    4    4    0    0  0.17137596543E+03 -0.22493871333E+03  0.89481486913E+03  0.94173966034E+03  0.78821263375E+02 0.  0.
         24    2    4    4    0    0 -0.15560806821E+03 -0.24282416539E+03  0.11110784068E+03  0.31951391107E+03  0.81035429970E+02 0.  0.
         11    1    5    5    0    0  0.10459792879E+03 -0.18893780774E+03  0.61465153709E+03  0.65148655700E+03  0.00000000000E+00 0. -1.
        -12    1    5    5    0    0  0.66778036637E+02 -0.36000905590E+02  0.28016333204E+03  0.29025310334E+03  0.00000000000E+00 0.  1.
         15    1    3    3    0    0 -0.16563478448E+02  0.31920958163E+03  0.76862834034E+03  0.83244326481E+03  0.17770000000E+01 0. -1.
        -16    1    3    3    0    0  0.79558123646E+00  0.14855329709E+03  0.53047924551E+03  0.55088741585E+03  0.00000000000E+00 0.  1.
          2    1    6    6  502    0 -0.41939963486E+01 -0.67635015662E+02  0.19699050421E+02  0.70570089531E+02  0.00000000000E+00 0. -1.
         -1    1    6    6    0  502 -0.15141407187E+03 -0.17518914973E+03  0.91408790263E+02  0.24894382153E+03  0.00000000000E+00 0.  1.
<mgrwt>
<rscale>  0 0.52967088E+03</rscale>
<asrwt>0</asrwt>
<pdfrwt beam="1">  1        1 0.38073955E+00 0.52967088E+03</pdfrwt>
<pdfrwt beam="2">  1       -2 0.26119537E-01 0.52967088E+03</pdfrwt>
<totfact> 0.17833334E+01</totfact>
</mgrwt>
</event>
<event>
12    3  0.1092576E-007  0.6922341E+03  0.7818608E-02  0.9730606E-01
         -2   -1    0    0    0  501 -0.00000000000E+00  0.00000000000E+00  0.11258961557E+04  0.11258961557E+04  0.00000000000E+00 0.  1.
          1   -1    0    0  501    0  0.00000000000E+00 -0.00000000000E+00 -0.10446461908E+04  0.10446461908E+04  0.00000000000E+00 0. -1.
        -24    2    1    2    0    0  0.50939108347E+03  0.43372951854E+03 -0.70596401745E+03  0.97581649551E+03  0.78943446934E+02 0.  0.
    5000000    2    1    2    0    0 -0.50939108347E+03 -0.43372951854E+03  0.78721398234E+03  0.11947258510E+04  0.60005285928E+03 0.  0.
        -24    2    4    4    0    0 -0.45485119870E+02 -0.76476329256E-01  0.47290645285E+03  0.48155193331E+03  0.78631096541E+02 0.  0.
         24    2    4    4    0    0 -0.46390596360E+03 -0.43365304221E+03  0.31430752949E+03  0.71317391771E+03  0.81019193579E+02 0.  0.
         11    1    5    5    0    0 -0.40719308838E+02 -0.28010273701E+02  0.40450293973E+03  0.40751106217E+03  0.00000000000E+00 0. -1.
        -12    1    5    5    0    0 -0.47658110312E+01  0.27933797371E+02  0.68403513128E+02  0.74040871136E+02  0.00000000000E+00 0.  1.
         15    1    3    3    0    0  0.38235318700E+03  0.31296942283E+03 -0.47059219962E+03  0.68235181198E+03  0.17770000000E+01 0. -1.
        -16    1    3    3    0    0  0.12703789646E+03  0.12076009571E+03 -0.23537181783E+03  0.29346468353E+03  0.00000000000E+00 0.  1.
          4    1    6    6  502    0 -0.50282697712E+02 -0.72406625353E+02  0.67841846160E+02  0.11123661796E+03  0.00000000000E+00 0. -1.
         -3    1    6    6    0  502 -0.41362326589E+03 -0.36124641686E+03  0.24646568333E+03  0.60193729975E+03  0.00000000000E+00 0.  1.
<mgrwt>
<rscale>  0 0.69223411E+03</rscale>
<asrwt>0</asrwt>
<pdfrwt beam="1">  1        1 0.16071480E+00 0.69223411E+03</pdfrwt>
<pdfrwt beam="2">  1       -2 0.17321479E+00 0.69223411E+03</pdfrwt>
<totfact> 0.25723855E+00</totfact>
</mgrwt>
</event>
<event>
12    3  0.1092576E-007  0.4507734E+03  0.7818608E-02  0.1027492E+00
         -2   -1    0    0    0  501 -0.00000000000E+00  0.00000000000E+00  0.15639766289E+03  0.15639766289E+03  0.00000000000E+00 0.  1.
          1   -1    0    0  501    0  0.00000000000E+00 -0.00000000000E+00 -0.21914788770E+04  0.21914788770E+04  0.00000000000E+00 0. -1.
        -24    2    1    2    0    0  0.13350507757E+03  0.40446510921E+03 -0.70444410996E+03  0.82734328154E+03  0.82702908925E+02 0.  0.
    5000000    2    1    2    0    0 -0.13350507757E+03 -0.40446510921E+03 -0.13306371042E+04  0.15205332584E+04  0.60000888037E+03 0.  0.
        -24    2    4    4    0    0  0.24169277061E+02 -0.18992660572E+03 -0.53515726569E+02  0.21351599775E+03  0.77903008879E+02 0.  0.
         24    2    4    4    0    0 -0.15767435463E+03 -0.21453850349E+03 -0.12771213776E+04  0.13070172606E+04  0.79794328420E+02 0.  0.
         13    1    5    5    0    0  0.20930826073E+01  0.22666751833E+01 -0.16202247456E+02  0.16493381515E+02  0.00000000000E+00 0. -1.
        -14    1    5    5    0    0  0.22076194454E+02 -0.19219328090E+03 -0.37313479114E+02  0.19702261624E+03  0.00000000000E+00 0.  1.
         15    1    3    3    0    0  0.23050651707E+02  0.11532250193E+03 -0.13369172834E+03  0.17806529126E+03  0.17770000000E+01 0. -1.
        -16    1    3    3    0    0  0.11045442586E+03  0.28914260728E+03 -0.57075238162E+03  0.64927799028E+03  0.00000000000E+00 0.  1.
          4    1    6    6  502    0 -0.62929340231E+02 -0.15154305914E+03 -0.76973990034E+03  0.78703552322E+03  0.00000000000E+00 0. -1.
         -3    1    6    6    0  502 -0.94745014402E+02 -0.62995444350E+02 -0.50738147729E+03  0.51998173743E+03  0.00000000000E+00 0.  1.
<mgrwt>
<rscale>  0 0.45077341E+03</rscale>
<asrwt>0</asrwt>
<pdfrwt beam="1">  1        1 0.33715058E+00 0.45077341E+03</pdfrwt>
<pdfrwt beam="2">  1       -2 0.24061180E-01 0.45077341E+03</pdfrwt>
<totfact> 0.32493716E+01</totfact>
</mgrwt>
</event>
<event>
12    3  0.1092576E-007  0.1642622E+04  0.7818608E-02  0.8794783E-01
         -2   -1    0    0    0  501 -0.00000000000E+00  0.00000000000E+00  0.70997493038E+03  0.70997493038E+03  0.00000000000E+00 0.  1.
          1   -1    0    0  501    0  0.00000000000E+00 -0.00000000000E+00 -0.41586843181E+04  0.41586843181E+04  0.00000000000E+00 0. -1.
        -24    2    1    2    0    0  0.28701972106E+03  0.15746733536E+04 -0.23219091985E+04  0.28212939853E+04  0.80379936575E+02 0.  0.
    5000000    2    1    2    0    0 -0.28701972106E+03 -0.15746733536E+04 -0.11268001891E+04  0.20473652631E+04  0.60004113490E+03 0.  0.
        -24    2    4    4    0    0 -0.38773776309E+02 -0.13212631559E+04 -0.10091994811E+04  0.16649929608E+04  0.80487477065E+02 0.  0.
         24    2    4    4    0    0 -0.24824594475E+03 -0.25341019771E+03 -0.11760070806E+03  0.38237230235E+03  0.80844750476E+02 0.  0.
         13    1    5    5    0    0 -0.33123909030E+02 -0.11550272497E+04 -0.84718656858E+03  0.14327980398E+04  0.00000000000E+00 0. -1.
        -14    1    5    5    0    0 -0.56498672786E+01 -0.16623590627E+03 -0.16201291249E+03  0.23219492102E+03  0.00000000000E+00 0.  1.
         15    1    3    3    0    0  0.10257655063E+03  0.68861296813E+03 -0.10675642913E+04  0.12745220447E+04  0.17770000000E+01 0. -1.
        -16    1    3    3    0    0  0.18444317043E+03  0.88606038551E+03 -0.12543449072E+04  0.15467719406E+04  0.00000000000E+00 0.  1.
          2    1    6    6  502    0 -0.15601167034E+03 -0.20608193884E+03 -0.10038482676E+03  0.27728418679E+03  0.00000000000E+00 0. -1.
         -1    1    6    6    0  502 -0.92234274406E+02 -0.47328258866E+02 -0.17215881300E+02  0.10508811556E+03  0.00000000000E+00 0.  1.
<mgrwt>
<rscale>  0 0.16426223E+04</rscale>
<asrwt>0</asrwt>
<pdfrwt beam="1">  1        1 0.63979758E+00 0.16426223E+04</pdfrwt>
<pdfrwt beam="2">  1       -2 0.10922691E+00 0.16426223E+04</pdfrwt>
<totfact> 0.38509801E-02</totfact>
</mgrwt>
</event>
<event>
12    3  0.1092576E-007  0.7433665E+03  0.7818608E-02  0.9645815E-01
          1   -1    0    0  501    0  0.00000000000E+00  0.00000000000E+00  0.72156533236E+03  0.72156533236E+03  0.00000000000E+00 0. -1.
         -2   -1    0    0    0  501 -0.00000000000E+00 -0.00000000000E+00 -0.10099978968E+04  0.10099978968E+04  0.00000000000E+00 0.  1.
        -24    2    1    2    0    0 -0.47231807191E+03  0.54365750099E+03 -0.32726568218E+03  0.79338767361E+03  0.60937135406E+02 0.  0.
    5000000    2    1    2    0    0  0.47231807191E+03 -0.54365750099E+03  0.38833117741E+02  0.93817555554E+03  0.60001460195E+03 0.  0.
        -24    2    4    4    0    0  0.43949753474E+03 -0.39036091727E+03 -0.21439095044E+03  0.63081422703E+03  0.80145995662E+02 0.  0.
         24    2    4    4    0    0  0.32820537169E+02 -0.15329658371E+03  0.25322406818E+03  0.30736132851E+03  0.75970568779E+02 0.  0.
         11    1    5    5    0    0  0.11640433647E+03 -0.15347669019E+03 -0.71270681964E+02  0.20538883633E+03  0.00000000000E+00 0. -1.
        -12    1    5    5    0    0  0.32309319827E+03 -0.23688422709E+03 -0.14312026847E+03  0.42542539070E+03  0.00000000000E+00 0.  1.
         15    1    3    3    0    0 -0.31976514502E+03  0.33862418239E+03 -0.23506722432E+03  0.52170474653E+03  0.17770000000E+01 0. -1.
        -16    1    3    3    0    0 -0.15255292688E+03  0.20503331860E+03 -0.92198457868E+02  0.27168292708E+03  0.00000000000E+00 0.  1.
          2    1    6    6  502    0 -0.49716319604E+01 -0.12464981437E+03  0.20315259892E+03  0.23839729821E+03  0.00000000000E+00 0. -1.
         -1    1    6    6    0  502  0.37792169129E+02 -0.28646769345E+02  0.50071469256E+02  0.68964030297E+02  0.00000000000E+00 0.  1.
<mgrwt>
<rscale>  0 0.74336648E+03</rscale>
<asrwt>0</asrwt>
<pdfrwt beam="1">  1        1 0.11101005E+00 0.74336648E+03</pdfrwt>
<pdfrwt beam="2">  1       -2 0.15538429E+00 0.74336648E+03</pdfrwt>
<totfact> 0.63573912E+00</totfact>
</mgrwt>
</event>
<event>
12    3  0.1092576E-007  0.1097147E+04  0.7818608E-02  0.9207977E-01
         -2   -1    0    0    0  501 -0.00000000000E+00  0.00000000000E+00  0.12039123049E+04  0.12039123049E+04  0.00000000000E+00 0.  1.
          1   -1    0    0  501    0  0.00000000000E+00 -0.00000000000E+00 -0.15356568665E+04  0.15356568665E+04  0.00000000000E+00 0. -1.
        -24    2    1    2    0    0  0.10668964641E+03 -0.10541552810E+04  0.58744477295E+03  0.12140743100E+04  0.79114042761E+02 0.  0.
    5000000    2    1    2    0    0 -0.10668964641E+03  0.10541552810E+04 -0.91918933454E+03  0.15254948614E+04  0.59966615889E+03 0.  0.
        -24    2    4    4    0    0  0.14344629324E+03  0.44073616757E+03 -0.65899140850E+03  0.80934438441E+03  0.77093758808E+02 0.  0.
         24    2    4    4    0    0 -0.25013593965E+03  0.61341911345E+03 -0.26019792604E+03  0.71615047694E+03  0.79483003578E+02 0.  0.
         13    1    5    5    0    0  0.48104379521E+02  0.58395063167E+02 -0.11390589919E+03  0.13674270950E+03  0.00000000000E+00 0. -1.
        -14    1    5    5    0    0  0.95341913720E+02  0.38234110440E+03 -0.54508550931E+03  0.67260167491E+03  0.00000000000E+00 0.  1.
         15    1    3    3    0    0 -0.12783078971E+01 -0.30591300998E+03  0.18749532904E+03  0.35880643791E+03  0.17770000000E+01 0. -1.
        -16    1    3    3    0    0  0.10796795431E+03 -0.74824227104E+03  0.39994944392E+03  0.85526787208E+03  0.00000000000E+00 0.  1.
          2    1    6    6  502    0 -0.23176435663E+03  0.57890617474E+03 -0.26339388628E+03  0.67692201581E+03  0.00000000000E+00 0. -1.
         -1    1    6    6    0  502 -0.18371583020E+02  0.34512938710E+02  0.31959602395E+01  0.39228461134E+02  0.00000000000E+00 0.  1.
<mgrwt>
<rscale>  0 0.10971466E+04</rscale>
<asrwt>0</asrwt>
<pdfrwt beam="1">  1        1 0.23625490E+00 0.10971466E+04</pdfrwt>
<pdfrwt beam="2">  1       -2 0.18521728E+00 0.10971466E+04</pdfrwt>
<totfact> 0.89261842E-01</totfact>
</mgrwt>
</event>
<event>
12    3  0.1092576E-007  0.2624820E+04  0.7818608E-02  0.8359819E-01
          1   -1    0    0  501    0  0.00000000000E+00  0.00000000000E+00  0.28920711895E+04  0.28920711895E+04  0.00000000000E+00 0. -1.
         -2   -1    0    0    0  501 -0.00000000000E+00 -0.00000000000E+00 -0.23884502366E+04  0.23884502366E+04  0.00000000000E+00 0.  1.
        -24    2    1    2    0    0 -0.18938635526E+04  0.17716984954E+04  0.23645645318E+03  0.26052843762E+04  0.77203057149E+02 0.  0.
    5000000    2    1    2    0    0  0.18938635526E+04 -0.17716984954E+04  0.26716449969E+03  0.26752370499E+04  0.59990139913E+03 0.  0.
        -24    2    4    4    0    0  0.15101287235E+04 -0.10653985943E+04  0.11717838778E+03  0.18536296861E+04  0.81543316117E+02 0.  0.
         24    2    4    4    0    0  0.38373482916E+03 -0.70629990110E+03  0.14998611191E+03  0.82160736381E+03  0.80192624965E+02 0.  0.
         11    1    5    5    0    0  0.11022127794E+04 -0.82112808300E+03  0.84885582248E+02  0.13770729472E+04  0.00000000000E+00 0. -1.
        -12    1    5    5    0    0  0.40791594407E+03 -0.24427051130E+03  0.32292805531E+02  0.47655673892E+03  0.00000000000E+00 0.  1.
         15    1    3    3    0    0 -0.16440760591E+03  0.12589817662E+03  0.23225908932E+02  0.20838141071E+03  0.17770000000E+01 0. -1.
        -16    1    3    3    0    0 -0.17294559467E+04  0.16458003188E+04  0.21323054425E+03  0.23969029655E+04  0.00000000000E+00 0.  1.
          2    1    6    6  502    0  0.15353976727E+03 -0.23473383782E+03  0.21239564308E+02  0.28129264805E+03  0.00000000000E+00 0. -1.
         -1    1    6    6    0  502  0.23019506189E+03 -0.47156606328E+03  0.12874654760E+03  0.54031471576E+03  0.00000000000E+00 0.  1.
<mgrwt>
<rscale>  0 0.26248197E+04</rscale>
<asrwt>0</asrwt>
<pdfrwt beam="1">  1        1 0.44493403E+00 0.26248197E+04</pdfrwt>
<pdfrwt beam="2">  1       -2 0.36745388E+00 0.26248197E+04</pdfrwt>
<totfact> 0.62643868E-03</totfact>
</mgrwt>
</event>
<event>
12    3  0.1092576E-007  0.6511115E+03  0.7818608E-02  0.9804696E-01
          1   -1    0    0  501    0  0.00000000000E+00  0.00000000000E+00  0.11961838215E+04  0.11961838215E+04  0.00000000000E+00 0. -1.
         -2   -1    0    0    0  501 -0.00000000000E+00 -0.00000000000E+00 -0.43090336673E+03  0.43090336673E+03  0.00000000000E+00 0.  1.
        -24    2    1    2    0    0  0.35301633312E+03 -0.40851918495E+03  0.48663391326E+02  0.54788570981E+03  0.79386204334E+02 0.  0.
    5000000    2    1    2    0    0 -0.35301633312E+03  0.40851918495E+03  0.71661706340E+03  0.10792014784E+04  0.59968938580E+03 0.  0.
        -24    2    4    4    0    0 -0.47961558825E+03  0.26490801284E+03  0.66241242320E+03  0.86330066719E+03  0.79312393668E+02 0.  0.
         24    2    4    4    0    0  0.12659925513E+03  0.14361117210E+03  0.54204640198E+02  0.21590081118E+03  0.83806187717E+02 0.  0.
         11    1    5    5    0    0 -0.28948706311E+03  0.18032134698E+03  0.46325727426E+03  0.57526154925E+03  0.00000000000E+00 0. -1.
        -12    1    5    5    0    0 -0.19012852514E+03  0.84586665869E+02  0.19915514894E+03  0.28803911794E+03  0.00000000000E+00 0.  1.
         15    1    3    3    0    0  0.10772728923E+03 -0.18044076077E+03  0.60877384733E+01  0.21024808033E+03  0.17770000000E+01 0. -1.
        -16    1    3    3    0    0  0.24528904389E+03 -0.22807842418E+03  0.42575652852E+02  0.33763762949E+03  0.00000000000E+00 0.  1.
          2    1    6    6  502    0  0.10473698462E+03  0.15196816931E+03  0.54668736074E+02  0.19249111962E+03  0.00000000000E+00 0. -1.
         -1    1    6    6    0  502  0.21862270507E+02 -0.83569972046E+01 -0.46409587637E+00  0.23409691561E+02  0.00000000000E+00 0.  1.
<mgrwt>
<rscale>  0 0.65111146E+03</rscale>
<asrwt>0</asrwt>
<pdfrwt beam="1">  1        1 0.18402828E+00 0.65111146E+03</pdfrwt>
<pdfrwt beam="2">  1       -2 0.66292826E-01 0.65111146E+03</pdfrwt>
<totfact> 0.20493615E+01</totfact>
</mgrwt>
</event>
<event>
12    3  0.1092576E-007  0.6919911E+03  0.7818608E-02  0.9731027E-01
          1   -1    0    0  501    0  0.00000000000E+00  0.00000000000E+00  0.10655322529E+04  0.10655322529E+04  0.00000000000E+00 0. -1.
         -2   -1    0    0    0  501 -0.00000000000E+00 -0.00000000000E+00 -0.52680291551E+03  0.52680291551E+03  0.00000000000E+00 0.  1.
        -24    2    1    2    0    0  0.22065434058E+03 -0.56807731834E+03  0.76232743392E+02  0.62006080954E+03  0.85227922207E+02 0.  0.
    5000000    2    1    2    0    0 -0.22065434058E+03  0.56807731834E+03  0.46249659401E+03  0.97227435889E+03  0.60001179309E+03 0.  0.
        -24    2    4    4    0    0  0.14173095198E+03  0.19379686888E+03 -0.24640004121E+02  0.25452838598E+03  0.80824998164E+02 0.  0.
         24    2    4    4    0    0 -0.36238529256E+03  0.37428044946E+03  0.48713659813E+03  0.71774597291E+03  0.80301066467E+02 0.  0.
         13    1    5    5    0    0  0.12719707500E+03  0.19915016732E+03 -0.29860480201E+02  0.23818382252E+03  0.00000000000E+00 0. -1.
        -14    1    5    5    0    0  0.14533876977E+02 -0.53532984373E+01  0.52204760797E+01  0.16344563458E+02  0.00000000000E+00 0.  1.
         15    1    3    3    0    0  0.11532782305E+03 -0.35124826649E+03  0.90300647951E+01  0.36981150777E+03  0.17770000000E+01 0. -1.
        -16    1    3    3    0    0  0.10532651753E+03 -0.21682905186E+03  0.67202678597E+02  0.25024930177E+03  0.00000000000E+00 0.  1.
          4    1    6    6  502    0 -0.22032280291E+03  0.24278878898E+03  0.25408842760E+03  0.41478845521E+03  0.00000000000E+00 0. -1.
         -3    1    6    6    0  502 -0.14206248966E+03  0.13149166048E+03  0.23304817053E+03  0.30295751770E+03  0.00000000000E+00 0.  1.
<mgrwt>
<rscale>  0 0.69199110E+03</rscale>
<asrwt>0</asrwt>
<pdfrwt beam="1">  1        1 0.16392804E+00 0.69199110E+03</pdfrwt>
<pdfrwt beam="2">  1       -2 0.81046603E-01 0.69199110E+03</pdfrwt>
<totfact> 0.16348784E+01</totfact>
</mgrwt>
</event>
<event>
12    3  0.1092576E-007  0.1168695E+04  0.7818608E-02  0.9140708E-01
         -2   -1    0    0    0  501 -0.00000000000E+00  0.00000000000E+00  0.95964620797E+03  0.95964620797E+03  0.00000000000E+00 0.  1.
          1   -1    0    0  501    0  0.00000000000E+00 -0.00000000000E+00 -0.17699565224E+04  0.17699565224E+04  0.00000000000E+00 0. -1.
        -24    2    1    2    0    0  0.97141046934E+03 -0.51159564599E+03 -0.97158218111E+03  0.14682304057E+04  0.79750765007E+02 0.  0.
    5000000    2    1    2    0    0 -0.97141046934E+03  0.51159564599E+03  0.16127186665E+03  0.12613723247E+04  0.59973587660E+03 0.  0.
        -24    2    4    4    0    0 -0.45687281603E+03  0.54693672251E+03  0.17774920070E+03  0.73903567576E+03  0.81892632426E+02 0.  0.
         24    2    4    4    0    0 -0.51453765332E+03 -0.35341076521E+02 -0.16477334051E+02  0.52233664897E+03  0.81031376335E+02 0.  0.
         11    1    5    5    0    0 -0.87521500030E+02  0.14727215476E+03  0.65310565155E+02  0.18334276767E+03  0.00000000000E+00 0. -1.
        -12    1    5    5    0    0 -0.36935131600E+03  0.39966456775E+03  0.11243863554E+03  0.55569290810E+03  0.00000000000E+00 0.  1.
         15    1    3    3    0    0  0.25310790980E+03 -0.96560893579E+02 -0.25388371214E+03  0.37127849008E+03  0.17770000000E+01 0. -1.
        -16    1    3    3    0    0  0.71830255954E+03 -0.41503475241E+03 -0.71769846897E+03  0.10969519156E+04  0.00000000000E+00 0.  1.
          4    1    6    6  502    0 -0.18500806673E+02 -0.16813160160E+02 -0.65993086437E+01  0.25855619828E+02  0.00000000000E+00 0. -1.
         -3    1    6    6    0  502 -0.49603684664E+03 -0.18527916361E+02 -0.98780254075E+01  0.49648102914E+03  0.00000000000E+00 0.  1.
<mgrwt>
<rscale>  0 0.11686947E+04</rscale>
<asrwt>0</asrwt>
<pdfrwt beam="1">  1        1 0.27230100E+00 0.11686947E+04</pdfrwt>
<pdfrwt beam="2">  1       -2 0.14763788E+00 0.11686947E+04</pdfrwt>
<totfact> 0.11472178E+00</totfact>
</mgrwt>
</event>
<event>
12    3  0.1092576E-007  0.5283033E+03  0.7818608E-02  0.1006644E+00
          1   -1    0    0  501    0  0.00000000000E+00  0.00000000000E+00  0.23595156331E+04  0.23595156331E+04  0.00000000000E+00 0. -1.
         -2   -1    0    0    0  501 -0.00000000000E+00 -0.00000000000E+00 -0.23166957960E+03  0.23166957960E+03  0.00000000000E+00 0.  1.
        -24    2    1    2    0    0 -0.49669917983E+03  0.96040225556E+01  0.25838937538E+03  0.56592253422E+03  0.81859226336E+02 0.  0.
    5000000    2    1    2    0    0  0.49669917983E+03 -0.96040225556E+01  0.18694566782E+04  0.20252626785E+04  0.60001527729E+03 0.  0.
        -24    2    4    4    0    0  0.36966275792E+03  0.97989063988E+02  0.46236032889E+03  0.60517444722E+03  0.78782146311E+02 0.  0.
         24    2    4    4    0    0  0.12703642191E+03 -0.10759308654E+03  0.14070963493E+04  0.14200882313E+04  0.94952218468E+02 0.  0.
         13    1    5    5    0    0  0.11953781253E+03 -0.30157800816E+01  0.12124148027E+03  0.17028763928E+03  0.00000000000E+00 0. -1.
        -14    1    5    5    0    0  0.25012494539E+03  0.10100484407E+03  0.34111884862E+03  0.43488680793E+03  0.00000000000E+00 0.  1.
         15    1    3    3    0    0 -0.12779349194E+03 -0.16393226838E+01  0.28024204058E+02  0.13085250362E+03  0.17770000000E+01 0. -1.
        -16    1    3    3    0    0 -0.36890568789E+03  0.11243345239E+02  0.23036517133E+03  0.43507003060E+03  0.00000000000E+00 0.  1.
          2    1    6    6  502    0  0.64597539745E+02 -0.78045620549E+02  0.11291817860E+04  0.11337175428E+04  0.00000000000E+00 0. -1.
         -3    1    6    6    0  502  0.62438882168E+02 -0.29547465995E+02  0.27791456323E+03  0.28637068846E+03  0.00000000000E+00 0.  1.
<mgrwt>
<rscale>  0 0.52830327E+03</rscale>
<asrwt>0</asrwt>
<pdfrwt beam="1">  1        1 0.36300239E+00 0.52830327E+03</pdfrwt>
<pdfrwt beam="2">  1       -2 0.35641475E-01 0.52830327E+03</pdfrwt>
<totfact> 0.11996986E+01</totfact>
</mgrwt>
</event>
<event>
12    3  0.1092576E-007  0.4091889E+03  0.7818608E-02  0.1040644E+00
          1   -1    0    0  501    0  0.00000000000E+00  0.00000000000E+00  0.56998381882E+03  0.56998381882E+03  0.00000000000E+00 0. -1.
         -2   -1    0    0    0  501 -0.00000000000E+00 -0.00000000000E+00 -0.30409665765E+03  0.30409665765E+03  0.00000000000E+00 0.  1.
        -24    2    1    2    0    0  0.13939062683E+03 -0.12537109743E+03  0.77109531681E+02  0.21774040188E+03  0.79481720004E+02 0.  0.
    5000000    2    1    2    0    0 -0.13939062683E+03  0.12537109743E+03  0.18877762950E+03  0.65634007459E+03  0.59999803433E+03 0.  0.
        -24    2    4    4    0    0  0.72102794537E+02  0.31311266400E+03  0.12324244771E+03  0.35510352424E+03  0.87586863603E+02 0.  0.
         24    2    4    4    0    0 -0.21149342137E+03 -0.18774156657E+03  0.65535181790E+02  0.30123655035E+03  0.80450208898E+02 0.  0.
         11    1    5    5    0    0  0.79133657953E+02  0.28832873018E+03  0.88426944986E+02  0.31179306770E+03  0.00000000000E+00 0. -1.
        -12    1    5    5    0    0 -0.70308634165E+01  0.24783933819E+02  0.34815502720E+02  0.43310456539E+02  0.00000000000E+00 0.  1.
         15    1    3    3    0    0  0.43746227403E+02 -0.86136136624E+02  0.57740839636E+02  0.11256255477E+03  0.17770000000E+01 0. -1.
        -16    1    3    3    0    0  0.95644399431E+02 -0.39234960804E+02  0.19368692045E+02  0.10517784711E+03  0.00000000000E+00 0.  1.
          2    1    6    6  502    0 -0.97393396524E+02 -0.13857975826E+03  0.30028404160E+02  0.17202188275E+03  0.00000000000E+00 0. -1.
         -1    1    6    6    0  502 -0.11410002485E+03 -0.49161808308E+02  0.35506777630E+02  0.12921466760E+03  0.00000000000E+00 0.  1.
<mgrwt>
<rscale>  0 0.40918890E+03</rscale>
<asrwt>0</asrwt>
<pdfrwt beam="1">  1        1 0.87689818E-01 0.40918890E+03</pdfrwt>
<pdfrwt beam="2">  1       -2 0.46784101E-01 0.40918890E+03</pdfrwt>
<totfact> 0.14507288E+02</totfact>
</mgrwt>
</event>
<event>
12    3  0.1092576E-007  0.5236546E+03  0.7818608E-02  0.1007783E+00
         -2   -1    0    0    0  501 -0.00000000000E+00  0.00000000000E+00  0.76885496296E+03  0.76885496296E+03  0.00000000000E+00 0.  1.
          1   -1    0    0  501    0  0.00000000000E+00 -0.00000000000E+00 -0.39963393169E+03  0.39963393169E+03  0.00000000000E+00 0. -1.
        -24    2    1    2    0    0 -0.74388038125E+02 -0.38030467409E+03  0.12751731289E+03  0.41455579012E+03  0.73692690849E+02 0.  0.
    5000000    2    1    2    0    0  0.74388038125E+02  0.38030467409E+03  0.24170371839E+03  0.75393310453E+03  0.59985766085E+03 0.  0.
        -24    2    4    4    0    0 -0.18531612026E+03  0.34354006328E+03  0.15713085354E+02  0.40133683220E+03  0.91991914440E+02 0.  0.
         24    2    4    4    0    0  0.25970415838E+03  0.36764610806E+02  0.22599063304E+03  0.35259627233E+03  0.66741880065E+02 0.  0.
         13    1    5    5    0    0 -0.12737878971E+03  0.22047452756E+03 -0.33214526325E+02  0.25678313443E+03  0.00000000000E+00 0. -1.
        -14    1    5    5    0    0 -0.57937330551E+02  0.12306553572E+03  0.48927611678E+02  0.14455369777E+03  0.00000000000E+00 0.  1.
         15    1    3    3    0    0 -0.15171482237E+02 -0.79653470218E+02 -0.37597334670E+01  0.81192010172E+02  0.17770000000E+01 0. -1.
        -16    1    3    3    0    0 -0.59216555888E+02 -0.30065120387E+03  0.13127704636E+03  0.33336377994E+03  0.00000000000E+00 0.  1.
          4    1    6    6  502    0  0.24617629007E+03  0.19150605756E+02  0.19587530020E+03  0.31517716402E+03  0.00000000000E+00 0. -1.
         -1    1    6    6    0  502  0.13527868316E+02  0.17614005051E+02  0.30115332836E+02  0.37419108313E+02  0.00000000000E+00 0.  1.
<mgrwt>
<rscale>  0 0.52365461E+03</rscale>
<asrwt>0</asrwt>
<pdfrwt beam="1">  1        1 0.61482143E-01 0.52365461E+03</pdfrwt>
<pdfrwt beam="2">  1       -2 0.11828538E+00 0.52365461E+03</pdfrwt>
<totfact> 0.29970749E+01</totfact>
</mgrwt>
</event>
<event>
12    3  0.1192164E-007  0.1292684E+04  0.7818608E-02  0.9035387E-01
         -2   -1    0    0    0  501 -0.00000000000E+00  0.00000000000E+00  0.87084893391E+03  0.87084893391E+03  0.00000000000E+00 0.  1.
          1   -1    0    0  501    0  0.00000000000E+00 -0.00000000000E+00 -0.22525417844E+04  0.22525417844E+04  0.00000000000E+00 0. -1.
        -24    2    1    2    0    0 -0.62728861071E+03 -0.10980940321E+04 -0.18229440982E+03  0.12800942389E+04  0.78156919631E+02 0.  0.
    5000000    2    1    2    0    0  0.62728861071E+03  0.10980940321E+04 -0.11993984407E+04  0.18432964794E+04  0.59990314805E+03 0.  0.
        -24    2    4    4    0    0 -0.10171045287E+02  0.60248660292E+02 -0.32900494116E+03  0.34412601207E+03  0.80281440225E+02 0.  0.
         24    2    4    4    0    0  0.63745965599E+03  0.10378453718E+04 -0.87039349954E+03  0.14991704674E+04  0.80308264451E+02 0.  0.
         11    1    5    5    0    0 -0.20070604787E+02 -0.14629285675E+02 -0.67152915190E+02  0.71598597713E+02  0.00000000000E+00 0. -1.
        -12    1    5    5    0    0  0.98995594993E+01  0.74877945967E+02 -0.26185202597E+03  0.27252741436E+03  0.00000000000E+00 0.  1.
         15    1    3    3    0    0 -0.44614403855E+03 -0.70988975843E+03 -0.10949706468E+03  0.84556533583E+03  0.17770000000E+01 0. -1.
        -16    1    3    3    0    0 -0.18114457216E+03 -0.38820427370E+03 -0.72797345147E+02  0.43452890307E+03  0.00000000000E+00 0.  1.
          2    1    6    6  502    0  0.25494859043E+03  0.43517242680E+03 -0.31383021421E+03  0.59402291888E+03  0.00000000000E+00 0. -1.
         -1    1    6    6    0  502  0.38251106557E+03  0.60267294504E+03 -0.55656328533E+03  0.90514754849E+03  0.00000000000E+00 0.  1.
<mgrwt>
<rscale>  0 0.12926836E+04</rscale>
<asrwt>0</asrwt>
<pdfrwt beam="1">  1        1 0.34654489E+00 0.12926836E+04</pdfrwt>
<pdfrwt beam="2">  1       -2 0.13397676E+00 0.12926836E+04</pdfrwt>
<totfact> 0.68647841E-01</totfact>
</mgrwt>
</event>
<event>
12    3  0.1092576E-007  0.1347229E+04  0.7818608E-02  0.8992928E-01
         -2   -1    0    0    0  501 -0.00000000000E+00  0.00000000000E+00  0.15508726379E+04  0.15508726379E+04  0.00000000000E+00 0.  1.
          1   -1    0    0  501    0  0.00000000000E+00 -0.00000000000E+00 -0.15072514676E+04  0.15072514676E+04  0.00000000000E+00 0. -1.
        -24    2    1    2    0    0 -0.28802790604E+03 -0.13127605378E+04 -0.57184491827E+03  0.14627598318E+04  0.79745912725E+02 0.  0.
    5000000    2    1    2    0    0  0.28802790604E+03  0.13127605378E+04  0.61546608858E+03  0.15953642738E+04  0.60007362529E+03 0.  0.
        -24    2    4    4    0    0  0.15757043864E+03  0.76243108060E+03  0.39338605515E+02  0.78369888543E+03  0.80664870528E+02 0.  0.
         24    2    4    4    0    0  0.13045746740E+03  0.55032945719E+03  0.57612748306E+03  0.81166538840E+03  0.83643073443E+02 0.  0.
         11    1    5    5    0    0  0.14246778209E+03  0.73084371420E+03  0.52130897249E+02  0.74642295916E+03  0.00000000000E+00 0. -1.
        -12    1    5    5    0    0  0.15102656551E+02  0.31587366402E+02 -0.12792291733E+02  0.37275926265E+02  0.00000000000E+00 0.  1.
         15    1    3    3    0    0 -0.14151586976E+03 -0.67391323620E+03 -0.25019764928E+03  0.73265804626E+03  0.17770000000E+01 0. -1.
        -16    1    3    3    0    0 -0.14651203628E+03 -0.63884730159E+03 -0.32164726900E+03  0.73010178549E+03  0.00000000000E+00 0.  1.
          2    1    6    6  502    0  0.23888783448E+02  0.26740905013E+03  0.29416558389E+03  0.39826080000E+03  0.00000000000E+00 0. -1.
         -1    1    6    6    0  502  0.10656868395E+03  0.28292040706E+03  0.28196189917E+03  0.41340458840E+03  0.00000000000E+00 0.  1.
<mgrwt>
<rscale>  0 0.13472292E+04</rscale>
<asrwt>0</asrwt>
<pdfrwt beam="1">  1        1 0.23188484E+00 0.13472292E+04</pdfrwt>
<pdfrwt beam="2">  1       -2 0.23859579E+00 0.13472292E+04</pdfrwt>
<totfact> 0.41053051E-01</totfact>
</mgrwt>
</event>
<event>
12    3  0.1092576E-007  0.4858233E+03  0.7818608E-02  0.1017547E+00
          1   -1    0    0  501    0  0.00000000000E+00  0.00000000000E+00  0.11666383056E+04  0.11666383056E+04  0.00000000000E+00 0. -1.
         -2   -1    0    0    0  501 -0.00000000000E+00 -0.00000000000E+00 -0.31955258163E+03  0.31955258163E+03  0.00000000000E+00 0.  1.
        -24    2    1    2    0    0 -0.28351116535E+03  0.31732972873E+03  0.11432446913E+03  0.44791390858E+03  0.80498743108E+02 0.  0.
    5000000    2    1    2    0    0  0.28351116535E+03 -0.31732972873E+03  0.73276125485E+03  0.10382769787E+04  0.60000274182E+03 0.  0.
        -24    2    4    4    0    0  0.51714892019E+02  0.54576147180E+02  0.54292396100E+03  0.55404768940E+03  0.80928541326E+02 0.  0.
         24    2    4    4    0    0  0.23179627333E+03 -0.37190587591E+03  0.18983729385E+03  0.48422928926E+03  0.79976956510E+02 0.  0.
         11    1    5    5    0    0 -0.15314304288E+02  0.28970373190E+02  0.96947376995E+02  0.10233574324E+03  0.00000000000E+00 0. -1.
        -12    1    5    5    0    0  0.67029196306E+02  0.25605773990E+02  0.44597658401E+03  0.45171194616E+03  0.00000000000E+00 0.  1.
         15    1    3    3    0    0 -0.22570264806E+03  0.24814164723E+03  0.12313326043E+03  0.35732467027E+03  0.17770000000E+01 0. -1.
        -16    1    3    3    0    0 -0.57808517284E+02  0.69188081498E+02 -0.88087913006E+01  0.90589238302E+02  0.00000000000E+00 0.  1.
          2    1    6    6  502    0  0.97752308610E+02 -0.10894794506E+03  0.33210437749E+02  0.15009364326E+03  0.00000000000E+00 0. -1.
         -1    1    6    6    0  502  0.13404396472E+03 -0.26295793085E+03  0.15662685610E+03  0.33413564600E+03  0.00000000000E+00 0.  1.
<mgrwt>
<rscale>  0 0.48582326E+03</rscale>
<asrwt>0</asrwt>
<pdfrwt beam="1">  1        1 0.17948281E+00 0.48582326E+03</pdfrwt>
<pdfrwt beam="2">  1       -2 0.49161936E-01 0.48582326E+03</pdfrwt>
<totfact> 0.41052562E+01</totfact>
</mgrwt>
</event>
<event>
12    3  0.1092576E-007  0.6380674E+03  0.7818608E-02  0.9829431E-01
          1   -1    0    0  501    0  0.00000000000E+00  0.00000000000E+00  0.24466004951E+03  0.24466004951E+03  0.00000000000E+00 0. -1.
         -2   -1    0    0    0  501 -0.00000000000E+00 -0.00000000000E+00 -0.18710611058E+04  0.18710611058E+04  0.00000000000E+00 0.  1.
        -24    2    1    2    0    0  0.51526323977E+03  0.27705079778E+02 -0.90484573722E+03  0.10447514317E+04  0.80597568774E+02 0.  0.
    5000000    2    1    2    0    0 -0.51526323977E+03 -0.27705079778E+02 -0.72155531905E+03  0.10709697236E+04  0.60005857446E+03 0.  0.
        -24    2    4    4    0    0  0.78891593288E+02 -0.12772700814E+03 -0.82749857515E+02  0.18923647753E+03  0.80155058539E+02 0.  0.
         24    2    4    4    0    0 -0.59415483306E+03  0.10002192837E+03 -0.63880546154E+03  0.88173324610E+03  0.79729215373E+02 0.  0.
         11    1    5    5    0    0  0.32013916560E+02 -0.87928441323E+02 -0.86767004986E+02  0.12761196966E+03  0.00000000000E+00 0. -1.
        -12    1    5    5    0    0  0.46877676728E+02 -0.39798566819E+02  0.40171474710E+01  0.61624507869E+02  0.00000000000E+00 0.  1.
         15    1    3    3    0    0  0.52505068394E+02  0.18299141855E+02 -0.14148651873E+03  0.15203037036E+03  0.17770000000E+01 0. -1.
        -16    1    3    3    0    0  0.46275817138E+03  0.94059379227E+01 -0.76335921849E+03  0.89272106130E+03  0.00000000000E+00 0.  1.
          2    1    6    6  502    0 -0.34099512606E+03  0.52909455793E+02 -0.42189931297E+03  0.54504689412E+03  0.00000000000E+00 0. -1.
         -1    1    6    6    0  502 -0.25315970700E+03  0.47112472572E+02 -0.21690614857E+03  0.33668635198E+03  0.00000000000E+00 0.  1.
<mgrwt>
<rscale>  0 0.63806743E+03</rscale>
<asrwt>0</asrwt>
<pdfrwt beam="1">  1        1 0.37640008E-01 0.63806743E+03</pdfrwt>
<pdfrwt beam="2">  1       -2 0.28785555E+00 0.63806743E+03</pdfrwt>
<totfact> 0.39785291E+00</totfact>
</mgrwt>
</event>
<event>
12    3  0.1092576E-007  0.8167881E+03  0.7818608E-02  0.9536030E-01
         -2   -1    0    0    0  501 -0.00000000000E+00  0.00000000000E+00  0.22861929085E+03  0.22861929085E+03  0.00000000000E+00 0.  1.
          1   -1    0    0  501    0  0.00000000000E+00 -0.00000000000E+00 -0.45349201846E+04  0.45349201846E+04  0.00000000000E+00 0. -1.
        -24    2    1    2    0    0  0.36904837582E+03  0.61276215552E+03 -0.58668415015E+03  0.92853955520E+03  0.79455966473E+02 0.  0.
    5000000    2    1    2    0    0 -0.36904837582E+03 -0.61276215552E+03 -0.37196167436E+04  0.38349999202E+04  0.60000125514E+03 0.  0.
        -24    2    4    4    0    0  0.12972741013E+03 -0.30484695856E+03 -0.12510707452E+04  0.12965894838E+04  0.78774430296E+02 0.  0.
         24    2    4    4    0    0 -0.49877578595E+03 -0.30791519696E+03 -0.24685459984E+04  0.25384104365E+04  0.78861553621E+02 0.  0.
         11    1    5    5    0    0  0.42777701579E+02 -0.12206215257E+03 -0.63767373530E+03  0.65065881499E+03  0.00000000000E+00 0. -1.
        -12    1    5    5    0    0  0.86949708552E+02 -0.18278480599E+03 -0.61339700990E+03  0.64593066878E+03  0.00000000000E+00 0.  1.
         15    1    3    3    0    0  0.18894247190E+03  0.31029554096E+03 -0.24673447368E+03  0.43916242856E+03  0.17770000000E+01 0. -1.
        -16    1    3    3    0    0  0.18010590392E+03  0.30246661456E+03 -0.33994967647E+03  0.48937712665E+03  0.00000000000E+00 0.  1.
          4    1    6    6  502    0 -0.97433410044E+01 -0.30093858087E+01 -0.11022996473E+03  0.11070065141E+03  0.00000000000E+00 0. -1.
         -3    1    6    6    0  502 -0.48903244495E+03 -0.30490581115E+03 -0.23583160336E+04  0.24277097850E+04  0.00000000000E+00 0.  1.
<mgrwt>
<rscale>  0 0.81678810E+03</rscale>
<asrwt>0</asrwt>
<pdfrwt beam="1">  1        1 0.69768003E+00 0.81678810E+03</pdfrwt>
<pdfrwt beam="2">  1       -2 0.35172199E-01 0.81678810E+03</pdfrwt>
<totfact> 0.22033502E-01</totfact>
</mgrwt>
</event>
<event>
12    3  0.1092576E-007  0.5867466E+03  0.7818608E-02  0.9933291E-01
          1   -1    0    0  501    0  0.00000000000E+00  0.00000000000E+00  0.34574529417E+03  0.34574529417E+03  0.00000000000E+00 0. -1.
         -2   -1    0    0    0  501 -0.00000000000E+00 -0.00000000000E+00 -0.14627470247E+04  0.14627470247E+04  0.00000000000E+00 0.  1.
        -24    2    1    2    0    0  0.56281360198E+03 -0.87040919504E+02 -0.60754850445E+03  0.83693739768E+03  0.83748135122E+02 0.  0.
    5000000    2    1    2    0    0 -0.56281360198E+03  0.87040919504E+02 -0.50945322605E+03  0.97155492115E+03  0.60003425156E+03 0.  0.
        -24    2    4    4    0    0 -0.18933537937E+03  0.80994005755E+01 -0.53591603401E+03  0.57368346058E+03  0.77415962587E+02 0.  0.
         24    2    4    4    0    0 -0.37347822261E+03  0.78941518929E+02  0.26462807959E+02  0.39787146058E+03  0.10901225968E+03 0.  0.
         13    1    5    5    0    0 -0.19204556875E+03 -0.29589520953E+01 -0.48808948099E+03  0.52452034978E+03  0.00000000000E+00 0. -1.
        -14    1    5    5    0    0  0.27101893826E+01  0.11058352671E+02 -0.47826553015E+02  0.49163110800E+02  0.00000000000E+00 0.  1.
         15    1    3    3    0    0  0.33010659510E+03 -0.90455653457E+02 -0.34250807839E+03  0.48421847431E+03  0.17770000000E+01 0. -1.
        -16    1    3    3    0    0  0.23270700688E+03  0.34147339521E+01 -0.26504042606E+03  0.35271892337E+03  0.00000000000E+00 0.  1.
          2    1    6    6  502    0 -0.33471320952E+03  0.35167348513E+02  0.83510146093E+01  0.33665919633E+03  0.00000000000E+00 0. -1.
         -1    1    6    6    0  502 -0.38765013090E+02  0.43774170416E+02  0.18111793350E+02  0.61212264244E+02  0.00000000000E+00 0.  1.
<mgrwt>
<rscale>  0 0.58674663E+03</rscale>
<asrwt>0</asrwt>
<pdfrwt beam="1">  1        1 0.53191584E-01 0.58674663E+03</pdfrwt>
<pdfrwt beam="2">  1       -2 0.22503800E+00 0.58674663E+03</pdfrwt>
<totfact> 0.61323009E+00</totfact>
</mgrwt>
</event>
<event>
12    3  0.1092576E-007  0.1454756E+04  0.7818608E-02  0.8915110E-01
         -2   -1    0    0    0  501 -0.00000000000E+00  0.00000000000E+00  0.14651959340E+04  0.14651959340E+04  0.00000000000E+00 0.  1.
          1   -1    0    0  501    0  0.00000000000E+00 -0.00000000000E+00 -0.15579602245E+04  0.15579602245E+04  0.00000000000E+00 0. -1.
        -24    2    1    2    0    0 -0.66095202753E+03 -0.12798165757E+04  0.12045308990E+03  0.14482461113E+04  0.90109943154E+02 0.  0.
    5000000    2    1    2    0    0  0.66095202753E+03  0.12798165757E+04 -0.21321738042E+03  0.15749100473E+04  0.60007662484E+03 0.  0.
        -24    2    4    4    0    0  0.58633022102E+03  0.91334871098E+03  0.82739648357E+02  0.10915315089E+04  0.81278469858E+02 0.  0.
         24    2    4    4    0    0  0.74621806503E+02  0.36646786469E+03 -0.29595702878E+03  0.48337853835E+03  0.78721906700E+02 0.  0.
         11    1    5    5    0    0  0.28547153495E+03  0.40148303180E+03  0.43861714742E+01  0.49264780583E+03  0.00000000000E+00 0. -1.
        -12    1    5    5    0    0  0.30085868607E+03  0.51186567918E+03  0.78353476883E+02  0.59888370311E+03  0.00000000000E+00 0.  1.
         15    1    3    3    0    0 -0.27787433565E+03 -0.63469688478E+03  0.65508573663E+02  0.69595173174E+03  0.17770000000E+01 0. -1.
        -16    1    3    3    0    0 -0.38307769187E+03 -0.64511969090E+03  0.54944516232E+02  0.75229437952E+03  0.00000000000E+00 0.  1.
          2    1    6    6  502    0  0.11964559170E+02  0.22451772770E+03 -0.14943484775E+03  0.26996691362E+03  0.00000000000E+00 0. -1.
         -1    1    6    6    0  502  0.62657247333E+02  0.14195013699E+03 -0.14652218103E+03  0.21341162473E+03  0.00000000000E+00 0.  1.
<mgrwt>
<rscale>  0 0.14547556E+04</rscale>
<asrwt>0</asrwt>
<pdfrwt beam="1">  1        1 0.23968619E+00 0.14547556E+04</pdfrwt>
<pdfrwt beam="2">  1       -2 0.22541476E+00 0.14547556E+04</pdfrwt>
<totfact> 0.45239593E-01</totfact>
</mgrwt>
</event>
<event>
12    3  0.1092576E-007  0.4999592E+03  0.7818608E-02  0.1013790E+00
          1   -1    0    0  501    0  0.00000000000E+00  0.00000000000E+00  0.49599697173E+04  0.49599697173E+04  0.00000000000E+00 0. -1.
         -2   -1    0    0    0  501 -0.00000000000E+00 -0.00000000000E+00 -0.60809977072E+02  0.60809977072E+02  0.00000000000E+00 0.  1.
        -24    2    1    2    0    0  0.29720800750E+03  0.15919762739E+03  0.25311969228E+04  0.25548197076E+04  0.80432531544E+02 0.  0.
    5000000    2    1    2    0    0 -0.29720800750E+03 -0.15919762739E+03  0.23679628174E+04  0.24659599868E+04  0.60002855539E+03 0.  0.
        -24    2    4    4    0    0 -0.11005948096E+02 -0.31908123463E+03  0.14803829112E+04  0.15165767741E+04  0.80855321277E+02 0.  0.
         24    2    4    4    0    0 -0.28620205940E+03  0.15988360724E+03  0.88757990627E+03  0.94938321264E+03  0.77820355590E+02 0.  0.
         11    1    5    5    0    0  0.97371807066E+00 -0.15696215767E+03  0.91178669827E+03  0.92519892467E+03  0.00000000000E+00 0. -1.
        -12    1    5    5    0    0 -0.11979666167E+02 -0.16211907696E+03  0.56859621289E+03  0.59137784946E+03  0.00000000000E+00 0.  1.
         15    1    3    3    0    0  0.23546969448E+03  0.15621027925E+03  0.19549283730E+04  0.19752457391E+04  0.17770000000E+01 0. -1.
        -16    1    3    3    0    0  0.61738313017E+02  0.29873481386E+01  0.57626854976E+03  0.57957396852E+03  0.00000000000E+00 0.  1.
          4    1    6    6  502    0 -0.16119029166E+03  0.13097049936E+03  0.51361592371E+03  0.55401886151E+03  0.00000000000E+00 0. -1.
         -3    1    6    6    0  502 -0.12501176774E+03  0.28913107885E+02  0.37396398257E+03  0.39536435112E+03  0.00000000000E+00 0.  1.
<mgrwt>
<rscale>  0 0.49995923E+03</rscale>
<asrwt>0</asrwt>
<pdfrwt beam="1">  1        1 0.76307195E+00 0.49995923E+03</pdfrwt>
<pdfrwt beam="2">  1       -2 0.93553850E-02 0.49995923E+03</pdfrwt>
<totfact> 0.81389831E-01</totfact>
</mgrwt>
</event>
<event>
12    3  0.1092576E-007  0.7467476E+03  0.7818608E-02  0.9640467E-01
          1   -1    0    0  501    0  0.00000000000E+00  0.00000000000E+00  0.19876265382E+04  0.19876265382E+04  0.00000000000E+00 0. -1.
         -2   -1    0    0    0  501 -0.00000000000E+00 -0.00000000000E+00 -0.69465709076E+03  0.69465709076E+03  0.00000000000E+00 0.  1.
        -24    2    1    2    0    0  0.49806837646E+02  0.71460693727E+03 -0.34305802596E+03  0.79822336838E+03  0.79548355019E+02 0.  0.
    5000000    2    1    2    0    0 -0.49806837646E+02 -0.71460693727E+03  0.16360274734E+04  0.18840602605E+04  0.59996114532E+03 0.  0.
        -24    2    4    4    0    0 -0.14811899117E+03 -0.21896657402E+03  0.11341224872E+04  0.11672986903E+04  0.80416541552E+02 0.  0.
         24    2    4    4    0    0  0.98312153522E+02 -0.49564036324E+03  0.50190498611E+03  0.71676157026E+03  0.80708638417E+02 0.  0.
         13    1    5    5    0    0 -0.64702991870E+02 -0.52926902793E+02  0.48304381767E+03  0.49022348372E+03  0.00000000000E+00 0. -1.
        -14    1    5    5    0    0 -0.83415999299E+02 -0.16603967123E+03  0.65107866958E+03  0.67707520656E+03  0.00000000000E+00 0.  1.
         15    1    3    3    0    0  0.54968035728E+02  0.37823076501E+03 -0.15186879070E+03  0.41127519238E+03  0.17770000000E+01 0. -1.
        -16    1    3    3    0    0 -0.51611980817E+01  0.33637617225E+03 -0.19118923526E+03  0.38694817600E+03  0.00000000000E+00 0.  1.
          4    1    6    6  502    0  0.40065698045E+02 -0.23526487102E+03  0.29301801756E+03  0.37790789660E+03  0.00000000000E+00 0. -1.
         -1    1    6    6    0  502  0.58246455477E+02 -0.26037549222E+03  0.20888696855E+03  0.33885367366E+03  0.00000000000E+00 0.  1.
<mgrwt>
<rscale>  0 0.74674758E+03</rscale>
<asrwt>0</asrwt>
<pdfrwt beam="1">  1        1 0.30578870E+00 0.74674758E+03</pdfrwt>
<pdfrwt beam="2">  1       -2 0.10687032E+00 0.74674758E+03</pdfrwt>
<totfact> 0.19632362E+00</totfact>
</mgrwt>
</event>
<event>
12    3  0.1092576E-007  0.1708741E+04  0.7818608E-02  0.8756395E-01
         -2   -1    0    0    0  501 -0.00000000000E+00  0.00000000000E+00  0.80882057558E+03  0.80882057558E+03  0.00000000000E+00 0.  1.
          1   -1    0    0  501    0  0.00000000000E+00 -0.00000000000E+00 -0.40060057399E+04  0.40060057399E+04  0.00000000000E+00 0. -1.
        -24    2    1    2    0    0 -0.16561867395E+04 -0.28860453973E+03 -0.22009091467E+04  0.27706272181E+04  0.78275239721E+02 0.  0.
    5000000    2    1    2    0    0  0.16561867395E+04  0.28860453973E+03 -0.99627601756E+03  0.20441990973E+04  0.59994745573E+03 0.  0.
        -24    2    4    4    0    0  0.11594511266E+04 -0.29281494917E+01 -0.86359002328E+03  0.14479420835E+04  0.80081582183E+02 0.  0.
         24    2    4    4    0    0  0.49673561297E+03  0.29153268922E+03 -0.13268599429E+03  0.59625701384E+03  0.78608367157E+02 0.  0.
         11    1    5    5    0    0  0.78842841154E+03  0.19321366174E+02 -0.54821988882E+03  0.96048827260E+03  0.00000000000E+00 0. -1.
        -12    1    5    5    0    0  0.37102271503E+03 -0.22249515666E+02 -0.31537013446E+03  0.48745381086E+03  0.00000000000E+00 0.  1.
         15    1    3    3    0    0 -0.71848018986E+03 -0.12862623778E+03 -0.89228231656E+03  0.11527919944E+04  0.17770000000E+01 0. -1.
        -16    1    3    3    0    0 -0.93770654969E+03 -0.15997830194E+03 -0.13086268302E+04  0.16178352237E+04  0.00000000000E+00 0.  1.
          2    1    6    6  502    0  0.38037304649E+03  0.22369962801E+03 -0.13526125265E+03  0.46154174733E+03  0.00000000000E+00 0. -1.
         -1    1    6    6    0  502  0.11636256649E+03  0.67833061212E+02  0.25752583587E+01  0.13471526650E+03  0.00000000000E+00 0.  1.
<mgrwt>
<rscale>  0 0.17087412E+04</rscale>
<asrwt>0</asrwt>
<pdfrwt beam="1">  1        1 0.61630858E+00 0.17087412E+04</pdfrwt>
<pdfrwt beam="2">  1       -2 0.12443393E+00 0.17087412E+04</pdfrwt>
<totfact> 0.37841287E-02</totfact>
</mgrwt>
</event>
<event>
12    3  0.1092576E-007  0.1045795E+04  0.7818608E-02  0.9259697E-01
          1   -1    0    0  501    0  0.00000000000E+00  0.00000000000E+00  0.24756250307E+04  0.24756250307E+04  0.00000000000E+00 0. -1.
         -2   -1    0    0    0  501 -0.00000000000E+00 -0.00000000000E+00 -0.48967462711E+03  0.48967462711E+03  0.00000000000E+00 0.  1.
        -24    2    1    2    0    0  0.70959872093E+03  0.65222527558E+03  0.48142950909E+03  0.10804683297E+04  0.81910222004E+02 0.  0.
    5000000    2    1    2    0    0 -0.70959872093E+03 -0.65222527558E+03  0.15045208945E+04  0.18848313281E+04  0.60006487855E+03 0.  0.
        -24    2    4    4    0    0 -0.75230904541E+03 -0.38738789510E+03  0.10454217370E+04  0.13472624919E+04  0.78557831203E+02 0.  0.
         24    2    4    4    0    0  0.42710324471E+02 -0.26483738048E+03  0.45909915750E+03  0.53756883617E+03  0.79026623917E+02 0.  0.
         13    1    5    5    0    0 -0.46157694438E+03 -0.19467627547E+03  0.62513871876E+03  0.80109334382E+03  0.00000000000E+00 0. -1.
        -14    1    5    5    0    0 -0.29073210102E+03 -0.19271161963E+03  0.42028301824E+03  0.54616914809E+03  0.00000000000E+00 0.  1.
         15    1    3    3    0    0  0.22321483185E+03  0.15589841273E+03  0.14232141769E+03  0.30722584512E+03  0.17770000000E+01 0. -1.
        -16    1    3    3    0    0  0.48638388909E+03  0.49632686285E+03  0.33910809140E+03  0.77324248461E+03  0.00000000000E+00 0.  1.
          4    1    6    6  502    0  0.53737144232E+02 -0.15101772973E+03  0.21661660792E+03  0.26947502702E+03  0.00000000000E+00 0. -1.
         -1    1    6    6    0  502 -0.11026819761E+02 -0.11381965075E+03  0.24248254959E+03  0.26809380915E+03  0.00000000000E+00 0.  1.
<mgrwt>
<rscale>  0 0.10457945E+04</rscale>
<asrwt>0</asrwt>
<pdfrwt beam="1">  1        1 0.38086538E+00 0.10457945E+04</pdfrwt>
<pdfrwt beam="2">  1       -2 0.75334559E-01 0.10457945E+04</pdfrwt>
<totfact> 0.19717514E+00</totfact>
</mgrwt>
</event>
<event>
12    3  0.1092576E-007  0.4420058E+03  0.7818608E-02  0.1030133E+00
          1   -1    0    0  501    0  0.00000000000E+00  0.00000000000E+00  0.81618869332E+03  0.81618869332E+03  0.00000000000E+00 0. -1.
         -2   -1    0    0    0  501 -0.00000000000E+00 -0.00000000000E+00 -0.64545364881E+03  0.64545364881E+03  0.00000000000E+00 0.  1.
        -24    2    1    2    0    0  0.35092963843E+03 -0.25918198965E+02 -0.41668189655E+03  0.55127263234E+03  0.80338957504E+02 0.  0.
    5000000    2    1    2    0    0 -0.35092963843E+03  0.25918198965E+02  0.58741694106E+03  0.91036970979E+03  0.59990914452E+03 0.  0.
        -24    2    4    4    0    0 -0.79288721453E+02 -0.16196628112E+03  0.52965075804E+03  0.56588760342E+03  0.84729431970E+02 0.  0.
         24    2    4    4    0    0 -0.27164091698E+03  0.18788448008E+03  0.57766183022E+02  0.34448210637E+03  0.79003949721E+02 0.  0.
         13    1    5    5    0    0 -0.87956208663E+01  0.60129181698E+01  0.80458876838E+02  0.81161253029E+02  0.00000000000E+00 0. -1.
        -14    1    5    5    0    0 -0.70493100587E+02 -0.16797919929E+03  0.44919188120E+03  0.48472635039E+03  0.00000000000E+00 0.  1.
         15    1    3    3    0    0  0.13957150343E+03 -0.49767200406E+02 -0.16654634926E+03  0.22293008543E+03  0.17770000000E+01 0. -1.
        -16    1    3    3    0    0  0.21135813500E+03  0.23849001441E+02 -0.25013554728E+03  0.32834254692E+03  0.00000000000E+00 0.  1.
          2    1    6    6  502    0 -0.68901627252E+02  0.49045006227E+02  0.50804725128E+02  0.98660868480E+02  0.00000000000E+00 0. -1.
         -1    1    6    6    0  502 -0.20273928973E+03  0.13883947386E+03  0.69614578940E+01  0.24582123789E+03  0.00000000000E+00 0.  1.
<mgrwt>
<rscale>  0 0.44200581E+03</rscale>
<asrwt>0</asrwt>
<pdfrwt beam="1">  1        1 0.12556749E+00 0.44200581E+03</pdfrwt>
<pdfrwt beam="2">  1       -2 0.99300562E-01 0.44200581E+03</pdfrwt>
<totfact> 0.16760270E+01</totfact>
</mgrwt>
</event>
<event>
12    3  0.1092576E-007  0.7792286E+03  0.7818608E-02  0.9590579E-01
         -2   -1    0    0    0  501 -0.00000000000E+00  0.00000000000E+00  0.64191902712E+03  0.64191902712E+03  0.00000000000E+00 0.  1.
          1   -1    0    0  501    0  0.00000000000E+00 -0.00000000000E+00 -0.10664536987E+04  0.10664536987E+04  0.00000000000E+00 0. -1.
        -24    2    1    2    0    0 -0.68673250451E+03  0.39299399794E+02  0.21011740173E+02  0.69281200212E+03  0.80006259010E+02 0.  0.
    5000000    2    1    2    0    0  0.68673250451E+03 -0.39299399794E+02 -0.44554641179E+03  0.10155607238E+04  0.59975495245E+03 0.  0.
        -24    2    4    4    0    0  0.46705998689E+03  0.22004555751E+03 -0.11774346294E+03  0.53609482878E+03  0.83480917846E+02 0.  0.
         24    2    4    4    0    0  0.21967251761E+03 -0.25934495731E+03 -0.32780294885E+03  0.47946589497E+03  0.83168198771E+02 0.  0.
         13    1    5    5    0    0  0.42055195478E+03  0.16802090753E+03 -0.95304414006E+02  0.46279358614E+03  0.00000000000E+00 0. -1.
        -14    1    5    5    0    0  0.46508032111E+02  0.52024649982E+02 -0.22439048934E+02  0.73301242647E+02  0.00000000000E+00 0.  1.
         15    1    3    3    0    0 -0.50741952513E+03  0.61394767090E+02  0.18219804120E+01  0.51112656871E+03  0.17770000000E+01 0. -1.
        -16    1    3    3    0    0 -0.17931297938E+03 -0.22095367296E+02  0.19189759761E+02  0.18168543340E+03  0.00000000000E+00 0.  1.
          2    1    6    6  502    0  0.16536796662E+03 -0.15637144462E+03 -0.17355042545E+03  0.28621380688E+03  0.00000000000E+00 0. -1.
         -1    1    6    6    0  502  0.54304550994E+02 -0.10297351269E+03 -0.15425252340E+03  0.19325208809E+03  0.00000000000E+00 0.  1.
<mgrwt>
<rscale>  0 0.77922861E+03</rscale>
<asrwt>0</asrwt>
<pdfrwt beam="1">  1        1 0.16406980E+00 0.77922861E+03</pdfrwt>
<pdfrwt beam="2">  1       -2 0.98756775E-01 0.77922861E+03</pdfrwt>
<totfact> 0.10245098E+01</totfact>
</mgrwt>
</event>
<event>
12    3  0.1092576E-007  0.1006948E+04  0.7818608E-02  0.9300957E-01
         -2   -1    0    0    0  501 -0.00000000000E+00  0.00000000000E+00  0.51599878882E+03  0.51599878882E+03  0.00000000000E+00 0.  1.
          1   -1    0    0  501    0  0.00000000000E+00 -0.00000000000E+00 -0.20413016707E+04  0.20413016707E+04  0.00000000000E+00 0. -1.
        -24    2    1    2    0    0  0.89808663068E+02 -0.92221477378E+03 -0.86970190934E+03  0.12734136862E+04  0.81580146025E+02 0.  0.
    5000000    2    1    2    0    0 -0.89808663068E+02  0.92221477378E+03 -0.65560097255E+03  0.12838867733E+04  0.60000577209E+03 0.  0.
        -24    2    4    4    0    0  0.97747261322E+02 -0.27153341690E+02 -0.45438736553E+02  0.13707763652E+03  0.80210776044E+02 0.  0.
         24    2    4    4    0    0 -0.18755592439E+03  0.94936811547E+03 -0.61016223599E+03  0.11468091368E+04  0.79976237438E+02 0.  0.
         13    1    5    5    0    0  0.49592503655E+02  0.15122537175E+02  0.94534939810E+01  0.52701765604E+02  0.00000000000E+00 0. -1.
        -14    1    5    5    0    0  0.48154757667E+02 -0.42275878865E+02 -0.54892230534E+02  0.84375870916E+02  0.00000000000E+00 0.  1.
         15    1    3    3    0    0  0.33127525005E+02 -0.16122135615E+03 -0.19122387212E+03  0.25230831454E+03  0.17770000000E+01 0. -1.
        -16    1    3    3    0    0  0.56681138062E+02 -0.76099341763E+03 -0.67847803722E+03  0.10211053717E+04  0.00000000000E+00 0.  1.
          4    1    6    6  502    0 -0.14930677947E+03  0.57937430672E+03 -0.35426399336E+03  0.69532012676E+03  0.00000000000E+00 0. -1.
         -3    1    6    6    0  502 -0.38249144924E+02  0.36999380875E+03 -0.25589824263E+03  0.45148901003E+03  0.00000000000E+00 0.  1.
<mgrwt>
<rscale>  0 0.10069479E+04</rscale>
<asrwt>0</asrwt>
<pdfrwt beam="1">  1        1 0.31404640E+00 0.10069479E+04</pdfrwt>
<pdfrwt beam="2">  1       -2 0.79384431E-01 0.10069479E+04</pdfrwt>
<totfact> 0.34741426E+00</totfact>
</mgrwt>
</event>
<event>
12    3  0.1092576E-007  0.5590208E+03  0.7818608E-02  0.9994273E-01
         -2   -1    0    0    0  501 -0.00000000000E+00  0.00000000000E+00  0.16563899857E+03  0.16563899857E+03  0.00000000000E+00 0.  1.
          1   -1    0    0  501    0  0.00000000000E+00 -0.00000000000E+00 -0.24614448147E+04  0.24614448147E+04  0.00000000000E+00 0. -1.
        -24    2    1    2    0    0  0.47591388817E+03 -0.64351826080E+02 -0.11414230151E+04  0.12402764469E+04  0.69310740796E+02 0.  0.
    5000000    2    1    2    0    0 -0.47591388817E+03  0.64351826080E+02 -0.11543828010E+04  0.13868073663E+04  0.59999986141E+03 0.  0.
        -24    2    4    4    0    0 -0.50506362815E+03 -0.27483780765E+02 -0.48177744305E+03  0.70329386329E+03  0.81658599221E+02 0.  0.
         24    2    4    4    0    0  0.29149739976E+02  0.91835606844E+02 -0.67260535792E+03  0.68351350305E+03  0.74224358033E+02 0.  0.
         13    1    5    5    0    0 -0.17226207124E+03 -0.48022808475E+02 -0.17465510607E+03  0.24996963295E+03  0.00000000000E+00 0. -1.
        -14    1    5    5    0    0 -0.33280155691E+03  0.20539027711E+02 -0.30712233698E+03  0.45332423035E+03  0.00000000000E+00 0.  1.
         15    1    3    3    0    0  0.34470512532E+03 -0.74088262282E+02 -0.86672589062E+03  0.93569632960E+03  0.17770000000E+01 0. -1.
        -16    1    3    3    0    0  0.13120876285E+03  0.97364362022E+01 -0.27469712452E+03  0.30458011731E+03  0.00000000000E+00 0.  1.
          4    1    6    6  502    0 -0.22873265512E+02  0.49584344267E+02 -0.30100964507E+03  0.30592253905E+03  0.00000000000E+00 0. -1.
         -3    1    6    6    0  502  0.52023005488E+02  0.42251262578E+02 -0.37159571285E+03  0.37759096401E+03  0.00000000000E+00 0.  1.
<mgrwt>
<rscale>  0 0.55902078E+03</rscale>
<asrwt>0</asrwt>
<pdfrwt beam="1">  1        1 0.37868379E+00 0.55902078E+03</pdfrwt>
<pdfrwt beam="2">  1       -2 0.25482925E-01 0.55902078E+03</pdfrwt>
<totfact> 0.18924355E+01</totfact>
</mgrwt>
</event>
<event>
12    3  0.1092576E-007  0.1612045E+04  0.7818608E-02  0.8813182E-01
         -2   -1    0    0    0  501 -0.00000000000E+00  0.00000000000E+00  0.15588281805E+04  0.15588281805E+04  0.00000000000E+00 0.  1.
          1   -1    0    0  501    0  0.00000000000E+00 -0.00000000000E+00 -0.17910285333E+04  0.17910285333E+04  0.00000000000E+00 0. -1.
        -24    2    1    2    0    0  0.80676264850E+03  0.13518039127E+04 -0.47834914598E+03  0.16472358159E+04  0.79549596701E+02 0.  0.
    5000000    2    1    2    0    0 -0.80676264850E+03 -0.13518039127E+04  0.24614879322E+03  0.17026208979E+04  0.60007408220E+03 0.  0.
        -24    2    4    4    0    0 -0.35280894280E+03 -0.19426491280E+03 -0.73159755798E+02  0.41634217861E+03  0.75996403572E+02 0.  0.
         24    2    4    4    0    0 -0.45395370570E+03 -0.11575389999E+04  0.31930854902E+03  0.12862787193E+04  0.81144876626E+02 0.  0.
         13    1    5    5    0    0 -0.28004758639E+03 -0.15321593894E+03 -0.88816373619E+02  0.33134592620E+03  0.00000000000E+00 0. -1.
        -14    1    5    5    0    0 -0.72761356415E+02 -0.41048973863E+02  0.15656617821E+02  0.84996252412E+02  0.00000000000E+00 0.  1.
         15    1    3    3    0    0  0.33454708086E+03  0.63771186363E+03 -0.21611938017E+03  0.75187027773E+03  0.17770000000E+01 0. -1.
        -16    1    3    3    0    0  0.47221556764E+03  0.71409204907E+03 -0.26222976582E+03  0.89536553817E+03  0.00000000000E+00 0.  1.
          4    1    6    6  502    0 -0.25174432584E+03 -0.55256129295E+03  0.13085211745E+03  0.62114528470E+03  0.00000000000E+00 0. -1.
         -3    1    6    6    0  502 -0.20220937986E+03 -0.60497770694E+03  0.18845643157E+03  0.66513343458E+03  0.00000000000E+00 0.  1.
<mgrwt>
<rscale>  0 0.16120447E+04</rscale>
<asrwt>0</asrwt>
<pdfrwt beam="1">  1        1 0.27554285E+00 0.16120447E+04</pdfrwt>
<pdfrwt beam="2">  1       -2 0.23981972E+00 0.16120447E+04</pdfrwt>
<totfact> 0.25020057E-01</totfact>
</mgrwt>
</event>
<event>
12    3  0.1092576E-007  0.4032100E+03  0.7818608E-02  0.1042674E+00
         -2   -1    0    0    0  501 -0.00000000000E+00  0.00000000000E+00  0.81292305361E+02  0.81292305361E+02  0.00000000000E+00 0.  1.
          1   -1    0    0  501    0  0.00000000000E+00 -0.00000000000E+00 -0.25589698562E+04  0.25589698562E+04  0.00000000000E+00 0. -1.
        -24    2    1    2    0    0 -0.17164907592E+03 -0.17165875191E+03 -0.89003642637E+03  0.92575933490E+03  0.77041375325E+02 0.  0.
    5000000    2    1    2    0    0  0.17164907592E+03  0.17165875191E+03 -0.15876411244E+04  0.17145028266E+04  0.59998789167E+03 0.  0.
        -24    2    4    4    0    0  0.31617567665E+03  0.21513779842E+03 -0.14307863793E+04  0.14831071781E+04  0.78777583359E+02 0.  0.
         24    2    4    4    0    0 -0.14452660073E+03 -0.43479046506E+02 -0.15685474509E+03  0.23139564851E+03  0.78499485917E+02 0.  0.
         11    1    5    5    0    0  0.26048814706E+03  0.13981860653E+03 -0.10357423672E+04  0.10771098220E+04  0.00000000000E+00 0. -1.
        -12    1    5    5    0    0  0.55687529591E+02  0.75319191888E+02 -0.39504401219E+03  0.40599735614E+03  0.00000000000E+00 0.  1.
         15    1    3    3    0    0 -0.58767019195E+02 -0.11048848920E+03 -0.48311483226E+03  0.49906349062E+03  0.17770000000E+01 0. -1.
        -16    1    3    3    0    0 -0.11288205673E+03 -0.61170262710E+02 -0.40692159411E+03  0.42669584428E+03  0.00000000000E+00 0.  1.
          2    1    6    6  502    0 -0.20058168699E+02 -0.33044986706E+02 -0.67620619303E+02  0.77889982878E+02  0.00000000000E+00 0. -1.
         -1    1    6    6    0  502 -0.12446843203E+03 -0.10434059800E+02 -0.89234125784E+02  0.15350566563E+03  0.00000000000E+00 0.  1.
<mgrwt>
<rscale>  0 0.40321002E+03</rscale>
<asrwt>0</asrwt>
<pdfrwt beam="1">  1        1 0.39368775E+00 0.40321002E+03</pdfrwt>
<pdfrwt beam="2">  1       -2 0.12506506E-01 0.40321002E+03</pdfrwt>
<totfact> 0.56922690E+01</totfact>
</mgrwt>
</event>
<event>
12    3  0.1092576E-007  0.5987985E+03  0.7818608E-02  0.9907902E-01
         -2   -1    0    0    0  501 -0.00000000000E+00  0.00000000000E+00  0.12915675294E+03  0.12915675294E+03  0.00000000000E+00 0.  1.
          1   -1    0    0  501    0  0.00000000000E+00 -0.00000000000E+00 -0.28926825367E+04  0.28926825367E+04  0.00000000000E+00 0. -1.
        -24    2    1    2    0    0 -0.38905928113E+03 -0.23704685681E+03 -0.89975029242E+03  0.10114942815E+04  0.77535516607E+02 0.  0.
    5000000    2    1    2    0    0  0.38905928113E+03  0.23704685681E+03 -0.18637754913E+04  0.20103450081E+04  0.60022465205E+03 0.  0.
        -24    2    4    4    0    0  0.53105560295E+03  0.13317835046E+03 -0.12518632780E+04  0.13685495990E+04  0.77522974903E+02 0.  0.
         24    2    4    4    0    0 -0.14199632182E+03  0.10386850635E+03 -0.61191221329E+03  0.64179540907E+03  0.80704202514E+02 0.  0.
         13    1    5    5    0    0  0.30170095316E+03  0.11497743199E+03 -0.72545398186E+03  0.79405714832E+03  0.00000000000E+00 0. -1.
        -14    1    5    5    0    0  0.22935464979E+03  0.18200918475E+02 -0.52640929618E+03  0.57449245071E+03  0.00000000000E+00 0.  1.
         15    1    3    3    0    0 -0.38890524068E+02 -0.53310534694E+02 -0.14886519741E+03  0.16284498979E+03  0.17770000000E+01 0. -1.
        -16    1    3    3    0    0 -0.35016875706E+03 -0.18373632212E+03 -0.75088509500E+03  0.84864929175E+03  0.00000000000E+00 0.  1.
          4    1    6    6  502    0 -0.60740844214E+02  0.76008130477E+02 -0.21959938564E+03  0.24018862635E+03  0.00000000000E+00 0. -1.
         -3    1    6    6    0  502 -0.81255477607E+02  0.27860375868E+02 -0.39231282765E+03  0.40160678271E+03  0.00000000000E+00 0.  1.
<mgrwt>
<rscale>  0 0.59879849E+03</rscale>
<asrwt>0</asrwt>
<pdfrwt beam="1">  1        1 0.44502808E+00 0.59879849E+03</pdfrwt>
<pdfrwt beam="2">  1       -2 0.19870270E-01 0.59879849E+03</pdfrwt>
<totfact> 0.14713990E+01</totfact>
</mgrwt>
</event>
<event>
12    3  0.1092576E-007  0.1177997E+04  0.7818608E-02  0.9132337E-01
          1   -1    0    0  501    0  0.00000000000E+00  0.00000000000E+00  0.16012573863E+04  0.16012573863E+04  0.00000000000E+00 0. -1.
         -2   -1    0    0    0  501 -0.00000000000E+00 -0.00000000000E+00 -0.13499907422E+04  0.13499907422E+04  0.00000000000E+00 0.  1.
        -24    2    1    2    0    0 -0.10993179473E+04  0.38013149094E+03 -0.67542785542E+03  0.13475678038E+04  0.82074955322E+02 0.  0.
    5000000    2    1    2    0    0  0.10993179473E+04 -0.38013149094E+03  0.92669449953E+03  0.16036803247E+04  0.60002332332E+03 0.  0.
        -24    2    4    4    0    0  0.16165882102E+03 -0.14263979681E+03  0.48650028685E+03  0.53805035638E+03  0.79598811850E+02 0.  0.
         24    2    4    4    0    0  0.93765912631E+03 -0.23749169413E+03  0.44019421268E+03  0.10656299683E+04  0.78672374429E+02 0.  0.
         11    1    5    5    0    0  0.16066680687E+02 -0.45981016957E+02  0.16604398167E+03  0.17304044613E+03  0.00000000000E+00 0. -1.
        -12    1    5    5    0    0  0.14559214034E+03 -0.96658779850E+02  0.32045630518E+03  0.36500991025E+03  0.00000000000E+00 0.  1.
         15    1    3    3    0    0 -0.79622362546E+02  0.13934994988E+02 -0.66723924231E+02  0.10482912046E+03  0.17770000000E+01 0. -1.
        -16    1    3    3    0    0 -0.10196955848E+04  0.36619649595E+03 -0.60870393119E+03  0.12427386834E+04  0.00000000000E+00 0.  1.
          4    1    6    6  502    0  0.58785568504E+03 -0.17025384781E+03  0.24306769040E+03  0.65851543736E+03  0.00000000000E+00 0. -1.
         -3    1    6    6    0  502  0.34980344127E+03 -0.67237846316E+02  0.19712652229E+03  0.40711453092E+03  0.00000000000E+00 0.  1.
<mgrwt>
<rscale>  0 0.11779969E+04</rscale>
<asrwt>0</asrwt>
<pdfrwt beam="1">  1        1 0.24634729E+00 0.11779969E+04</pdfrwt>
<pdfrwt beam="2">  1       -2 0.20769088E+00 0.11779969E+04</pdfrwt>
<totfact> 0.56537324E-01</totfact>
</mgrwt>
</event>
<event>
12    3  0.1092576E-007  0.1599062E+04  0.7818608E-02  0.8821124E-01
          1   -1    0    0  501    0  0.00000000000E+00  0.00000000000E+00  0.24027720492E+04  0.24027720492E+04  0.00000000000E+00 0. -1.
         -2   -1    0    0    0  501 -0.00000000000E+00 -0.00000000000E+00 -0.12578621150E+04  0.12578621150E+04  0.00000000000E+00 0.  1.
        -24    2    1    2    0    0 -0.41246803489E+03  0.15216263089E+04  0.11843241466E+04  0.19733968894E+04  0.78708927546E+02 0.  0.
    5000000    2    1    2    0    0  0.41246803489E+03 -0.15216263089E+04 -0.39414212397E+02  0.16872372748E+04  0.59978299203E+03 0.  0.
        -24    2    4    4    0    0  0.33322540716E+03 -0.14579778336E+04  0.94869651740E+02  0.15006632983E+04  0.79066736294E+02 0.  0.
         24    2    4    4    0    0  0.79242627731E+02 -0.63648475269E+02 -0.13428386414E+03  0.18657397646E+03  0.80294271710E+02 0.  0.
         11    1    5    5    0    0  0.18746464853E+03 -0.65884897583E+03  0.59521937567E+02  0.68758114317E+03  0.00000000000E+00 0. -1.
        -12    1    5    5    0    0  0.14576075863E+03 -0.79912885779E+03  0.35347714173E+02  0.81308215514E+03  0.00000000000E+00 0.  1.
         15    1    3    3    0    0 -0.16832102852E+03  0.50033617407E+03  0.42074613664E+03  0.67505460887E+03  0.17770000000E+01 0. -1.
        -16    1    3    3    0    0 -0.24414700636E+03  0.10212901348E+04  0.76357800992E+03  0.12983422805E+04  0.00000000000E+00 0.  1.
          4    1    6    6  502    0 -0.64486467587E+01  0.86121511819E+01  0.10929340700E+01  0.10814282125E+02  0.00000000000E+00 0. -1.
         -3    1    6    6    0  502  0.85691274490E+02 -0.72260626451E+02 -0.13537679821E+03  0.17575969433E+03  0.00000000000E+00 0.  1.
<mgrwt>
<rscale>  0 0.15990624E+04</rscale>
<asrwt>0</asrwt>
<pdfrwt beam="1">  1        1 0.36965724E+00 0.15990624E+04</pdfrwt>
<pdfrwt beam="2">  1       -2 0.19351725E+00 0.15990624E+04</pdfrwt>
<totfact> 0.18981051E-01</totfact>
</mgrwt>
</event>
<event>
12    3  0.1092576E-007  0.6223861E+03  0.7818608E-02  0.9860021E-01
          1   -1    0    0  501    0  0.00000000000E+00  0.00000000000E+00  0.97424283384E+03  0.97424283384E+03  0.00000000000E+00 0. -1.
         -2   -1    0    0    0  501 -0.00000000000E+00 -0.00000000000E+00 -0.45882979852E+03  0.45882979852E+03  0.00000000000E+00 0.  1.
        -24    2    1    2    0    0  0.10329565499E+03  0.50107412536E+03  0.35725883099E+03  0.62882354353E+03  0.77716826553E+02 0.  0.
    5000000    2    1    2    0    0 -0.10329565499E+03 -0.50107412536E+03  0.15815420433E+03  0.80424908883E+03  0.60004880892E+03 0.  0.
        -24    2    4    4    0    0 -0.18187397337E+03 -0.57503330249E+03  0.23298518145E+03  0.65152033568E+03  0.80344333147E+02 0.  0.
         24    2    4    4    0    0  0.78578318381E+02  0.73959177128E+02 -0.74830977114E+02  0.15272875315E+03  0.77986440500E+02 0.  0.
         11    1    5    5    0    0 -0.51569281396E+02 -0.74540993632E+02  0.45397602809E+02  0.10137402456E+03  0.00000000000E+00 0. -1.
        -12    1    5    5    0    0 -0.13030469198E+03 -0.50049230886E+03  0.18758757864E+03  0.55014631112E+03  0.00000000000E+00 0.  1.
         15    1    3    3    0    0 -0.32762504431E+01  0.16162019552E+03  0.11456860527E+03  0.19814374696E+03  0.17770000000E+01 0. -1.
        -16    1    3    3    0    0  0.10657190544E+03  0.33945392984E+03  0.24269022572E+03  0.43067979657E+03  0.00000000000E+00 0.  1.
          4    1    6    6  502    0 -0.65465703806E+01  0.13769729758E+02  0.10074439481E+02  0.18274500601E+02  0.00000000000E+00 0. -1.
         -3    1    6    6    0  502  0.85124888761E+02  0.60189447370E+02 -0.84905416595E+02  0.13445425255E+03  0.00000000000E+00 0.  1.
<mgrwt>
<rscale>  0 0.62238605E+03</rscale>
<asrwt>0</asrwt>
<pdfrwt beam="1">  1        1 0.14988351E+00 0.62238605E+03</pdfrwt>
<pdfrwt beam="2">  1       -2 0.70589200E-01 0.62238605E+03</pdfrwt>
<totfact> 0.26306776E+01</totfact>
</mgrwt>
</event>
<event>
12    3  0.1092576E-007  0.9652674E+03  0.7818608E-02  0.9347481E-01
         -2   -1    0    0    0  501 -0.00000000000E+00  0.00000000000E+00  0.45442220277E+03  0.45442220277E+03  0.00000000000E+00 0.  1.
          1   -1    0    0  501    0  0.00000000000E+00 -0.00000000000E+00 -0.23894562224E+04  0.23894562224E+04  0.00000000000E+00 0. -1.
        -24    2    1    2    0    0 -0.95153225636E+03 -0.30296226864E+02 -0.80785831092E+03  0.12511448238E+04  0.79980143595E+02 0.  0.
    5000000    2    1    2    0    0  0.95153225636E+03  0.30296226864E+02 -0.11271757087E+04  0.15927336014E+04  0.59995312349E+03 0.  0.
        -24    2    4    4    0    0  0.47390112548E+03 -0.62810444591E+02 -0.16554140647E+03  0.51211011328E+03  0.79532271362E+02 0.  0.
         24    2    4    4    0    0  0.47763113087E+03  0.93106671455E+02 -0.96163430228E+03  0.10806234881E+04  0.78779707395E+02 0.  0.
         11    1    5    5    0    0  0.38806621528E+03 -0.24269659305E+02 -0.11591726696E+03  0.40573540218E+03  0.00000000000E+00 0. -1.
        -12    1    5    5    0    0  0.85834910203E+02 -0.38540785285E+02 -0.49624139507E+02  0.10637471110E+03  0.00000000000E+00 0.  1.
         15    1    3    3    0    0 -0.95008348211E+03 -0.34678687433E+02 -0.80466590884E+03  0.12455326639E+04  0.17770000000E+01 0. -1.
        -16    1    3    3    0    0 -0.14487742476E+01  0.43824605683E+01 -0.31924020794E+01  0.56121598774E+01  0.00000000000E+00 0.  1.
          2    1    6    6  502    0  0.34333028793E+03  0.10063349360E+03 -0.67316727437E+03  0.76233651751E+03  0.00000000000E+00 0. -1.
         -1    1    6    6    0  502  0.13430084294E+03 -0.75268221477E+01 -0.28846702791E+03  0.31828697060E+03  0.00000000000E+00 0.  1.
<mgrwt>
<rscale>  0 0.96526741E+03</rscale>
<asrwt>0</asrwt>
<pdfrwt beam="1">  1        1 0.36760865E+00 0.96526741E+03</pdfrwt>
<pdfrwt beam="2">  1       -2 0.69911108E-01 0.96526741E+03</pdfrwt>
<totfact> 0.26930758E+00</totfact>
</mgrwt>
</event>
<event>
12    3  0.1092576E-007  0.1397202E+04  0.7818608E-02  0.8955846E-01
         -2   -1    0    0    0  501 -0.00000000000E+00  0.00000000000E+00  0.85887012404E+03  0.85887012404E+03  0.00000000000E+00 0.  1.
          1   -1    0    0  501    0  0.00000000000E+00 -0.00000000000E+00 -0.26004792626E+04  0.26004792626E+04  0.00000000000E+00 0. -1.
        -24    2    1    2    0    0  0.79173097415E+03 -0.11477258097E+04 -0.12199911195E+04  0.18544252134E+04  0.80012941854E+02 0.  0.
    5000000    2    1    2    0    0 -0.79173097415E+03  0.11477258097E+04 -0.52161801900E+03  0.16049241732E+04  0.59965304493E+03 0.  0.
        -24    2    4    4    0    0 -0.71977704509E+03  0.10765292952E+04 -0.62401021343E+03  0.14397060436E+04  0.79814957958E+02 0.  0.
         24    2    4    4    0    0 -0.71953929057E+02  0.71196514447E+02  0.10239219443E+03  0.16521812954E+03  0.81034296881E+02 0.  0.
         13    1    5    5    0    0 -0.14047335801E+03  0.16433556052E+03 -0.87166975324E+02  0.23310302947E+03  0.00000000000E+00 0. -1.
        -14    1    5    5    0    0 -0.57930368708E+03  0.91219373471E+03 -0.53684323810E+03  0.12066030142E+04  0.00000000000E+00 0.  1.
         15    1    3    3    0    0  0.39041087029E+03 -0.54604282915E+03 -0.63821249052E+03  0.92622986331E+03  0.17770000000E+01 0. -1.
        -16    1    3    3    0    0  0.40132010386E+03 -0.60168298053E+03 -0.58177862903E+03  0.92819535014E+03  0.00000000000E+00 0.  1.
          4    1    6    6  502    0 -0.40710409596E+02  0.53434035809E+02  0.12393963996E+02  0.68309179294E+02  0.00000000000E+00 0. -1.
         -3    1    6    6    0  502 -0.31243519461E+02  0.17762478639E+02  0.89998230435E+02  0.96908950242E+02  0.00000000000E+00 0.  1.
<mgrwt>
<rscale>  0 0.13972022E+04</rscale>
<asrwt>0</asrwt>
<pdfrwt beam="1">  1        1 0.40007373E+00 0.13972022E+04</pdfrwt>
<pdfrwt beam="2">  1       -2 0.13213387E+00 0.13972022E+04</pdfrwt>
<totfact> 0.40485006E-01</totfact>
</mgrwt>
</event>
<event>
12    3  0.1092576E-007  0.5106282E+03  0.7818608E-02  0.1011041E+00
          1   -1    0    0  501    0  0.00000000000E+00  0.00000000000E+00  0.19545845143E+04  0.19545845143E+04  0.00000000000E+00 0. -1.
         -2   -1    0    0    0  501 -0.00000000000E+00 -0.00000000000E+00 -0.14784983978E+03  0.14784983978E+03  0.00000000000E+00 0.  1.
        -24    2    1    2    0    0 -0.29862893493E+03 -0.19330019396E+03  0.47007273085E+03  0.59484624191E+03  0.79557988027E+02 0.  0.
    5000000    2    1    2    0    0  0.29862893493E+03  0.19330019396E+03  0.13366619436E+04  0.15075881121E+04  0.59967704521E+03 0.  0.
        -24    2    4    4    0    0  0.23295350547E+03  0.38533144417E+03  0.10786275915E+04  0.11719394360E+04  0.85187457575E+02 0.  0.
         24    2    4    4    0    0  0.65675429467E+02 -0.19203125021E+03  0.25803435216E+03  0.33564867617E+03  0.69921697839E+02 0.  0.
         13    1    5    5    0    0  0.20183961213E+02  0.54347315648E+02  0.21892845400E+03  0.22647448196E+03  0.00000000000E+00 0. -1.
        -14    1    5    5    0    0  0.21276954425E+03  0.33098412852E+03  0.85969913746E+03  0.94546495400E+03  0.00000000000E+00 0.  1.
         15    1    3    3    0    0 -0.21603045408E+03 -0.17903505027E+03  0.35555188977E+03  0.45292715790E+03  0.17770000000E+01 0. -1.
        -16    1    3    3    0    0 -0.82598480859E+02 -0.14265143689E+02  0.11452084108E+03  0.14191908401E+03  0.00000000000E+00 0.  1.
          2    1    6    6  502    0  0.56637006482E+02 -0.11869751639E+03  0.20911268283E+03  0.24703231574E+03  0.00000000000E+00 0. -1.
         -1    1    6    6    0  502  0.90384229852E+01 -0.73333733818E+02  0.48921669331E+02  0.88616360430E+02  0.00000000000E+00 0.  1.
<mgrwt>
<rscale>  0 0.51062824E+03</rscale>
<asrwt>0</asrwt>
<pdfrwt beam="1">  1        1 0.30070529E+00 0.51062824E+03</pdfrwt>
<pdfrwt beam="2">  1       -2 0.22746131E-01 0.51062824E+03</pdfrwt>
<totfact> 0.50915883E+01</totfact>
</mgrwt>
</event>
<event>
12    3  0.1092576E-007  0.8842470E+03  0.7818608E-02  0.9445491E-01
         -2   -1    0    0    0  501 -0.00000000000E+00  0.00000000000E+00  0.35153998005E+03  0.35153998005E+03  0.00000000000E+00 0.  1.
          1   -1    0    0  501    0  0.00000000000E+00 -0.00000000000E+00 -0.29146439377E+04  0.29146439377E+04  0.00000000000E+00 0. -1.
        -24    2    1    2    0    0 -0.60673668231E+03  0.55616967607E+03 -0.18393238434E+04  0.20166678015E+04  0.79891865977E+02 0.  0.
    5000000    2    1    2    0    0  0.60673668231E+03 -0.55616967607E+03 -0.72378011423E+03  0.12495161163E+04  0.59998230045E+03 0.  0.
        -24    2    4    4    0    0  0.23417878738E+03  0.34852353185E+02 -0.41126859089E+03  0.48078164796E+03  0.77167014874E+02 0.  0.
         24    2    4    4    0    0  0.37255789492E+03 -0.59102202926E+03 -0.31251152334E+03  0.76873446832E+03  0.71991710746E+02 0.  0.
         11    1    5    5    0    0  0.13847075746E+03 -0.52079107624E+01 -0.17879185634E+03  0.22620300816E+03  0.00000000000E+00 0. -1.
        -12    1    5    5    0    0  0.95708029924E+02  0.40060263947E+02 -0.23247673455E+03  0.25457863981E+03  0.00000000000E+00 0.  1.
         15    1    3    3    0    0 -0.22609732923E+03  0.23046264320E+03 -0.80774454988E+03  0.86987783497E+03  0.17770000000E+01 0. -1.
        -16    1    3    3    0    0 -0.38063935308E+03  0.32570703288E+03 -0.10315792935E+04  0.11467899665E+04  0.00000000000E+00 0.  1.
          2    1    6    6  502    0  0.16636319301E+03 -0.19880165548E+03 -0.11588122326E+03  0.28394941118E+03  0.00000000000E+00 0. -1.
         -1    1    6    6    0  502  0.20619470192E+03 -0.39222037378E+03 -0.19663030008E+03  0.48478505713E+03  0.00000000000E+00 0.  1.
<mgrwt>
<rscale>  0 0.88424700E+03</rscale>
<asrwt>0</asrwt>
<pdfrwt beam="1">  1        1 0.44840678E+00 0.88424700E+03</pdfrwt>
<pdfrwt beam="2">  1       -2 0.54083072E-01 0.88424700E+03</pdfrwt>
<totfact> 0.20315891E+00</totfact>
</mgrwt>
</event>
<event>
12    3  0.1092576E-007  0.3981368E+03  0.7818608E-02  0.1044427E+00
          1   -1    0    0  501    0  0.00000000000E+00  0.00000000000E+00  0.12308026187E+03  0.12308026187E+03  0.00000000000E+00 0. -1.
         -2   -1    0    0    0  501 -0.00000000000E+00 -0.00000000000E+00 -0.15138170507E+04  0.15138170507E+04  0.00000000000E+00 0.  1.
        -24    2    1    2    0    0 -0.15292157890E+03 -0.66775615158E+02 -0.61564004292E+03  0.64271244777E+03  0.78883686571E+02 0.  0.
    5000000    2    1    2    0    0  0.15292157890E+03  0.66775615158E+02 -0.77509674589E+03  0.99418486476E+03  0.59982046294E+03 0.  0.
        -24    2    4    4    0    0  0.30130692681E+03 -0.15026478192E+03 -0.39862298762E+03  0.52784816467E+03  0.79737255137E+02 0.  0.
         24    2    4    4    0    0 -0.14838534791E+03  0.21704039707E+03 -0.37647375827E+03  0.46633670009E+03  0.81318397383E+02 0.  0.
         13    1    5    5    0    0  0.19399497840E+03 -0.54089823643E+02 -0.21808473710E+03  0.29685133186E+03  0.00000000000E+00 0. -1.
        -14    1    5    5    0    0  0.10731194841E+03 -0.96174958273E+02 -0.18053825051E+03  0.23099683281E+03  0.00000000000E+00 0.  1.
         15    1    3    3    0    0 -0.86544160108E+02 -0.64553268687E+01 -0.39722987090E+03  0.40660335827E+03  0.17770000000E+01 0. -1.
        -16    1    3    3    0    0 -0.66377418792E+02 -0.60320288290E+02 -0.21841017202E+03  0.23610908950E+03  0.00000000000E+00 0.  1.
          4    1    6    6  502    0 -0.64983371902E+02  0.34458961447E+02 -0.84634839876E+02  0.11213079313E+03  0.00000000000E+00 0. -1.
         -3    1    6    6    0  502 -0.83401976010E+02  0.18258143563E+03 -0.29183891839E+03  0.35420590696E+03  0.00000000000E+00 0.  1.
<mgrwt>
<rscale>  0 0.39813678E+03</rscale>
<asrwt>0</asrwt>
<pdfrwt beam="1">  1        1 0.18935424E-01 0.39813678E+03</pdfrwt>
<pdfrwt beam="2">  1       -2 0.23289494E+00 0.39813678E+03</pdfrwt>
<totfact> 0.21431708E+01</totfact>
</mgrwt>
</event>
<event>
12    3  0.1092576E-007  0.6914813E+03  0.7818608E-02  0.9731912E-01
         -2   -1    0    0    0  501 -0.00000000000E+00  0.00000000000E+00  0.66967706899E+03  0.66967706899E+03  0.00000000000E+00 0.  1.
          1   -1    0    0  501    0  0.00000000000E+00 -0.00000000000E+00 -0.90384845836E+03  0.90384845836E+03  0.00000000000E+00 0. -1.
        -24    2    1    2    0    0 -0.71024837430E+02  0.65430402812E+03 -0.56022021385E+02  0.66535966151E+03  0.80042011084E+02 0.  0.
    5000000    2    1    2    0    0  0.71024837430E+02 -0.65430402812E+03 -0.17814936799E+03  0.90816586584E+03  0.59989145169E+03 0.  0.
        -24    2    4    4    0    0 -0.10906495536E+03 -0.19150238940E+03  0.17443739378E+03  0.29385168160E+03  0.85744252243E+02 0.  0.
         24    2    4    4    0    0  0.18008979279E+03 -0.46280163872E+03 -0.35258676177E+03  0.61431418424E+03  0.80291980384E+02 0.  0.
         11    1    5    5    0    0 -0.87403300552E+02 -0.15333295656E+03  0.17690923390E+03  0.24989439680E+03  0.00000000000E+00 0. -1.
        -12    1    5    5    0    0 -0.21661654809E+02 -0.38169432846E+02 -0.24718401195E+01  0.43957284794E+02  0.00000000000E+00 0.  1.
         15    1    3    3    0    0 -0.31922202384E+02  0.72113828592E+02  0.25562056738E+01  0.78924794556E+02  0.17770000000E+01 0. -1.
        -16    1    3    3    0    0 -0.39102635046E+02  0.58219019953E+03 -0.58578227059E+02  0.58643486695E+03  0.00000000000E+00 0.  1.
          4    1    6    6  502    0  0.81338993144E+02 -0.28974633442E+03 -0.24376236909E+03  0.38728421437E+03  0.00000000000E+00 0. -1.
         -3    1    6    6    0  502  0.98750799646E+02 -0.17305530429E+03 -0.10882439268E+03  0.22702996986E+03  0.00000000000E+00 0.  1.
<mgrwt>
<rscale>  0 0.69148130E+03</rscale>
<asrwt>0</asrwt>
<pdfrwt beam="1">  1        1 0.13905361E+00 0.69148130E+03</pdfrwt>
<pdfrwt beam="2">  1       -2 0.10302724E+00 0.69148130E+03</pdfrwt>
<totfact> 0.12541038E+01</totfact>
</mgrwt>
</event>
<event>
12    3  0.1092576E-007  0.3061624E+03  0.7818608E-02  0.1082200E+00
          1   -1    0    0  501    0  0.00000000000E+00  0.00000000000E+00  0.79594570922E+03  0.79594570922E+03  0.00000000000E+00 0. -1.
         -2   -1    0    0    0  501 -0.00000000000E+00 -0.00000000000E+00 -0.24878730501E+03  0.24878730501E+03  0.00000000000E+00 0.  1.
        -24    2    1    2    0    0 -0.19825167370E+03  0.11732378126E+03  0.19227525572E+03  0.31045530600E+03  0.79650030061E+02 0.  0.
    5000000    2    1    2    0    0  0.19825167370E+03 -0.11732378126E+03  0.35488314849E+03  0.73427770822E+03  0.60012757639E+03 0.  0.
        -24    2    4    4    0    0  0.19973235965E+03  0.43127504095E+02 -0.10154455519E+03  0.24459387626E+03  0.88101478487E+02 0.  0.
         24    2    4    4    0    0 -0.14806859536E+01 -0.16045128535E+03  0.45642770367E+03  0.48968383197E+03  0.75612163090E+02 0.  0.
         11    1    5    5    0    0  0.16585439968E+03  0.58440494398E+02 -0.10870033091E+03  0.20673348838E+03  0.00000000000E+00 0. -1.
        -12    1    5    5    0    0  0.33877959978E+02 -0.15312990303E+02  0.71557757184E+01  0.37860387880E+02  0.00000000000E+00 0.  1.
         15    1    3    3    0    0 -0.10587772791E+03  0.89980221493E+02  0.15226407786E+03  0.20614082726E+03  0.17770000000E+01 0. -1.
        -16    1    3    3    0    0 -0.92373945793E+02  0.27343559762E+02  0.40011177862E+02  0.10431447875E+03  0.00000000000E+00 0.  1.
          4    1    6    6  502    0 -0.13407090211E+02 -0.28314540019E+02  0.18421893940E+03  0.18686380302E+03  0.00000000000E+00 0. -1.
         -3    1    6    6    0  502  0.11926404258E+02 -0.13213674533E+03  0.27220876427E+03  0.30282002895E+03  0.00000000000E+00 0.  1.
<mgrwt>
<rscale>  0 0.30616238E+03</rscale>
<asrwt>0</asrwt>
<pdfrwt beam="1">  1        1 0.12245318E+00 0.30616238E+03</pdfrwt>
<pdfrwt beam="2">  1       -2 0.38274970E-01 0.30616238E+03</pdfrwt>
<totfact> 0.13310399E+02</totfact>
</mgrwt>
</event>
<event>
12    3  0.1092576E-007  0.1056164E+04  0.7818608E-02  0.9249004E-01
         -2   -1    0    0    0  501 -0.00000000000E+00  0.00000000000E+00  0.46869749676E+03  0.46869749676E+03  0.00000000000E+00 0.  1.
          1   -1    0    0  501    0  0.00000000000E+00 -0.00000000000E+00 -0.30719947273E+04  0.30719947273E+04  0.00000000000E+00 0. -1.
        -24    2    1    2    0    0 -0.10257891799E+04  0.71504326710E+02 -0.55357655275E+03  0.11704288278E+04  0.78104615608E+02 0.  0.
    5000000    2    1    2    0    0  0.10257891799E+04 -0.71504326710E+02 -0.20497206778E+04  0.23702633963E+04  0.59953098371E+03 0.  0.
        -24    2    4    4    0    0  0.88978931800E+03 -0.14003045386E+03 -0.12048454669E+04  0.15065045975E+04  0.81055195642E+02 0.  0.
         24    2    4    4    0    0  0.13599986186E+03  0.68526127147E+02 -0.84487521088E+03  0.86375879875E+03  0.95254122940E+02 0.  0.
         11    1    5    5    0    0  0.80232138698E+02  0.38776251962E+01 -0.81994464104E+02  0.11478381507E+03  0.00000000000E+00 0. -1.
        -12    1    5    5    0    0  0.80955717930E+03 -0.14390807905E+03 -0.11228510028E+04  0.13917207825E+04  0.00000000000E+00 0.  1.
         15    1    3    3    0    0 -0.60046639205E+03  0.40198752678E+01 -0.33097359623E+03  0.68565496170E+03  0.17770000000E+01 0. -1.
        -16    1    3    3    0    0 -0.42532278781E+03  0.67484451443E+02 -0.22260295652E+03  0.48477386611E+03  0.00000000000E+00 0.  1.
          2    1    6    6  502    0 -0.14287854090E+02  0.26310706239E+01 -0.47462823784E+02  0.49636528370E+02  0.00000000000E+00 0. -1.
         -1    1    6    6    0  502  0.15028771595E+03  0.65895056523E+02 -0.79741238709E+03  0.81412227038E+03  0.00000000000E+00 0.  1.
<mgrwt>
<rscale>  0 0.10561636E+04</rscale>
<asrwt>0</asrwt>
<pdfrwt beam="1">  1        1 0.47261458E+00 0.10561636E+04</pdfrwt>
<pdfrwt beam="2">  1       -2 0.72107306E-01 0.10561636E+04</pdfrwt>
<totfact> 0.82349952E-01</totfact>
</mgrwt>
</event>
<event>
12    3  0.1092576E-007  0.9181162E+03  0.7818608E-02  0.9403214E-01
          1   -1    0    0  501    0  0.00000000000E+00  0.00000000000E+00  0.26737126998E+04  0.26737126998E+04  0.00000000000E+00 0. -1.
         -2   -1    0    0    0  501 -0.00000000000E+00 -0.00000000000E+00 -0.41906593948E+03  0.41906593948E+03  0.00000000000E+00 0.  1.
        -24    2    1    2    0    0 -0.46729769916E+03  0.78155600454E+03  0.54325809098E+03  0.10634375410E+04  0.81074795002E+02 0.  0.
    5000000    2    1    2    0    0  0.46729769916E+03 -0.78155600454E+03  0.17113886693E+04  0.20293410982E+04  0.60014763819E+03 0.  0.
        -24    2    4    4    0    0  0.23152099693E+03 -0.34709726113E+03  0.13403345590E+04  0.14059144016E+04  0.77589263755E+02 0.  0.
         24    2    4    4    0    0  0.23577670223E+03 -0.43445874341E+03  0.37105411028E+03  0.62342669661E+03  0.81453300995E+02 0.  0.
         11    1    5    5    0    0  0.17132435161E+03 -0.30125382369E+03  0.11502122684E+04  0.12012885424E+04  0.00000000000E+00 0. -1.
        -12    1    5    5    0    0  0.60196645325E+02 -0.45843437439E+02  0.19012229065E+03  0.20462585924E+03  0.00000000000E+00 0.  1.
         15    1    3    3    0    0 -0.28720487241E+03  0.55192297720E+03  0.35955054763E+03  0.71859958637E+03  0.17770000000E+01 0. -1.
        -16    1    3    3    0    0 -0.18009282675E+03  0.22963302734E+03  0.18370754335E+03  0.34483795466E+03  0.00000000000E+00 0.  1.
          4    1    6    6  502    0  0.16678437062E+03 -0.36876238754E+03  0.31527066005E+03  0.51302857020E+03  0.00000000000E+00 0. -1.
         -3    1    6    6    0  502  0.68992331604E+02 -0.65696355871E+02  0.55783450232E+02  0.11039812641E+03  0.00000000000E+00 0.  1.
<mgrwt>
<rscale>  0 0.91811618E+03</rscale>
<asrwt>0</asrwt>
<pdfrwt beam="1">  1        1 0.41134040E+00 0.91811618E+03</pdfrwt>
<pdfrwt beam="2">  1       -2 0.64471685E-01 0.91811618E+03</pdfrwt>
<totfact> 0.20604671E+00</totfact>
</mgrwt>
</event>
<event>
12    3  0.1092576E-007  0.7789639E+03  0.7818608E-02  0.9590975E-01
         -2   -1    0    0    0  501 -0.00000000000E+00  0.00000000000E+00  0.18535253702E+03  0.18535253702E+03  0.00000000000E+00 0.  1.
          1   -1    0    0  501    0  0.00000000000E+00 -0.00000000000E+00 -0.33830257315E+04  0.33830257315E+04  0.00000000000E+00 0. -1.
        -24    2    1    2    0    0  0.16097519528E+03  0.64573555180E+03 -0.16366035560E+04  0.17684576298E+04  0.77998540775E+02 0.  0.
    5000000    2    1    2    0    0 -0.16097519528E+03 -0.64573555180E+03 -0.15610696385E+04  0.17999206387E+04  0.59990705388E+03 0.  0.
        -24    2    4    4    0    0  0.20298459266E+03 -0.37929079577E+03 -0.74582655460E+03  0.86491829719E+03  0.82232345579E+02 0.  0.
         24    2    4    4    0    0 -0.36395978794E+03 -0.26644475603E+03 -0.81524308385E+03  0.93500234154E+03  0.78412739202E+02 0.  0.
         11    1    5    5    0    0  0.61965602321E+02 -0.59464857014E+02 -0.11244520561E+03  0.14149109285E+03  0.00000000000E+00 0. -1.
        -12    1    5    5    0    0  0.14101899034E+03 -0.31982593876E+03 -0.63338134899E+03  0.72342720435E+03  0.00000000000E+00 0.  1.
         15    1    3    3    0    0  0.47549098681E+02  0.24137906215E+03 -0.70108451947E+03  0.74299894320E+03  0.17770000000E+01 0. -1.
        -16    1    3    3    0    0  0.11342609660E+03  0.40435648965E+03 -0.93551903656E+03  0.10254586866E+04  0.00000000000E+00 0.  1.
          4    1    6    6  502    0 -0.20574361085E+02  0.19831613668E+01 -0.24143951382E+02  0.31783134700E+02  0.00000000000E+00 0. -1.
         -3    1    6    6    0  502 -0.34338542686E+03 -0.26842791740E+03 -0.79109913247E+03  0.90321920684E+03  0.00000000000E+00 0.  1.
<mgrwt>
<rscale>  0 0.77896394E+03</rscale>
<asrwt>0</asrwt>
<pdfrwt beam="1">  1        1 0.52046549E+00 0.77896394E+03</pdfrwt>
<pdfrwt beam="2">  1       -2 0.28515775E-01 0.77896394E+03</pdfrwt>
<totfact> 0.32681309E+00</totfact>
</mgrwt>
</event>
<event>
12    3  0.1092576E-007  0.3565283E+03  0.7818608E-02  0.1059967E+00
         -2   -1    0    0    0  501 -0.00000000000E+00  0.00000000000E+00  0.64708335764E+03  0.64708335764E+03  0.00000000000E+00 0.  1.
          1   -1    0    0  501    0  0.00000000000E+00 -0.00000000000E+00 -0.29751456364E+03  0.29751456364E+03  0.00000000000E+00 0. -1.
        -24    2    1    2    0    0  0.50965112349E+02  0.21719896528E+03  0.66769722363E+02  0.24480916801E+03  0.75501653763E+02 0.  0.
    5000000    2    1    2    0    0 -0.50965112349E+02 -0.21719896528E+03  0.28279907164E+03  0.69978875326E+03  0.59996345812E+03 0.  0.
        -24    2    4    4    0    0  0.75720835156E+02  0.10272878912E+03  0.31069582720E+03  0.34577865477E+03  0.82122664730E+02 0.  0.
         24    2    4    4    0    0 -0.12668594751E+03 -0.31992775440E+03 -0.27896755562E+02  0.35401009850E+03  0.78369787137E+02 0.  0.
         11    1    5    5    0    0  0.12564641442E+02  0.34285338957E+02  0.22457040760E+02  0.42868092583E+02  0.00000000000E+00 0. -1.
        -12    1    5    5    0    0  0.63156193715E+02  0.68443450162E+02  0.28823878644E+03  0.30291056218E+03  0.00000000000E+00 0.  1.
         15    1    3    3    0    0 -0.33299955029E+01  0.11250173783E+03  0.74980834118E+01  0.11281448873E+03  0.17770000000E+01 0. -1.
        -16    1    3    3    0    0  0.54295107852E+02  0.10469722745E+03  0.59271638951E+02  0.13199467927E+03  0.00000000000E+00 0.  1.
          4    1    6    6  502    0 -0.10314028604E+03 -0.15418999040E+03 -0.15145748115E+02  0.18612325333E+03  0.00000000000E+00 0. -1.
         -3    1    6    6    0  502 -0.23545661467E+02 -0.16573776400E+03 -0.12751007447E+02  0.16788684517E+03  0.00000000000E+00 0.  1.
<mgrwt>
<rscale>  0 0.35652828E+03</rscale>
<asrwt>0</asrwt>
<pdfrwt beam="1">  1        1 0.45771471E-01 0.35652828E+03</pdfrwt>
<pdfrwt beam="2">  1       -2 0.99551286E-01 0.35652828E+03</pdfrwt>
<totfact> 0.67445965E+01</totfact>
</mgrwt>
</event>
<event>
12    3  0.1092576E-007  0.1998519E+04  0.7818608E-02  0.8607314E-01
          1   -1    0    0  501    0  0.00000000000E+00  0.00000000000E+00  0.21053671485E+04  0.21053671485E+04  0.00000000000E+00 0. -1.
         -2   -1    0    0    0  501 -0.00000000000E+00 -0.00000000000E+00 -0.21482359274E+04  0.21482359274E+04  0.00000000000E+00 0.  1.
        -24    2    1    2    0    0  0.19528184469E+04 -0.36614230618E+03  0.60655717263E+03  0.20789146585E+04  0.80090440601E+02 0.  0.
    5000000    2    1    2    0    0 -0.19528184469E+04  0.36614230618E+03 -0.64942595153E+03  0.21746884174E+04  0.59996297495E+03 0.  0.
        -24    2    4    4    0    0 -0.81953661736E+02  0.38541089405E+02 -0.18620327846E+03  0.21811907671E+03  0.68574430142E+02 0.  0.
         24    2    4    4    0    0 -0.18708647852E+04  0.32760121678E+03 -0.46322267307E+03  0.19565693407E+04  0.78299032493E+02 0.  0.
         11    1    5    5    0    0  0.89983246380E+01  0.11576366366E+02 -0.92361791051E+01  0.17328851924E+02  0.00000000000E+00 0. -1.
        -12    1    5    5    0    0 -0.90951986374E+02  0.26964723038E+02 -0.17696709935E+03  0.20079022478E+03  0.00000000000E+00 0.  1.
         15    1    3    3    0    0  0.13787440917E+04 -0.22471221051E+03  0.41009216199E+03  0.14558879033E+04  0.17770000000E+01 0. -1.
        -16    1    3    3    0    0  0.57407435518E+03 -0.14143009568E+03  0.19646501064E+03  0.62302675516E+03  0.00000000000E+00 0.  1.
          4    1    6    6  502    0 -0.15832471512E+04  0.27613619603E+03 -0.36261323875E+03  0.16475469952E+04  0.00000000000E+00 0. -1.
         -3    1    6    6    0  502 -0.28761763400E+03  0.51465020747E+02 -0.10060943432E+03  0.30902234551E+03  0.00000000000E+00 0.  1.
<mgrwt>
<rscale>  0 0.19985185E+04</rscale>
<asrwt>0</asrwt>
<pdfrwt beam="1">  1        1 0.32390264E+00 0.19985185E+04</pdfrwt>
<pdfrwt beam="2">  1       -2 0.33049784E+00 0.19985185E+04</pdfrwt>
<totfact> 0.40586471E-02</totfact>
</mgrwt>
</event>
<event>
12    3  0.1092576E-007  0.5387333E+03  0.7818608E-02  0.1004136E+00
          1   -1    0    0  501    0  0.00000000000E+00  0.00000000000E+00  0.11485553425E+04  0.11485553425E+04  0.00000000000E+00 0. -1.
         -2   -1    0    0    0  501 -0.00000000000E+00 -0.00000000000E+00 -0.42302750008E+03  0.42302750008E+03  0.00000000000E+00 0.  1.
        -24    2    1    2    0    0 -0.42932034351E+03 -0.29545473842E+03  0.54183765159E+03  0.75593354895E+03  0.78981199978E+02 0.  0.
    5000000    2    1    2    0    0  0.42932034351E+03  0.29545473842E+03  0.18369019081E+03  0.81564929361E+03  0.59994351747E+03 0.  0.
        -24    2    4    4    0    0  0.13180590407E+03  0.16799453743E+03 -0.20299058395E+03  0.30527146019E+03  0.79940767331E+02 0.  0.
         24    2    4    4    0    0  0.29751443944E+03  0.12746020099E+03  0.38668077476E+03  0.51037783342E+03  0.78756376047E+02 0.  0.
         13    1    5    5    0    0  0.10569207167E+03  0.72036667141E+02 -0.12554578923E+03  0.17922566954E+03  0.00000000000E+00 0. -1.
        -14    1    5    5    0    0  0.26113832396E+02  0.95957870287E+02 -0.77444794713E+02  0.12604579065E+03  0.00000000000E+00 0.  1.
         15    1    3    3    0    0 -0.34581619626E+03 -0.21511725716E+03  0.45813609136E+03  0.61298948755E+03  0.17770000000E+01 0. -1.
        -16    1    3    3    0    0 -0.83504147250E+02 -0.80337481264E+02  0.83701560230E+02  0.14294406140E+03  0.00000000000E+00 0.  1.
          2    1    6    6  502    0  0.24081195142E+03  0.12214388851E+03  0.27722669313E+03  0.38699375296E+03  0.00000000000E+00 0. -1.
         -1    1    6    6    0  502  0.56702488015E+02  0.53163124874E+01  0.10945408163E+03  0.12338408046E+03  0.00000000000E+00 0.  1.
<mgrwt>
<rscale>  0 0.53873326E+03</rscale>
<asrwt>0</asrwt>
<pdfrwt beam="1">  1        1 0.17670082E+00 0.53873326E+03</pdfrwt>
<pdfrwt beam="2">  1       -2 0.65081154E-01 0.53873326E+03</pdfrwt>
<totfact> 0.23449277E+01</totfact>
</mgrwt>
</event>
<event>
12    3  0.1092576E-007  0.8627384E+03  0.7818608E-02  0.9473398E-01
         -2   -1    0    0    0  501 -0.00000000000E+00  0.00000000000E+00  0.19285953852E+04  0.19285953852E+04  0.00000000000E+00 0.  1.
          1   -1    0    0  501    0  0.00000000000E+00 -0.00000000000E+00 -0.43649477902E+03  0.43649477902E+03  0.00000000000E+00 0. -1.
        -24    2    1    2    0    0  0.43779617401E+03 -0.68535833596E+03  0.56525117801E+03  0.99373659320E+03  0.81375572410E+02 0.  0.
    5000000    2    1    2    0    0 -0.43779617401E+03  0.68535833596E+03  0.92684942822E+03  0.13713535711E+04  0.60014932778E+03 0.  0.
        -24    2    4    4    0    0 -0.35673406278E+03  0.19101612890E+03  0.70789671371E+03  0.81927463483E+03  0.79666912484E+02 0.  0.
         24    2    4    4    0    0 -0.81062111228E+02  0.49434220706E+03  0.21895271451E+03  0.55207893623E+03  0.76847752649E+02 0.  0.
         11    1    5    5    0    0 -0.93673978083E+02  0.35886139921E+02  0.24468751017E+03  0.26445152078E+03  0.00000000000E+00 0. -1.
        -12    1    5    5    0    0 -0.26306008470E+03  0.15512998898E+03  0.46320920354E+03  0.55482311405E+03  0.00000000000E+00 0.  1.
         15    1    3    3    0    0  0.19206762366E+03 -0.30636786136E+03  0.20262791521E+03  0.41450267585E+03  0.17770000000E+01 0. -1.
        -16    1    3    3    0    0  0.24572855035E+03 -0.37899047460E+03  0.36262326280E+03  0.57923391735E+03  0.00000000000E+00 0.  1.
          2    1    6    6  502    0  0.36098764552E+01  0.20448622142E+03  0.98011389203E+02  0.22679038422E+03  0.00000000000E+00 0. -1.
         -1    1    6    6    0  502 -0.84671987683E+02  0.28985598563E+03  0.12094132530E+03  0.32528855201E+03  0.00000000000E+00 0.  1.
<mgrwt>
<rscale>  0 0.86273839E+03</rscale>
<asrwt>0</asrwt>
<pdfrwt beam="1">  1        1 0.67153044E-01 0.86273839E+03</pdfrwt>
<pdfrwt beam="2">  1       -2 0.29670698E+00 0.86273839E+03</pdfrwt>
<totfact> 0.15981778E+00</totfact>
</mgrwt>
</event>
<event>
12    3  0.1092576E-007  0.8005681E+03  0.7818608E-02  0.9559195E-01
         -2   -1    0    0    0  501 -0.00000000000E+00  0.00000000000E+00  0.36405194634E+03  0.36405194634E+03  0.00000000000E+00 0.  1.
          1   -1    0    0  501    0  0.00000000000E+00 -0.00000000000E+00 -0.35184138252E+04  0.35184138252E+04  0.00000000000E+00 0. -1.
        -24    2    1    2    0    0 -0.29580379488E+03  0.64996532695E+03 -0.14619806603E+03  0.73307876101E+03  0.77947315779E+02 0.  0.
    5000000    2    1    2    0    0  0.29580379488E+03 -0.64996532695E+03 -0.30081638129E+04  0.31493870106E+04  0.59969509415E+03 0.  0.
        -24    2    4    4    0    0 -0.13361457737E+03 -0.25029289401E+03 -0.15082731592E+04  0.15369108359E+04  0.81899978456E+02 0.  0.
         24    2    4    4    0    0  0.42941837225E+03 -0.39967243294E+03 -0.14998906536E+04  0.16124761747E+04  0.79178589368E+02 0.  0.
         11    1    5    5    0    0 -0.89338477538E+02 -0.84167193317E+02 -0.57887130300E+03  0.59174104593E+03  0.00000000000E+00 0. -1.
        -12    1    5    5    0    0 -0.44276099836E+02 -0.16612570069E+03 -0.92940185623E+03  0.94516978994E+03  0.00000000000E+00 0.  1.
         15    1    3    3    0    0 -0.97757935926E+02  0.18034680589E+03 -0.93613841297E+01  0.20535914314E+03  0.17770000000E+01 0. -1.
        -16    1    3    3    0    0 -0.19804585895E+03  0.46961852106E+03 -0.13683668190E+03  0.52771961787E+03  0.00000000000E+00 0.  1.
          2    1    6    6  502    0  0.31804362727E+03 -0.24708843902E+03 -0.99686247066E+03  0.10751461440E+04  0.00000000000E+00 0. -1.
         -3    1    6    6    0  502  0.11137474498E+03 -0.15258399392E+03 -0.50302818299E+03  0.53733003071E+03  0.00000000000E+00 0.  1.
<mgrwt>
<rscale>  0 0.80056810E+03</rscale>
<asrwt>0</asrwt>
<pdfrwt beam="1">  1        1 0.54129445E+00 0.80056810E+03</pdfrwt>
<pdfrwt beam="2">  1       -2 0.56007990E-01 0.80056810E+03</pdfrwt>
<totfact> 0.68421852E-01</totfact>
</mgrwt>
</event>
<event>
12    3  0.1092576E-007  0.4754457E+03  0.7818608E-02  0.1020394E+00
         -2   -1    0    0    0  501 -0.00000000000E+00  0.00000000000E+00  0.28551364008E+03  0.28551364008E+03  0.00000000000E+00 0.  1.
          1   -1    0    0  501    0  0.00000000000E+00 -0.00000000000E+00 -0.13263680849E+04  0.13263680849E+04  0.00000000000E+00 0. -1.
        -24    2    1    2    0    0  0.36888139252E+03  0.27018720948E+03 -0.28997111036E+03  0.54728692470E+03  0.79781722148E+02 0.  0.
    5000000    2    1    2    0    0 -0.36888139252E+03 -0.27018720948E+03 -0.75088333441E+03  0.10645948002E+04  0.60038462411E+03 0.  0.
        -24    2    4    4    0    0 -0.25039157556E+03 -0.20978719879E+03 -0.39170959591E+02  0.33609896152E+03  0.68713448225E+02 0.  0.
         24    2    4    4    0    0 -0.11848981696E+03 -0.60400010689E+02 -0.71171237482E+03  0.72849583872E+03  0.80521329729E+02 0.  0.
         11    1    5    5    0    0 -0.13448238352E+03 -0.15122942196E+03 -0.79204699666E+01  0.20253045052E+03  0.00000000000E+00 0. -1.
        -12    1    5    5    0    0 -0.11590919204E+03 -0.58557776831E+02 -0.31250489625E+02  0.13356851100E+03  0.00000000000E+00 0.  1.
         15    1    3    3    0    0  0.86027700926E+02  0.26946751056E+02 -0.43069170098E+02  0.99924991173E+02  0.17770000000E+01 0. -1.
        -16    1    3    3    0    0  0.28285369159E+03  0.24324045843E+03 -0.24690194026E+03  0.44736193352E+03  0.00000000000E+00 0.  1.
          2    1    6    6  502    0 -0.58603191699E+02 -0.73624529496E+02 -0.42251572711E+03  0.43286769928E+03  0.00000000000E+00 0. -1.
         -1    1    6    6    0  502 -0.59886625260E+02  0.13224518807E+02 -0.28919664771E+03  0.29562813944E+03  0.00000000000E+00 0.  1.
<mgrwt>
<rscale>  0 0.47544566E+03</rscale>
<asrwt>0</asrwt>
<pdfrwt beam="1">  1        1 0.20405662E+00 0.47544566E+03</pdfrwt>
<pdfrwt beam="2">  1       -2 0.43925176E-01 0.47544566E+03</pdfrwt>
<totfact> 0.39686921E+01</totfact>
</mgrwt>
</event>
<event>
12    3  0.1154045E-007  0.9294516E+03  0.7818608E-02  0.9389496E-01
          1   -1    0    0  501    0  0.00000000000E+00  0.00000000000E+00  0.25856595489E+04  0.25856595489E+04  0.00000000000E+00 0. -1.
         -2   -1    0    0    0  501 -0.00000000000E+00 -0.00000000000E+00 -0.37323261568E+03  0.37323261568E+03  0.00000000000E+00 0.  1.
        -24    2    1    2    0    0 -0.64213362893E+03  0.61452308016E+03  0.10069570290E+04  0.13455022128E+04  0.80246700552E+02 0.  0.
    5000000    2    1    2    0    0  0.64213362893E+03 -0.61452308016E+03  0.12054699043E+04  0.16133899518E+04  0.59991268790E+03 0.  0.
        -24    2    4    4    0    0  0.53068821336E+03 -0.25985839982E+03  0.38675308288E+03  0.71078268515E+03  0.80484226019E+02 0.  0.
         24    2    4    4    0    0  0.11144541557E+03 -0.35466468033E+03  0.81871682138E+03  0.90260726667E+03  0.78711676991E+02 0.  0.
         11    1    5    5    0    0  0.44933840700E+03 -0.24555771201E+03  0.35081947503E+03  0.62070757849E+03  0.00000000000E+00 0. -1.
        -12    1    5    5    0    0  0.81349806368E+02 -0.14300687809E+02  0.35933607841E+02  0.90075106663E+02  0.00000000000E+00 0.  1.
         15    1    3    3    0    0 -0.31965534032E+03  0.25317364605E+03  0.44218191360E+03  0.60150181554E+03  0.17770000000E+01 0. -1.
        -16    1    3    3    0    0 -0.32247828861E+03  0.36134943410E+03  0.56477511540E+03  0.74400039727E+03  0.00000000000E+00 0.  1.
          4    1    6    6  502    0  0.10565709494E+03 -0.31952380899E+03  0.67110876252E+03  0.75076351627E+03  0.00000000000E+00 0. -1.
         -1    1    6    6    0  502  0.57883206296E+01 -0.35140871340E+02  0.14760805886E+03  0.15184375040E+03  0.00000000000E+00 0.  1.
<mgrwt>
<rscale>  0 0.92945156E+03</rscale>
<asrwt>0</asrwt>
<pdfrwt beam="1">  1        1 0.39779377E+00 0.92945156E+03</pdfrwt>
<pdfrwt beam="2">  1       -2 0.57420404E-01 0.92945156E+03</pdfrwt>
<totfact> 0.30278151E+00</totfact>
</mgrwt>
</event>
<event>
12    3  0.1092576E-007  0.6138766E+03  0.7818608E-02  0.9877028E-01
          1   -1    0    0  501    0  0.00000000000E+00  0.00000000000E+00  0.17066181006E+03  0.17066181006E+03  0.00000000000E+00 0. -1.
         -2   -1    0    0    0  501 -0.00000000000E+00 -0.00000000000E+00 -0.26102462966E+04  0.26102462966E+04  0.00000000000E+00 0.  1.
        -24    2    1    2    0    0 -0.11873129371E+03 -0.47827246336E+03 -0.57689049575E+03  0.76280424591E+03  0.78905032643E+02 0.  0.
    5000000    2    1    2    0    0  0.11873129371E+03  0.47827246336E+03 -0.18626939908E+04  0.20181038608E+04  0.60022714044E+03 0.  0.
        -24    2    4    4    0    0  0.26538599772E+03  0.45744953951E+02 -0.10010632080E+04  0.10396378255E+04  0.78720602448E+02 0.  0.
         24    2    4    4    0    0 -0.14665470401E+03  0.43252750941E+03 -0.86163078286E+03  0.97846603529E+03  0.80003297673E+02 0.  0.
         13    1    5    5    0    0  0.28684205609E+02 -0.86892847343E+01 -0.21001228783E+03  0.21214016206E+03  0.00000000000E+00 0. -1.
        -14    1    5    5    0    0  0.23670179211E+03  0.54434238685E+02 -0.79105092015E+03  0.82749766344E+03  0.00000000000E+00 0.  1.
         15    1    3    3    0    0 -0.49079346724E+02 -0.33270023708E+03 -0.41585100163E+03  0.53482094510E+03  0.17770000000E+01 0. -1.
        -16    1    3    3    0    0 -0.69651946988E+02 -0.14557222628E+03 -0.16103949411E+03  0.22798330081E+03  0.00000000000E+00 0.  1.
          4    1    6    6  502    0 -0.39059782726E+02  0.14668809172E+03 -0.36678960323E+03  0.39696054706E+03  0.00000000000E+00 0. -1.
         -3    1    6    6    0  502 -0.10759492128E+03  0.28583941769E+03 -0.49484117962E+03  0.58150548823E+03  0.00000000000E+00 0.  1.
<mgrwt>
<rscale>  0 0.61387658E+03</rscale>
<asrwt>0</asrwt>
<pdfrwt beam="1">  1        1 0.26255664E-01 0.61387658E+03</pdfrwt>
<pdfrwt beam="2">  1       -2 0.40157634E+00 0.61387658E+03</pdfrwt>
<totfact> 0.12617028E+00</totfact>
</mgrwt>
</event>
<event>
12    3  0.1092576E-007  0.8821939E+03  0.7818608E-02  0.9448118E-01
          1   -1    0    0  501    0  0.00000000000E+00  0.00000000000E+00  0.98477767556E+03  0.98477767556E+03  0.00000000000E+00 0. -1.
         -2   -1    0    0    0  501 -0.00000000000E+00 -0.00000000000E+00 -0.89915665793E+03  0.89915665793E+03  0.00000000000E+00 0.  1.
        -24    2    1    2    0    0 -0.70826885922E+03  0.45750880178E+03  0.50384795089E+02  0.84840773095E+03  0.79359748672E+02 0.  0.
    5000000    2    1    2    0    0  0.70826885922E+03 -0.45750880178E+03  0.35236222542E+02  0.10355266025E+04  0.60009555285E+03 0.  0.
        -24    2    4    4    0    0  0.64979703109E+03 -0.26746567458E+03  0.23228462911E+03  0.74409509295E+03  0.77118673077E+02 0.  0.
         24    2    4    4    0    0  0.58471828134E+02 -0.19004312720E+03 -0.19704840657E+03  0.29143150960E+03  0.81048783916E+02 0.  0.
         13    1    5    5    0    0  0.16537350504E+03 -0.48011604255E+02  0.28349083977E+02  0.17451985811E+03  0.00000000000E+00 0. -1.
        -14    1    5    5    0    0  0.48442352605E+03 -0.21945407032E+03  0.20393554513E+03  0.56957523484E+03  0.00000000000E+00 0.  1.
         15    1    3    3    0    0 -0.35165349928E+03  0.18059533790E+03  0.17473283145E+02  0.39570611946E+03  0.17770000000E+01 0. -1.
        -16    1    3    3    0    0 -0.35661535994E+03  0.27691346388E+03  0.32911511944E+02  0.45270161148E+03  0.00000000000E+00 0.  1.
          4    1    6    6  502    0  0.70923445873E+02 -0.18799555516E+03 -0.19176188220E+03  0.27775003762E+03  0.00000000000E+00 0. -1.
         -3    1    6    6    0  502 -0.12451617739E+02 -0.20475720440E+01 -0.52865243678E+01  0.13681471978E+02  0.00000000000E+00 0.  1.
<mgrwt>
<rscale>  0 0.88219387E+03</rscale>
<asrwt>0</asrwt>
<pdfrwt beam="1">  1        1 0.15150426E+00 0.88219387E+03</pdfrwt>
<pdfrwt beam="2">  1       -2 0.13833179E+00 0.88219387E+03</pdfrwt>
<totfact> 0.50956883E+00</totfact>
</mgrwt>
</event>
<event>
12    3  0.1092576E-007  0.1250060E+04  0.7818608E-02  0.9070133E-01
          1   -1    0    0  501    0  0.00000000000E+00  0.00000000000E+00  0.64384660913E+03  0.64384660913E+03  0.00000000000E+00 0. -1.
         -2   -1    0    0    0  501 -0.00000000000E+00 -0.00000000000E+00 -0.25944955429E+04  0.25944955429E+04  0.00000000000E+00 0.  1.
        -24    2    1    2    0    0  0.11928029562E+04  0.16626699955E+03 -0.11792031253E+04  0.16873716339E+04  0.79242745822E+02 0.  0.
    5000000    2    1    2    0    0 -0.11928029562E+04 -0.16626699955E+03 -0.77144580846E+03  0.15509705181E+04  0.59996441993E+03 0.  0.
        -24    2    4    4    0    0 -0.96936826613E+03  0.64589073435E+02 -0.72859531395E+03  0.12170754869E+04  0.81086531275E+02 0.  0.
         24    2    4    4    0    0 -0.22343469007E+03 -0.23085607299E+03 -0.42850494508E+02  0.33389503119E+03  0.80200622262E+02 0.  0.
         13    1    5    5    0    0 -0.89197375819E+03  0.38629629493E+02 -0.65697943016E+03  0.11084815764E+04  0.00000000000E+00 0. -1.
        -14    1    5    5    0    0 -0.77394507938E+02  0.25959443941E+02 -0.71615883796E+02  0.10859391051E+03  0.00000000000E+00 0.  1.
         15    1    3    3    0    0  0.59933893606E+03  0.86568984212E+02 -0.64810719550E+03  0.88698784879E+03  0.17770000000E+01 0. -1.
        -16    1    3    3    0    0  0.59346402014E+03  0.79698015340E+02 -0.53109592981E+03  0.80038378514E+03  0.00000000000E+00 0.  1.
          4    1    6    6  502    0 -0.52741711306E+02 -0.51055397413E+02 -0.44744862069E+02  0.85967693921E+02  0.00000000000E+00 0. -1.
         -3    1    6    6    0  502 -0.17069297876E+03 -0.17980067557E+03  0.18943675618E+01  0.24792733726E+03  0.00000000000E+00 0.  1.
<mgrwt>
<rscale>  0 0.12500601E+04</rscale>
<asrwt>0</asrwt>
<pdfrwt beam="1">  1        1 0.99053325E-01 0.12500601E+04</pdfrwt>
<pdfrwt beam="2">  1       -2 0.39915316E+00 0.12500601E+04</pdfrwt>
<totfact> 0.20069904E-01</totfact>
</mgrwt>
</event>
<event>
12    3  0.1092576E-007  0.4018359E+03  0.7818608E-02  0.1043146E+00
         -2   -1    0    0    0  501 -0.00000000000E+00  0.00000000000E+00  0.43296081879E+03  0.43296081879E+03  0.00000000000E+00 0.  1.
          1   -1    0    0  501    0  0.00000000000E+00 -0.00000000000E+00 -0.84240251519E+03  0.84240251519E+03  0.00000000000E+00 0. -1.
        -24    2    1    2    0    0 -0.26907397055E+03  0.10814324151E+03  0.20949358590E+03  0.36603976105E+03  0.77471167679E+02 0.  0.
    5000000    2    1    2    0    0  0.26907397055E+03 -0.10814324151E+03 -0.61893528231E+03  0.90932357293E+03  0.59974387391E+03 0.  0.
        -24    2    4    4    0    0 -0.73778820467E+02  0.64453486828E+02  0.49960980657E+02  0.13507167159E+03  0.78426338465E+02 0.  0.
         24    2    4    4    0    0  0.34285279101E+03 -0.17259672834E+03 -0.66889626297E+03  0.77425190134E+03  0.68601233064E+02 0.  0.
         11    1    5    5    0    0 -0.77077702592E+02  0.76112958928E+02  0.31182489822E+02  0.11272312285E+03  0.00000000000E+00 0. -1.
        -12    1    5    5    0    0  0.32988821250E+01 -0.11659472099E+02  0.18778490835E+02  0.22348548744E+02  0.00000000000E+00 0.  1.
         15    1    3    3    0    0 -0.22119354915E+03  0.60182752493E+02  0.13820671357E+03  0.26768041260E+03  0.17770000000E+01 0. -1.
        -16    1    3    3    0    0 -0.47880421395E+02  0.47960489021E+02  0.71286872334E+02  0.98359348448E+02  0.00000000000E+00 0.  1.
          2    1    6    6  502    0  0.12803244064E+03 -0.41661094949E+02 -0.28591801683E+03  0.31603332899E+03  0.00000000000E+00 0. -1.
         -3    1    6    6    0  502  0.21482035038E+03 -0.13093563339E+03 -0.38297824614E+03  0.45821857235E+03  0.00000000000E+00 0.  1.
<mgrwt>
<rscale>  0 0.40183590E+03</rscale>
<asrwt>0</asrwt>
<pdfrwt beam="1">  1        1 0.12960039E+00 0.40183590E+03</pdfrwt>
<pdfrwt beam="2">  1       -2 0.66609357E-01 0.40183590E+03</pdfrwt>
<totfact> 0.39217829E+01</totfact>
</mgrwt>
</event>
<event>
12    3  0.1765045E-007  0.1001881E+04  0.7818608E-02  0.9306484E-01
         -2   -1    0    0    0  501 -0.00000000000E+00  0.00000000000E+00  0.10394403407E+04  0.10394403407E+04  0.00000000000E+00 0.  1.
          1   -1    0    0  501    0  0.00000000000E+00 -0.00000000000E+00 -0.15872297160E+04  0.15872297160E+04  0.00000000000E+00 0. -1.
        -24    2    1    2    0    0  0.89926995874E+03  0.17519431156E+03  0.55384018806E+03  0.10733550573E+04  0.77282724990E+02 0.  0.
    5000000    2    1    2    0    0 -0.89926995874E+03 -0.17519431156E+03 -0.11016295633E+04  0.15533149994E+04  0.59985022055E+03 0.  0.
        -24    2    4    4    0    0 -0.48468819965E+03  0.20034905814E+03 -0.52332299425E+03  0.74495375824E+03  0.77632142969E+02 0.  0.
         24    2    4    4    0    0 -0.41458175908E+03 -0.37554336970E+03 -0.57830656906E+03  0.80836124116E+03  0.78093219249E+02 0.  0.
         11    1    5    5    0    0 -0.14004127910E+03  0.51969513048E+02 -0.10262606453E+03  0.18123051415E+03  0.00000000000E+00 0. -1.
        -12    1    5    5    0    0 -0.34464692055E+03  0.14837954510E+03 -0.42069692972E+03  0.56372324408E+03  0.00000000000E+00 0.  1.
         15    1    3    3    0    0  0.58550507170E+03  0.85044208477E+02  0.38419923145E+03  0.70545085835E+03  0.17770000000E+01 0. -1.
        -16    1    3    3    0    0  0.31376488704E+03  0.90150103083E+02  0.16964095662E+03  0.36790419892E+03  0.00000000000E+00 0.  1.
          4    1    6    6  502    0 -0.29940038291E+03 -0.24425886812E+03 -0.35365749313E+03  0.52380970436E+03  0.00000000000E+00 0. -1.
         -3    1    6    6    0  502 -0.11518137618E+03 -0.13128450158E+03 -0.22464907593E+03  0.28455153679E+03  0.00000000000E+00 0.  1.
<mgrwt>
<rscale>  0 0.10018807E+04</rscale>
<asrwt>0</asrwt>
<pdfrwt beam="1">  1        1 0.24418919E+00 0.10018807E+04</pdfrwt>
<pdfrwt beam="2">  1       -2 0.15991390E+00 0.10018807E+04</pdfrwt>
<totfact> 0.12583370E+00</totfact>
</mgrwt>
</event>
<event>
12    3  0.1092576E-007  0.5891666E+03  0.7818608E-02  0.9928140E-01
         -2   -1    0    0    0  501 -0.00000000000E+00  0.00000000000E+00  0.88679177934E+03  0.88679177934E+03  0.00000000000E+00 0.  1.
          1   -1    0    0  501    0  0.00000000000E+00 -0.00000000000E+00 -0.42132925373E+03  0.42132925373E+03  0.00000000000E+00 0. -1.
        -24    2    1    2    0    0 -0.34935831830E+03  0.27856372944E+03  0.29587916175E+03  0.54094077630E+03  0.73644138822E+02 0.  0.
    5000000    2    1    2    0    0  0.34935831830E+03 -0.27856372944E+03  0.16958336386E+03  0.76718025677E+03  0.60013168818E+03 0.  0.
        -24    2    4    4    0    0 -0.45187560768E+02 -0.32577945543E+03  0.30477776545E+02  0.33887110270E+03  0.75700463387E+02 0.  0.
         24    2    4    4    0    0  0.39454587906E+03  0.47215725984E+02  0.13910558731E+03  0.42830915407E+03  0.78756533531E+02 0.  0.
         13    1    5    5    0    0 -0.22895434341E+02 -0.61700046009E+02  0.33475185609E+02  0.73835524260E+02  0.00000000000E+00 0. -1.
        -14    1    5    5    0    0 -0.22292126427E+02 -0.26407940942E+03 -0.29974090640E+01  0.26503557844E+03  0.00000000000E+00 0.  1.
         15    1    3    3    0    0 -0.26457213581E+03  0.18952290448E+03  0.17963695610E+03  0.37173907529E+03  0.17770000000E+01 0. -1.
        -16    1    3    3    0    0 -0.84786182481E+02  0.89040824962E+02  0.11624220566E+03  0.16920170101E+03  0.00000000000E+00 0.  1.
          4    1    6    6  502    0  0.28591701897E+03  0.17371519928E+02  0.65800555642E+02  0.29390478826E+03  0.00000000000E+00 0. -1.
         -3    1    6    6    0  502  0.10862886010E+03  0.29844206056E+02  0.73305031671E+02  0.13440436581E+03  0.00000000000E+00 0.  1.
<mgrwt>
<rscale>  0 0.58916662E+03</rscale>
<asrwt>0</asrwt>
<pdfrwt beam="1">  1        1 0.64819885E-01 0.58916662E+03</pdfrwt>
<pdfrwt beam="2">  1       -2 0.13642950E+00 0.58916662E+03</pdfrwt>
<totfact> 0.19418618E+01</totfact>
</mgrwt>
</event>
<event>
12    3  0.1092576E-007  0.6424753E+03  0.7818608E-02  0.9821002E-01
          1   -1    0    0  501    0  0.00000000000E+00  0.00000000000E+00  0.17134738383E+04  0.17134738383E+04  0.00000000000E+00 0. -1.
         -2   -1    0    0    0  501 -0.00000000000E+00 -0.00000000000E+00 -0.40134793271E+03  0.40134793271E+03  0.00000000000E+00 0.  1.
        -24    2    1    2    0    0 -0.41846456594E+03  0.48058020976E+03  0.14906929129E+03  0.65938207378E+03  0.80579989205E+02 0.  0.
    5000000    2    1    2    0    0  0.41846456594E+03 -0.48058020976E+03  0.11630566143E+04  0.14554396973E+04  0.59961161867E+03 0.  0.
        -24    2    4    4    0    0  0.22811927542E+03 -0.26619215696E+03  0.13209709923E+03  0.38235374855E+03  0.76472721624E+02 0.  0.
         24    2    4    4    0    0  0.19034529052E+03 -0.21438805279E+03  0.10309595151E+04  0.10730859487E+04  0.80264342864E+02 0.  0.
         11    1    5    5    0    0  0.11853633249E+03 -0.80810832596E+02  0.53197786510E+02  0.15300737653E+03  0.00000000000E+00 0. -1.
        -12    1    5    5    0    0  0.10958294294E+03 -0.18538132437E+03  0.78899312722E+02  0.22934637201E+03  0.00000000000E+00 0.  1.
         15    1    3    3    0    0 -0.16325786513E+03  0.15990955999E+03  0.88641355189E+02  0.24512169525E+03  0.17770000000E+01 0. -1.
        -16    1    3    3    0    0 -0.25520670082E+03  0.32067064976E+03  0.60427936100E+02  0.41426037853E+03  0.00000000000E+00 0.  1.
          4    1    6    6  502    0  0.40542288548E+02 -0.62086276454E+02  0.40350575489E+03  0.41026244906E+03  0.00000000000E+00 0. -1.
         -1    1    6    6    0  502  0.14980300197E+03 -0.15230177634E+03  0.62745376023E+03  0.66282349966E+03  0.00000000000E+00 0.  1.
<mgrwt>
<rscale>  0 0.64247530E+03</rscale>
<asrwt>0</asrwt>
<pdfrwt beam="1">  1        1 0.26361136E+00 0.64247530E+03</pdfrwt>
<pdfrwt beam="2">  1       -2 0.61745836E-01 0.64247530E+03</pdfrwt>
<totfact> 0.10510532E+01</totfact>
</mgrwt>
</event>
<event>
12    3  0.1092576E-007  0.4565298E+03  0.7818608E-02  0.1025792E+00
          1   -1    0    0  501    0  0.00000000000E+00  0.00000000000E+00  0.10388640201E+04  0.10388640201E+04  0.00000000000E+00 0. -1.
         -2   -1    0    0    0  501 -0.00000000000E+00 -0.00000000000E+00 -0.21414862825E+03  0.21414862825E+03  0.00000000000E+00 0.  1.
        -24    2    1    2    0    0 -0.11461490583E+03  0.24360033891E+03  0.18818484144E+03  0.33777394050E+03  0.78740069673E+02 0.  0.
    5000000    2    1    2    0    0  0.11461490583E+03 -0.24360033891E+03  0.63653055040E+03  0.91523870785E+03  0.60001087406E+03 0.  0.
        -24    2    4    4    0    0  0.11404876638E+03  0.17318906388E+03  0.14324945468E+03  0.26469246977E+03  0.80871035142E+02 0.  0.
         24    2    4    4    0    0  0.56613944831E+00 -0.41678940280E+03  0.49328109573E+03  0.65054623808E+03  0.78552158997E+02 0.  0.
         11    1    5    5    0    0  0.89081065853E+02  0.17115663072E+03  0.14207444373E+03  0.23961464082E+03  0.00000000000E+00 0. -1.
        -12    1    5    5    0    0  0.24967700525E+02  0.20324331651E+01  0.11750109439E+01  0.25077828949E+02  0.00000000000E+00 0.  1.
         15    1    3    3    0    0  0.17814694191E+01  0.34846205306E+02  0.52121193390E+02  0.62747176724E+02  0.17770000000E+01 0. -1.
        -16    1    3    3    0    0 -0.11639637524E+03  0.20875413361E+03  0.13606364806E+03  0.27502676377E+03  0.00000000000E+00 0.  1.
          2    1    6    6  502    0 -0.29780424848E+02 -0.21440051829E+03  0.29217325071E+03  0.36362021998E+03  0.00000000000E+00 0. -1.
         -1    1    6    6    0  502  0.30346564296E+02 -0.20238888451E+03  0.20110784501E+03  0.28692601810E+03  0.00000000000E+00 0.  1.
<mgrwt>
<rscale>  0 0.45652981E+03</rscale>
<asrwt>0</asrwt>
<pdfrwt beam="1">  1        1 0.15982523E+00 0.45652981E+03</pdfrwt>
<pdfrwt beam="2">  1       -2 0.32945943E-01 0.45652981E+03</pdfrwt>
<totfact> 0.11121978E+02</totfact>
</mgrwt>
</event>
<event>
12    3  0.1092576E-007  0.6527514E+03  0.7818608E-02  0.9801630E-01
          1   -1    0    0  501    0  0.00000000000E+00  0.00000000000E+00  0.13322333769E+04  0.13322333769E+04  0.00000000000E+00 0. -1.
         -2   -1    0    0    0  501 -0.00000000000E+00 -0.00000000000E+00 -0.39304014574E+03  0.39304014574E+03  0.00000000000E+00 0.  1.
        -24    2    1    2    0    0  0.30076664528E+03 -0.50735468133E+03  0.49495643768E+03  0.77420788769E+03  0.80911251281E+02 0.  0.
    5000000    2    1    2    0    0 -0.30076664528E+03  0.50735468133E+03  0.44423679347E+03  0.95106563493E+03  0.59942486242E+03 0.  0.
        -24    2    4    4    0    0 -0.39644138914E+03  0.36305843320E+03  0.51137733866E+03  0.74638214675E+03  0.81254695587E+02 0.  0.
         24    2    4    4    0    0  0.95674743856E+02  0.14429624813E+03 -0.67140545194E+02  0.20468348817E+03  0.86095375520E+02 0.  0.
         13    1    5    5    0    0 -0.21622455853E+02  0.45008580253E+02  0.68217940976E+02  0.84539874405E+02  0.00000000000E+00 0. -1.
        -14    1    5    5    0    0 -0.37481893328E+03  0.31804985295E+03  0.44315939769E+03  0.66184227235E+03  0.00000000000E+00 0.  1.
         15    1    3    3    0    0  0.16887232396E+03 -0.31609860679E+03  0.25243867926E+03  0.43836586949E+03  0.17770000000E+01 0. -1.
        -16    1    3    3    0    0  0.13189432132E+03 -0.19125607454E+03  0.24251775841E+03  0.33584201820E+03  0.00000000000E+00 0.  1.
          2    1    6    6  502    0  0.19853440668E+02  0.35528983083E+02  0.20677781997E+02  0.45651269572E+02  0.00000000000E+00 0. -1.
         -1    1    6    6    0  502  0.75821303188E+02  0.10876726505E+03 -0.87818327191E+02  0.15903221860E+03  0.00000000000E+00 0.  1.
<mgrwt>
<rscale>  0 0.65275137E+03</rscale>
<asrwt>0</asrwt>
<pdfrwt beam="1">  1        1 0.20495898E+00 0.65275137E+03</pdfrwt>
<pdfrwt beam="2">  1       -2 0.60467715E-01 0.65275137E+03</pdfrwt>
<totfact> 0.19955470E+01</totfact>
</mgrwt>
</event>
<event>
12    3  0.1092576E-007  0.3174334E+03  0.7818608E-02  0.1076837E+00
          3   -1    0    0  501    0  0.00000000000E+00  0.00000000000E+00  0.13894614540E+04  0.13894614540E+04  0.00000000000E+00 0. -1.
         -4   -1    0    0    0  501 -0.00000000000E+00 -0.00000000000E+00 -0.14366306626E+03  0.14366306626E+03  0.00000000000E+00 0.  1.
        -24    2    1    2    0    0 -0.18109786208E+03  0.14866670342E+03  0.38102234289E+03  0.45480832880E+03  0.82306535648E+02 0.  0.
    5000000    2    1    2    0    0  0.18109786208E+03 -0.14866670342E+03  0.86477604482E+03  0.10783161914E+04  0.60002498002E+03 0.  0.
        -24    2    4    4    0    0 -0.87613192128E+01 -0.17539526486E+03  0.52295512042E+01  0.19304086754E+03  0.79982302305E+02 0.  0.
         24    2    4    4    0    0  0.18985918129E+03  0.26728561444E+02  0.85954649361E+03  0.88527532389E+03  0.90173719515E+02 0.  0.
         13    1    5    5    0    0  0.24133552725E+02 -0.20885840093E+02  0.13942028496E+02  0.34828534883E+02  0.00000000000E+00 0. -1.
        -14    1    5    5    0    0 -0.32894871938E+02 -0.15450942477E+03 -0.87124772919E+01  0.15821233265E+03  0.00000000000E+00 0.  1.
         15    1    3    3    0    0 -0.46973122793E+02  0.22418318931E+02  0.15337075331E+03  0.16197160551E+03  0.17770000000E+01 0. -1.
        -16    1    3    3    0    0 -0.13412473929E+03  0.12624838449E+03  0.22765158957E+03  0.29283672329E+03  0.00000000000E+00 0.  1.
          2    1    6    6  502    0  0.12834679102E+02  0.28947496532E+02  0.83785022100E+02  0.89569059788E+02  0.00000000000E+00 0. -1.
         -1    1    6    6    0  502  0.17702450219E+03 -0.22189350878E+01  0.77576147151E+03  0.79570626410E+03  0.00000000000E+00 0.  1.
<mgrwt>
<rscale>  0 0.31743344E+03</rscale>
<asrwt>0</asrwt>
<pdfrwt beam="1">  1        3 0.21376329E+00 0.31743344E+03</pdfrwt>
<pdfrwt beam="2">  1       -4 0.22102011E-01 0.31743344E+03</pdfrwt>
<totfact> 0.53091662E+00</totfact>
</mgrwt>
</event>
<event>
12    3  0.1092576E-007  0.8936470E+03  0.7818608E-02  0.9433558E-01
         -2   -1    0    0    0  501 -0.00000000000E+00  0.00000000000E+00  0.14889003138E+04  0.14889003138E+04  0.00000000000E+00 0.  1.
          1   -1    0    0  501    0  0.00000000000E+00 -0.00000000000E+00 -0.11817086881E+04  0.11817086881E+04  0.00000000000E+00 0. -1.
        -24    2    1    2    0    0  0.83936936605E+03 -0.19206850666E+03  0.10680931013E+04  0.13742595247E+04  0.79593494154E+02 0.  0.
    5000000    2    1    2    0    0 -0.83936936605E+03  0.19206850666E+03 -0.76090147561E+03  0.12963494772E+04  0.60009971467E+03 0.  0.
        -24    2    4    4    0    0 -0.72883073403E+03  0.57523335089E+02 -0.81377975486E+03  0.10974529855E+04  0.87535096167E+02 0.  0.
         24    2    4    4    0    0 -0.11053863202E+03  0.13454517157E+03  0.52878279250E+02  0.19889649168E+03  0.80265245443E+02 0.  0.
         11    1    5    5    0    0 -0.67554258419E+03  0.50969511504E+02 -0.78364763957E+03  0.10358857549E+04  0.00000000000E+00 0. -1.
        -12    1    5    5    0    0 -0.53288149841E+02  0.65538235843E+01 -0.30132115288E+02  0.61567230641E+02  0.00000000000E+00 0.  1.
         15    1    3    3    0    0  0.54772656153E+03 -0.87962581024E+02  0.66741398465E+03  0.86786311507E+03  0.17770000000E+01 0. -1.
        -16    1    3    3    0    0  0.29164280452E+03 -0.10410592563E+03  0.40067911665E+03  0.50639640964E+03  0.00000000000E+00 0.  1.
          2    1    6    6  502    0 -0.12368844546E+02  0.76890741732E+02  0.20409061174E+02  0.80509032149E+02  0.00000000000E+00 0. -1.
         -1    1    6    6    0  502 -0.98169787474E+02  0.57654429837E+02  0.32469218076E+02  0.11838745953E+03  0.00000000000E+00 0.  1.
<mgrwt>
<rscale>  0 0.89364698E+03</rscale>
<asrwt>0</asrwt>
<pdfrwt beam="1">  1        1 0.18180134E+00 0.89364698E+03</pdfrwt>
<pdfrwt beam="2">  1       -2 0.22906159E+00 0.89364698E+03</pdfrwt>
<totfact> 0.85032832E-01</totfact>
</mgrwt>
</event>
<event>
12    3  0.1092576E-007  0.6260561E+03  0.7818608E-02  0.9852775E-01
         -4   -1    0    0    0  501 -0.00000000000E+00  0.00000000000E+00  0.75740103122E+03  0.75740103122E+03  0.00000000000E+00 0.  1.
          3   -1    0    0  501    0  0.00000000000E+00 -0.00000000000E+00 -0.11227477183E+04  0.11227477183E+04  0.00000000000E+00 0. -1.
        -24    2    1    2    0    0  0.37997350780E+03  0.30691891152E+03  0.51088689286E+03  0.71125149839E+03  0.79335942641E+02 0.  0.
    5000000    2    1    2    0    0 -0.37997350780E+03 -0.30691891152E+03 -0.87623357998E+03  0.11688972512E+04  0.59996367576E+03 0.  0.
        -24    2    4    4    0    0 -0.48967802822E+03 -0.75993783964E+02 -0.51529128472E+03  0.71956127418E+03  0.81753854116E+02 0.  0.
         24    2    4    4    0    0  0.10970452042E+03 -0.23092512755E+03 -0.36094229526E+03  0.44933597699E+03  0.79132694744E+02 0.  0.
         11    1    5    5    0    0 -0.96136897701E+02 -0.48633865531E+02 -0.11230340573E+03  0.15562651096E+03  0.00000000000E+00 0. -1.
        -12    1    5    5    0    0 -0.39354113052E+03 -0.27359918433E+02 -0.40298787900E+03  0.56393476322E+03  0.00000000000E+00 0.  1.
         15    1    3    3    0    0  0.32805984881E+03  0.27010077749E+03  0.40108133909E+03  0.58433474370E+03  0.17770000000E+01 0. -1.
        -16    1    3    3    0    0  0.51913658990E+02  0.36818134031E+02  0.10980555377E+03  0.12691675469E+03  0.00000000000E+00 0.  1.
          2    1    6    6  502    0  0.38325450901E+02 -0.14296062642E+03 -0.25151873501E+03  0.29183600695E+03  0.00000000000E+00 0. -1.
         -3    1    6    6    0  502  0.71379069520E+02 -0.87964501133E+02 -0.10942356025E+03  0.15749997004E+03  0.00000000000E+00 0.  1.
<mgrwt>
<rscale>  0 0.62605608E+03</rscale>
<asrwt>0</asrwt>
<pdfrwt beam="1">  1        3 0.17273042E+00 0.62605608E+03</pdfrwt>
<pdfrwt beam="2">  1       -4 0.11652324E+00 0.62605608E+03</pdfrwt>
<totfact> 0.28690733E-01</totfact>
</mgrwt>
</event>
<event>
12    3  0.1092576E-007  0.8359658E+03  0.7818608E-02  0.9509369E-01
         -2   -1    0    0    0  501 -0.00000000000E+00  0.00000000000E+00  0.45731495642E+03  0.45731495642E+03  0.00000000000E+00 0.  1.
          1   -1    0    0  501    0  0.00000000000E+00 -0.00000000000E+00 -0.16908947090E+04  0.16908947090E+04  0.00000000000E+00 0. -1.
        -24    2    1    2    0    0  0.62975850686E+03  0.44733324854E+03 -0.61892971262E+03  0.99306777752E+03  0.80042547184E+02 0.  0.
    5000000    2    1    2    0    0 -0.62975850686E+03 -0.44733324854E+03 -0.61465003999E+03  0.11551418879E+04  0.59987940235E+03 0.  0.
        -24    2    4    4    0    0 -0.67143093269E+03 -0.41758363905E+03 -0.34792244201E+03  0.86787143368E+03  0.83397882210E+02 0.  0.
         24    2    4    4    0    0  0.41672425829E+02 -0.29749609489E+02 -0.26672759798E+03  0.28727045425E+03  0.93589914103E+02 0.  0.
         11    1    5    5    0    0 -0.35599070635E+03 -0.26840302010E+03 -0.20709832616E+03  0.49158852805E+03  0.00000000000E+00 0. -1.
        -12    1    5    5    0    0 -0.31544022634E+03 -0.14918061895E+03 -0.14082411585E+03  0.37628290563E+03  0.00000000000E+00 0.  1.
         15    1    3    3    0    0  0.12877691466E+03  0.98156139858E+02 -0.90444353640E+02  0.18547630677E+03  0.17770000000E+01 0. -1.
        -16    1    3    3    0    0  0.50098159221E+03  0.34917710868E+03 -0.52848535898E+03  0.80759147074E+03  0.00000000000E+00 0.  1.
          2    1    6    6  502    0 -0.26769541448E+02 -0.23881841824E+02 -0.66080685123E+02  0.75190475890E+02  0.00000000000E+00 0. -1.
         -1    1    6    6    0  502  0.68441967277E+02 -0.58677676641E+01 -0.20064691286E+03  0.21207997836E+03  0.00000000000E+00 0.  1.
<mgrwt>
<rscale>  0 0.83596580E+03</rscale>
<asrwt>0</asrwt>
<pdfrwt beam="1">  1        1 0.26013765E+00 0.83596580E+03</pdfrwt>
<pdfrwt beam="2">  1       -2 0.70356147E-01 0.83596580E+03</pdfrwt>
<totfact> 0.79895257E+00</totfact>
</mgrwt>
</event>
<event>
12    3  0.1092576E-007  0.5176922E+03  0.7818608E-02  0.1009261E+00
         -2   -1    0    0    0  501 -0.00000000000E+00  0.00000000000E+00  0.62433586203E+03  0.62433586203E+03  0.00000000000E+00 0.  1.
          1   -1    0    0  501    0  0.00000000000E+00 -0.00000000000E+00 -0.10358989824E+04  0.10358989824E+04  0.00000000000E+00 0. -1.
        -24    2    1    2    0    0 -0.24886526868E+03 -0.26655779170E+03  0.42623116023E+03  0.56712871760E+03  0.83516478045E+02 0.  0.
    5000000    2    1    2    0    0  0.24886526868E+03  0.26655779170E+03 -0.83779428056E+03  0.10931061268E+04  0.59999564132E+03 0.  0.
        -24    2    4    4    0    0 -0.13834601791E+03 -0.55357442287E+02 -0.10979136247E+03  0.20425356258E+03  0.86378860047E+02 0.  0.
         24    2    4    4    0    0  0.38721128660E+03  0.32191523399E+03 -0.72800291809E+03  0.88885256421E+03  0.80676104359E+02 0.  0.
         11    1    5    5    0    0 -0.66047707662E+02 -0.51345762810E+02 -0.15035869335E+02  0.84998614180E+02  0.00000000000E+00 0. -1.
        -12    1    5    5    0    0 -0.72298310251E+02 -0.40116794771E+01 -0.94755493138E+02  0.11925494840E+03  0.00000000000E+00 0.  1.
         15    1    3    3    0    0 -0.15779347769E+03 -0.20812651981E+03  0.34015171313E+03  0.42886102122E+03  0.17770000000E+01 0. -1.
        -16    1    3    3    0    0 -0.91071790990E+02 -0.58431271893E+02  0.86079447100E+02  0.13826769638E+03  0.00000000000E+00 0.  1.
          4    1    6    6  502    0  0.16173183866E+03  0.84407113422E+02 -0.26620874798E+03  0.32272100325E+03  0.00000000000E+00 0. -1.
         -3    1    6    6    0  502  0.22547944794E+03  0.23750812057E+03 -0.46179417011E+03  0.56613156097E+03  0.00000000000E+00 0.  1.
<mgrwt>
<rscale>  0 0.51769219E+03</rscale>
<asrwt>0</asrwt>
<pdfrwt beam="1">  1        1 0.15936908E+00 0.51769219E+03</pdfrwt>
<pdfrwt beam="2">  1       -2 0.96051670E-01 0.51769219E+03</pdfrwt>
<totfact> 0.11961661E+01</totfact>
</mgrwt>
</event>
<event>
12    3  0.1092576E-007  0.4606598E+03  0.7818608E-02  0.1024590E+00
          1   -1    0    0  501    0  0.00000000000E+00  0.00000000000E+00  0.76483627614E+03  0.76483627614E+03  0.00000000000E+00 0. -1.
         -4   -1    0    0    0  501 -0.00000000000E+00 -0.00000000000E+00 -0.58171114563E+03  0.58171114563E+03  0.00000000000E+00 0.  1.
        -24    2    1    2    0    0  0.31378665418E+03 -0.90905113118E+01 -0.35581633174E+03  0.48107551228E+03  0.79269696911E+02 0.  0.
    5000000    2    1    2    0    0 -0.31378665418E+03  0.90905113118E+01  0.53894146224E+03  0.86547190949E+03  0.60003251966E+03 0.  0.
        -24    2    4    4    0    0 -0.12838396961E+03 -0.24207944560E+03  0.66021687929E+02  0.29316412191E+03  0.80631491785E+02 0.  0.
         24    2    4    4    0    0 -0.18540268457E+03  0.25116995691E+03  0.47291977431E+03  0.57230778758E+03  0.80141051189E+02 0.  0.
         13    1    5    5    0    0 -0.58950441857E+02 -0.43173866520E+02  0.31955750450E+02  0.79751534984E+02  0.00000000000E+00 0. -1.
        -14    1    5    5    0    0 -0.69433527749E+02 -0.19890557908E+03  0.34065937480E+02  0.21341258693E+03  0.00000000000E+00 0.  1.
         15    1    3    3    0    0  0.25409492495E+03 -0.37111310915E+02 -0.26693051766E+03  0.37040051197E+03  0.17770000000E+01 0. -1.
        -16    1    3    3    0    0  0.59691729230E+02  0.28020799603E+02 -0.88885814081E+02  0.11067500031E+03  0.00000000000E+00 0.  1.
          2    1    6    6  502    0 -0.18532082449E+03  0.23788795395E+03  0.41564247698E+03  0.51351061848E+03  0.00000000000E+00 0. -1.
         -1    1    6    6    0  502 -0.81860081991E-01  0.13282002955E+02  0.57277297335E+02  0.58797169094E+02  0.00000000000E+00 0.  1.
<mgrwt>
<rscale>  0 0.46065977E+03</rscale>
<asrwt>0</asrwt>
<pdfrwt beam="1">  1        1 0.11766712E+00 0.46065977E+03</pdfrwt>
<pdfrwt beam="2">  1       -4 0.89494022E-01 0.46065977E+03</pdfrwt>
<totfact> 0.12541375E+01</totfact>
</mgrwt>
</event>
<event>
12    3  0.1092576E-007  0.1088271E+04  0.7818608E-02  0.9216700E-01
          1   -1    0    0  501    0  0.00000000000E+00  0.00000000000E+00  0.15159064027E+04  0.15159064027E+04  0.00000000000E+00 0. -1.
         -2   -1    0    0    0  501 -0.00000000000E+00 -0.00000000000E+00 -0.11944479279E+04  0.11944479279E+04  0.00000000000E+00 0.  1.
        -24    2    1    2    0    0  0.87660608313E+03  0.49995614392E+03 -0.63654376436E+03  0.11950207245E+04  0.67023856012E+02 0.  0.
    5000000    2    1    2    0    0 -0.87660608313E+03 -0.49995614392E+03  0.95800223917E+03  0.15153336060E+04  0.60006106060E+03 0.  0.
        -24    2    4    4    0    0 -0.16022882398E+03 -0.40768844745E+03  0.41354238052E+03  0.60760321241E+03  0.79254129384E+02 0.  0.
         24    2    4    4    0    0 -0.71637725915E+03 -0.92267696470E+02  0.54445985865E+03  0.90773039361E+03  0.76342809503E+02 0.  0.
         11    1    5    5    0    0 -0.10260044111E+03 -0.30886501933E+03  0.34478303088E+03  0.47413056120E+03  0.00000000000E+00 0. -1.
        -12    1    5    5    0    0 -0.57628382869E+02 -0.98823428114E+02  0.68759349637E+02  0.13347265120E+03  0.00000000000E+00 0.  1.
         15    1    3    3    0    0  0.33050445349E+03  0.15276103488E+03 -0.21939898895E+03  0.42509787301E+03  0.17770000000E+01 0. -1.
        -16    1    3    3    0    0  0.54610162964E+03  0.34719510904E+03 -0.41714477541E+03  0.76992285152E+03  0.00000000000E+00 0.  1.
          2    1    6    6  502    0 -0.26331071798E+03 -0.11486850399E+01  0.17648242851E+03  0.31698564834E+03  0.00000000000E+00 0. -1.
         -1    1    6    6    0  502 -0.45306654117E+03 -0.91119011430E+02  0.36797743014E+03  0.59074474527E+03  0.00000000000E+00 0.  1.
<mgrwt>
<rscale>  0 0.10882706E+04</rscale>
<asrwt>0</asrwt>
<pdfrwt beam="1">  1        1 0.23321637E+00 0.10882706E+04</pdfrwt>
<pdfrwt beam="2">  1       -2 0.18376122E+00 0.10882706E+04</pdfrwt>
<totfact> 0.94341022E-01</totfact>
</mgrwt>
</event>
<event>
12    3  0.1092576E-007  0.3901451E+03  0.7818608E-02  0.1047247E+00
         -2   -1    0    0    0  501 -0.00000000000E+00  0.00000000000E+00  0.22862534491E+03  0.22862534491E+03  0.00000000000E+00 0.  1.
          1   -1    0    0  501    0  0.00000000000E+00 -0.00000000000E+00 -0.10358360625E+04  0.10358360625E+04  0.00000000000E+00 0. -1.
        -24    2    1    2    0    0  0.88618800877E+00 -0.20598784167E+03 -0.52621014445E+03  0.57071382847E+03  0.79908582998E+02 0.  0.
    5000000    2    1    2    0    0 -0.88618800877E+00  0.20598784167E+03 -0.28100057314E+03  0.69374757896E+03  0.59991049745E+03 0.  0.
        -24    2    4    4    0    0 -0.13116898789E+03  0.34231769366E+03 -0.39848282091E+02  0.37732560026E+03  0.80000101566E+02 0.  0.
         24    2    4    4    0    0  0.13028279988E+03 -0.13632985199E+03 -0.24115229105E+03  0.31642197870E+03  0.80056259165E+02 0.  0.
         13    1    5    5    0    0 -0.29597915955E+02  0.45447696793E+02  0.20182837012E+02  0.57869479715E+02  0.00000000000E+00 0. -1.
        -14    1    5    5    0    0 -0.10157107194E+03  0.29686999687E+03 -0.60031119103E+02  0.31945612055E+03  0.00000000000E+00 0.  1.
         15    1    3    3    0    0  0.18639703562E+02 -0.15368542951E+03 -0.29686357548E+03  0.33481008045E+03  0.17770000000E+01 0. -1.
        -16    1    3    3    0    0 -0.17753515553E+02 -0.52302412159E+02 -0.22934656897E+03  0.23590374802E+03  0.00000000000E+00 0.  1.
          4    1    6    6  502    0  0.30042748696E+02 -0.83886976698E+02 -0.13170252139E+03  0.15901303642E+03  0.00000000000E+00 0. -1.
         -3    1    6    6    0  502  0.10024005119E+03 -0.52442875295E+02 -0.10944976966E+03  0.15740894228E+03  0.00000000000E+00 0.  1.
<mgrwt>
<rscale>  0 0.39014510E+03</rscale>
<asrwt>0</asrwt>
<pdfrwt beam="1">  1        1 0.15935940E+00 0.39014510E+03</pdfrwt>
<pdfrwt beam="2">  1       -2 0.35173129E-01 0.39014510E+03</pdfrwt>
<totfact> 0.99735397E+01</totfact>
</mgrwt>
</event>
<event>
12    3  0.1092576E-007  0.5907476E+03  0.7818608E-02  0.9924790E-01
         -4   -1    0    0    0  501 -0.00000000000E+00  0.00000000000E+00  0.83201575235E+03  0.83201575235E+03  0.00000000000E+00 0.  1.
          3   -1    0    0  501    0  0.00000000000E+00 -0.00000000000E+00 -0.54418378794E+03  0.54418378794E+03  0.00000000000E+00 0. -1.
        -24    2    1    2    0    0  0.56321596892E+02  0.51577518924E+03 -0.19431513223E+02  0.52552731546E+03  0.81272427554E+02 0.  0.
    5000000    2    1    2    0    0 -0.56321596892E+02 -0.51577518924E+03  0.30726347763E+03  0.85067222483E+03  0.60003018366E+03 0.  0.
        -24    2    4    4    0    0 -0.19616498622E+03 -0.12959232462E+03  0.35139357026E+03  0.43036315382E+03  0.80374937177E+02 0.  0.
         24    2    4    4    0    0  0.13984338933E+03 -0.38618286462E+03 -0.44130092631E+02  0.42030907101E+03  0.77581387154E+02 0.  0.
         13    1    5    5    0    0 -0.10658797014E+03 -0.29688770090E+02  0.12277427530E+03  0.16527534941E+03  0.00000000000E+00 0. -1.
        -14    1    5    5    0    0 -0.89577016082E+02 -0.99903554525E+02  0.22861929496E+03  0.26508780441E+03  0.00000000000E+00 0.  1.
         15    1    3    3    0    0  0.64816234800E+02  0.23154839297E+03 -0.18577698841E+02  0.24117232678E+03  0.17770000000E+01 0. -1.
        -16    1    3    3    0    0 -0.84946379082E+01  0.28422679627E+03 -0.85381438210E+00  0.28435498868E+03  0.00000000000E+00 0.  1.
          2    1    6    6  502    0  0.78764134111E+02 -0.17276875505E+03 -0.56141540759E+02  0.19800177813E+03  0.00000000000E+00 0. -1.
         -1    1    6    6    0  502  0.61079255219E+02 -0.21341410958E+03  0.12011448127E+02  0.22230729289E+03  0.00000000000E+00 0.  1.
<mgrwt>
<rscale>  0 0.59074756E+03</rscale>
<asrwt>0</asrwt>
<pdfrwt beam="1">  1        3 0.83720583E-01 0.59074756E+03</pdfrwt>
<pdfrwt beam="2">  1       -4 0.12800242E+00 0.59074756E+03</pdfrwt>
<totfact> 0.13379171E+00</totfact>
</mgrwt>
</event>
<event>
12    3  0.1092576E-007  0.1061363E+04  0.7818608E-02  0.9243690E-01
         -2   -1    0    0    0  501 -0.00000000000E+00  0.00000000000E+00  0.10577893060E+04  0.10577893060E+04  0.00000000000E+00 0.  1.
          1   -1    0    0  501    0  0.00000000000E+00 -0.00000000000E+00 -0.12885319886E+04  0.12885319886E+04  0.00000000000E+00 0. -1.
        -24    2    1    2    0    0  0.67312386535E+03 -0.71289158827E+03 -0.58467379639E+03  0.11436409562E+04  0.69000244629E+02 0.  0.
    5000000    2    1    2    0    0 -0.67312386535E+03  0.71289158827E+03  0.35393111377E+03  0.12026803383E+04  0.59988549593E+03 0.  0.
        -24    2    4    4    0    0  0.96153839339E+02  0.13577532827E+03  0.45689097884E+02  0.18964458728E+03  0.78721504262E+02 0.  0.
         24    2    4    4    0    0 -0.76927770468E+03  0.57711625999E+03  0.30824201589E+03  0.10130357511E+04  0.79855670388E+02 0.  0.
         11    1    5    5    0    0  0.99199208785E+02  0.92720251820E+02  0.14845003744E+02  0.13659393199E+03  0.00000000000E+00 0. -1.
        -12    1    5    5    0    0 -0.30453694464E+01  0.43055076452E+02  0.30844094140E+02  0.53050655290E+02  0.00000000000E+00 0.  1.
         15    1    3    3    0    0  0.54271590710E+03 -0.56363039522E+03 -0.43469924795E+03  0.89509014749E+03  0.17770000000E+01 0. -1.
        -16    1    3    3    0    0  0.13040795825E+03 -0.14926119305E+03 -0.14997454844E+03  0.24855080870E+03  0.00000000000E+00 0.  1.
          2    1    6    6  502    0 -0.62938268485E+03  0.44594321039E+03  0.22128065650E+03  0.80246684656E+03  0.00000000000E+00 0. -1.
         -1    1    6    6    0  502 -0.13989501983E+03  0.13117304960E+03  0.86961359390E+02  0.21056890450E+03  0.00000000000E+00 0.  1.
<mgrwt>
<rscale>  0 0.10613635E+04</rscale>
<asrwt>0</asrwt>
<pdfrwt beam="1">  1        1 0.19823569E+00 0.10613635E+04</pdfrwt>
<pdfrwt beam="2">  1       -2 0.16273682E+00 0.10613635E+04</pdfrwt>
<totfact> 0.19239215E+00</totfact>
</mgrwt>
</event>
<event>
12    3  0.1092576E-007  0.4261324E+03  0.7818608E-02  0.1035089E+00
          1   -1    0    0  501    0  0.00000000000E+00  0.00000000000E+00  0.59532189829E+03  0.59532189829E+03  0.00000000000E+00 0. -1.
         -2   -1    0    0    0  501 -0.00000000000E+00 -0.00000000000E+00 -0.36612555494E+03  0.36612555494E+03  0.00000000000E+00 0.  1.
        -24    2    1    2    0    0  0.17847174599E+02  0.23244704942E+03 -0.63958326260E+02  0.25415080989E+03  0.78433502057E+02 0.  0.
    5000000    2    1    2    0    0 -0.17847174599E+02 -0.23244704942E+03  0.29315466960E+03  0.70729664334E+03  0.59998227385E+03 0.  0.
        -24    2    4    4    0    0  0.25854666796E+03 -0.49003800961E+02  0.32753769256E+02  0.27781909770E+03  0.82842559264E+02 0.  0.
         24    2    4    4    0    0 -0.27639384256E+03 -0.18344324846E+03  0.26040090035E+03  0.42947754563E+03  0.81224083188E+02 0.  0.
         13    1    5    5    0    0  0.25912749322E+03 -0.43942872509E+02  0.43052097685E+02  0.26632971464E+03  0.00000000000E+00 0. -1.
        -14    1    5    5    0    0 -0.58082525334E+00 -0.50609284519E+01 -0.10298328429E+02  0.11489383065E+02  0.00000000000E+00 0.  1.
         15    1    3    3    0    0  0.42278535027E+02  0.10266616563E+03 -0.10007092450E+02  0.11149491341E+03  0.17770000000E+01 0. -1.
        -16    1    3    3    0    0 -0.24431360428E+02  0.12978088380E+03 -0.53951233810E+02  0.14265589648E+03  0.00000000000E+00 0.  1.
          4    1    6    6  502    0 -0.26222648445E+03 -0.19171367116E+03  0.24387480030E+03  0.40619180085E+03  0.00000000000E+00 0. -1.
         -3    1    6    6    0  502 -0.14167358111E+02  0.82704226951E+01  0.16526100047E+02  0.23285744784E+02  0.00000000000E+00 0.  1.
<mgrwt>
<rscale>  0 0.42613241E+03</rscale>
<asrwt>0</asrwt>
<pdfrwt beam="1">  1        1 0.91587984E-01 0.42613241E+03</pdfrwt>
<pdfrwt beam="2">  1       -2 0.56327008E-01 0.42613241E+03</pdfrwt>
<totfact> 0.93515718E+01</totfact>
</mgrwt>
</event>
<event>
12    3  0.1092576E-007  0.1057660E+04  0.7818608E-02  0.9247471E-01
          1   -1    0    0  501    0  0.00000000000E+00  0.00000000000E+00  0.11223469088E+04  0.11223469088E+04  0.00000000000E+00 0. -1.
         -2   -1    0    0    0  501 -0.00000000000E+00 -0.00000000000E+00 -0.10722693476E+04  0.10722693476E+04  0.00000000000E+00 0.  1.
        -24    2    1    2    0    0  0.17666417291E+03 -0.99499595238E+03 -0.33382544378E+02  0.10163588293E+04  0.10316831102E+03 0.  0.
    5000000    2    1    2    0    0 -0.17666417291E+03  0.99499595238E+03  0.83460105595E+02  0.11782574270E+04  0.60008149433E+03 0.  0.
        -24    2    4    4    0    0 -0.24155856094E+03  0.24671808376E+03 -0.15469198346E+03  0.38681316893E+03  0.80464070823E+02 0.  0.
         24    2    4    4    0    0  0.64894388024E+02  0.74827786862E+03  0.23815208905E+03  0.79144425809E+03  0.74407969120E+02 0.  0.
         11    1    5    5    0    0 -0.14685420033E+03  0.11478481882E+03 -0.11707222927E+03  0.22010819533E+03  0.00000000000E+00 0. -1.
        -12    1    5    5    0    0 -0.94704360610E+02  0.13193326494E+03 -0.37619754185E+02  0.16670497360E+03  0.00000000000E+00 0.  1.
         15    1    3    3    0    0  0.87143639210E+02 -0.25133590062E+03 -0.26063400397E+02  0.26729423369E+03  0.17770000000E+01 0. -1.
        -16    1    3    3    0    0  0.89520533704E+02 -0.74366005176E+03 -0.73191439811E+01  0.74906459562E+03  0.00000000000E+00 0.  1.
          2    1    6    6  502    0  0.56587080704E+02  0.52480673836E+03  0.20063582780E+03  0.56469367424E+03  0.00000000000E+00 0. -1.
         -1    1    6    6    0  502  0.83073073200E+01  0.22347113026E+03  0.37516261256E+02  0.22675058384E+03  0.00000000000E+00 0.  1.
<mgrwt>
<rscale>  0 0.10576598E+04</rscale>
<asrwt>0</asrwt>
<pdfrwt beam="1">  1        1 0.17266876E+00 0.10576598E+04</pdfrwt>
<pdfrwt beam="2">  1       -2 0.16496452E+00 0.10576598E+04</pdfrwt>
<totfact> 0.24521579E+00</totfact>
</mgrwt>
</event>
<event>
12    3  0.1092576E-007  0.6038276E+03  0.7818608E-02  0.9897497E-01
          1   -1    0    0  501    0  0.00000000000E+00  0.00000000000E+00  0.63142758140E+03  0.63142758140E+03  0.00000000000E+00 0. -1.
         -2   -1    0    0    0  501 -0.00000000000E+00 -0.00000000000E+00 -0.74288756516E+03  0.74288756516E+03  0.00000000000E+00 0.  1.
        -24    2    1    2    0    0  0.45350617793E+03 -0.31148127020E+03 -0.25329659785E+02  0.55570754509E+03  0.74032755530E+02 0.  0.
    5000000    2    1    2    0    0 -0.45350617793E+03  0.31148127020E+03 -0.86130323967E+02  0.81860760147E+03  0.60000961440E+03 0.  0.
        -24    2    4    4    0    0 -0.47759748854E+03  0.33402108725E+03 -0.24541504826E+03  0.63748946447E+03  0.80590468462E+02 0.  0.
         24    2    4    4    0    0  0.24091310606E+02 -0.22539817046E+02  0.15928472430E+03  0.18111813701E+03  0.79647483067E+02 0.  0.
         11    1    5    5    0    0 -0.37811961904E+03  0.29948231420E+03 -0.18930715170E+03  0.51817111123E+03  0.00000000000E+00 0. -1.
        -12    1    5    5    0    0 -0.99477869498E+02  0.34538773045E+02 -0.56107896567E+02  0.11931835324E+03  0.00000000000E+00 0.  1.
         15    1    3    3    0    0  0.14784695353E+03 -0.13104780440E+03  0.16737084426E+02  0.19828145761E+03  0.17770000000E+01 0. -1.
        -16    1    3    3    0    0  0.30565922440E+03 -0.18043346580E+03 -0.42066744212E+02  0.35742608748E+03  0.00000000000E+00 0.  1.
          4    1    6    6  502    0 -0.19603957832E+02 -0.39490271175E+01  0.11317781717E+03  0.11493097180E+03  0.00000000000E+00 0. -1.
         -3    1    6    6    0  502  0.43695268438E+02 -0.18590789929E+02  0.46106907124E+02  0.66187165210E+02  0.00000000000E+00 0.  1.
<mgrwt>
<rscale>  0 0.60382758E+03</rscale>
<asrwt>0</asrwt>
<pdfrwt beam="1">  1        1 0.97142704E-01 0.60382758E+03</pdfrwt>
<pdfrwt beam="2">  1       -2 0.11429040E+00 0.60382758E+03</pdfrwt>
<totfact> 0.17249539E+01</totfact>
</mgrwt>
</event>
<event>
12    3  0.1092576E-007  0.9556559E+03  0.7818608E-02  0.9358564E-01
          1   -1    0    0  501    0  0.00000000000E+00  0.00000000000E+00  0.26071311752E+04  0.26071311752E+04  0.00000000000E+00 0. -1.
         -2   -1    0    0    0  501 -0.00000000000E+00 -0.00000000000E+00 -0.36364829597E+03  0.36364829597E+03  0.00000000000E+00 0.  1.
        -24    2    1    2    0    0 -0.69767257271E+03 -0.51106488127E+03  0.77571520908E+03  0.11644905972E+04  0.79811864816E+02 0.  0.
    5000000    2    1    2    0    0  0.69767257271E+03  0.51106488127E+03  0.14677676701E+04  0.18062888739E+04  0.60033593186E+03 0.  0.
        -24    2    4    4    0    0  0.77468827522E+03  0.52864344425E+03  0.13023384140E+04  0.16066624924E+04  0.75320680936E+02 0.  0.
         24    2    4    4    0    0 -0.77015702506E+02 -0.17578562980E+02  0.16542925613E+03  0.19962638156E+03  0.79015372678E+02 0.  0.
         13    1    5    5    0    0  0.66297996628E+03  0.42488595894E+03  0.10630329855E+04  0.13229170957E+04  0.00000000000E+00 0. -1.
        -14    1    5    5    0    0  0.11170830893E+03  0.10375748531E+03  0.23930542851E+03  0.28374539671E+03  0.00000000000E+00 0.  1.
         15    1    3    3    0    0 -0.18674531128E+03 -0.18119245318E+03  0.24195758244E+03  0.35531837245E+03  0.17770000000E+01 0. -1.
        -16    1    3    3    0    0 -0.51092726143E+03 -0.32987242809E+03  0.53375762664E+03  0.80917222473E+03  0.00000000000E+00 0.  1.
          2    1    6    6  502    0 -0.56817896165E+02 -0.42501635281E+02  0.14544836251E+03  0.16183290296E+03  0.00000000000E+00 0. -1.
         -1    1    6    6    0  502 -0.20197806340E+02  0.24923072301E+02  0.19980893627E+02  0.37793478591E+02  0.00000000000E+00 0.  1.
<mgrwt>
<rscale>  0 0.95565594E+03</rscale>
<asrwt>0</asrwt>
<pdfrwt beam="1">  1        1 0.40109709E+00 0.95565594E+03</pdfrwt>
<pdfrwt beam="2">  1       -2 0.55945893E-01 0.95565594E+03</pdfrwt>
<totfact> 0.30784694E+00</totfact>
</mgrwt>
</event>
<event>
12    3  0.1092576E-007  0.7904106E+03  0.7818608E-02  0.9574002E-01
         -2   -1    0    0    0  501 -0.00000000000E+00  0.00000000000E+00  0.33767533809E+03  0.33767533809E+03  0.00000000000E+00 0.  1.
          1   -1    0    0  501    0  0.00000000000E+00 -0.00000000000E+00 -0.23802533851E+04  0.23802533851E+04  0.00000000000E+00 0. -1.
        -24    2    1    2    0    0  0.52971911975E+03  0.55470260445E+03 -0.12192578398E+04  0.14426646441E+04  0.79964180677E+02 0.  0.
    5000000    2    1    2    0    0 -0.52971911975E+03 -0.55470260445E+03 -0.82332020728E+03  0.12752640792E+04  0.60012080675E+03 0.  0.
        -24    2    4    4    0    0 -0.15546289269E+03 -0.30681676553E+03 -0.26924023410E+02  0.35812545484E+03  0.96040094524E+02 0.  0.
         24    2    4    4    0    0 -0.37425622706E+03 -0.24788583892E+03 -0.79639618387E+03  0.91713862433E+03  0.73357085035E+02 0.  0.
         11    1    5    5    0    0 -0.42376744565E+01  0.71331488511E+01 -0.30338042395E+01  0.88342325923E+01  0.00000000000E+00 0. -1.
        -12    1    5    5    0    0 -0.15122521823E+03 -0.31394991438E+03 -0.23890219170E+02  0.34929122225E+03  0.00000000000E+00 0.  1.
         15    1    3    3    0    0  0.71820923318E+02  0.11164455278E+03 -0.18058402241E+03  0.22413499965E+03  0.17770000000E+01 0. -1.
        -16    1    3    3    0    0  0.45789819643E+03  0.44305805167E+03 -0.10386738174E+04  0.12185296444E+04  0.00000000000E+00 0.  1.
          4    1    6    6  502    0 -0.81596307446E+02 -0.22215580505E+02 -0.16932947799E+03  0.18927218898E+03  0.00000000000E+00 0. -1.
         -3    1    6    6    0  502 -0.29265991962E+03 -0.22567025842E+03 -0.62706670588E+03  0.72786643535E+03  0.00000000000E+00 0.  1.
<mgrwt>
<rscale>  0 0.79041056E+03</rscale>
<asrwt>0</asrwt>
<pdfrwt beam="1">  1        1 0.36619282E+00 0.79041056E+03</pdfrwt>
<pdfrwt beam="2">  1       -2 0.51950053E-01 0.79041056E+03</pdfrwt>
<totfact> 0.52609375E+00</totfact>
</mgrwt>
</event>
<event>
12    3  0.1306632E-007  0.1430934E+04  0.7818608E-02  0.8931727E-01
          3   -1    0    0  501    0  0.00000000000E+00  0.00000000000E+00  0.26987259806E+04  0.26987259806E+04  0.00000000000E+00 0. -1.
         -4   -1    0    0    0  501 -0.00000000000E+00 -0.00000000000E+00 -0.95812116762E+03  0.95812116762E+03  0.00000000000E+00 0.  1.
        -24    2    1    2    0    0  0.57149296589E+03 -0.12954761201E+04  0.12073092910E+03  0.14232763794E+04  0.79228197327E+02 0.  0.
    5000000    2    1    2    0    0 -0.57149296589E+03  0.12954761201E+04  0.16198738838E+04  0.22335707687E+04  0.59998699290E+03 0.  0.
        -24    2    4    4    0    0 -0.30108783298E+03  0.96924636586E+03  0.75746749986E+03  0.12693611875E+04  0.86188224327E+02 0.  0.
         24    2    4    4    0    0 -0.27040513291E+03  0.32622975424E+03  0.86240638398E+03  0.96420958128E+03  0.80065954335E+02 0.  0.
         11    1    5    5    0    0 -0.88013539613E+02  0.21852705526E+03  0.13817700860E+03  0.27311781843E+03  0.00000000000E+00 0. -1.
        -12    1    5    5    0    0 -0.21307429336E+03  0.75071931059E+03  0.61929049126E+03  0.99624336904E+03  0.00000000000E+00 0.  1.
         15    1    3    3    0    0  0.34236893054E+03 -0.75343130816E+03  0.10860842968E+03  0.83467009617E+03  0.17770000000E+01 0. -1.
        -16    1    3    3    0    0  0.22912403535E+03 -0.54204481193E+03  0.12122499424E+02  0.58860628327E+03  0.00000000000E+00 0.  1.
          4    1    6    6  502    0 -0.15047188001E+03  0.12510696185E+03  0.35459236032E+03  0.40500528462E+03  0.00000000000E+00 0. -1.
         -3    1    6    6    0  502 -0.11993325291E+03  0.20112279239E+03  0.50781402366E+03  0.55920429665E+03  0.00000000000E+00 0.  1.
<mgrwt>
<rscale>  0 0.14309336E+04</rscale>
<asrwt>0</asrwt>
<pdfrwt beam="1">  1        3 0.41518861E+00 0.14309336E+04</pdfrwt>
<pdfrwt beam="2">  1       -4 0.14740326E+00 0.14309336E+04</pdfrwt>
<totfact> 0.61405603E-03</totfact>
</mgrwt>
</event>
<event>
12    3  0.1092576E-007  0.3035322E+03  0.7818608E-02  0.1083488E+00
          1   -1    0    0  501    0  0.00000000000E+00  0.00000000000E+00  0.12408582791E+04  0.12408582791E+04  0.00000000000E+00 0. -1.
         -2   -1    0    0    0  501 -0.00000000000E+00 -0.00000000000E+00 -0.30384768730E+03  0.30384768730E+03  0.00000000000E+00 0.  1.
        -24    2    1    2    0    0  0.37238420976E+02 -0.15894025180E+03  0.90394647301E+03  0.92209654846E+03  0.80586071865E+02 0.  0.
    5000000    2    1    2    0    0 -0.37238420976E+02  0.15894025180E+03  0.33064118763E+02  0.62260941792E+03  0.59991711735E+03 0.  0.
        -24    2    4    4    0    0 -0.19208802305E+03  0.19239134156E+03 -0.18769095731E+03  0.33951226562E+03  0.78284392738E+02 0.  0.
         24    2    4    4    0    0  0.15484960207E+03 -0.33451089765E+02  0.22075507607E+03  0.28309715230E+03  0.79459545430E+02 0.  0.
         13    1    5    5    0    0 -0.86742473306E+02  0.97653109558E+02 -0.44274140296E+02  0.13791514051E+03  0.00000000000E+00 0. -1.
        -14    1    5    5    0    0 -0.10534554974E+03  0.94738232005E+02 -0.14341681701E+03  0.20159712512E+03  0.00000000000E+00 0.  1.
         15    1    3    3    0    0  0.34868891046E+02 -0.90829069915E+02  0.70757595946E+03  0.71423571434E+03  0.17770000000E+01 0. -1.
        -16    1    3    3    0    0  0.23695299299E+01 -0.68111181883E+02  0.19637051355E+03  0.20786083412E+03  0.00000000000E+00 0.  1.
          4    1    6    6  502    0  0.10535228281E+03  0.67132837207E+01  0.17592739346E+03  0.20516973324E+03  0.00000000000E+00 0. -1.
         -3    1    6    6    0  502  0.49497319263E+02 -0.40164373486E+02  0.44827682615E+02  0.77927419053E+02  0.00000000000E+00 0.  1.
<mgrwt>
<rscale>  0 0.30353217E+03</rscale>
<asrwt>0</asrwt>
<pdfrwt beam="1">  1        1 0.19090127E+00 0.30353217E+03</pdfrwt>
<pdfrwt beam="2">  1       -2 0.46745798E-01 0.30353217E+03</pdfrwt>
<totfact> 0.41660433E+01</totfact>
</mgrwt>
</event>
<event>
12    3  0.1092576E-007  0.6139378E+03  0.7818608E-02  0.9876904E-01
         -2   -1    0    0    0  501 -0.00000000000E+00  0.00000000000E+00  0.53682896638E+03  0.53682896638E+03  0.00000000000E+00 0.  1.
          1   -1    0    0  501    0  0.00000000000E+00 -0.00000000000E+00 -0.30754965334E+04  0.30754965334E+04  0.00000000000E+00 0. -1.
        -24    2    1    2    0    0 -0.31065052366E+03  0.37498519108E+03 -0.27642217693E+04  0.28079017862E+04  0.79201072774E+02 0.  0.
    5000000    2    1    2    0    0  0.31065052366E+03 -0.37498519108E+03  0.22555420225E+03  0.80442371357E+03  0.59925384556E+03 0.  0.
        -24    2    4    4    0    0  0.14029870921E+03  0.12799461329E+03 -0.32603459708E+02  0.20854418154E+03  0.79758016725E+02 0.  0.
         24    2    4    4    0    0  0.17035181445E+03 -0.50297980437E+03  0.25815766196E+03  0.59587953203E+03  0.80116252861E+02 0.  0.
         13    1    5    5    0    0  0.18766611118E+02  0.67652366337E+02 -0.13957654156E+02  0.71581034313E+02  0.00000000000E+00 0. -1.
        -14    1    5    5    0    0  0.12153209809E+03  0.60342246956E+02 -0.18645805552E+02  0.13696314722E+03  0.00000000000E+00 0.  1.
         15    1    3    3    0    0 -0.61775874798E+02  0.80787130398E+02 -0.41485704501E+03  0.42714440728E+03  0.17770000000E+01 0. -1.
        -16    1    3    3    0    0 -0.24887464886E+03  0.29419806068E+03 -0.23493647243E+04  0.23807573790E+04  0.00000000000E+00 0.  1.
          2    1    6    6  502    0  0.14328274104E+03 -0.32899677081E+03  0.14788106279E+03  0.38812063565E+03  0.00000000000E+00 0. -1.
         -1    1    6    6    0  502  0.27069073414E+02 -0.17398303356E+03  0.11027659917E+03  0.20775889638E+03  0.00000000000E+00 0.  1.
<mgrwt>
<rscale>  0 0.61393779E+03</rscale>
<asrwt>0</asrwt>
<pdfrwt beam="1">  1        1 0.47315332E+00 0.61393779E+03</pdfrwt>
<pdfrwt beam="2">  1       -2 0.82589070E-01 0.61393779E+03</pdfrwt>
<totfact> 0.66032062E-01</totfact>
</mgrwt>
</event>
<event>
12    3  0.1092576E-007  0.7790339E+03  0.7818608E-02  0.9590871E-01
         -2   -1    0    0    0  501 -0.00000000000E+00  0.00000000000E+00  0.72095362638E+03  0.72095362638E+03  0.00000000000E+00 0.  1.
          1   -1    0    0  501    0  0.00000000000E+00 -0.00000000000E+00 -0.11626144464E+04  0.11626144464E+04  0.00000000000E+00 0. -1.
        -24    2    1    2    0    0 -0.25749960142E+03  0.71904974166E+03  0.94817064953E+02  0.77394216009E+03  0.81594213269E+02 0.  0.
    5000000    2    1    2    0    0  0.25749960142E+03 -0.71904974166E+03 -0.53647788498E+03  0.11096259127E+04  0.60010213244E+03 0.  0.
        -24    2    4    4    0    0  0.28608711135E+03 -0.57422965927E+03 -0.11715446298E+03  0.65776323862E+03  0.85684146796E+02 0.  0.
         24    2    4    4    0    0 -0.28587509936E+02 -0.14482008239E+03 -0.41932342199E+03  0.45186267409E+03  0.80979269013E+02 0.  0.
         13    1    5    5    0    0  0.23086667295E+03 -0.44920388745E+03 -0.12684402369E+03  0.52074269992E+03  0.00000000000E+00 0. -1.
        -14    1    5    5    0    0  0.55220438400E+02 -0.12502577182E+03  0.96895607099E+01  0.13702053869E+03  0.00000000000E+00 0.  1.
         15    1    3    3    0    0 -0.11387463348E+03  0.39889568719E+03  0.20993094679E+02  0.41536618683E+03  0.17770000000E+01 0. -1.
        -16    1    3    3    0    0 -0.14362496794E+03  0.32015405448E+03  0.73823970274E+02  0.35857597326E+03  0.00000000000E+00 0.  1.
          4    1    6    6  502    0  0.32612654760E+01 -0.58562142375E+02 -0.27159118470E+03  0.27785235644E+03  0.00000000000E+00 0. -1.
         -3    1    6    6    0  502 -0.31848775412E+02 -0.86257940019E+02 -0.14773223730E+03  0.17401031765E+03  0.00000000000E+00 0.  1.
<mgrwt>
<rscale>  0 0.77903389E+03</rscale>
<asrwt>0</asrwt>
<pdfrwt beam="1">  1        1 0.17886376E+00 0.77903389E+03</pdfrwt>
<pdfrwt beam="2">  1       -2 0.11091594E+00 0.77903389E+03</pdfrwt>
<totfact> 0.65776484E+00</totfact>
</mgrwt>
</event>
<event>
12    3  0.1092576E-007  0.1106157E+04  0.7818608E-02  0.9199212E-01
         -2   -1    0    0    0  501 -0.00000000000E+00  0.00000000000E+00  0.13630107704E+04  0.13630107704E+04  0.00000000000E+00 0.  1.
          1   -1    0    0  501    0  0.00000000000E+00 -0.00000000000E+00 -0.15909130782E+04  0.15909130782E+04  0.00000000000E+00 0. -1.
        -24    2    1    2    0    0  0.92246553285E+03 -0.53124891538E+03 -0.10371758035E+04  0.14883247378E+04  0.78795992138E+02 0.  0.
    5000000    2    1    2    0    0 -0.92246553285E+03  0.53124891538E+03  0.80927349567E+03  0.14655991108E+04  0.59990757065E+03 0.  0.
        -24    2    4    4    0    0 -0.56826677241E+02  0.19354956848E+03 -0.19119564003E+02  0.21818805577E+03  0.80930607613E+02 0.  0.
         24    2    4    4    0    0 -0.86563885561E+03  0.33769934690E+03  0.82839305967E+03  0.12474110550E+04  0.80173571685E+02 0.  0.
         11    1    5    5    0    0 -0.28085484501E+02  0.18530818812E+03 -0.15350822434E+02  0.18805203209E+03  0.00000000000E+00 0. -1.
        -12    1    5    5    0    0 -0.28741192740E+02  0.82413803617E+01 -0.37687415685E+01  0.30136023682E+02  0.00000000000E+00 0.  1.
         15    1    3    3    0    0  0.67446598246E+03 -0.41438228275E+03 -0.80593991582E+03  0.11296722283E+04  0.17770000000E+01 0. -1.
        -16    1    3    3    0    0  0.24799955039E+03 -0.11686663263E+03 -0.23123588770E+03  0.35865250951E+03  0.00000000000E+00 0.  1.
          4    1    6    6  502    0 -0.41063847052E+03  0.16595460573E+03  0.44805466330E+03  0.63001417915E+03  0.00000000000E+00 0. -1.
         -3    1    6    6    0  502 -0.45500038509E+03  0.17174474117E+03  0.38033839638E+03  0.61739687585E+03  0.00000000000E+00 0.  1.
<mgrwt>
<rscale>  0 0.11061567E+04</rscale>
<asrwt>0</asrwt>
<pdfrwt beam="1">  1        1 0.24475586E+00 0.11061567E+04</pdfrwt>
<pdfrwt beam="2">  1       -2 0.20969397E+00 0.11061567E+04</pdfrwt>
<totfact> 0.56307240E-01</totfact>
</mgrwt>
</event>
<event>
12    3  0.1092576E-007  0.6926646E+03  0.7818608E-02  0.9729860E-01
          1   -1    0    0  501    0  0.00000000000E+00  0.00000000000E+00  0.12810490989E+04  0.12810490989E+04  0.00000000000E+00 0. -1.
         -2   -1    0    0    0  501 -0.00000000000E+00 -0.00000000000E+00 -0.66170831937E+03  0.66170831937E+03  0.00000000000E+00 0.  1.
        -24    2    1    2    0    0 -0.47539393512E+03 -0.35191728177E+03  0.87815556120E+03  0.10613631542E+04  0.74090408839E+02 0.  0.
    5000000    2    1    2    0    0  0.47539393512E+03  0.35191728177E+03 -0.25881478172E+03  0.88139426402E+03  0.60002132517E+03 0.  0.
        -24    2    4    4    0    0  0.51907662590E+02  0.35747184793E+03  0.15826204031E+02  0.37043898501E+03  0.80585640046E+02 0.  0.
         24    2    4    4    0    0  0.42348627253E+03 -0.55545661658E+01 -0.27464098575E+03  0.51095527901E+03  0.79222155150E+02 0.  0.
         13    1    5    5    0    0  0.59011401377E+01  0.17506021703E+03  0.43005651136E+02  0.18036182820E+03  0.00000000000E+00 0. -1.
        -14    1    5    5    0    0  0.46006522452E+02  0.18241163090E+03 -0.27179447105E+02  0.19007715681E+03  0.00000000000E+00 0.  1.
         15    1    3    3    0    0 -0.39786965900E+03 -0.29334536656E+03  0.68021470172E+03  0.84086084925E+03  0.17770000000E+01 0. -1.
        -16    1    3    3    0    0 -0.77524276120E+02 -0.58571915201E+02  0.19794085948E+03  0.22050230495E+03  0.00000000000E+00 0.  1.
          4    1    6    6  502    0  0.22318188437E+03 -0.41633759397E+02 -0.13515150771E+03  0.26421478662E+03  0.00000000000E+00 0. -1.
         -3    1    6    6    0  502  0.20030438817E+03  0.36079193231E+02 -0.13948947804E+03  0.24674049239E+03  0.00000000000E+00 0.  1.
<mgrwt>
<rscale>  0 0.69266459E+03</rscale>
<asrwt>0</asrwt>
<pdfrwt beam="1">  1        1 0.19708448E+00 0.69266459E+03</pdfrwt>
<pdfrwt beam="2">  1       -2 0.10180128E+00 0.69266459E+03</pdfrwt>
<totfact> 0.67221352E+00</totfact>
</mgrwt>
</event>
<event>
12    3  0.1092576E-007  0.7363999E+03  0.7818608E-02  0.9656932E-01
          1   -1    0    0  501    0  0.00000000000E+00  0.00000000000E+00  0.69480891928E+03  0.69480891928E+03  0.00000000000E+00 0. -1.
         -2   -1    0    0    0  501 -0.00000000000E+00 -0.00000000000E+00 -0.80345791005E+03  0.80345791005E+03  0.00000000000E+00 0.  1.
        -24    2    1    2    0    0  0.61267449472E+03 -0.80779326846E+02 -0.13911996379E+03  0.63634034141E+03  0.60657478101E+02 0.  0.
    5000000    2    1    2    0    0 -0.61267449472E+03  0.80779326846E+02  0.30470973020E+02  0.86192648793E+03  0.60007787350E+03 0.  0.
        -24    2    4    4    0    0 -0.42449128134E+03  0.32604569370E+03  0.24123091806E+00  0.54102536889E+03  0.78801962372E+02 0.  0.
         24    2    4    4    0    0 -0.18818321338E+03 -0.24526636686E+03  0.30229742102E+02  0.32090111904E+03  0.80592669532E+02 0.  0.
         13    1    5    5    0    0 -0.23028862973E+03  0.13035580536E+03  0.13914269869E+02  0.26498885991E+03  0.00000000000E+00 0. -1.
        -14    1    5    5    0    0 -0.19420265161E+03  0.19568988834E+03 -0.13673038950E+02  0.27603650898E+03  0.00000000000E+00 0.  1.
         15    1    3    3    0    0  0.31333844542E+03 -0.50636939269E+02 -0.10096970006E+03  0.33308124994E+03  0.17770000000E+01 0. -1.
        -16    1    3    3    0    0  0.29933604930E+03 -0.30142387577E+02 -0.38150263731E+02  0.30325909147E+03  0.00000000000E+00 0.  1.
          2    1    6    6  502    0 -0.31245807256E+02 -0.12860580744E+02  0.22056157846E+02  0.40350577531E+02  0.00000000000E+00 0. -1.
         -1    1    6    6    0  502 -0.15693740613E+03 -0.23240578611E+03  0.81735842559E+01  0.28055054151E+03  0.00000000000E+00 0.  1.
<mgrwt>
<rscale>  0 0.73639994E+03</rscale>
<asrwt>0</asrwt>
<pdfrwt beam="1">  1        1 0.10689368E+00 0.73639994E+03</pdfrwt>
<pdfrwt beam="2">  1       -2 0.12360891E+00 0.73639994E+03</pdfrwt>
<totfact> 0.12161558E+01</totfact>
</mgrwt>
</event>
<event>
12    3  0.1092576E-007  0.9347404E+03  0.7818608E-02  0.9383167E-01
         -2   -1    0    0    0  501 -0.00000000000E+00  0.00000000000E+00  0.67964284623E+03  0.67964284623E+03  0.00000000000E+00 0.  1.
          1   -1    0    0  501    0  0.00000000000E+00 -0.00000000000E+00 -0.16754806033E+04  0.16754806033E+04  0.00000000000E+00 0. -1.
        -24    2    1    2    0    0 -0.76574390267E+03  0.36944800835E+03 -0.99924668502E+03  0.13144049017E+04  0.79440246769E+02 0.  0.
    5000000    2    1    2    0    0  0.76574390267E+03 -0.36944800835E+03  0.34089279194E+01  0.10407185478E+04  0.60018990301E+03 0.  0.
        -24    2    4    4    0    0  0.28649472223E+03  0.13346102429E+03 -0.84597077435E+02  0.33654624358E+03  0.78839315643E+02 0.  0.
         24    2    4    4    0    0  0.47924918045E+03 -0.50290903264E+03  0.88006005354E+02  0.70417230426E+03  0.74271832018E+02 0.  0.
         11    1    5    5    0    0  0.22385847877E+03  0.89131429722E+02 -0.95211457912E+02  0.25907962482E+03  0.00000000000E+00 0. -1.
        -12    1    5    5    0    0  0.62636243458E+02  0.44329594569E+02  0.10614380477E+02  0.77466618761E+02  0.00000000000E+00 0.  1.
         15    1    3    3    0    0 -0.46267984034E+03  0.17977786375E+03 -0.58344088878E+03  0.76602816096E+03  0.17770000000E+01 0. -1.
        -16    1    3    3    0    0 -0.30306406233E+03  0.18967014459E+03 -0.41580579624E+03  0.54837674077E+03  0.00000000000E+00 0.  1.
          4    1    6    6  502    0  0.30646970764E+03 -0.36650878690E+03  0.44926759324E+02  0.47986538350E+03  0.00000000000E+00 0. -1.
         -1    1    6    6    0  502  0.17277947281E+03 -0.13640024574E+03  0.43079246030E+02  0.22430692076E+03  0.00000000000E+00 0.  1.
<mgrwt>
<rscale>  0 0.93474040E+03</rscale>
<asrwt>0</asrwt>
<pdfrwt beam="1">  1        1 0.25776624E+00 0.93474040E+03</pdfrwt>
<pdfrwt beam="2">  1       -2 0.10456044E+00 0.93474040E+03</pdfrwt>
<totfact> 0.32601366E+00</totfact>
</mgrwt>
</event>
<event>
12    3  0.1092576E-007  0.6331528E+03  0.7818608E-02  0.9838916E-01
          1   -1    0    0  501    0  0.00000000000E+00  0.00000000000E+00  0.74489324384E+03  0.74489324384E+03  0.00000000000E+00 0. -1.
         -2   -1    0    0    0  501 -0.00000000000E+00 -0.00000000000E+00 -0.64357518608E+03  0.64357518608E+03  0.00000000000E+00 0.  1.
        -24    2    1    2    0    0  0.39145973746E+03  0.39613591140E+03 -0.12174562884E+02  0.56199939607E+03  0.74368776088E+02 0.  0.
    5000000    2    1    2    0    0 -0.39145973746E+03 -0.39613591140E+03  0.11349262065E+03  0.82646903385E+03  0.60000508550E+03 0.  0.
        -24    2    4    4    0    0 -0.42810032030E+03 -0.45054586473E+03 -0.54353553095E+02  0.62877654529E+03  0.78384786192E+02 0.  0.
         24    2    4    4    0    0  0.36640582845E+02  0.54409953332E+02  0.16784617374E+03  0.19769248856E+03  0.81283495630E+02 0.  0.
         13    1    5    5    0    0 -0.12490905840E+03 -0.13887386468E+03 -0.52256732768E+02  0.19395615298E+03  0.00000000000E+00 0. -1.
        -14    1    5    5    0    0 -0.30319126190E+03 -0.31167200005E+03 -0.20968203267E+01  0.43482039231E+03  0.00000000000E+00 0.  1.
         15    1    3    3    0    0  0.36406370601E+03  0.35088130353E+03 -0.29068184142E+02  0.50646637426E+03  0.17770000000E+01 0. -1.
        -16    1    3    3    0    0  0.27396031450E+02  0.45254607868E+02  0.16893621257E+02  0.55533021813E+02  0.00000000000E+00 0.  1.
          4    1    6    6  502    0  0.51711418680E+02  0.43390768497E+02  0.66916984556E+02  0.95051104333E+02  0.00000000000E+00 0. -1.
         -3    1    6    6    0  502 -0.15070835835E+02  0.11019184835E+02  0.10092918919E+03  0.10264138423E+03  0.00000000000E+00 0.  1.
<mgrwt>
<rscale>  0 0.63315283E+03</rscale>
<asrwt>0</asrwt>
<pdfrwt beam="1">  1        1 0.11459896E+00 0.63315283E+03</pdfrwt>
<pdfrwt beam="2">  1       -2 0.99011566E-01 0.63315283E+03</pdfrwt>
<totfact> 0.18945899E+01</totfact>
</mgrwt>
</event>
<event>
12    3  0.1092576E-007  0.8543067E+03  0.7818608E-02  0.9484575E-01
          1   -1    0    0  501    0  0.00000000000E+00  0.00000000000E+00  0.10813624521E+04  0.10813624521E+04  0.00000000000E+00 0. -1.
         -2   -1    0    0    0  501 -0.00000000000E+00 -0.00000000000E+00 -0.83987308621E+03  0.83987308621E+03  0.00000000000E+00 0.  1.
        -24    2    1    2    0    0  0.43183572202E+03 -0.67436758769E+03 -0.19741000481E+03  0.82857945249E+03  0.79495062373E+02 0.  0.
    5000000    2    1    2    0    0 -0.43183572202E+03  0.67436758769E+03  0.43889937065E+03  0.10926560858E+04  0.60000910834E+03 0.  0.
        -24    2    4    4    0    0 -0.42499272834E+03  0.30027951852E+03  0.22363391056E+02  0.52692802023E+03  0.79789779137E+02 0.  0.
         24    2    4    4    0    0 -0.68429936783E+01  0.37408806916E+03  0.41653597960E+03  0.56572806555E+03  0.80977230113E+02 0.  0.
         11    1    5    5    0    0 -0.59203197252E+02  0.55008944751E+02 -0.23436827419E+02  0.84144443946E+02  0.00000000000E+00 0. -1.
        -12    1    5    5    0    0 -0.36578953109E+03  0.24527057377E+03  0.45800218475E+02  0.44278357629E+03  0.00000000000E+00 0.  1.
         15    1    3    3    0    0  0.22791899364E+03 -0.28320157599E+03 -0.94366575356E+02  0.37557743353E+03  0.17770000000E+01 0. -1.
        -16    1    3    3    0    0  0.20391672838E+03 -0.39116601170E+03 -0.10304342946E+03  0.45300201895E+03  0.00000000000E+00 0.  1.
          4    1    6    6  502    0  0.16304282603E+02  0.34579432163E+03  0.38005996940E+03  0.51408668806E+03  0.00000000000E+00 0. -1.
         -3    1    6    6    0  502 -0.23147276281E+02  0.28293747538E+02  0.36476010193E+02  0.51641377485E+02  0.00000000000E+00 0.  1.
<mgrwt>
<rscale>  0 0.85430667E+03</rscale>
<asrwt>0</asrwt>
<pdfrwt beam="1">  1        1 0.16636345E+00 0.85430667E+03</pdfrwt>
<pdfrwt beam="2">  1       -2 0.12921124E+00 0.85430667E+03</pdfrwt>
<totfact> 0.51294126E+00</totfact>
</mgrwt>
</event>
<event>
12    3  0.1092576E-007  0.1107139E+04  0.7818608E-02  0.9198261E-01
          1   -1    0    0  501    0  0.00000000000E+00  0.00000000000E+00  0.30253581018E+04  0.30253581018E+04  0.00000000000E+00 0. -1.
         -2   -1    0    0    0  501 -0.00000000000E+00 -0.00000000000E+00 -0.45696303131E+03  0.45696303131E+03  0.00000000000E+00 0.  1.
        -24    2    1    2    0    0  0.54249468733E+03 -0.89239791461E+03  0.17007269135E+04  0.19977609644E+04  0.88894953434E+02 0.  0.
    5000000    2    1    2    0    0 -0.54249468733E+03  0.89239791461E+03  0.86766815702E+03  0.14845601687E+04  0.60033019258E+03 0.  0.
        -24    2    4    4    0    0 -0.20995452721E+03  0.77619321386E+01  0.31497718789E+03  0.38672446377E+03  0.78765670835E+02 0.  0.
         24    2    4    4    0    0 -0.33254016013E+03  0.88463598247E+03  0.55269096913E+03  0.10978357050E+04  0.81315116533E+02 0.  0.
         11    1    5    5    0    0 -0.45963445541E+02 -0.31290628505E+02  0.71264411616E+02  0.90390033307E+02  0.00000000000E+00 0. -1.
        -12    1    5    5    0    0 -0.16399108167E+03  0.39052560644E+02  0.24371277627E+03  0.29633443046E+03  0.00000000000E+00 0.  1.
         15    1    3    3    0    0  0.31924845540E+03 -0.54536834676E+03  0.11080469913E+04  0.12755851609E+04  0.17770000000E+01 0. -1.
        -16    1    3    3    0    0  0.22324623193E+03 -0.34702956785E+03  0.59267992216E+03  0.72217580351E+03  0.00000000000E+00 0.  1.
          4    1    6    6  502    0 -0.75793198502E+02  0.23807880773E+03  0.10809704682E+03  0.27223353791E+03  0.00000000000E+00 0. -1.
         -3    1    6    6    0  502 -0.25674696162E+03  0.64655717474E+03  0.44459392231E+03  0.82560216706E+03  0.00000000000E+00 0.  1.
<mgrwt>
<rscale>  0 0.11071392E+04</rscale>
<asrwt>0</asrwt>
<pdfrwt beam="1">  1        1 0.46543969E+00 0.11071392E+04</pdfrwt>
<pdfrwt beam="2">  1       -2 0.70302007E-01 0.11071392E+04</pdfrwt>
<totfact> 0.93472394E-01</totfact>
</mgrwt>
</event>
<event>
12    3  0.1092576E-007  0.8332008E+03  0.7818608E-02  0.9513166E-01
         -2   -1    0    0    0  501 -0.00000000000E+00  0.00000000000E+00  0.33690868348E+03  0.33690868348E+03  0.00000000000E+00 0.  1.
          1   -1    0    0  501    0  0.00000000000E+00 -0.00000000000E+00 -0.26832128459E+04  0.26832128459E+04  0.00000000000E+00 0. -1.
        -24    2    1    2    0    0  0.44403523393E+03 -0.69556117338E+03 -0.70704114090E+03  0.10892998956E+04  0.75461598424E+02 0.  0.
    5000000    2    1    2    0    0 -0.44403523393E+03  0.69556117338E+03 -0.16392630215E+04  0.19308216337E+04  0.59993023981E+03 0.  0.
        -24    2    4    4    0    0 -0.11679838604E+03  0.18095162253E+03 -0.10642999817E+04  0.10888388245E+04  0.80313025121E+02 0.  0.
         24    2    4    4    0    0 -0.32723684789E+03  0.51460955086E+03 -0.57496303980E+03  0.84198280921E+03  0.80284552797E+02 0.  0.
         11    1    5    5    0    0 -0.39002712887E+02  0.13247650154E+03 -0.65523422463E+03  0.66962909450E+03  0.00000000000E+00 0. -1.
        -12    1    5    5    0    0 -0.77795673154E+02  0.48475120987E+02 -0.40906575707E+03  0.41920972999E+03  0.00000000000E+00 0.  1.
         15    1    3    3    0    0  0.31607253932E+03 -0.53476793433E+03 -0.49803197545E+03  0.79618942470E+03  0.17770000000E+01 0. -1.
        -16    1    3    3    0    0  0.12796269461E+03 -0.16079323905E+03 -0.20900916545E+03  0.29311047095E+03  0.00000000000E+00 0.  1.
          4    1    6    6  502    0 -0.13416467143E+03  0.22157276188E+03 -0.19111888782E+03  0.32190227888E+03  0.00000000000E+00 0. -1.
         -3    1    6    6    0  502 -0.19307217646E+03  0.29303678897E+03 -0.38384415198E+03  0.52008053033E+03  0.00000000000E+00 0.  1.
<mgrwt>
<rscale>  0 0.83320084E+03</rscale>
<asrwt>0</asrwt>
<pdfrwt beam="1">  1        1 0.41280198E+00 0.83320084E+03</pdfrwt>
<pdfrwt beam="2">  1       -2 0.51832104E-01 0.83320084E+03</pdfrwt>
<totfact> 0.32532037E+00</totfact>
</mgrwt>
</event>
<event>
12    3  0.1092576E-007  0.5134773E+03  0.7818608E-02  0.1010320E+00
          1   -1    0    0  501    0  0.00000000000E+00  0.00000000000E+00  0.88395327801E+03  0.88395327801E+03  0.00000000000E+00 0. -1.
         -2   -1    0    0    0  501 -0.00000000000E+00 -0.00000000000E+00 -0.47899872028E+03  0.47899872028E+03  0.00000000000E+00 0.  1.
        -24    2    1    2    0    0  0.35967748875E+03 -0.77519211686E+02  0.52816652731E+03  0.64863118651E+03  0.79908769511E+02 0.  0.
    5000000    2    1    2    0    0 -0.35967748875E+03  0.77519211686E+02 -0.12321196958E+03  0.71432081178E+03  0.59974653697E+03 0.  0.
        -24    2    4    4    0    0 -0.39697927143E+03 -0.15056195559E+03  0.15935711463E+02  0.43364813623E+03  0.86806190666E+02 0.  0.
         24    2    4    4    0    0  0.37301782679E+02  0.22808116727E+03 -0.13914768104E+03  0.28067267556E+03  0.77476653325E+02 0.  0.
         11    1    5    5    0    0 -0.18197664715E+03 -0.94744231432E+02 -0.28451522685E+02  0.20712667294E+03  0.00000000000E+00 0. -1.
        -12    1    5    5    0    0 -0.21500262428E+03 -0.55817724154E+02  0.44387234148E+02  0.22652146329E+03  0.00000000000E+00 0.  1.
         15    1    3    3    0    0  0.29959349677E+03 -0.68305280834E+02  0.38148283710E+03  0.48985118906E+03  0.17770000000E+01 0. -1.
        -16    1    3    3    0    0  0.60083991978E+02 -0.92139308520E+01  0.14668369021E+03  0.15877999745E+03  0.00000000000E+00 0.  1.
          2    1    6    6  502    0  0.15480800980E+02  0.13962260254E+03 -0.12583244454E+03  0.18859461932E+03  0.00000000000E+00 0. -1.
         -1    1    6    6    0  502  0.21820981699E+02  0.88458564734E+02 -0.13315236502E+02  0.92078056236E+02  0.00000000000E+00 0.  1.
<mgrwt>
<rscale>  0 0.51347733E+03</rscale>
<asrwt>0</asrwt>
<pdfrwt beam="1">  1        1 0.13599281E+00 0.51347733E+03</pdfrwt>
<pdfrwt beam="2">  1       -2 0.73692111E-01 0.51347733E+03</pdfrwt>
<totfact> 0.28647097E+01</totfact>
</mgrwt>
</event>
<event>
12    3  0.2046893E-007  0.1380062E+04  0.7818608E-02  0.8968379E-01
         -2   -1    0    0    0  501 -0.00000000000E+00  0.00000000000E+00  0.13595813025E+04  0.13595813025E+04  0.00000000000E+00 0.  1.
          1   -1    0    0  501    0  0.00000000000E+00 -0.00000000000E+00 -0.15892735694E+04  0.15892735694E+04  0.00000000000E+00 0. -1.
        -24    2    1    2    0    0 -0.29488231524E+03 -0.13115341942E+04 -0.52862382660E+03  0.14467116703E+04  0.80336694703E+02 0.  0.
    5000000    2    1    2    0    0  0.29488231524E+03  0.13115341942E+04  0.29893155972E+03  0.15021432017E+04  0.59999716559E+03 0.  0.
        -24    2    4    4    0    0 -0.50494115954E+02  0.75023066067E+03  0.35588129937E+03  0.83573673331E+03  0.80054282855E+02 0.  0.
         24    2    4    4    0    0  0.34537643119E+03  0.56130353348E+03 -0.56949739645E+02  0.66640646838E+03  0.80670765043E+02 0.  0.
         13    1    5    5    0    0 -0.69680160901E+01  0.54907462779E+03  0.23721634220E+03  0.59816644267E+03  0.00000000000E+00 0. -1.
        -14    1    5    5    0    0 -0.43526099863E+02  0.20115603289E+03  0.11866495717E+03  0.23757029064E+03  0.00000000000E+00 0.  1.
         15    1    3    3    0    0 -0.12116662321E+03 -0.53951954632E+03 -0.17516740044E+03  0.58004264270E+03  0.17770000000E+01 0. -1.
        -16    1    3    3    0    0 -0.17371569203E+03 -0.77201464783E+03 -0.35345642616E+03  0.86666902755E+03  0.00000000000E+00 0.  1.
          4    1    6    6  502    0  0.18519998338E+03  0.34744506279E+03 -0.25406875619E+01  0.39373031455E+03  0.00000000000E+00 0. -1.
         -3    1    6    6    0  502  0.16017644781E+03  0.21385847069E+03 -0.54409052083E+02  0.27267615383E+03  0.00000000000E+00 0.  1.
<mgrwt>
<rscale>  0 0.13800618E+04</rscale>
<asrwt>0</asrwt>
<pdfrwt beam="1">  1        1 0.24450363E+00 0.13800618E+04</pdfrwt>
<pdfrwt beam="2">  1       -2 0.20916635E+00 0.13800618E+04</pdfrwt>
<totfact> 0.55076605E-01</totfact>
</mgrwt>
</event>
<event>
12    3  0.1092576E-007  0.4850463E+03  0.7818608E-02  0.1017757E+00
         -2   -1    0    0    0  501 -0.00000000000E+00  0.00000000000E+00  0.36237710218E+03  0.36237710218E+03  0.00000000000E+00 0.  1.
          1   -1    0    0  501    0  0.00000000000E+00 -0.00000000000E+00 -0.12656483338E+04  0.12656483338E+04  0.00000000000E+00 0. -1.
        -24    2    1    2    0    0 -0.31526913242E+03 -0.66641751780E+02  0.15764265911E+03  0.36732766611E+03  0.79010489034E+02 0.  0.
    5000000    2    1    2    0    0  0.31526913242E+03  0.66641751780E+02 -0.10609138908E+04  0.12606977699E+04  0.59998736196E+03 0.  0.
        -24    2    4    4    0    0  0.46067118879E+03  0.11830330041E+03 -0.60127111626E+03  0.76926474241E+03  0.63463955062E+02 0.  0.
         24    2    4    4    0    0 -0.14540205637E+03 -0.51661548625E+02 -0.45964277449E+03  0.49143302750E+03  0.80151523803E+02 0.  0.
         13    1    5    5    0    0  0.27405417702E+02  0.11272065408E+02 -0.17402643076E+02  0.34365220267E+02  0.00000000000E+00 0. -1.
        -14    1    5    5    0    0  0.43326577109E+03  0.10703123500E+03 -0.58386847319E+03  0.73489952214E+03  0.00000000000E+00 0.  1.
         15    1    3    3    0    0 -0.15733226977E+03 -0.54071956586E+02  0.43229093945E+02  0.17189860933E+03  0.17770000000E+01 0. -1.
        -16    1    3    3    0    0 -0.15793686265E+03 -0.12569795194E+02  0.11441356517E+03  0.19542905677E+03  0.00000000000E+00 0.  1.
          4    1    6    6  502    0 -0.52277662275E+02  0.15517682405E+02 -0.99977629861E+02  0.11388274194E+03  0.00000000000E+00 0. -1.
         -3    1    6    6    0  502 -0.93124394098E+02 -0.67179231031E+02 -0.35966514463E+03  0.37755028555E+03  0.00000000000E+00 0.  1.
<mgrwt>
<rscale>  0 0.48504632E+03</rscale>
<asrwt>0</asrwt>
<pdfrwt beam="1">  1        1 0.19471513E+00 0.48504632E+03</pdfrwt>
<pdfrwt beam="2">  1       -2 0.55750324E-01 0.48504632E+03</pdfrwt>
<totfact> 0.27004303E+01</totfact>
</mgrwt>
</event>
<event>
12    3  0.1092576E-007  0.5650210E+03  0.7818608E-02  0.9980757E-01
         -2   -1    0    0    0  501 -0.00000000000E+00  0.00000000000E+00  0.12972114626E+04  0.12972114626E+04  0.00000000000E+00 0.  1.
          1   -1    0    0  501    0  0.00000000000E+00 -0.00000000000E+00 -0.69989247310E+03  0.69989247310E+03  0.00000000000E+00 0. -1.
        -24    2    1    2    0    0  0.34250099269E+03  0.23371509067E+03  0.10548399386E+04  0.11361277695E+04  0.78545138992E+02 0.  0.
    5000000    2    1    2    0    0 -0.34250099269E+03 -0.23371509067E+03 -0.45752094917E+03  0.86097616618E+03  0.60002072148E+03 0.  0.
        -24    2    4    4    0    0 -0.56312340682E+01  0.17627475313E+03 -0.13361494733E+03  0.23479966952E+03  0.78571185997E+02 0.  0.
         24    2    4    4    0    0 -0.33686975862E+03 -0.40998984381E+03 -0.32390600184E+03  0.62617649666E+03  0.74893261638E+02 0.  0.
         13    1    5    5    0    0  0.10410578819E+02  0.11524488326E+03 -0.41066250412E+02  0.12278517904E+03  0.00000000000E+00 0. -1.
        -14    1    5    5    0    0 -0.16041812887E+02  0.61029869876E+02 -0.92548696916E+02  0.11201449049E+03  0.00000000000E+00 0.  1.
         15    1    3    3    0    0  0.13911655442E+03  0.11328963092E+03  0.55370883102E+03  0.58205204533E+03  0.17770000000E+01 0. -1.
        -16    1    3    3    0    0  0.20338443827E+03  0.12042545975E+03  0.50113110761E+03  0.55407572416E+03  0.00000000000E+00 0.  1.
          4    1    6    6  502    0 -0.17663701605E+03 -0.27014042276E+03 -0.18263032674E+03  0.37085080516E+03  0.00000000000E+00 0. -1.
         -3    1    6    6    0  502 -0.16023274258E+03 -0.13984942105E+03 -0.14127567511E+03  0.25532569149E+03  0.00000000000E+00 0.  1.
<mgrwt>
<rscale>  0 0.56502098E+03</rscale>
<asrwt>0</asrwt>
<pdfrwt beam="1">  1        1 0.10767577E+00 0.56502098E+03</pdfrwt>
<pdfrwt beam="2">  1       -2 0.19957099E+00 0.56502098E+03</pdfrwt>
<totfact> 0.33814478E+00</totfact>
</mgrwt>
</event>
<event>
12    3  0.1092576E-007  0.7612046E+03  0.7818608E-02  0.9617934E-01
          1   -1    0    0  501    0  0.00000000000E+00  0.00000000000E+00  0.58906622154E+03  0.58906622154E+03  0.00000000000E+00 0. -1.
         -2   -1    0    0    0  501 -0.00000000000E+00 -0.00000000000E+00 -0.14507092553E+04  0.14507092553E+04  0.00000000000E+00 0.  1.
        -24    2    1    2    0    0  0.35000263874E+03 -0.66852140276E+03 -0.18994534862E+02  0.75933148133E+03  0.82466921273E+02 0.  0.
    5000000    2    1    2    0    0 -0.35000263874E+03  0.66852140276E+03 -0.84264849891E+03  0.12804439955E+04  0.60004801467E+03 0.  0.
        -24    2    4    4    0    0 -0.81147567855E+02  0.25221446936E+03  0.24369958188E+02  0.27783560390E+03  0.80010384362E+02 0.  0.
         24    2    4    4    0    0 -0.26885507089E+03  0.41630693340E+03 -0.86701845710E+03  0.10026083916E+04  0.88927330390E+02 0.  0.
         13    1    5    5    0    0 -0.55317761498E+02  0.17056254455E+03 -0.21654833661E+02  0.18061165012E+03  0.00000000000E+00 0. -1.
        -14    1    5    5    0    0 -0.25829806358E+02  0.81651924818E+02  0.46024791849E+02  0.97223953775E+02  0.00000000000E+00 0.  1.
         15    1    3    3    0    0  0.21140763227E+03 -0.43351547789E+03  0.25047218309E+02  0.48296933383E+03  0.17770000000E+01 0. -1.
        -16    1    3    3    0    0  0.13859500647E+03 -0.23500592487E+03 -0.44041753172E+02  0.27636214749E+03  0.00000000000E+00 0.  1.
          4    1    6    6  502    0 -0.63611002459E+02  0.17110417917E+03 -0.34863830227E+03  0.39353737506E+03  0.00000000000E+00 0. -1.
         -3    1    6    6    0  502 -0.20524406843E+03  0.24520275423E+03 -0.51838015484E+03  0.60907101658E+03  0.00000000000E+00 0.  1.
<mgrwt>
<rscale>  0 0.76120458E+03</rscale>
<asrwt>0</asrwt>
<pdfrwt beam="1">  1        1 0.90625572E-01 0.76120458E+03</pdfrwt>
<pdfrwt beam="2">  1       -2 0.22318604E+00 0.76120458E+03</pdfrwt>
<totfact> 0.29888704E+00</totfact>
</mgrwt>
</event>
<event>
12    3  0.1092576E-007  0.1061036E+04  0.7818608E-02  0.9244024E-01
         -2   -1    0    0    0  501 -0.00000000000E+00  0.00000000000E+00  0.84943631819E+03  0.84943631819E+03  0.00000000000E+00 0.  1.
          1   -1    0    0  501    0  0.00000000000E+00 -0.00000000000E+00 -0.15562886212E+04  0.15562886212E+04  0.00000000000E+00 0. -1.
        -24    2    1    2    0    0  0.87947424147E+03  0.47524857580E+03 -0.72887335891E+03  0.12395808630E+04  0.77254077114E+02 0.  0.
    5000000    2    1    2    0    0 -0.87947424147E+03 -0.47524857580E+03  0.22021055948E+02  0.11661440763E+04  0.60005910511E+03 0.  0.
        -24    2    4    4    0    0  0.20772642489E+02  0.60931932784E+02 -0.51146262302E+02  0.11306654623E+03  0.77613791433E+02 0.  0.
         24    2    4    4    0    0 -0.90024688396E+03 -0.53618050859E+03  0.73167318250E+02  0.10530775301E+04  0.75397865090E+02 0.  0.
         13    1    5    5    0    0 -0.54691671509E-01  0.46087822226E+02 -0.68210136871E+02  0.82320793975E+02  0.00000000000E+00 0. -1.
        -14    1    5    5    0    0  0.20827334160E+02  0.14844110558E+02  0.17063874569E+02  0.30745752256E+02  0.00000000000E+00 0.  1.
         15    1    3    3    0    0  0.55721201882E+03  0.26089927456E+03 -0.43163154035E+03  0.75157342272E+03  0.17770000000E+01 0. -1.
        -16    1    3    3    0    0  0.32226222265E+03  0.21434930125E+03 -0.29724181856E+03  0.48800744030E+03  0.00000000000E+00 0.  1.
          2    1    6    6  502    0 -0.51950367464E+03 -0.29554841891E+03  0.77161127119E+02  0.60264979501E+03  0.00000000000E+00 0. -1.
         -1    1    6    6    0  502 -0.38074320932E+03 -0.24063208967E+03 -0.39938088684E+01  0.45042773508E+03  0.00000000000E+00 0.  1.
<mgrwt>
<rscale>  0 0.10610357E+04</rscale>
<asrwt>0</asrwt>
<pdfrwt beam="1">  1        1 0.23942902E+00 0.10610357E+04</pdfrwt>
<pdfrwt beam="2">  1       -2 0.13068251E+00 0.10610357E+04</pdfrwt>
<totfact> 0.22309363E+00</totfact>
</mgrwt>
</event>
<event>
12    3  0.1092576E-007  0.6677852E+03  0.7818608E-02  0.9773967E-01
         -2   -1    0    0    0  501 -0.00000000000E+00  0.00000000000E+00  0.29627667445E+04  0.29627667445E+04  0.00000000000E+00 0.  1.
          1   -1    0    0  501    0  0.00000000000E+00 -0.00000000000E+00 -0.15800053153E+03  0.15800053153E+03  0.00000000000E+00 0. -1.
        -24    2    1    2    0    0 -0.45134890509E+03  0.29838535362E+03  0.13524565438E+04  0.14588736813E+04  0.80150245486E+02 0.  0.
    5000000    2    1    2    0    0  0.45134890509E+03 -0.29838535362E+03  0.14523096692E+04  0.16618935947E+04  0.59994774065E+03 0.  0.
        -24    2    4    4    0    0  0.58135418855E+03 -0.25907716288E+03  0.12670720941E+04  0.14201981214E+04  0.79983394694E+02 0.  0.
         24    2    4    4    0    0 -0.13000528346E+03 -0.39308190737E+02  0.18523757506E+03  0.24169547330E+03  0.75214593094E+02 0.  0.
         13    1    5    5    0    0  0.53786563661E+03 -0.22520644650E+03  0.11118514514E+04  0.12554804007E+04  0.00000000000E+00 0. -1.
        -14    1    5    5    0    0  0.43488551940E+02 -0.33870716382E+02  0.15522064275E+03  0.16471772070E+03  0.00000000000E+00 0.  1.
         15    1    3    3    0    0 -0.16321944832E+03  0.13576106048E+03  0.44684643215E+03  0.49471865288E+03  0.17770000000E+01 0. -1.
        -16    1    3    3    0    0 -0.28812945677E+03  0.16262429313E+03  0.90561011165E+03  0.96415502846E+03  0.00000000000E+00 0.  1.
          4    1    6    6  502    0 -0.13057955603E+03 -0.16796731878E+02  0.14715446434E+03  0.19745274632E+03  0.00000000000E+00 0. -1.
         -3    1    6    6    0  502  0.57427256298E+00 -0.22511458859E+02  0.38083110723E+02  0.44242726988E+02  0.00000000000E+00 0.  1.
<mgrwt>
<rscale>  0 0.66778516E+03</rscale>
<asrwt>0</asrwt>
<pdfrwt beam="1">  1        1 0.24307776E-01 0.66778516E+03</pdfrwt>
<pdfrwt beam="2">  1       -2 0.45581023E+00 0.66778516E+03</pdfrwt>
<totfact> 0.60739525E-01</totfact>
</mgrwt>
</event>
<event>
12    3  0.1092576E-007  0.8212504E+03  0.7818608E-02  0.9529757E-01
          1   -1    0    0  501    0  0.00000000000E+00  0.00000000000E+00  0.11438965984E+04  0.11438965984E+04  0.00000000000E+00 0. -1.
         -2   -1    0    0    0  501 -0.00000000000E+00 -0.00000000000E+00 -0.77909276989E+03  0.77909276989E+03  0.00000000000E+00 0.  1.
        -24    2    1    2    0    0  0.70699828320E+03  0.24820094692E+03  0.56529746968E+03  0.94239607262E+03  0.84254649435E+02 0.  0.
    5000000    2    1    2    0    0 -0.70699828320E+03 -0.24820094692E+03 -0.20049364119E+03  0.98059329566E+03  0.59992935321E+03 0.  0.
        -24    2    4    4    0    0 -0.12358720414E+03  0.13400762159E+03 -0.18593517994E+03  0.27798353134E+03  0.97319642883E+02 0.  0.
         24    2    4    4    0    0 -0.58341107906E+03 -0.38220856851E+03 -0.14558461249E+02  0.70260976432E+03  0.83646010717E+02 0.  0.
         11    1    5    5    0    0  0.33443723387E+01  0.28862877604E+02  0.59849111299E+00  0.29062152734E+02  0.00000000000E+00 0. -1.
        -12    1    5    5    0    0 -0.12693157648E+03  0.10514474398E+03 -0.18653367105E+03  0.24892137861E+03  0.00000000000E+00 0.  1.
         15    1    3    3    0    0  0.20170267958E+03  0.45993815655E+02  0.11986561411E+03  0.23910316854E+03  0.17770000000E+01 0. -1.
        -16    1    3    3    0    0  0.50529560362E+03  0.20220713127E+03  0.44543185557E+03  0.70329290408E+03  0.00000000000E+00 0.  1.
          4    1    6    6  502    0 -0.15693366616E+03 -0.10551782208E+03  0.33198434662E+02  0.19200083962E+03  0.00000000000E+00 0. -1.
         -3    1    6    6    0  502 -0.42647741290E+03 -0.27669074643E+03 -0.47756895912E+02  0.51060892469E+03  0.00000000000E+00 0.  1.
<mgrwt>
<rscale>  0 0.82125036E+03</rscale>
<asrwt>0</asrwt>
<pdfrwt beam="1">  1        1 0.17598409E+00 0.82125036E+03</pdfrwt>
<pdfrwt beam="2">  1       -2 0.11986043E+00 0.82125036E+03</pdfrwt>
<totfact> 0.55853231E+00</totfact>
</mgrwt>
</event>
<event>
12    3  0.1092576E-007  0.5926691E+03  0.7818608E-02  0.9920733E-01
         -4   -1    0    0    0  501 -0.00000000000E+00  0.00000000000E+00  0.19846244632E+03  0.19846244632E+03  0.00000000000E+00 0.  1.
          1   -1    0    0  501    0  0.00000000000E+00 -0.00000000000E+00 -0.21067155869E+04  0.21067155869E+04  0.00000000000E+00 0. -1.
        -24    2    1    2    0    0  0.43676168637E+03 -0.10382215146E+03 -0.11593472748E+04  0.12457431868E+04  0.79058042083E+02 0.  0.
    5000000    2    1    2    0    0 -0.43676168637E+03  0.10382215146E+03 -0.74890586577E+03  0.10594348464E+04  0.60000199020E+03 0.  0.
        -24    2    4    4    0    0 -0.20319299235E+02  0.27390944923E+03 -0.21991987716E+03  0.36042539810E+03  0.78118211233E+02 0.  0.
         24    2    4    4    0    0 -0.41644238713E+03 -0.17008729778E+03 -0.52898598861E+03  0.69900944834E+03  0.80212729974E+02 0.  0.
         13    1    5    5    0    0  0.31623389774E+01  0.19840689919E+03 -0.19323325909E+03  0.27697362772E+03  0.00000000000E+00 0. -1.
        -14    1    5    5    0    0 -0.23481638213E+02  0.75502550040E+02 -0.26686618074E+02  0.83451770382E+02  0.00000000000E+00 0.  1.
         15    1    3    3    0    0  0.22382514288E+03 -0.22364540173E+02 -0.64607464109E+03  0.68411509765E+03  0.17770000000E+01 0. -1.
        -16    1    3    3    0    0  0.21293654349E+03 -0.81457611283E+02 -0.51327263371E+03  0.56162808913E+03  0.00000000000E+00 0.  1.
          2    1    6    6  502    0 -0.25653306801E+03 -0.13979716564E+03 -0.30750825369E+03  0.42416245542E+03  0.00000000000E+00 0. -1.
         -1    1    6    6    0  502 -0.15990931912E+03 -0.30290132139E+02 -0.22147773493E+03  0.27484699292E+03  0.00000000000E+00 0.  1.
<mgrwt>
<rscale>  0 0.59266907E+03</rscale>
<asrwt>0</asrwt>
<pdfrwt beam="1">  1        1 0.32411006E+00 0.59266907E+03</pdfrwt>
<pdfrwt beam="2">  1       -4 0.30532686E-01 0.59266907E+03</pdfrwt>
<totfact> 0.13450500E+01</totfact>
</mgrwt>
</event>
<event>
12    3  0.1092576E-007  0.8140238E+03  0.7818608E-02  0.9539937E-01
         -2   -1    0    0    0  501 -0.00000000000E+00  0.00000000000E+00  0.80813694366E+03  0.80813694366E+03  0.00000000000E+00 0.  1.
          1   -1    0    0  501    0  0.00000000000E+00 -0.00000000000E+00 -0.95574433063E+03  0.95574433063E+03  0.00000000000E+00 0. -1.
        -24    2    1    2    0    0 -0.70534856017E+03  0.32434834394E+02  0.25296984547E+03  0.75442731849E+03  0.81229467282E+02 0.  0.
    5000000    2    1    2    0    0  0.70534856017E+03 -0.32434834394E+02 -0.40057723244E+03  0.10094539558E+04  0.59997213261E+03 0.  0.
        -24    2    4    4    0    0 -0.46603376935E+02 -0.13267520441E+03 -0.45317456229E+02  0.16789364809E+03  0.79749737454E+02 0.  0.
         24    2    4    4    0    0  0.75195193710E+03  0.10024037002E+03 -0.35525977622E+03  0.84156030770E+03  0.80835607327E+02 0.  0.
         13    1    5    5    0    0 -0.47632724109E+02 -0.24653914735E+02 -0.15315199508E+02  0.55778555501E+02  0.00000000000E+00 0. -1.
        -14    1    5    5    0    0  0.10293471735E+01 -0.10802128967E+03 -0.30002256721E+02  0.11211509259E+03  0.00000000000E+00 0.  1.
         15    1    3    3    0    0 -0.49195688601E+03  0.12339016524E+02  0.13748281672E+03  0.51095842457E+03  0.17770000000E+01 0. -1.
        -16    1    3    3    0    0 -0.21339167416E+03  0.20095817869E+02  0.11548702875E+03  0.24346889392E+03  0.00000000000E+00 0.  1.
          2    1    6    6  502    0  0.34866356058E+02  0.14429994123E+02 -0.35241672510E+02  0.51631995860E+02  0.00000000000E+00 0. -1.
         -3    1    6    6    0  502  0.71708558105E+03  0.85810375894E+02 -0.32001810370E+03  0.78992831184E+03  0.00000000000E+00 0.  1.
<mgrwt>
<rscale>  0 0.81402384E+03</rscale>
<asrwt>0</asrwt>
<pdfrwt beam="1">  1        1 0.14703759E+00 0.81402384E+03</pdfrwt>
<pdfrwt beam="2">  1       -2 0.12432876E+00 0.81402384E+03</pdfrwt>
<totfact> 0.71002682E+00</totfact>
</mgrwt>
</event>
<event>
12    3  0.1092576E-007  0.5626498E+03  0.7818608E-02  0.9986077E-01
          1   -1    0    0  501    0  0.00000000000E+00  0.00000000000E+00  0.18759584162E+04  0.18759584162E+04  0.00000000000E+00 0. -1.
         -2   -1    0    0    0  501 -0.00000000000E+00 -0.00000000000E+00 -0.19985621011E+03  0.19985621011E+03  0.00000000000E+00 0.  1.
        -24    2    1    2    0    0  0.45901047458E+03 -0.19012887616E+02  0.70271636522E+03  0.84353484113E+03  0.81784060715E+02 0.  0.
    5000000    2    1    2    0    0 -0.45901047458E+03  0.19012887616E+02  0.97338584091E+03  0.12322797852E+04  0.59998447322E+03 0.  0.
        -24    2    4    4    0    0 -0.10815620031E+03  0.21850743728E+03  0.67986045163E+03  0.72693341353E+03  0.82332801497E+02 0.  0.
         24    2    4    4    0    0 -0.35085427427E+03 -0.19949454966E+03  0.29352538928E+03  0.50534637169E+03  0.79504742687E+02 0.  0.
         11    1    5    5    0    0 -0.99001410328E+02  0.13611850709E+03  0.37570915439E+03  0.41168786223E+03  0.00000000000E+00 0. -1.
        -12    1    5    5    0    0 -0.91547899788E+01  0.82388930189E+02  0.30415129724E+03  0.31524555130E+03  0.00000000000E+00 0.  1.
         15    1    3    3    0    0  0.11032064153E+03 -0.34483826378E+02  0.21008134646E+03  0.23978554603E+03  0.17770000000E+01 0. -1.
        -16    1    3    3    0    0  0.34868983305E+03  0.15470938762E+02  0.49263501877E+03  0.60374929510E+03  0.00000000000E+00 0.  1.
          2    1    6    6  502    0 -0.63356400951E+02 -0.69173350638E+02  0.88415668101E+02  0.12890429142E+03  0.00000000000E+00 0. -1.
         -1    1    6    6    0  502 -0.28749787332E+03 -0.13032119902E+03  0.20510972118E+03  0.37644208028E+03  0.00000000000E+00 0.  1.
<mgrwt>
<rscale>  0 0.56264981E+03</rscale>
<asrwt>0</asrwt>
<pdfrwt beam="1">  1        1 0.28860898E+00 0.56264981E+03</pdfrwt>
<pdfrwt beam="2">  1       -2 0.30747110E-01 0.56264981E+03</pdfrwt>
<totfact> 0.32983864E+01</totfact>
</mgrwt>
</event>
<event>
12    3  0.1092576E-007  0.1075594E+04  0.7818608E-02  0.9229311E-01
         -2   -1    0    0    0  501 -0.00000000000E+00  0.00000000000E+00  0.12104460998E+04  0.12104460998E+04  0.00000000000E+00 0.  1.
          1   -1    0    0  501    0  0.00000000000E+00 -0.00000000000E+00 -0.12185710288E+04  0.12185710288E+04  0.00000000000E+00 0. -1.
        -24    2    1    2    0    0  0.16630883841E+03  0.98070528308E+03 -0.55875754357E+03  0.11436818806E+04  0.79729351044E+02 0.  0.
    5000000    2    1    2    0    0 -0.16630883841E+03 -0.98070528308E+03  0.55063261453E+03  0.12853352480E+04  0.59954060878E+03 0.  0.
        -24    2    4    4    0    0  0.18669337552E+03 -0.61025760980E+03  0.32272959952E+03  0.71945699411E+03  0.78709625772E+02 0.  0.
         24    2    4    4    0    0 -0.35300221393E+03 -0.37044767328E+03  0.22790301502E+03  0.56587825389E+03  0.80227004751E+02 0.  0.
         13    1    5    5    0    0  0.39004724538E+02 -0.88441272866E+02  0.21215452634E+02  0.98961218226E+02  0.00000000000E+00 0. -1.
        -14    1    5    5    0    0  0.14768865098E+03 -0.52181633694E+03  0.30151414688E+03  0.62049577589E+03  0.00000000000E+00 0.  1.
         15    1    3    3    0    0  0.23842655454E+02  0.29409679827E+03 -0.19538458432E+03  0.35389220462E+03  0.17770000000E+01 0. -1.
        -16    1    3    3    0    0  0.14246618296E+03  0.68660848481E+03 -0.36337295925E+03  0.78978967594E+03  0.00000000000E+00 0.  1.
          4    1    6    6  502    0 -0.31511673057E+03 -0.35583807528E+03  0.22285585312E+03  0.52496097090E+03  0.00000000000E+00 0. -1.
         -3    1    6    6    0  502 -0.37885483369E+02 -0.14609597999E+02  0.50471618953E+01  0.40917282987E+02  0.00000000000E+00 0.  1.
<mgrwt>
<rscale>  0 0.10755944E+04</rscale>
<asrwt>0</asrwt>
<pdfrwt beam="1">  1        1 0.18747246E+00 0.10755944E+04</pdfrwt>
<pdfrwt beam="2">  1       -2 0.18622248E+00 0.10755944E+04</pdfrwt>
<totfact> 0.14746622E+00</totfact>
</mgrwt>
</event>
<event>
12    3  0.1092576E-007  0.6449188E+03  0.7818608E-02  0.9816361E-01
         -2   -1    0    0    0  501 -0.00000000000E+00  0.00000000000E+00  0.49839785531E+03  0.49839785531E+03  0.00000000000E+00 0.  1.
          1   -1    0    0  501    0  0.00000000000E+00 -0.00000000000E+00 -0.10732527686E+04  0.10732527686E+04  0.00000000000E+00 0. -1.
        -24    2    1    2    0    0  0.53155340936E+03 -0.14064730148E+02  0.70971499015E+02  0.54216320784E+03  0.78467487687E+02 0.  0.
    5000000    2    1    2    0    0 -0.53155340936E+03  0.14064730148E+02 -0.64582641235E+03  0.10294874161E+04  0.60000478448E+03 0.  0.
        -24    2    4    4    0    0 -0.13223367750E+03  0.24720660531E+03 -0.41284896745E+03  0.50571544553E+03  0.81896219410E+02 0.  0.
         24    2    4    4    0    0 -0.39931973187E+03 -0.23314187516E+03 -0.23297744490E+03  0.52377197058E+03  0.79039263105E+02 0.  0.
         11    1    5    5    0    0 -0.13396433728E+03  0.22183689952E+03 -0.40149666242E+03  0.47786778881E+03  0.00000000000E+00 0. -1.
        -12    1    5    5    0    0  0.17306597843E+01  0.25369705794E+02 -0.11352305029E+02  0.27847656720E+02  0.00000000000E+00 0.  1.
         15    1    3    3    0    0  0.42997186705E+03  0.18798183522E+02  0.64608640744E+02  0.43520869976E+03  0.17770000000E+01 0. -1.
        -16    1    3    3    0    0  0.10158154232E+03 -0.32862913670E+02  0.63628582712E+01  0.10695450809E+03  0.00000000000E+00 0.  1.
          4    1    6    6  502    0 -0.18988760275E+03 -0.69063242982E+02 -0.83741458228E+02  0.21872280410E+03  0.00000000000E+00 0. -1.
         -3    1    6    6    0  502 -0.20943212912E+03 -0.16407863218E+03 -0.14923598667E+03  0.30504916647E+03  0.00000000000E+00 0.  1.
<mgrwt>
<rscale>  0 0.64491881E+03</rscale>
<asrwt>0</asrwt>
<pdfrwt beam="1">  1        1 0.16511581E+00 0.64491881E+03</pdfrwt>
<pdfrwt beam="2">  1       -2 0.76676594E-01 0.64491881E+03</pdfrwt>
<totfact> 0.18369298E+01</totfact>
</mgrwt>
</event>
<event>
12    3  0.1092576E-007  0.6950735E+03  0.7818608E-02  0.9725694E-01
          1   -1    0    0  501    0  0.00000000000E+00  0.00000000000E+00  0.17803353787E+04  0.17803353787E+04  0.00000000000E+00 0. -1.
         -2   -1    0    0    0  501 -0.00000000000E+00 -0.00000000000E+00 -0.44509840080E+03  0.44509840080E+03  0.00000000000E+00 0.  1.
        -24    2    1    2    0    0 -0.25974617937E+03  0.52386221793E+03  0.12511723014E+04  0.13834300354E+04  0.80912509151E+02 0.  0.
    5000000    2    1    2    0    0  0.25974617937E+03 -0.52386221793E+03  0.84064676532E+02  0.84200374407E+03  0.60000311176E+03 0.  0.
        -24    2    4    4    0    0  0.35488962524E+03 -0.58114524608E+03  0.90005314686E+01  0.68586755890E+03  0.81589555939E+02 0.  0.
         24    2    4    4    0    0 -0.95143445864E+02  0.57283028157E+02  0.75064145064E+02  0.15613618517E+03  0.80064110809E+02 0.  0.
         11    1    5    5    0    0  0.30463620142E+03 -0.51989563473E+03  0.31840447050E+02  0.60341403720E+03  0.00000000000E+00 0. -1.
        -12    1    5    5    0    0  0.50253423817E+02 -0.61249611355E+02 -0.22839915581E+02  0.82453521697E+02  0.00000000000E+00 0.  1.
         15    1    3    3    0    0 -0.15062647679E+03  0.30278757060E+03  0.81542047848E+03  0.88276971112E+03  0.17770000000E+01 0. -1.
        -16    1    3    3    0    0 -0.10911970258E+03  0.22107464732E+03  0.43575182289E+03  0.50066032431E+03  0.00000000000E+00 0.  1.
          4    1    6    6  502    0 -0.10228556210E+03  0.52065162813E+02  0.85008704023E+02  0.14282715831E+03  0.00000000000E+00 0. -1.
         -3    1    6    6    0  502  0.71421162315E+01  0.52178653444E+01 -0.99445589591E+01  0.13309026858E+02  0.00000000000E+00 0.  1.
<mgrwt>
<rscale>  0 0.69507349E+03</rscale>
<asrwt>0</asrwt>
<pdfrwt beam="1">  1        1 0.27389775E+00 0.69507349E+03</pdfrwt>
<pdfrwt beam="2">  1       -2 0.68476678E-01 0.69507349E+03</pdfrwt>
<totfact> 0.75297839E+00</totfact>
</mgrwt>
</event>
<event>
12    3  0.1092576E-007  0.7906067E+03  0.7818608E-02  0.9573714E-01
          1   -1    0    0  501    0  0.00000000000E+00  0.00000000000E+00  0.83069458717E+03  0.83069458717E+03  0.00000000000E+00 0. -1.
         -2   -1    0    0    0  501 -0.00000000000E+00 -0.00000000000E+00 -0.86387242315E+03  0.86387242315E+03  0.00000000000E+00 0.  1.
        -24    2    1    2    0    0  0.67807416324E+03 -0.13172787403E+03 -0.27584111437E+03  0.74797899267E+03  0.79040808765E+02 0.  0.
    5000000    2    1    2    0    0 -0.67807416324E+03  0.13172787403E+03  0.24266327839E+03  0.94658801765E+03  0.60000550400E+03 0.  0.
        -24    2    4    4    0    0 -0.77422591723E+03  0.10131496971E+03  0.22530945850E+03  0.81662699658E+03  0.80154884160E+02 0.  0.
         24    2    4    4    0    0  0.96151753990E+02  0.30412904313E+02  0.17353819894E+02  0.12996102107E+03  0.80116211771E+02 0.  0.
         11    1    5    5    0    0 -0.56690791087E+03  0.60001725140E+02  0.19797719893E+03  0.60347307954E+03  0.00000000000E+00 0. -1.
        -12    1    5    5    0    0 -0.20731800635E+03  0.41313244575E+02  0.27332259566E+02  0.21315391704E+03  0.00000000000E+00 0.  1.
         15    1    3    3    0    0  0.22950202103E+03 -0.48384548408E+02 -0.13429104011E+03  0.27027667929E+03  0.17770000000E+01 0. -1.
        -16    1    3    3    0    0  0.44857214221E+03 -0.83343325620E+02 -0.14155007426E+03  0.47770231338E+03  0.00000000000E+00 0.  1.
          2    1    6    6  502    0  0.44767290706E+01  0.15410764326E+02  0.32114784458E+02  0.35901144008E+02  0.00000000000E+00 0. -1.
         -1    1    6    6    0  502  0.91675024919E+02  0.15002139987E+02 -0.14760964564E+02  0.94059877063E+02  0.00000000000E+00 0.  1.
<mgrwt>
<rscale>  0 0.79060672E+03</rscale>
<asrwt>0</asrwt>
<pdfrwt beam="1">  1        1 0.12779917E+00 0.79060672E+03</pdfrwt>
<pdfrwt beam="2">  1       -2 0.13290345E+00 0.79060672E+03</pdfrwt>
<totfact> 0.76164429E+00</totfact>
</mgrwt>
</event>
<event>
12    3  0.1092576E-007  0.1726978E+04  0.7818608E-02  0.8746126E-01
          1   -1    0    0  501    0  0.00000000000E+00  0.00000000000E+00  0.23548147378E+04  0.23548147378E+04  0.00000000000E+00 0. -1.
         -4   -1    0    0    0  501 -0.00000000000E+00 -0.00000000000E+00 -0.15064555775E+04  0.15064555775E+04  0.00000000000E+00 0.  1.
        -24    2    1    2    0    0 -0.15169142297E+04 -0.71931436704E+03 -0.34510489603E+03  0.17158285356E+04  0.80797496095E+02 0.  0.
    5000000    2    1    2    0    0  0.15169142297E+04  0.71931436704E+03  0.11934640563E+04  0.21454417797E+04  0.60010168947E+03 0.  0.
        -24    2    4    4    0    0  0.13812916540E+03  0.28808669538E+03  0.29718181925E+03  0.44348836043E+03  0.79317600523E+02 0.  0.
         24    2    4    4    0    0  0.13787850643E+04  0.43122767166E+03  0.89628223709E+03  0.17019534193E+04  0.79486066399E+02 0.  0.
         11    1    5    5    0    0  0.75988848695E+02  0.74890532096E+02  0.10719043954E+03  0.15123718872E+03  0.00000000000E+00 0. -1.
        -12    1    5    5    0    0  0.62140316702E+02  0.21319616328E+03  0.18999137971E+03  0.29225117171E+03  0.00000000000E+00 0.  1.
         15    1    3    3    0    0 -0.89873540423E+03 -0.43871940315E+03 -0.16671949760E+03  0.10139026532E+04  0.17770000000E+01 0. -1.
        -16    1    3    3    0    0 -0.61817882543E+03 -0.28059496389E+03 -0.17838539843E+03  0.70192588238E+03  0.00000000000E+00 0.  1.
          2    1    6    6  502    0  0.11993524150E+04  0.39849441584E+03  0.79946916232E+03  0.14954581091E+04  0.00000000000E+00 0. -1.
         -1    1    6    6    0  502  0.17943264931E+03  0.32733255816E+02  0.96813074777E+02  0.20649531017E+03  0.00000000000E+00 0.  1.
<mgrwt>
<rscale>  0 0.17269777E+04</rscale>
<asrwt>0</asrwt>
<pdfrwt beam="1">  1        1 0.36227919E+00 0.17269777E+04</pdfrwt>
<pdfrwt beam="2">  1       -4 0.23176240E+00 0.17269777E+04</pdfrwt>
<totfact> 0.61565060E-02</totfact>
</mgrwt>
</event>
<event>
12    3  0.1092576E-007  0.6492218E+03  0.7818608E-02  0.9808240E-01
         -2   -1    0    0    0  501 -0.00000000000E+00  0.00000000000E+00  0.35025656760E+03  0.35025656760E+03  0.00000000000E+00 0.  1.
          1   -1    0    0  501    0  0.00000000000E+00 -0.00000000000E+00 -0.27363610094E+04  0.27363610094E+04  0.00000000000E+00 0. -1.
        -24    2    1    2    0    0 -0.46278649376E+03 -0.41603238107E+03 -0.90939932592E+02  0.63403000080E+03  0.80434381209E+02 0.  0.
    5000000    2    1    2    0    0  0.46278649376E+03  0.41603238107E+03 -0.22951645092E+04  0.24525875762E+04  0.60012616477E+03 0.  0.
        -24    2    4    4    0    0  0.25867357735E+03  0.36232753733E+03 -0.21141715134E+04  0.21619307517E+04  0.77653868414E+02 0.  0.
         24    2    4    4    0    0  0.20411291640E+03  0.53704843738E+02 -0.18099299585E+03  0.29065682450E+03  0.84715005734E+02 0.  0.
         13    1    5    5    0    0  0.22215942082E+03  0.34427962321E+03 -0.19673332400E+04  0.20095480448E+04  0.00000000000E+00 0. -1.
        -14    1    5    5    0    0  0.36514156529E+02  0.18047914114E+02 -0.14683827337E+03  0.15238270688E+03  0.00000000000E+00 0.  1.
         15    1    3    3    0    0 -0.76654743578E+02 -0.33356883743E+02 -0.17894749566E+02  0.85510298778E+02  0.17770000000E+01 0. -1.
        -16    1    3    3    0    0 -0.38613175018E+03 -0.38267549732E+03 -0.73045183026E+02  0.54851970203E+03  0.00000000000E+00 0.  1.
          4    1    6    6  502    0  0.56309464111E+02  0.46020037688E+02 -0.28380212764E+02  0.78064307425E+02  0.00000000000E+00 0. -1.
         -3    1    6    6    0  502  0.14780345229E+03  0.76848060499E+01 -0.15261278309E+03  0.21259251708E+03  0.00000000000E+00 0.  1.
<mgrwt>
<rscale>  0 0.64922182E+03</rscale>
<asrwt>0</asrwt>
<pdfrwt beam="1">  1        1 0.42097863E+00 0.64922182E+03</pdfrwt>
<pdfrwt beam="2">  1       -2 0.53885624E-01 0.64922182E+03</pdfrwt>
<totfact> 0.28555133E+00</totfact>
</mgrwt>
</event>
<event>
12    3  0.1092576E-007  0.7931785E+03  0.7818608E-02  0.9569944E-01
         -4   -1    0    0    0  501 -0.00000000000E+00  0.00000000000E+00  0.28792884701E+03  0.28792884701E+03  0.00000000000E+00 0.  1.
          3   -1    0    0  501    0  0.00000000000E+00 -0.00000000000E+00 -0.26510088614E+04  0.26510088614E+04  0.00000000000E+00 0. -1.
        -24    2    1    2    0    0  0.56369162249E+03  0.50360003520E+03 -0.81245004207E+03  0.11125404476E+04  0.79435105955E+02 0.  0.
    5000000    2    1    2    0    0 -0.56369162249E+03 -0.50360003520E+03 -0.15506299723E+04  0.18263972608E+04  0.59992699755E+03 0.  0.
        -24    2    4    4    0    0 -0.32663476662E+03 -0.47391333077E+03 -0.57136640669E+03  0.81499892525E+03  0.80495724225E+02 0.  0.
         24    2    4    4    0    0 -0.23705685587E+03 -0.29686704433E+02 -0.97926356561E+03  0.10113983355E+04  0.83019327914E+02 0.  0.
         11    1    5    5    0    0 -0.18774748514E+03 -0.31501676552E+03 -0.40424776182E+03  0.54580301727E+03  0.00000000000E+00 0. -1.
        -12    1    5    5    0    0 -0.13888728148E+03 -0.15889656525E+03 -0.16711864487E+03  0.26919590797E+03  0.00000000000E+00 0.  1.
         15    1    3    3    0    0  0.16642434039E+03  0.19862910942E+03 -0.28464550260E+03  0.38493740279E+03  0.17770000000E+01 0. -1.
        -16    1    3    3    0    0  0.39726728210E+03  0.30497092578E+03 -0.52780453947E+03  0.72760304485E+03  0.00000000000E+00 0.  1.
          4    1    6    6  502    0 -0.44559175500E+02 -0.34050918825E+02 -0.15180327012E+03  0.16183083147E+03  0.00000000000E+00 0. -1.
         -3    1    6    6    0  502 -0.19249768037E+03  0.43642143922E+01 -0.82746029549E+03  0.84956750404E+03  0.00000000000E+00 0.  1.
<mgrwt>
<rscale>  0 0.79317845E+03</rscale>
<asrwt>0</asrwt>
<pdfrwt beam="1">  1        3 0.40784754E+00 0.79317845E+03</pdfrwt>
<pdfrwt beam="2">  1       -4 0.44296743E-01 0.79317845E+03</pdfrwt>
<totfact> 0.11707713E-01</totfact>
</mgrwt>
</event>
<event>
12    3  0.1092576E-007  0.1203347E+04  0.7818608E-02  0.9109932E-01
         -2   -1    0    0    0  501 -0.00000000000E+00  0.00000000000E+00  0.13536623539E+04  0.13536623539E+04  0.00000000000E+00 0.  1.
          1   -1    0    0  501    0  0.00000000000E+00 -0.00000000000E+00 -0.14973440056E+04  0.14973440056E+04  0.00000000000E+00 0. -1.
        -24    2    1    2    0    0 -0.11214040019E+04 -0.28732078409E+03 -0.78197407851E+03  0.13992633672E+04  0.79714131667E+02 0.  0.
    5000000    2    1    2    0    0  0.11214040019E+04  0.28732078409E+03  0.63829242684E+03  0.14517429922E+04  0.60003360308E+03 0.  0.
        -24    2    4    4    0    0  0.84894475355E+03  0.17928665329E+01  0.60732783422E+03  0.10464711065E+04  0.74459852240E+02 0.  0.
         24    2    4    4    0    0  0.27245924839E+03  0.28552791755E+03  0.30964592621E+02  0.40527188573E+03  0.86754029470E+02 0.  0.
         11    1    5    5    0    0  0.26267063207E+03  0.31834989375E+02  0.20654935646E+03  0.33566644777E+03  0.00000000000E+00 0. -1.
        -12    1    5    5    0    0  0.58627412148E+03 -0.30042122842E+02  0.40077847776E+03  0.71080465875E+03  0.00000000000E+00 0.  1.
         15    1    3    3    0    0 -0.24924600989E+03 -0.32162407786E+02 -0.15572671261E+03  0.29565513808E+03  0.17770000000E+01 0. -1.
        -16    1    3    3    0    0 -0.87215799205E+03 -0.25515837630E+03 -0.62624736590E+03  0.11036082291E+04  0.00000000000E+00 0.  1.
          4    1    6    6  502    0  0.20256733886E+03  0.22265328221E+03  0.59889356885E+02  0.30691162559E+03  0.00000000000E+00 0. -1.
         -3    1    6    6    0  502  0.69891909528E+02  0.62874635339E+02 -0.28924764264E+02  0.98360260137E+02  0.00000000000E+00 0.  1.
<mgrwt>
<rscale>  0 0.12033470E+04</rscale>
<asrwt>0</asrwt>
<pdfrwt beam="1">  1        1 0.23036062E+00 0.12033470E+04</pdfrwt>
<pdfrwt beam="2">  1       -2 0.20825575E+00 0.12033470E+04</pdfrwt>
<totfact> 0.65918345E-01</totfact>
</mgrwt>
</event>
<event>
12    3  0.1092576E-007  0.6318611E+03  0.7818608E-02  0.9841424E-01
         -2   -1    0    0    0  501 -0.00000000000E+00  0.00000000000E+00  0.43859924685E+03  0.43859924685E+03  0.00000000000E+00 0.  1.
          3   -1    0    0  501    0  0.00000000000E+00 -0.00000000000E+00 -0.10782947591E+04  0.10782947591E+04  0.00000000000E+00 0. -1.
        -24    2    1    2    0    0  0.49273428265E+03 -0.21555812072E+02  0.16468313404E+02  0.50020602835E+03  0.81750468582E+02 0.  0.
    5000000    2    1    2    0    0 -0.49273428265E+03  0.21555812072E+02 -0.65616382568E+03  0.10166879776E+04  0.59987644676E+03 0.  0.
        -24    2    4    4    0    0 -0.56421729548E+03 -0.12916224639E+03 -0.45739491227E+03  0.74201438719E+03  0.79694432801E+02 0.  0.
         24    2    4    4    0    0  0.71483012830E+02  0.15071805847E+03 -0.19876891342E+03  0.27467359043E+03  0.90059680604E+02 0.  0.
         13    1    5    5    0    0 -0.21134012623E+03 -0.58414605048E+02 -0.22164999605E+03  0.31177818363E+03  0.00000000000E+00 0. -1.
        -14    1    5    5    0    0 -0.35287716925E+03 -0.70747641346E+02 -0.23574491622E+03  0.43023620356E+03  0.00000000000E+00 0.  1.
         15    1    3    3    0    0  0.23028839250E+03 -0.32584948220E+02 -0.26293679968E+02  0.23407058317E+03  0.17770000000E+01 0. -1.
        -16    1    3    3    0    0  0.26244589015E+03  0.11029136148E+02  0.42761993372E+02  0.26613544517E+03  0.00000000000E+00 0.  1.
          2    1    6    6  502    0  0.69539040394E+02  0.43431737897E+02 -0.93493976047E+02  0.12435078429E+03  0.00000000000E+00 0. -1.
         -1    1    6    6    0  502  0.19439724361E+01  0.10728632057E+03 -0.10527493737E+03  0.15032280615E+03  0.00000000000E+00 0.  1.
<mgrwt>
<rscale>  0 0.63186106E+03</rscale>
<asrwt>0</asrwt>
<pdfrwt beam="1">  1        3 0.16589150E+00 0.63186106E+03</pdfrwt>
<pdfrwt beam="2">  1       -2 0.67476808E-01 0.63186106E+03</pdfrwt>
<totfact> 0.20942853E+00</totfact>
</mgrwt>
</event>
<event>
12    3  0.1092576E-007  0.1337089E+04  0.7818608E-02  0.9000660E-01
          1   -1    0    0  501    0  0.00000000000E+00  0.00000000000E+00  0.18613891848E+04  0.18613891848E+04  0.00000000000E+00 0. -1.
         -2   -1    0    0    0  501 -0.00000000000E+00 -0.00000000000E+00 -0.10686201372E+04  0.10686201372E+04  0.00000000000E+00 0.  1.
        -24    2    1    2    0    0  0.81468951938E+03  0.10567778761E+04  0.55677930757E+03  0.14482306386E+04  0.82887229197E+02 0.  0.
    5000000    2    1    2    0    0 -0.81468951938E+03 -0.10567778761E+04  0.23598974001E+03  0.14817786834E+04  0.59956518983E+03 0.  0.
        -24    2    4    4    0    0 -0.60508792525E+03 -0.73757266231E+03  0.42836208274E+03  0.10486995287E+04  0.78305798687E+02 0.  0.
         24    2    4    4    0    0 -0.20960159413E+03 -0.31920521377E+03 -0.19237234273E+03  0.43307915471E+03  0.68743284986E+02 0.  0.
         11    1    5    5    0    0 -0.47241815414E+03 -0.61343653556E+03  0.32538168460E+03  0.83985506856E+03  0.00000000000E+00 0. -1.
        -12    1    5    5    0    0 -0.13266977111E+03 -0.12413612675E+03  0.10298039813E+03  0.20884446014E+03  0.00000000000E+00 0.  1.
         15    1    3    3    0    0  0.63572338751E+03  0.78166687919E+03  0.39354219258E+03  0.10816773782E+04  0.17770000000E+01 0. -1.
        -16    1    3    3    0    0  0.17896613187E+03  0.27511099689E+03  0.16323711499E+03  0.36655326035E+03  0.00000000000E+00 0.  1.
          4    1    6    6  502    0 -0.18728427081E+03 -0.27172151137E+03 -0.13855314043E+03  0.35791751921E+03  0.00000000000E+00 0. -1.
         -3    1    6    6    0  502 -0.22317323321E+02 -0.47483702403E+02 -0.53819202302E+02  0.75161635497E+02  0.00000000000E+00 0.  1.
<mgrwt>
<rscale>  0 0.13370888E+04</rscale>
<asrwt>0</asrwt>
<pdfrwt beam="1">  1        1 0.28636757E+00 0.13370888E+04</pdfrwt>
<pdfrwt beam="2">  1       -2 0.16440310E+00 0.13370888E+04</pdfrwt>
<totfact> 0.72941547E-01</totfact>
</mgrwt>
</event>
<event>
12    3  0.1092576E-007  0.6746227E+03  0.7818608E-02  0.9761643E-01
          1   -1    0    0  501    0  0.00000000000E+00  0.00000000000E+00  0.97696411435E+03  0.97696411435E+03  0.00000000000E+00 0. -1.
         -2   -1    0    0    0  501 -0.00000000000E+00 -0.00000000000E+00 -0.85486590904E+03  0.85486590904E+03  0.00000000000E+00 0.  1.
        -24    2    1    2    0    0 -0.51416353102E+03  0.22330784037E+03 -0.53579808000E+03  0.77971812509E+03  0.81549027413E+02 0.  0.
    5000000    2    1    2    0    0  0.51416353102E+03 -0.22330784037E+03  0.65789628531E+03  0.10521118983E+04  0.59990115528E+03 0.  0.
        -24    2    4    4    0    0  0.37590836641E+03  0.13232284611E+03  0.21003462954E+03  0.45814637227E+03  0.83469259475E+02 0.  0.
         24    2    4    4    0    0  0.13825516461E+03 -0.35563068648E+03  0.44786165577E+03  0.59396552603E+03  0.81408277800E+02 0.  0.
         11    1    5    5    0    0  0.24092824478E+03  0.10862037854E+03  0.17408097862E+03  0.31646325676E+03  0.00000000000E+00 0. -1.
        -12    1    5    5    0    0  0.13498012163E+03  0.23702467572E+02  0.35953650925E+02  0.14168311550E+03  0.00000000000E+00 0.  1.
         15    1    3    3    0    0 -0.21735890529E+03  0.12463857350E+03 -0.19800769897E+03  0.31935853565E+03  0.17770000000E+01 0. -1.
        -16    1    3    3    0    0 -0.29680462573E+03  0.98669266877E+02 -0.33779038103E+03  0.46035958944E+03  0.00000000000E+00 0.  1.
          2    1    6    6  502    0  0.77306764889E+01 -0.71311980186E+02  0.12682373676E+03  0.14570319860E+03  0.00000000000E+00 0. -1.
         -1    1    6    6    0  502  0.13052448812E+03 -0.28431870629E+03  0.32103791901E+03  0.44826232742E+03  0.00000000000E+00 0.  1.
<mgrwt>
<rscale>  0 0.67462268E+03</rscale>
<asrwt>0</asrwt>
<pdfrwt beam="1">  1        1 0.15030217E+00 0.67462268E+03</pdfrwt>
<pdfrwt beam="2">  1       -2 0.13151783E+00 0.67462268E+03</pdfrwt>
<totfact> 0.60370568E+00</totfact>
</mgrwt>
</event>
<event>
12    3  0.1092576E-007  0.7039191E+03  0.7818608E-02  0.9710553E-01
          1   -1    0    0  501    0  0.00000000000E+00  0.00000000000E+00  0.21538831950E+03  0.21538831950E+03  0.00000000000E+00 0. -1.
         -2   -1    0    0    0  501 -0.00000000000E+00 -0.00000000000E+00 -0.25933588533E+04  0.25933588533E+04  0.00000000000E+00 0.  1.
        -24    2    1    2    0    0 -0.60076991325E+03 -0.11336451366E+03 -0.12377627152E+04  0.13826066548E+04  0.75951438309E+02 0.  0.
    5000000    2    1    2    0    0  0.60076991325E+03  0.11336451366E+03 -0.11402078186E+04  0.14261405181E+04  0.60002242128E+03 0.  0.
        -24    2    4    4    0    0  0.51376763052E+03 -0.12504445484E+03 -0.97892226535E+03  0.11154667737E+04  0.79900110942E+02 0.  0.
         24    2    4    4    0    0  0.87002282729E+02  0.23840896851E+03 -0.16128555327E+03  0.31067374440E+03  0.78082727292E+02 0.  0.
         13    1    5    5    0    0  0.29956394161E+03 -0.10321040401E+03 -0.52790646730E+03  0.61569162803E+03  0.00000000000E+00 0. -1.
        -14    1    5    5    0    0  0.21420368892E+03 -0.21834050828E+02 -0.45101579805E+03  0.49977514566E+03  0.00000000000E+00 0.  1.
         15    1    3    3    0    0 -0.36400915658E+03 -0.10204082901E+03 -0.72207115330E+03  0.81504902001E+03  0.17770000000E+01 0. -1.
        -16    1    3    3    0    0 -0.23676075667E+03 -0.11323684654E+02 -0.51569156192E+03  0.56755763475E+03  0.00000000000E+00 0.  1.
          2    1    6    6  502    0  0.95393607718E+02  0.20425523939E+03 -0.11658250843E+03  0.25379445321E+03  0.00000000000E+00 0. -1.
         -1    1    6    6    0  502 -0.83913249892E+01  0.34153729120E+02 -0.44703044839E+02  0.56879291186E+02  0.00000000000E+00 0.  1.
<mgrwt>
<rscale>  0 0.70391908E+03</rscale>
<asrwt>0</asrwt>
<pdfrwt beam="1">  1        1 0.33136664E-01 0.70391908E+03</pdfrwt>
<pdfrwt beam="2">  1       -2 0.39897829E+00 0.70391908E+03</pdfrwt>
<totfact> 0.95327197E-01</totfact>
</mgrwt>
</event>
<event>
12    3  0.1092576E-007  0.1551678E+04  0.7818608E-02  0.8850797E-01
         -4   -1    0    0    0  501 -0.00000000000E+00  0.00000000000E+00  0.20570660500E+04  0.20570660500E+04  0.00000000000E+00 0.  1.
          1   -1    0    0  501    0  0.00000000000E+00 -0.00000000000E+00 -0.18284373729E+04  0.18284373729E+04  0.00000000000E+00 0. -1.
        -24    2    1    2    0    0 -0.64765269894E+03  0.13547529558E+04 -0.10416111584E+04  0.18292501603E+04  0.79954699231E+02 0.  0.
    5000000    2    1    2    0    0  0.64765269894E+03 -0.13547529558E+04  0.12702398355E+04  0.20562532626E+04  0.59988219717E+03 0.  0.
        -24    2    4    4    0    0  0.69602440278E+03 -0.90850762872E+03  0.78138755264E+03  0.13877583140E+04  0.73963165723E+02 0.  0.
         24    2    4    4    0    0 -0.48371703839E+02 -0.44624532712E+03  0.48885228283E+03  0.66849494861E+03  0.80213640865E+02 0.  0.
         11    1    5    5    0    0  0.13000061730E+03 -0.12993091118E+03  0.14034088229E+03  0.23125260089E+03  0.00000000000E+00 0. -1.
        -12    1    5    5    0    0  0.56602378547E+03 -0.77857671755E+03  0.64104667035E+03  0.11565057131E+04  0.00000000000E+00 0.  1.
         15    1    3    3    0    0 -0.31640877316E+03  0.70473384019E+03 -0.57873352794E+03  0.96524605740E+03  0.17770000000E+01 0. -1.
        -16    1    3    3    0    0 -0.33124392578E+03  0.65001911565E+03 -0.46287763044E+03  0.86400410291E+03  0.00000000000E+00 0.  1.
          4    1    6    6  502    0 -0.27037983401E+02 -0.41030337719E+02  0.39523540738E+02  0.63060696414E+02  0.00000000000E+00 0. -1.
         -3    1    6    6    0  502 -0.21333720438E+02 -0.40521498940E+03  0.44932874210E+03  0.60543425220E+03  0.00000000000E+00 0.  1.
<mgrwt>
<rscale>  0 0.15516780E+04</rscale>
<asrwt>0</asrwt>
<pdfrwt beam="1">  1        1 0.28129806E+00 0.15516780E+04</pdfrwt>
<pdfrwt beam="2">  1       -4 0.31647170E+00 0.15516780E+04</pdfrwt>
<totfact> 0.42186703E-02</totfact>
</mgrwt>
</event>
<event>
12    3  0.1092576E-007  0.1025897E+04  0.7818608E-02  0.9280589E-01
         -2   -1    0    0    0  501 -0.00000000000E+00  0.00000000000E+00  0.34910399713E+03  0.34910399713E+03  0.00000000000E+00 0.  1.
          1   -1    0    0  501    0  0.00000000000E+00 -0.00000000000E+00 -0.35827998376E+04  0.35827998376E+04  0.00000000000E+00 0. -1.
        -24    2    1    2    0    0 -0.98586747543E+03 -0.25130396316E+03 -0.11578304850E+04  0.15435912351E+04  0.83750272076E+02 0.  0.
    5000000    2    1    2    0    0  0.98586747543E+03  0.25130396316E+03 -0.20758653555E+04  0.23883125997E+04  0.59977640715E+03 0.  0.
        -24    2    4    4    0    0  0.68521490575E+03  0.11509839840E+03 -0.77083023847E+03  0.10398334831E+04  0.65630082556E+02 0.  0.
         24    2    4    4    0    0  0.30065256967E+03  0.13620556476E+03 -0.13050351170E+04  0.13484791165E+04  0.79594896331E+02 0.  0.
         13    1    5    5    0    0  0.26012944702E+03  0.25986132724E+02 -0.32980261529E+03  0.42084720903E+03  0.00000000000E+00 0. -1.
        -14    1    5    5    0    0  0.42508545874E+03  0.89112265672E+02 -0.44102762318E+03  0.61898627411E+03  0.00000000000E+00 0.  1.
         15    1    3    3    0    0 -0.39783969661E+03 -0.13601564645E+03 -0.51385400569E+03  0.66394711926E+03  0.17770000000E+01 0. -1.
        -16    1    3    3    0    0 -0.58802777881E+03 -0.11528831671E+03 -0.64397647933E+03  0.87964411585E+03  0.00000000000E+00 0.  1.
          4    1    6    6  502    0  0.19596616164E+03  0.54017569194E+02 -0.69636143514E+03  0.72542393305E+03  0.00000000000E+00 0. -1.
         -1    1    6    6    0  502  0.10468640804E+03  0.82187995569E+02 -0.60867368187E+03  0.62305518347E+03  0.00000000000E+00 0.  1.
<mgrwt>
<rscale>  0 0.10258968E+04</rscale>
<asrwt>0</asrwt>
<pdfrwt beam="1">  1        1 0.55120000E+00 0.10258968E+04</pdfrwt>
<pdfrwt beam="2">  1       -2 0.53708305E-01 0.10258968E+04</pdfrwt>
<totfact> 0.63753268E-01</totfact>
</mgrwt>
</event>
<event>
12    3  0.1530831E-007  0.8197709E+03  0.7818608E-02  0.9531832E-01
         -2   -1    0    0    0  501 -0.00000000000E+00  0.00000000000E+00  0.11380527786E+04  0.11380527786E+04  0.00000000000E+00 0.  1.
          1   -1    0    0  501    0  0.00000000000E+00 -0.00000000000E+00 -0.11999815563E+04  0.11999815563E+04  0.00000000000E+00 0. -1.
        -24    2    1    2    0    0  0.66111056817E+03  0.45812243406E+03  0.70681180592E+03  0.10738287997E+04  0.81129613416E+02 0.  0.
    5000000    2    1    2    0    0 -0.66111056817E+03 -0.45812243406E+03 -0.76874058358E+03  0.12642055352E+04  0.60025844633E+03 0.  0.
        -24    2    4    4    0    0 -0.50959592938E+03 -0.27930208900E+03 -0.82394766150E+03  0.10114200293E+04  0.79894046178E+02 0.  0.
         24    2    4    4    0    0 -0.15151463879E+03 -0.17882034506E+03  0.55207077913E+02  0.25278550589E+03  0.76936915443E+02 0.  0.
         13    1    5    5    0    0 -0.19106568346E+03 -0.14092321605E+03 -0.29531231851E+03  0.37891267290E+03  0.00000000000E+00 0. -1.
        -14    1    5    5    0    0 -0.31853024592E+03 -0.13837887295E+03 -0.52863534299E+03  0.63250735640E+03  0.00000000000E+00 0.  1.
         15    1    3    3    0    0  0.40722372696E+03  0.32897118556E+03  0.45164381193E+03  0.69140327979E+03  0.17770000000E+01 0. -1.
        -16    1    3    3    0    0  0.25388684122E+03  0.12915124851E+03  0.25516799399E+03  0.38242551992E+03  0.00000000000E+00 0.  1.
          2    1    6    6  502    0 -0.10084390492E+02 -0.62662312963E+02  0.18664109255E+02  0.66155947365E+02  0.00000000000E+00 0. -1.
         -1    1    6    6    0  502 -0.14143024830E+03 -0.11615803210E+03  0.36542968658E+02  0.18662955852E+03  0.00000000000E+00 0.  1.
<mgrwt>
<rscale>  0 0.81977086E+03</rscale>
<asrwt>0</asrwt>
<pdfrwt beam="1">  1        1 0.18461255E+00 0.81977086E+03</pdfrwt>
<pdfrwt beam="2">  1       -2 0.17508504E+00 0.81977086E+03</pdfrwt>
<totfact> 0.18767258E+00</totfact>
</mgrwt>
</event>
<event>
12    3  0.1092576E-007  0.1138878E+04  0.7818608E-02  0.9168106E-01
         -4   -1    0    0    0  501 -0.00000000000E+00  0.00000000000E+00  0.83444328780E+03  0.83444328780E+03  0.00000000000E+00 0.  1.
          3   -1    0    0  501    0  0.00000000000E+00 -0.00000000000E+00 -0.19728419148E+04  0.19728419148E+04  0.00000000000E+00 0. -1.
        -24    2    1    2    0    0  0.80298653773E+03 -0.69441571193E+03  0.99972046828E+02  0.10692726062E+04  0.79680207862E+02 0.  0.
    5000000    2    1    2    0    0 -0.80298653773E+03  0.69441571193E+03 -0.12383706739E+04  0.17380125964E+04  0.60010440645E+03 0.  0.
        -24    2    4    4    0    0 -0.54835698187E+03  0.93569174516E+02 -0.57410609918E+03  0.80319926528E+03  0.77978693565E+02 0.  0.
         24    2    4    4    0    0 -0.25462955586E+03  0.60084653741E+03 -0.66426457468E+03  0.93481333112E+03  0.82315044979E+02 0.  0.
         11    1    5    5    0    0 -0.14096191616E+03 -0.53095892583E+01 -0.17021072264E+03  0.22106592602E+03  0.00000000000E+00 0. -1.
        -12    1    5    5    0    0 -0.40739506572E+03  0.98878763775E+02 -0.40389537654E+03  0.58213333926E+03  0.00000000000E+00 0.  1.
         15    1    3    3    0    0  0.47802374936E+03 -0.36898224631E+03  0.35951208427E+02  0.60493822012E+03  0.17770000000E+01 0. -1.
        -16    1    3    3    0    0  0.32496278837E+03 -0.32543346562E+03  0.64020838401E+02  0.46433438610E+03  0.00000000000E+00 0.  1.
          2    1    6    6  502    0 -0.11319802230E+03  0.21941214626E+03 -0.30206545625E+03  0.39012693068E+03  0.00000000000E+00 0. -1.
         -1    1    6    6    0  502 -0.14143153356E+03  0.38143439115E+03 -0.36219911843E+03  0.54468640044E+03  0.00000000000E+00 0.  1.
<mgrwt>
<rscale>  0 0.11388779E+04</rscale>
<asrwt>0</asrwt>
<pdfrwt beam="1">  1        3 0.30351414E+00 0.11388779E+04</pdfrwt>
<pdfrwt beam="2">  1       -4 0.12837589E+00 0.11388779E+04</pdfrwt>
<totfact> 0.36239105E-02</totfact>
</mgrwt>
</event>
<event>
12    3  0.1092576E-007  0.3879577E+03  0.7818608E-02  0.1048031E+00
         -2   -1    0    0    0  501 -0.00000000000E+00  0.00000000000E+00  0.66573787363E+02  0.66573787363E+02  0.00000000000E+00 0.  1.
          1   -1    0    0  501    0  0.00000000000E+00 -0.00000000000E+00 -0.28353703792E+04  0.28353703792E+04  0.00000000000E+00 0. -1.
        -24    2    1    2    0    0 -0.17940684600E+03 -0.91154998751E+02 -0.44872058882E+03  0.49709417502E+03  0.72501047054E+02 0.  0.
    5000000    2    1    2    0    0  0.17940684600E+03  0.91154998751E+02 -0.23200760031E+04  0.24048499916E+04  0.60004564146E+03 0.  0.
        -24    2    4    4    0    0  0.11179112285E+03  0.31064355079E+03 -0.85727925638E+03  0.92208421159E+03  0.79466339096E+02 0.  0.
         24    2    4    4    0    0  0.67615723155E+02 -0.21948855204E+03 -0.14627967467E+04  0.14827657800E+04  0.77928978709E+02 0.  0.
         13    1    5    5    0    0 -0.70346766405E+01  0.34028404426E+02 -0.13872355861E+03  0.14300924689E+03  0.00000000000E+00 0. -1.
        -14    1    5    5    0    0  0.11882579949E+03  0.27661514636E+03 -0.71855569777E+03  0.77907496470E+03  0.00000000000E+00 0.  1.
         15    1    3    3    0    0 -0.62555365589E+01  0.41674942056E+00 -0.73829596615E+02  0.74116614083E+02  0.17770000000E+01 0. -1.
        -16    1    3    3    0    0 -0.17315130944E+03 -0.91571748172E+02 -0.37489099220E+03  0.42297756094E+03  0.00000000000E+00 0.  1.
          4    1    6    6  502    0 -0.11508878941E+02 -0.38677904648E+02 -0.15531896624E+03  0.16047559278E+03  0.00000000000E+00 0. -1.
         -3    1    6    6    0  502  0.79124602097E+02 -0.18081064739E+03 -0.13074777804E+04  0.13222901872E+04  0.00000000000E+00 0.  1.
<mgrwt>
<rscale>  0 0.38795774E+03</rscale>
<asrwt>0</asrwt>
<pdfrwt beam="1">  1        1 0.43621076E+00 0.38795774E+03</pdfrwt>
<pdfrwt beam="2">  1       -2 0.10242123E-01 0.38795774E+03</pdfrwt>
<totfact> 0.51160581E+01</totfact>
</mgrwt>
</event>
<event>
12    3  0.1092576E-007  0.8520255E+03  0.7818608E-02  0.9487622E-01
          1   -1    0    0  501    0  0.00000000000E+00  0.00000000000E+00  0.95403928557E+03  0.95403928557E+03  0.00000000000E+00 0. -1.
         -2   -1    0    0    0  501 -0.00000000000E+00 -0.00000000000E+00 -0.86854920034E+03  0.86854920034E+03  0.00000000000E+00 0.  1.
        -24    2    1    2    0    0  0.26925860259E+03  0.69836085532E+03  0.34611799339E+03  0.82852113829E+03  0.80259154846E+02 0.  0.
    5000000    2    1    2    0    0 -0.26925860259E+03 -0.69836085532E+03 -0.26062790816E+03  0.99406734763E+03  0.60002908747E+03 0.  0.
        -24    2    4    4    0    0 -0.18998229749E+03 -0.78887332544E+03 -0.20892008909E+03  0.84170029616E+03  0.79983673174E+02 0.  0.
         24    2    4    4    0    0 -0.79276305099E+02  0.90512470126E+02 -0.51707819069E+02  0.15236705147E+03  0.77876697560E+02 0.  0.
         11    1    5    5    0    0 -0.12390511823E+03 -0.58244146286E+03 -0.18544728812E+03  0.62368359979E+03  0.00000000000E+00 0. -1.
        -12    1    5    5    0    0 -0.66077179255E+02 -0.20643186259E+03 -0.23472800969E+02  0.21801669637E+03  0.00000000000E+00 0.  1.
         15    1    3    3    0    0  0.43575103368E+02  0.14474245467E+03  0.37680088908E+02  0.15579510470E+03  0.17770000000E+01 0. -1.
        -16    1    3    3    0    0  0.22568349922E+03  0.55361840064E+03  0.30843790448E+03  0.67272603359E+03  0.00000000000E+00 0.  1.
          2    1    6    6  502    0  0.12708759042E+02 -0.13809041333E+01 -0.10541365825E+01  0.12826950399E+02  0.00000000000E+00 0. -1.
         -1    1    6    6    0  502 -0.91985064141E+02  0.91893374259E+02 -0.50653682486E+02  0.13954010107E+03  0.00000000000E+00 0.  1.
<mgrwt>
<rscale>  0 0.85202553E+03</rscale>
<asrwt>0</asrwt>
<pdfrwt beam="1">  1        1 0.14677528E+00 0.85202553E+03</pdfrwt>
<pdfrwt beam="2">  1       -2 0.13362295E+00 0.85202553E+03</pdfrwt>
<totfact> 0.59097129E+00</totfact>
</mgrwt>
</event>
<event>
12    3  0.1092576E-007  0.5811501E+03  0.7818608E-02  0.9945304E-01
         -2   -1    0    0    0  501 -0.00000000000E+00  0.00000000000E+00  0.72526445355E+03  0.72526445355E+03  0.00000000000E+00 0.  1.
          1   -1    0    0  501    0  0.00000000000E+00 -0.00000000000E+00 -0.71872890071E+03  0.71872890071E+03  0.00000000000E+00 0. -1.
        -24    2    1    2    0    0 -0.27803492810E+03 -0.41867991997E+03 -0.31408621263E+03  0.59802721659E+03  0.79938139742E+02 0.  0.
    5000000    2    1    2    0    0  0.27803492810E+03  0.41867991997E+03  0.32062176547E+03  0.84596613768E+03  0.60022003713E+03 0.  0.
        -24    2    4    4    0    0  0.22159347385E+03 -0.73822945336E+01  0.33352001429E+03  0.40864145457E+03  0.81203894803E+02 0.  0.
         24    2    4    4    0    0  0.56441454248E+02  0.42606221451E+03 -0.12898248821E+02  0.43732468311E+03  0.79823964111E+02 0.  0.
         11    1    5    5    0    0  0.19762441228E+03 -0.17206302086E+02  0.23881615425E+03  0.31045872622E+03  0.00000000000E+00 0. -1.
        -12    1    5    5    0    0  0.23969061571E+02  0.98240075526E+01  0.94703860048E+02  0.98182728344E+02  0.00000000000E+00 0.  1.
         15    1    3    3    0    0 -0.11050295600E+03 -0.10528528006E+03 -0.78261431845E+02  0.17153397018E+03  0.17770000000E+01 0. -1.
        -16    1    3    3    0    0 -0.16753197210E+03 -0.31339463991E+03 -0.23582478079E+03  0.42649324641E+03  0.00000000000E+00 0.  1.
          2    1    6    6  502    0  0.41294558568E+02  0.25881785661E+03 -0.46182112189E+02  0.26612912458E+03  0.00000000000E+00 0. -1.
         -1    1    6    6    0  502  0.15146895680E+02  0.16724435790E+03  0.33283863368E+02  0.17119555853E+03  0.00000000000E+00 0.  1.
<mgrwt>
<rscale>  0 0.58115011E+03</rscale>
<asrwt>0</asrwt>
<pdfrwt beam="1">  1        1 0.11057368E+00 0.58115011E+03</pdfrwt>
<pdfrwt beam="2">  1       -2 0.11157915E+00 0.58115011E+03</pdfrwt>
<totfact> 0.15132038E+01</totfact>
</mgrwt>
</event>
<event>
12    3  0.1092576E-007  0.6054976E+03  0.7818608E-02  0.9894066E-01
          1   -1    0    0  501    0  0.00000000000E+00  0.00000000000E+00  0.89283931747E+03  0.89283931747E+03  0.00000000000E+00 0. -1.
         -2   -1    0    0    0  501 -0.00000000000E+00 -0.00000000000E+00 -0.50041897684E+03  0.50041897684E+03  0.00000000000E+00 0.  1.
        -24    2    1    2    0    0  0.73085032458E+02 -0.49697033547E+03 -0.18470147489E+02  0.50924022671E+03  0.81630422288E+02 0.  0.
    5000000    2    1    2    0    0 -0.73085032458E+02  0.49697033547E+03  0.41089048811E+03  0.88401806761E+03  0.60027994663E+03 0.  0.
        -24    2    4    4    0    0  0.18455819923E+03  0.34858959027E+03  0.41267661452E+03  0.57636839069E+03  0.79511648608E+02 0.  0.
         24    2    4    4    0    0 -0.25764323169E+03  0.14838074520E+03 -0.17861264083E+01  0.30764967692E+03  0.79045892230E+02 0.  0.
         13    1    5    5    0    0  0.11475489237E+03  0.19010761389E+03  0.17733170568E+03  0.28417622001E+03  0.00000000000E+00 0. -1.
        -14    1    5    5    0    0  0.69803306862E+02  0.15848197638E+03  0.23534490885E+03  0.29219217068E+03  0.00000000000E+00 0.  1.
         15    1    3    3    0    0 -0.13651183507E+02 -0.14449628693E+03  0.73282941701E+01  0.14533545119E+03  0.17770000000E+01 0. -1.
        -16    1    3    3    0    0  0.86736215964E+02 -0.35247404854E+03 -0.25798441659E+02  0.36390477552E+03  0.00000000000E+00 0.  1.
          2    1    6    6  502    0 -0.48753775498E+02 -0.42138421364E+01  0.10026538439E+01  0.48945810910E+02  0.00000000000E+00 0. -1.
         -1    1    6    6    0  502 -0.20888945619E+03  0.15259458733E+03 -0.27887802522E+01  0.25870386601E+03  0.00000000000E+00 0.  1.
<mgrwt>
<rscale>  0 0.60549758E+03</rscale>
<asrwt>0</asrwt>
<pdfrwt beam="1">  1        1 0.13735989E+00 0.60549758E+03</pdfrwt>
<pdfrwt beam="2">  1       -2 0.76987535E-01 0.60549758E+03</pdfrwt>
<totfact> 0.25277227E+01</totfact>
</mgrwt>
</event>
<event>
12    3  0.1092576E-007  0.5983779E+03  0.7818608E-02  0.9908777E-01
         -4   -1    0    0    0  501 -0.00000000000E+00  0.00000000000E+00  0.21857777109E+03  0.21857777109E+03  0.00000000000E+00 0.  1.
          1   -1    0    0  501    0  0.00000000000E+00 -0.00000000000E+00 -0.19855615302E+04  0.19855615302E+04  0.00000000000E+00 0. -1.
        -24    2    1    2    0    0  0.51581147857E+03 -0.18500546190E+02 -0.78531749118E+03  0.94318340043E+03  0.80421472638E+02 0.  0.
    5000000    2    1    2    0    0 -0.51581147857E+03  0.18500546190E+02 -0.98166626795E+03  0.12609559009E+04  0.59994780665E+03 0.  0.
        -24    2    4    4    0    0 -0.57083084007E+03 -0.22488471192E+02 -0.48816172229E+03  0.75602501932E+03  0.83176820188E+02 0.  0.
         24    2    4    4    0    0  0.55019361499E+02  0.40989017382E+02 -0.49350454566E+03  0.50493088157E+03  0.81861033994E+02 0.  0.
         13    1    5    5    0    0 -0.55468091624E+03 -0.36042219461E+02 -0.47508511117E+03  0.73121530569E+03  0.00000000000E+00 0. -1.
        -14    1    5    5    0    0 -0.16149923829E+02  0.13553748269E+02 -0.13076611120E+02  0.24809713626E+02  0.00000000000E+00 0.  1.
         15    1    3    3    0    0  0.46400957783E+03 -0.39751202158E+02 -0.68546839084E+03  0.82870689569E+03  0.17770000000E+01 0. -1.
        -16    1    3    3    0    0  0.51801900735E+02  0.21250655968E+02 -0.99849100339E+02  0.11447650474E+03  0.00000000000E+00 0.  1.
          4    1    6    6  502    0 -0.26928647089E+01 -0.16464249233E+02 -0.18867915739E+03  0.18941527778E+03  0.00000000000E+00 0. -1.
         -3    1    6    6    0  502  0.57712226208E+02  0.57453266615E+02 -0.30482538827E+03  0.31551560378E+03  0.00000000000E+00 0.  1.
<mgrwt>
<rscale>  0 0.59837791E+03</rscale>
<asrwt>0</asrwt>
<pdfrwt beam="1">  1        1 0.30547101E+00 0.59837791E+03</pdfrwt>
<pdfrwt beam="2">  1       -4 0.33627349E-01 0.59837791E+03</pdfrwt>
<totfact> 0.13393800E+01</totfact>
</mgrwt>
</event>
<event>
12    3  0.1092576E-007  0.5075229E+03  0.7818608E-02  0.1011834E+00
          1   -1    0    0  501    0  0.00000000000E+00  0.00000000000E+00  0.76755668834E+03  0.76755668834E+03  0.00000000000E+00 0. -1.
         -2   -1    0    0    0  501 -0.00000000000E+00 -0.00000000000E+00 -0.39564843057E+03  0.39564843057E+03  0.00000000000E+00 0.  1.
        -24    2    1    2    0    0 -0.79446662206E+02  0.36420906083E+03  0.22243187305E+03  0.44118119952E+03  0.78771191015E+02 0.  0.
    5000000    2    1    2    0    0  0.79446662206E+02 -0.36420906083E+03  0.14947638472E+03  0.72202391939E+03  0.60001278191E+03 0.  0.
        -24    2    4    4    0    0 -0.87901534489E+02 -0.43136547750E+03  0.23662245088E+03  0.50577796351E+03  0.77577762093E+02 0.  0.
         24    2    4    4    0    0  0.16734819670E+03  0.67156416668E+02 -0.87146066154E+02  0.21624595588E+03  0.81562695821E+02 0.  0.
         11    1    5    5    0    0 -0.96684665046E+02 -0.31130751543E+03  0.16045881476E+03  0.36332812285E+03  0.00000000000E+00 0. -1.
        -12    1    5    5    0    0  0.87831305565E+01 -0.12005796208E+03  0.76163636115E+02  0.14244984067E+03  0.00000000000E+00 0.  1.
         15    1    3    3    0    0 -0.22822391657E+02  0.17104537553E+03  0.14538110367E+03  0.22564619448E+03  0.17770000000E+01 0. -1.
        -16    1    3    3    0    0 -0.56624270549E+02  0.19316368531E+03  0.77050769381E+02  0.21553500504E+03  0.00000000000E+00 0.  1.
          2    1    6    6  502    0  0.80667705833E+02  0.71842595471E+02 -0.29278732036E+02  0.11191908433E+03  0.00000000000E+00 0. -1.
         -1    1    6    6    0  502  0.86680490863E+02 -0.46861788026E+01 -0.57867334119E+02  0.10432687154E+03  0.00000000000E+00 0.  1.
<mgrwt>
<rscale>  0 0.50752288E+03</rscale>
<asrwt>0</asrwt>
<pdfrwt beam="1">  1        1 0.11808564E+00 0.50752288E+03</pdfrwt>
<pdfrwt beam="2">  1       -2 0.60868990E-01 0.50752288E+03</pdfrwt>
<totfact> 0.54196897E+01</totfact>
</mgrwt>
</event>
<event>
12    3  0.1092576E-007  0.7844629E+03  0.7818608E-02  0.9582783E-01
         -2   -1    0    0    0  501 -0.00000000000E+00  0.00000000000E+00  0.64205739979E+03  0.64205739979E+03  0.00000000000E+00 0.  1.
          1   -1    0    0  501    0  0.00000000000E+00 -0.00000000000E+00 -0.12283105918E+04  0.12283105918E+04  0.00000000000E+00 0. -1.
        -24    2    1    2    0    0 -0.26277584520E+03  0.73273321983E+03 -0.36768604562E+03  0.86347516632E+03  0.66687468323E+02 0.  0.
    5000000    2    1    2    0    0  0.26277584520E+03 -0.73273321983E+03 -0.21856714634E+03  0.10068928252E+04  0.60009369916E+03 0.  0.
        -24    2    4    4    0    0  0.15491399209E+03 -0.38380445107E+03  0.18237394540E+03  0.45923710948E+03  0.79588096834E+02 0.  0.
         24    2    4    4    0    0  0.10786185311E+03 -0.34892876876E+03 -0.40094109173E+03  0.54765571575E+03  0.76076007541E+02 0.  0.
         13    1    5    5    0    0  0.33535743633E+02 -0.27775312094E+02  0.32465062773E+02  0.54314771138E+02  0.00000000000E+00 0. -1.
        -14    1    5    5    0    0  0.12137824845E+03 -0.35602913898E+03  0.14990888262E+03  0.40492233834E+03  0.00000000000E+00 0.  1.
         15    1    3    3    0    0 -0.12396802302E+03  0.29252544478E+03 -0.18034946482E+03  0.36533312711E+03  0.17770000000E+01 0. -1.
        -16    1    3    3    0    0 -0.13880782218E+03  0.44020777506E+03 -0.18733658080E+03  0.49814203921E+03  0.00000000000E+00 0.  1.
          2    1    6    6  502    0  0.27520491524E+02 -0.18873358813E+03 -0.17130266678E+03  0.25636370333E+03  0.00000000000E+00 0. -1.
         -3    1    6    6    0  502  0.80341361588E+02 -0.16019518063E+03 -0.22963842496E+03  0.29129201241E+03  0.00000000000E+00 0.  1.
<mgrwt>
<rscale>  0 0.78446286E+03</rscale>
<asrwt>0</asrwt>
<pdfrwt beam="1">  1        1 0.18897086E+00 0.78446286E+03</pdfrwt>
<pdfrwt beam="2">  1       -2 0.98778062E-01 0.78446286E+03</pdfrwt>
<totfact> 0.77769446E+00</totfact>
</mgrwt>
</event>
<event>
12    3  0.1092576E-007  0.7176833E+03  0.7818608E-02  0.9687460E-01
          1   -1    0    0  501    0  0.00000000000E+00  0.00000000000E+00  0.26155855942E+04  0.26155855942E+04  0.00000000000E+00 0. -1.
         -2   -1    0    0    0  501 -0.00000000000E+00 -0.00000000000E+00 -0.29979131734E+03  0.29979131734E+03  0.00000000000E+00 0.  1.
        -24    2    1    2    0    0 -0.63662697097E+03 -0.24225202803E+03  0.16585256828E+04  0.17946578794E+04  0.78163407486E+02 0.  0.
    5000000    2    1    2    0    0  0.63662697097E+03  0.24225202803E+03  0.65726859401E+03  0.11207190321E+04  0.60002433202E+03 0.  0.
        -24    2    4    4    0    0  0.61056103104E+02  0.12960772679E+03 -0.74490429631E+02  0.17960140132E+03  0.78624606077E+02 0.  0.
         24    2    4    4    0    0  0.57557086787E+03  0.11264430124E+03  0.73175902364E+03  0.94111763080E+03  0.79123724447E+02 0.  0.
         13    1    5    5    0    0  0.77317252710E+02  0.11339495852E+03 -0.75452281713E+02  0.15661871216E+03  0.00000000000E+00 0. -1.
        -14    1    5    5    0    0 -0.16261149607E+02  0.16212768273E+02  0.96185208228E+00  0.22982689160E+02  0.00000000000E+00 0.  1.
         15    1    3    3    0    0 -0.33996864396E+03 -0.17082460736E+03  0.91402569432E+03  0.99005345965E+03  0.17770000000E+01 0. -1.
        -16    1    3    3    0    0 -0.29665832701E+03 -0.71427420671E+02  0.74449998851E+03  0.80460441976E+03  0.00000000000E+00 0.  1.
          4    1    6    6  502    0  0.46850235301E+03  0.11515512639E+03  0.56530001736E+03  0.74318185361E+03  0.00000000000E+00 0. -1.
         -3    1    6    6    0  502  0.10706851486E+03 -0.25108251445E+01  0.16645900628E+03  0.19793577718E+03  0.00000000000E+00 0.  1.
<mgrwt>
<rscale>  0 0.71768325E+03</rscale>
<asrwt>0</asrwt>
<pdfrwt beam="1">  1        1 0.40239777E+00 0.71768325E+03</pdfrwt>
<pdfrwt beam="2">  1       -2 0.46121743E-01 0.71768325E+03</pdfrwt>
<totfact> 0.46824120E+00</totfact>
</mgrwt>
</event>
<event>
12    3  0.1092576E-007  0.5661389E+03  0.7818608E-02  0.9978259E-01
         -2   -1    0    0    0  501 -0.00000000000E+00  0.00000000000E+00  0.92428914720E+03  0.92428914720E+03  0.00000000000E+00 0.  1.
          1   -1    0    0  501    0  0.00000000000E+00 -0.00000000000E+00 -0.84809960746E+03  0.84809960746E+03  0.00000000000E+00 0. -1.
        -24    2    1    2    0    0 -0.41615175936E+03  0.96822018319E+02 -0.62106429712E+03  0.75817941835E+03  0.80983820612E+02 0.  0.
    5000000    2    1    2    0    0  0.41615175936E+03 -0.96822018319E+02  0.69725383686E+03  0.10142093363E+04  0.59991738998E+03 0.  0.
        -24    2    4    4    0    0  0.18880801069E+03 -0.31283608456E+03  0.53302619794E+03  0.65133693386E+03  0.81289562769E+02 0.  0.
         24    2    4    4    0    0  0.22734374867E+03  0.21601406624E+03  0.16422763892E+03  0.36287240245E+03  0.79739615016E+02 0.  0.
         13    1    5    5    0    0  0.99474466141E+02 -0.91347022351E+02  0.20806263210E+03  0.24805141964E+03  0.00000000000E+00 0. -1.
        -14    1    5    5    0    0  0.89333544553E+02 -0.22148906221E+03  0.32496356584E+03  0.40328551422E+03  0.00000000000E+00 0.  1.
         15    1    3    3    0    0 -0.28383720558E+03  0.10403971717E+03 -0.42631418817E+03  0.52262296810E+03  0.17770000000E+01 0. -1.
        -16    1    3    3    0    0 -0.13231455378E+03 -0.72176988486E+01 -0.19475010894E+03  0.23555645024E+03  0.00000000000E+00 0.  1.
          4    1    6    6  502    0  0.14303881119E+03  0.80934162050E+02  0.84413575951E+02  0.18475955157E+03  0.00000000000E+00 0. -1.
         -3    1    6    6    0  502  0.84304937477E+02  0.13507990419E+03  0.79814062965E+02  0.17811285087E+03  0.00000000000E+00 0.  1.
<mgrwt>
<rscale>  0 0.56613893E+03</rscale>
<asrwt>0</asrwt>
<pdfrwt beam="1">  1        1 0.13047686E+00 0.56613893E+03</pdfrwt>
<pdfrwt beam="2">  1       -2 0.14219833E+00 0.56613893E+03</pdfrwt>
<totfact> 0.63824704E+00</totfact>
</mgrwt>
</event>
<event>
12    3  0.1092576E-007  0.7143534E+03  0.7818608E-02  0.9692996E-01
         -2   -1    0    0    0  501 -0.00000000000E+00  0.00000000000E+00  0.43080660576E+03  0.43080660576E+03  0.00000000000E+00 0.  1.
          1   -1    0    0  501    0  0.00000000000E+00 -0.00000000000E+00 -0.16022101433E+04  0.16022101433E+04  0.00000000000E+00 0. -1.
        -24    2    1    2    0    0  0.21101154992E+02  0.69664320274E+03 -0.73223736419E+03  0.10138434026E+04  0.77135444711E+02 0.  0.
    5000000    2    1    2    0    0 -0.21101154992E+02 -0.69664320274E+03 -0.43916617338E+03  0.10191733465E+04  0.60007530500E+03 0.  0.
        -24    2    4    4    0    0 -0.94592028568E+02 -0.28836948295E+03  0.10430568842E+03  0.33007675269E+03  0.77242316536E+02 0.  0.
         24    2    4    4    0    0  0.73490873576E+02 -0.40827371979E+03 -0.54347186180E+03  0.68909659379E+03  0.86047151258E+02 0.  0.
         13    1    5    5    0    0 -0.17315280531E+02 -0.16691522136E+03  0.71637948261E+02  0.18246234047E+03  0.00000000000E+00 0. -1.
        -14    1    5    5    0    0 -0.77276748037E+02 -0.12145426159E+03  0.32667740155E+02  0.14761441221E+03  0.00000000000E+00 0.  1.
         15    1    3    3    0    0 -0.19523845977E+02  0.40791933766E+03 -0.39705278840E+03  0.56959059078E+03  0.17770000000E+01 0. -1.
        -16    1    3    3    0    0  0.40625000969E+02  0.28872386508E+03 -0.33518457579E+03  0.44425281183E+03  0.00000000000E+00 0.  1.
          2    1    6    6  502    0  0.32467866274E+02 -0.82857553061E+02 -0.70533440349E+02  0.11355396359E+03  0.00000000000E+00 0. -1.
         -1    1    6    6    0  502  0.41023007302E+02 -0.32541616673E+03 -0.47293842145E+03  0.57554263020E+03  0.00000000000E+00 0.  1.
<mgrwt>
<rscale>  0 0.71435340E+03</rscale>
<asrwt>0</asrwt>
<pdfrwt beam="1">  1        1 0.24649387E+00 0.71435340E+03</pdfrwt>
<pdfrwt beam="2">  1       -2 0.66277940E-01 0.71435340E+03</pdfrwt>
<totfact> 0.10615727E+01</totfact>
</mgrwt>
</event>
<event>
12    3  0.1092576E-007  0.1163839E+04  0.7818608E-02  0.9145111E-01
          1   -1    0    0  501    0  0.00000000000E+00  0.00000000000E+00  0.29521886463E+04  0.29521886463E+04  0.00000000000E+00 0. -1.
         -2   -1    0    0    0  501 -0.00000000000E+00 -0.00000000000E+00 -0.50945647662E+03  0.50945647662E+03  0.00000000000E+00 0.  1.
        -24    2    1    2    0    0  0.86060603484E+03  0.73999135520E+03  0.14236431802E+04  0.18224950335E+04  0.80611969140E+02 0.  0.
    5000000    2    1    2    0    0 -0.86060603484E+03 -0.73999135520E+03  0.10190889894E+04  0.16391500894E+04  0.60003391088E+03 0.  0.
        -24    2    4    4    0    0 -0.27063358990E+02 -0.18763808337E+03  0.42712603321E+03  0.47436331586E+03  0.81507247856E+02 0.  0.
         24    2    4    4    0    0 -0.83354267585E+03 -0.55235327183E+03  0.59196295620E+03  0.11647867735E+04  0.80128377631E+02 0.  0.
         11    1    5    5    0    0 -0.24819147229E+02 -0.14030286805E+03  0.22166079561E+03  0.26350406669E+03  0.00000000000E+00 0. -1.
        -12    1    5    5    0    0 -0.22442117609E+01 -0.47335215318E+02  0.20546523760E+03  0.21085924916E+03  0.00000000000E+00 0.  1.
         15    1    3    3    0    0  0.30770598209E+03  0.31631775712E+03  0.55014835073E+03  0.70527034563E+03  0.17770000000E+01 0. -1.
        -16    1    3    3    0    0  0.55290005275E+03  0.42367359808E+03  0.87349482952E+03  0.11172246879E+04  0.00000000000E+00 0.  1.
          2    1    6    6  502    0 -0.49248955977E+03 -0.32837309170E+03  0.30437898501E+03  0.66559854293E+03  0.00000000000E+00 0. -1.
         -1    1    6    6    0  502 -0.34105311608E+03 -0.22398018013E+03  0.28758397119E+03  0.49918823059E+03  0.00000000000E+00 0.  1.
<mgrwt>
<rscale>  0 0.11638388E+04</rscale>
<asrwt>0</asrwt>
<pdfrwt beam="1">  1        1 0.45418286E+00 0.11638388E+04</pdfrwt>
<pdfrwt beam="2">  1       -2 0.78377921E-01 0.11638388E+04</pdfrwt>
<totfact> 0.82254578E-01</totfact>
</mgrwt>
</event>
<event>
12    3  0.1092576E-007  0.7304984E+03  0.7818608E-02  0.9666452E-01
          1   -1    0    0  501    0  0.00000000000E+00  0.00000000000E+00  0.14165927789E+04  0.14165927789E+04  0.00000000000E+00 0. -1.
         -2   -1    0    0    0  501 -0.00000000000E+00 -0.00000000000E+00 -0.47695995622E+03  0.47695995622E+03  0.00000000000E+00 0.  1.
        -24    2    1    2    0    0 -0.37424475316E+03 -0.52135657764E+03  0.60805247382E+02  0.65090551206E+03  0.90049382030E+02 0.  0.
    5000000    2    1    2    0    0  0.37424475316E+03  0.52135657764E+03  0.87882757532E+03  0.12426472231E+04  0.59996866382E+03 0.  0.
        -24    2    4    4    0    0  0.50429051153E+02  0.47387078711E+03  0.72744540325E+03  0.87329568928E+03  0.79824395636E+02 0.  0.
         24    2    4    4    0    0  0.32381570200E+03  0.47485790536E+02  0.15138217208E+03  0.36935153380E+03  0.79953013260E+02 0.  0.
         13    1    5    5    0    0  0.26108018111E+01  0.35395311066E+03  0.54166693187E+03  0.64706466903E+03  0.00000000000E+00 0. -1.
        -14    1    5    5    0    0  0.47818249342E+02  0.11991767645E+03  0.18577847138E+03  0.22623102025E+03  0.00000000000E+00 0.  1.
         15    1    3    3    0    0 -0.19928018748E+03 -0.22695307346E+03 -0.54672629918E+01  0.30208167665E+03  0.17770000000E+01 0. -1.
        -16    1    3    3    0    0 -0.17496456568E+03 -0.29440350419E+03  0.66272510374E+02  0.34882383541E+03  0.00000000000E+00 0.  1.
          4    1    6    6  502    0  0.17137420849E+03  0.57232821061E+02  0.55545610607E+02  0.18902388738E+03  0.00000000000E+00 0. -1.
         -3    1    6    6    0  502  0.15244149352E+03 -0.97470305249E+01  0.95836561471E+02  0.18032764642E+03  0.00000000000E+00 0.  1.
<mgrwt>
<rscale>  0 0.73049839E+03</rscale>
<asrwt>0</asrwt>
<pdfrwt beam="1">  1        1 0.21793735E+00 0.73049839E+03</pdfrwt>
<pdfrwt beam="2">  1       -2 0.73378456E-01 0.73049839E+03</pdfrwt>
<totfact> 0.11363877E+01</totfact>
</mgrwt>
</event>
<event>
12    3  0.1092576E-007  0.1832995E+04  0.7818608E-02  0.8688948E-01
         -2   -1    0    0    0  501 -0.00000000000E+00  0.00000000000E+00  0.27719267372E+04  0.27719267372E+04  0.00000000000E+00 0.  1.
          1   -1    0    0  501    0  0.00000000000E+00 -0.00000000000E+00 -0.12407991253E+04  0.12407991253E+04  0.00000000000E+00 0. -1.
        -24    2    1    2    0    0 -0.17959562449E+04 -0.16664579713E+03  0.82928519405E+03  0.19864362033E+04  0.70605957378E+02 0.  0.
    5000000    2    1    2    0    0  0.17959562449E+04  0.16664579713E+03  0.70184241782E+03  0.20262896593E+04  0.60003112288E+03 0.  0.
        -24    2    4    4    0    0  0.13116555722E+03  0.13222651034E+03  0.19896460138E+03  0.28504236664E+03  0.83510387025E+02 0.  0.
         24    2    4    4    0    0  0.16647906877E+04  0.34419286794E+02  0.50287781644E+03  0.17412472926E+04  0.79644928560E+02 0.  0.
         11    1    5    5    0    0  0.87518064096E+02  0.44052002514E+02  0.60397931281E+02  0.11509952464E+03  0.00000000000E+00 0. -1.
        -12    1    5    5    0    0  0.43647493120E+02  0.88174507825E+02  0.13856667009E+03  0.16994284200E+03  0.00000000000E+00 0.  1.
         15    1    3    3    0    0 -0.13647057458E+04 -0.14949933707E+03  0.60912350014E+03  0.15019342265E+04  0.17770000000E+01 0. -1.
        -16    1    3    3    0    0 -0.43125049909E+03 -0.17146460064E+02  0.22016169391E+03  0.48450197680E+03  0.00000000000E+00 0.  1.
          2    1    6    6  502    0  0.13204298964E+04  0.30123628864E+02  0.43212352270E+03  0.13896666087E+04  0.00000000000E+00 0. -1.
         -1    1    6    6    0  502  0.34436079128E+03  0.42956579296E+01  0.70754293737E+02  0.35158068395E+03  0.00000000000E+00 0.  1.
<mgrwt>
<rscale>  0 0.18329946E+04</rscale>
<asrwt>0</asrwt>
<pdfrwt beam="1">  1        1 0.19089217E+00 0.18329946E+04</pdfrwt>
<pdfrwt beam="2">  1       -2 0.42645026E+00 0.18329946E+04</pdfrwt>
<totfact> 0.39634235E-02</totfact>
</mgrwt>
</event>
<event>
12    3  0.1092576E-007  0.7209650E+03  0.7818608E-02  0.9682036E-01
         -2   -1    0    0    0  501 -0.00000000000E+00  0.00000000000E+00  0.31780633603E+03  0.31780633603E+03  0.00000000000E+00 0.  1.
          1   -1    0    0  501    0  0.00000000000E+00 -0.00000000000E+00 -0.25108314638E+04  0.25108314638E+04  0.00000000000E+00 0. -1.
        -24    2    1    2    0    0  0.45791498630E+03 -0.54419788237E+03 -0.15203120798E+04  0.16803385767E+04  0.79695937297E+02 0.  0.
    5000000    2    1    2    0    0 -0.45791498630E+03  0.54419788237E+03 -0.67271304797E+03  0.11482992232E+04  0.60017563357E+03 0.  0.
        -24    2    4    4    0    0 -0.13480985941E+03  0.11455422195E+03  0.88783947315E+02  0.21440436450E+03  0.82403120421E+02 0.  0.
         24    2    4    4    0    0 -0.32310512689E+03  0.42964366042E+03 -0.76149699529E+03  0.93389485866E+03  0.57370159701E+02 0.  0.
         11    1    5    5    0    0 -0.38134031697E+02  0.81678397656E+02  0.60097116022E+02  0.10833848980E+03  0.00000000000E+00 0. -1.
        -12    1    5    5    0    0 -0.96675827713E+02  0.32875824291E+02  0.28686831294E+02  0.10606587470E+03  0.00000000000E+00 0.  1.
         15    1    3    3    0    0  0.10976855493E+03 -0.14853641783E+03 -0.47594367487E+03  0.51052692627E+03  0.17770000000E+01 0. -1.
        -16    1    3    3    0    0  0.34814643137E+03 -0.39566146454E+03 -0.10443684049E+04  0.11698116504E+04  0.00000000000E+00 0.  1.
          4    1    6    6  502    0 -0.90055194290E+02  0.13497446841E+03 -0.18849509465E+03  0.24871358195E+03  0.00000000000E+00 0. -1.
         -3    1    6    6    0  502 -0.23304993260E+03  0.29466919201E+03 -0.57300190064E+03  0.68518127670E+03  0.00000000000E+00 0.  1.
<mgrwt>
<rscale>  0 0.72096502E+03</rscale>
<asrwt>0</asrwt>
<pdfrwt beam="1">  1        1 0.38628174E+00 0.72096502E+03</pdfrwt>
<pdfrwt beam="2">  1       -2 0.48893285E-01 0.72096502E+03</pdfrwt>
<totfact> 0.49087616E+00</totfact>
</mgrwt>
</event>
<event>
12    3  0.1092576E-007  0.8208797E+03  0.7818608E-02  0.9530277E-01
         -2   -1    0    0    0  501 -0.00000000000E+00  0.00000000000E+00  0.37029105363E+03  0.37029105363E+03  0.00000000000E+00 0.  1.
          1   -1    0    0  501    0  0.00000000000E+00 -0.00000000000E+00 -0.19483801929E+04  0.19483801929E+04  0.00000000000E+00 0. -1.
        -24    2    1    2    0    0 -0.57953691979E+03 -0.42192412339E+03 -0.43607343958E+03  0.84284160477E+03  0.79617326821E+02 0.  0.
    5000000    2    1    2    0    0  0.57953691979E+03  0.42192412339E+03 -0.11420156997E+04  0.14758296418E+04  0.59999188818E+03 0.  0.
        -24    2    4    4    0    0 -0.69762382325E+02  0.22960165404E+03 -0.32016916746E+03  0.40791394682E+03  0.79383768465E+02 0.  0.
         24    2    4    4    0    0  0.64929930211E+03  0.19232246935E+03 -0.82184653223E+03  0.10679156949E+04  0.80216538338E+02 0.  0.
         13    1    5    5    0    0 -0.36668471580E+02  0.41440370028E+02 -0.11468715696E+03  0.12733823089E+03  0.00000000000E+00 0. -1.
        -14    1    5    5    0    0 -0.33093910745E+02  0.18816128402E+03 -0.20548201050E+03  0.28057571593E+03  0.00000000000E+00 0.  1.
         15    1    3    3    0    0 -0.10190365060E+03 -0.89639591531E+02 -0.11730095655E+03  0.17939420981E+03  0.17770000000E+01 0. -1.
        -16    1    3    3    0    0 -0.47763326918E+03 -0.33228453186E+03 -0.31877248303E+03  0.66344739496E+03  0.00000000000E+00 0.  1.
          4    1    6    6  502    0  0.15099103779E+02  0.92318969495E+01 -0.64899584182E+01  0.18850209985E+02  0.00000000000E+00 0. -1.
         -3    1    6    6    0  502  0.63420019833E+03  0.18309057240E+03 -0.81535657381E+03  0.10490654850E+04  0.00000000000E+00 0.  1.
<mgrwt>
<rscale>  0 0.82087975E+03</rscale>
<asrwt>0</asrwt>
<pdfrwt beam="1">  1        1 0.29975079E+00 0.82087975E+03</pdfrwt>
<pdfrwt beam="2">  1       -2 0.56967855E-01 0.82087975E+03</pdfrwt>
<totfact> 0.84438713E+00</totfact>
</mgrwt>
</event>
<event>
12    3  0.1092576E-007  0.9058057E+03  0.7818608E-02  0.9418353E-01
         -4   -1    0    0    0  501 -0.00000000000E+00  0.00000000000E+00  0.13581021969E+04  0.13581021969E+04  0.00000000000E+00 0.  1.
          1   -1    0    0  501    0  0.00000000000E+00 -0.00000000000E+00 -0.69099310914E+03  0.69099310914E+03  0.00000000000E+00 0. -1.
        -24    2    1    2    0    0  0.57359198069E+03 -0.64123586150E+03  0.46372424833E+03  0.98069499526E+03  0.80816488779E+02 0.  0.
    5000000    2    1    2    0    0 -0.57359198069E+03  0.64123586150E+03  0.20338483944E+03  0.10684003108E+04  0.59993553052E+03 0.  0.
        -24    2    4    4    0    0 -0.52190044970E+03  0.30150490948E+03 -0.82914256281E+02  0.61393848788E+03  0.82221670918E+02 0.  0.
         24    2    4    4    0    0 -0.51691530983E+02  0.33973095202E+03  0.28629909572E+03  0.45446182290E+03  0.80493739679E+02 0.  0.
         13    1    5    5    0    0 -0.38519994862E+03  0.23162971931E+03 -0.26088950821E+02  0.45023545023E+03  0.00000000000E+00 0. -1.
        -14    1    5    5    0    0 -0.13670050108E+03  0.69875190167E+02 -0.56825305460E+02  0.16370303766E+03  0.00000000000E+00 0.  1.
         15    1    3    3    0    0  0.26041140072E+03 -0.23335899411E+03  0.17706022882E+03  0.39194897642E+03  0.17770000000E+01 0. -1.
        -16    1    3    3    0    0  0.31318057997E+03 -0.40787686740E+03  0.28666401951E+03  0.58874601884E+03  0.00000000000E+00 0.  1.
          2    1    6    6  502    0 -0.54118711118E+02  0.33527883251E+03  0.29123097408E+03  0.44738821026E+03  0.00000000000E+00 0. -1.
         -1    1    6    6    0  502  0.24271801354E+01  0.44521195178E+01 -0.49318783597E+01  0.70736126389E+01  0.00000000000E+00 0.  1.
<mgrwt>
<rscale>  0 0.90580567E+03</rscale>
<asrwt>0</asrwt>
<pdfrwt beam="1">  1        1 0.10630663E+00 0.90580567E+03</pdfrwt>
<pdfrwt beam="2">  1       -4 0.20893880E+00 0.90580567E+03</pdfrwt>
<totfact> 0.15236323E+00</totfact>
</mgrwt>
</event>
<event>
12    3  0.1092576E-007  0.6484706E+03  0.7818608E-02  0.9809653E-01
         -2   -1    0    0    0  501 -0.00000000000E+00  0.00000000000E+00  0.23781266529E+03  0.23781266529E+03  0.00000000000E+00 0.  1.
          1   -1    0    0  501    0  0.00000000000E+00 -0.00000000000E+00 -0.25551733972E+04  0.25551733972E+04  0.00000000000E+00 0. -1.
        -24    2    1    2    0    0  0.51054697527E+03 -0.17613789076E+02 -0.23756079079E+03  0.56889436399E+03  0.78975999752E+02 0.  0.
    5000000    2    1    2    0    0 -0.51054697527E+03  0.17613789076E+02 -0.20797999411E+04  0.22240916985E+04  0.60003968931E+03 0.  0.
        -24    2    4    4    0    0 -0.63332466059E+03  0.24749027481E+01 -0.17529758158E+04  0.18656125045E+04  0.80495685248E+02 0.  0.
         24    2    4    4    0    0  0.12277768532E+03  0.15138886328E+02 -0.32682412524E+03  0.35847919392E+03  0.79936085368E+02 0.  0.
         13    1    5    5    0    0 -0.50949519266E+03  0.62870356475E+01 -0.14946674079E+04  0.15791312607E+04  0.00000000000E+00 0. -1.
        -14    1    5    5    0    0 -0.12382946793E+03 -0.38121328994E+01 -0.25830840794E+03  0.28648124388E+03  0.00000000000E+00 0.  1.
         15    1    3    3    0    0  0.12147766644E+03 -0.36778057268E+02 -0.68629940058E+02  0.14430064221E+03  0.17770000000E+01 0. -1.
        -16    1    3    3    0    0  0.38906930883E+03  0.19164268192E+02 -0.16893085073E+03  0.42459372178E+03  0.00000000000E+00 0.  1.
          2    1    6    6  502    0  0.89859969027E+02  0.46846027360E+02 -0.21548554046E+03  0.23812472039E+03  0.00000000000E+00 0. -1.
         -1    1    6    6    0  502  0.32917716291E+02 -0.31707141033E+02 -0.11133858478E+03  0.12035447354E+03  0.00000000000E+00 0.  1.
<mgrwt>
<rscale>  0 0.64847056E+03</rscale>
<asrwt>0</asrwt>
<pdfrwt beam="1">  1        1 0.39310358E+00 0.64847056E+03</pdfrwt>
<pdfrwt beam="2">  1       -2 0.36586565E-01 0.64847056E+03</pdfrwt>
<totfact> 0.82111925E+00</totfact>
</mgrwt>
</event>
<event>
12    3  0.1092576E-007  0.4715207E+03  0.7818608E-02  0.1021492E+00
          1   -1    0    0  501    0  0.00000000000E+00  0.00000000000E+00  0.43069043717E+03  0.43069043717E+03  0.00000000000E+00 0. -1.
         -2   -1    0    0    0  501 -0.00000000000E+00 -0.00000000000E+00 -0.98824575506E+03  0.98824575506E+03  0.00000000000E+00 0.  1.
        -24    2    1    2    0    0 -0.15986278800E+03  0.25543151260E+03 -0.66918155402E+03  0.73814869134E+03  0.79108594149E+02 0.  0.
    5000000    2    1    2    0    0  0.15986278800E+03 -0.25543151260E+03  0.11162623613E+03  0.68078750089E+03  0.60017483800E+03 0.  0.
        -24    2    4    4    0    0 -0.11903289929E+03  0.10154719637E+03 -0.66191070276E+02  0.18724119778E+03  0.78723212330E+02 0.  0.
         24    2    4    4    0    0  0.27889568729E+03 -0.35697870897E+03  0.17781730641E+03  0.49354630311E+03  0.82172719401E+02 0.  0.
         13    1    5    5    0    0 -0.31954289008E+02  0.75173372625E+02 -0.15675556451E+02  0.83173527085E+02  0.00000000000E+00 0. -1.
        -14    1    5    5    0    0 -0.87078610281E+02  0.26373823742E+02 -0.50515513825E+02  0.10406767070E+03  0.00000000000E+00 0.  1.
         15    1    3    3    0    0 -0.11242878428E+03  0.10537902656E+03 -0.33880438461E+03  0.37220496979E+03  0.17770000000E+01 0. -1.
        -16    1    3    3    0    0 -0.47434003714E+02  0.15005248604E+03 -0.33037716941E+03  0.36594372155E+03  0.00000000000E+00 0.  1.
          2    1    6    6  502    0  0.17025288212E+03 -0.15840722183E+03  0.70179256396E+02  0.24290743057E+03  0.00000000000E+00 0. -1.
         -1    1    6    6    0  502  0.10864280517E+03 -0.19857148714E+03  0.10763805001E+03  0.25063887254E+03  0.00000000000E+00 0.  1.
<mgrwt>
<rscale>  0 0.47152065E+03</rscale>
<asrwt>0</asrwt>
<pdfrwt beam="1">  1        1 0.66260068E-01 0.47152065E+03</pdfrwt>
<pdfrwt beam="2">  1       -2 0.15203781E+00 0.47152065E+03</pdfrwt>
<totfact> 0.14447715E+01</totfact>
</mgrwt>
</event>
<event>
12    3  0.1092576E-007  0.1260036E+04  0.7818608E-02  0.9061872E-01
         -2   -1    0    0    0  501 -0.00000000000E+00  0.00000000000E+00  0.75837974698E+03  0.75837974698E+03  0.00000000000E+00 0.  1.
          1   -1    0    0  501    0  0.00000000000E+00 -0.00000000000E+00 -0.25047249531E+04  0.25047249531E+04  0.00000000000E+00 0. -1.
        -24    2    1    2    0    0  0.11556796177E+04  0.46329200082E+03 -0.34532204056E+03  0.12950773191E+04  0.87994851543E+02 0.  0.
    5000000    2    1    2    0    0 -0.11556796177E+04 -0.46329200082E+03 -0.14010231655E+04  0.19680273810E+04  0.60002583708E+03 0.  0.
        -24    2    4    4    0    0 -0.33217560052E+03 -0.25571876733E+03 -0.14629231616E+03  0.45114237174E+03  0.79970496207E+02 0.  0.
         24    2    4    4    0    0 -0.82350401717E+03 -0.20757323349E+03 -0.12547308494E+04  0.15168850093E+04  0.73110282022E+02 0.  0.
         11    1    5    5    0    0 -0.10265915877E+03 -0.38748799037E+02 -0.23130759156E+02  0.11214011024E+03  0.00000000000E+00 0. -1.
        -12    1    5    5    0    0 -0.22951644175E+03 -0.21696996829E+03 -0.12316155700E+03  0.33900226150E+03  0.00000000000E+00 0.  1.
         15    1    3    3    0    0  0.55167581589E+03  0.21915757418E+03 -0.21021783851E+03  0.62973879150E+03  0.17770000000E+01 0. -1.
        -16    1    3    3    0    0  0.60400380180E+03  0.24413442664E+03 -0.13510420206E+03  0.66533852758E+03  0.00000000000E+00 0.  1.
          4    1    6    6  502    0 -0.55519515542E+03 -0.13220221547E+03 -0.78190412541E+03  0.96803571614E+03  0.00000000000E+00 0. -1.
         -3    1    6    6    0  502 -0.26830886175E+03 -0.75371018026E+02 -0.47282672398E+03  0.54884929312E+03  0.00000000000E+00 0.  1.
<mgrwt>
<rscale>  0 0.12600358E+04</rscale>
<asrwt>0</asrwt>
<pdfrwt beam="1">  1        1 0.38534230E+00 0.12600358E+04</pdfrwt>
<pdfrwt beam="2">  1       -2 0.11667381E+00 0.12600358E+04</pdfrwt>
<totfact> 0.65625719E-01</totfact>
</mgrwt>
</event>
<event>
12    3  0.1092576E-007  0.6227616E+03  0.7818608E-02  0.9859277E-01
          1   -1    0    0  501    0  0.00000000000E+00  0.00000000000E+00  0.14841371696E+04  0.14841371696E+04  0.00000000000E+00 0. -1.
         -2   -1    0    0    0  501 -0.00000000000E+00 -0.00000000000E+00 -0.30538572948E+03  0.30538572948E+03  0.00000000000E+00 0.  1.
        -24    2    1    2    0    0  0.11141518281E+03 -0.47040562664E+03  0.78209981990E+03  0.92318133303E+03  0.82999089326E+02 0.  0.
    5000000    2    1    2    0    0 -0.11141518281E+03  0.47040562664E+03  0.39665162020E+03  0.86634156603E+03  0.59960020404E+03 0.  0.
        -24    2    4    4    0    0  0.22436335879E+03  0.26902589113E+03  0.11476979106E+03  0.37725372084E+03  0.80214824574E+02 0.  0.
         24    2    4    4    0    0 -0.33577854159E+03  0.20137973552E+03  0.28188182913E+03  0.48908784519E+03  0.80302726278E+02 0.  0.
         13    1    5    5    0    0  0.85276440463E+01  0.51300472302E+02  0.79969455204E+01  0.52615685010E+02  0.00000000000E+00 0. -1.
        -14    1    5    5    0    0  0.21583571474E+03  0.21772541883E+03  0.10677284554E+03  0.32463803583E+03  0.00000000000E+00 0.  1.
         15    1    3    3    0    0  0.10938102953E+03 -0.33586668283E+03  0.60776969728E+03  0.70296358434E+03  0.17770000000E+01 0. -1.
        -16    1    3    3    0    0  0.20341532751E+01 -0.13453894382E+03  0.17433012262E+03  0.22021774869E+03  0.00000000000E+00 0.  1.
          4    1    6    6  502    0 -0.10737536757E+02  0.29654526469E+02  0.15757523786E+02  0.35255995115E+02  0.00000000000E+00 0. -1.
         -3    1    6    6    0  502 -0.32504100484E+03  0.17172520905E+03  0.26612430535E+03  0.45383185008E+03  0.00000000000E+00 0.  1.
<mgrwt>
<rscale>  0 0.62276161E+03</rscale>
<asrwt>0</asrwt>
<pdfrwt beam="1">  1        1 0.22832879E+00 0.62276161E+03</pdfrwt>
<pdfrwt beam="2">  1       -2 0.46982421E-01 0.62276161E+03</pdfrwt>
<totfact> 0.26448195E+01</totfact>
</mgrwt>
</event>
<event>
12    3  0.1092576E-007  0.1199258E+04  0.7818608E-02  0.9113506E-01
         -2   -1    0    0    0  501 -0.00000000000E+00  0.00000000000E+00  0.12254580682E+04  0.12254580682E+04  0.00000000000E+00 0.  1.
          1   -1    0    0  501    0  0.00000000000E+00 -0.00000000000E+00 -0.12704024134E+04  0.12704024134E+04  0.00000000000E+00 0. -1.
        -24    2    1    2    0    0 -0.11453019818E+04 -0.40014086901E+02 -0.27686227653E+03  0.11816742453E+04  0.79897090953E+02 0.  0.
    5000000    2    1    2    0    0  0.11453019818E+04  0.40014086901E+02  0.23191793142E+03  0.13141862363E+04  0.59998481652E+03 0.  0.
        -24    2    4    4    0    0  0.10875369898E+04 -0.91835942094E+02  0.30252785941E+03  0.11353980552E+04  0.80219035158E+02 0.  0.
         24    2    4    4    0    0  0.57764992060E+02  0.13185002900E+03 -0.70609927989E+02  0.17878818114E+03  0.79108958591E+02 0.  0.
         13    1    5    5    0    0  0.12532179721E+03 -0.85855789139E+01  0.88576309511E+01  0.12592744993E+03  0.00000000000E+00 0. -1.
        -14    1    5    5    0    0  0.96221519255E+03 -0.83250363180E+02  0.29367022846E+03  0.10094706052E+04  0.00000000000E+00 0.  1.
         15    1    3    3    0    0 -0.65268776490E+03 -0.21820471291E+02 -0.11701642326E+03  0.66345568990E+03  0.17770000000E+01 0. -1.
        -16    1    3    3    0    0 -0.49261421692E+03 -0.18193615610E+02 -0.15984585327E+03  0.51821855541E+03  0.00000000000E+00 0.  1.
          2    1    6    6  502    0  0.73424945611E+02  0.12257680811E+03 -0.72963821588E+02  0.16043695268E+03  0.00000000000E+00 0. -1.
         -1    1    6    6    0  502 -0.15659953551E+02  0.92732208899E+01  0.23538935993E+01  0.18351228459E+02  0.00000000000E+00 0.  1.
<mgrwt>
<rscale>  0 0.11992578E+04</rscale>
<asrwt>0</asrwt>
<pdfrwt beam="1">  1        1 0.19544652E+00 0.11992578E+04</pdfrwt>
<pdfrwt beam="2">  1       -2 0.18853201E+00 0.11992578E+04</pdfrwt>
<totfact> 0.12870105E+00</totfact>
</mgrwt>
</event>
<event>
12    3  0.1092576E-007  0.4894804E+03  0.7818608E-02  0.1016562E+00
          1   -1    0    0  501    0  0.00000000000E+00  0.00000000000E+00  0.14196604031E+04  0.14196604031E+04  0.00000000000E+00 0. -1.
         -4   -1    0    0    0  501 -0.00000000000E+00 -0.00000000000E+00 -0.18350013645E+03  0.18350013645E+03  0.00000000000E+00 0.  1.
        -24    2    1    2    0    0 -0.18893972706E+03  0.26634204797E+03  0.44775795034E+03  0.55992327154E+03  0.79941109234E+02 0.  0.
    5000000    2    1    2    0    0  0.18893972706E+03 -0.26634204797E+03  0.78840231629E+03  0.10432372680E+04  0.60010788862E+03 0.  0.
        -24    2    4    4    0    0  0.31779237063E+03  0.18822485923E+02  0.23856618170E+03  0.40571480168E+03  0.79651744806E+02 0.  0.
         24    2    4    4    0    0 -0.12885264357E+03 -0.28516453390E+03  0.54983613459E+03  0.63752246630E+03  0.78697553818E+02 0.  0.
         13    1    5    5    0    0  0.89813882581E+02  0.39875693768E+02  0.57800176117E+02  0.11400642445E+03  0.00000000000E+00 0. -1.
        -14    1    5    5    0    0  0.22797848805E+03 -0.21053207845E+02  0.18076600558E+03  0.29170837723E+03  0.00000000000E+00 0.  1.
         15    1    3    3    0    0 -0.14032654834E+03  0.23569552432E+03  0.33182279415E+03  0.43052693853E+03  0.17770000000E+01 0. -1.
        -16    1    3    3    0    0 -0.48613178714E+02  0.30646523654E+02  0.11593515619E+03  0.12939633301E+03  0.00000000000E+00 0.  1.
          2    1    6    6  502    0 -0.11141702120E+03 -0.16849962009E+03  0.38568040202E+03  0.43537942887E+03  0.00000000000E+00 0. -1.
         -1    1    6    6    0  502 -0.17435622374E+02 -0.11666491381E+03  0.16415573257E+03  0.20214303742E+03  0.00000000000E+00 0.  1.
<mgrwt>
<rscale>  0 0.48948038E+03</rscale>
<asrwt>0</asrwt>
<pdfrwt beam="1">  1        1 0.21840929E+00 0.48948038E+03</pdfrwt>
<pdfrwt beam="2">  1       -4 0.28230791E-01 0.48948038E+03</pdfrwt>
<totfact> 0.45393459E+01</totfact>
</mgrwt>
</event>
<event>
12    3  0.1092576E-007  0.3979369E+03  0.7818608E-02  0.1044496E+00
         -2   -1    0    0    0  501 -0.00000000000E+00  0.00000000000E+00  0.46375868535E+03  0.46375868535E+03  0.00000000000E+00 0.  1.
          1   -1    0    0  501    0  0.00000000000E+00 -0.00000000000E+00 -0.13696686252E+04  0.13696686252E+04  0.00000000000E+00 0. -1.
        -24    2    1    2    0    0  0.59266327153E+02  0.25274666904E+03  0.33457812236E+03  0.43111854831E+03  0.80791747692E+02 0.  0.
    5000000    2    1    2    0    0 -0.59266327153E+02 -0.25274666904E+03 -0.12404880623E+04  0.14023087623E+04  0.60022150574E+03 0.  0.
        -24    2    4    4    0    0  0.80270356091E+01 -0.37283954674E+03 -0.42310658976E+03  0.56943061885E+03  0.78474725058E+02 0.  0.
         24    2    4    4    0    0 -0.67293362762E+02  0.12009287770E+03 -0.81738147250E+03  0.83287814344E+03  0.81380798025E+02 0.  0.
         13    1    5    5    0    0 -0.14033872410E+02 -0.12086113910E+03 -0.18899461890E+03  0.22477395421E+03  0.00000000000E+00 0. -1.
        -14    1    5    5    0    0  0.22060908019E+02 -0.25197840764E+03 -0.23411197086E+03  0.34465666464E+03  0.00000000000E+00 0.  1.
         15    1    3    3    0    0  0.80859244214E+01  0.13642143258E+03  0.12074094781E+03  0.18236700263E+03  0.17770000000E+01 0. -1.
        -16    1    3    3    0    0  0.51180402731E+02  0.11632523646E+03  0.21383717455E+03  0.24875154568E+03  0.00000000000E+00 0.  1.
          4    1    6    6  502    0 -0.35742012847E+02  0.25916891070E+01 -0.13179123106E+03  0.13657648744E+03  0.00000000000E+00 0. -1.
         -3    1    6    6    0  502 -0.31551349915E+02  0.11750118860E+03 -0.68559024143E+03  0.69630165600E+03  0.00000000000E+00 0.  1.
<mgrwt>
<rscale>  0 0.39793692E+03</rscale>
<asrwt>0</asrwt>
<pdfrwt beam="1">  1        1 0.21071825E+00 0.39793692E+03</pdfrwt>
<pdfrwt beam="2">  1       -2 0.71347492E-01 0.39793692E+03</pdfrwt>
<totfact> 0.13806085E+01</totfact>
</mgrwt>
</event>
<event>
12    3  0.1092576E-007  0.1081942E+04  0.7818608E-02  0.9222974E-01
          1   -1    0    0  501    0  0.00000000000E+00  0.00000000000E+00  0.18129099312E+04  0.18129099312E+04  0.00000000000E+00 0. -1.
         -2   -1    0    0    0  501 -0.00000000000E+00 -0.00000000000E+00 -0.88778941576E+03  0.88778941576E+03  0.00000000000E+00 0.  1.
        -24    2    1    2    0    0 -0.82894855063E+03  0.57138887397E+03 -0.25074374193E+03  0.10406059793E+04  0.79670791652E+02 0.  0.
    5000000    2    1    2    0    0  0.82894855063E+03 -0.57138887397E+03  0.11758642574E+04  0.16600933677E+04  0.59967682366E+03 0.  0.
        -24    2    4    4    0    0  0.21230703906E+03  0.99210088651E+02  0.34431522616E+03  0.42427251936E+03  0.80853417958E+02 0.  0.
         24    2    4    4    0    0  0.61664151157E+03 -0.67059896262E+03  0.83154903120E+03  0.12358208483E+04  0.76352180202E+02 0.  0.
         13    1    5    5    0    0  0.13343207827E+03  0.28018734687E+02  0.14927603165E+03  0.20216948986E+03  0.00000000000E+00 0. -1.
        -14    1    5    5    0    0  0.78874960788E+02  0.71191353964E+02  0.19503919451E+03  0.22210302950E+03  0.00000000000E+00 0.  1.
         15    1    3    3    0    0 -0.44801032377E+03  0.32404593477E+03 -0.17632311542E+03  0.58035507821E+03  0.17770000000E+01 0. -1.
        -16    1    3    3    0    0 -0.38093822687E+03  0.24734293920E+03 -0.74420626514E+02  0.46025090104E+03  0.00000000000E+00 0.  1.
          2    1    6    6  502    0  0.24974668462E+03 -0.32740226651E+03  0.38003533520E+03  0.56035034273E+03  0.00000000000E+00 0. -1.
         -1    1    6    6    0  502  0.36689482695E+03 -0.34319669610E+03  0.45151369600E+03  0.67547050560E+03  0.00000000000E+00 0.  1.
<mgrwt>
<rscale>  0 0.10819417E+04</rscale>
<asrwt>0</asrwt>
<pdfrwt beam="1">  1        1 0.27890922E+00 0.10819417E+04</pdfrwt>
<pdfrwt beam="2">  1       -2 0.13658299E+00 0.10819417E+04</pdfrwt>
<totfact> 0.13293912E+00</totfact>
</mgrwt>
</event>
<event>
12    3  0.1092576E-007  0.7402445E+03  0.7818608E-02  0.9650781E-01
          1   -1    0    0  501    0  0.00000000000E+00  0.00000000000E+00  0.25589990845E+04  0.25589990845E+04  0.00000000000E+00 0. -1.
         -2   -1    0    0    0  501 -0.00000000000E+00 -0.00000000000E+00 -0.22453826518E+03  0.22453826518E+03  0.00000000000E+00 0.  1.
        -24    2    1    2    0    0  0.61577450175E+03  0.75764808815E+02  0.72708627479E+03  0.95913352434E+03  0.79775455273E+02 0.  0.
    5000000    2    1    2    0    0 -0.61577450175E+03 -0.75764808815E+02  0.16073745445E+04  0.18244038253E+04  0.59989819824E+03 0.  0.
        -24    2    4    4    0    0  0.52815864312E+02  0.12704703894E+03  0.34487215134E+03  0.37941463411E+03  0.78026906769E+02 0.  0.
         24    2    4    4    0    0 -0.66859036606E+03 -0.20281184776E+03  0.12625023931E+04  0.14449891912E+04  0.77043797785E+02 0.  0.
         11    1    5    5    0    0 -0.16627738652E+02  0.55516777564E+02  0.11218550842E+03  0.12627027593E+03  0.00000000000E+00 0. -1.
        -12    1    5    5    0    0  0.69443602964E+02  0.71530261381E+02  0.23268664292E+03  0.25314435818E+03  0.00000000000E+00 0.  1.
         15    1    3    3    0    0  0.45215785041E+03  0.77893860317E+02  0.57612277964E+03  0.73650172445E+03  0.17770000000E+01 0. -1.
        -16    1    3    3    0    0  0.16361665134E+03 -0.21290515017E+01  0.15096349514E+03  0.22263179989E+03  0.00000000000E+00 0.  1.
          4    1    6    6  502    0 -0.36629859054E+03 -0.85593446827E+02  0.61677058230E+03  0.72243120556E+03  0.00000000000E+00 0. -1.
         -3    1    6    6    0  502 -0.30229177552E+03 -0.11721840093E+03  0.64573181084E+03  0.72255798563E+03  0.00000000000E+00 0.  1.
<mgrwt>
<rscale>  0 0.74024449E+03</rscale>
<asrwt>0</asrwt>
<pdfrwt beam="1">  1        1 0.39369215E+00 0.74024449E+03</pdfrwt>
<pdfrwt beam="2">  1       -2 0.34544350E-01 0.74024449E+03</pdfrwt>
<totfact> 0.89614236E+00</totfact>
</mgrwt>
</event>
<event>
12    3  0.1092576E-007  0.4823290E+03  0.7818608E-02  0.1018497E+00
         -2   -1    0    0    0  501 -0.00000000000E+00  0.00000000000E+00  0.30170470072E+03  0.30170470072E+03  0.00000000000E+00 0.  1.
          1   -1    0    0  501    0  0.00000000000E+00 -0.00000000000E+00 -0.12346286266E+04  0.12346286266E+04  0.00000000000E+00 0. -1.
        -24    2    1    2    0    0  0.39902256499E+03 -0.20826100579E+03 -0.46680796881E+03  0.65329240995E+03  0.79307245929E+02 0.  0.
    5000000    2    1    2    0    0 -0.39902256499E+03  0.20826100579E+03 -0.46611595703E+03  0.88304091733E+03  0.59992126349E+03 0.  0.
        -24    2    4    4    0    0 -0.36447008400E+03  0.11332256778E+03  0.11190452446E+02  0.38949173802E+03  0.76799357178E+02 0.  0.
         24    2    4    4    0    0 -0.34552480991E+02  0.94938438011E+02 -0.47730640948E+03  0.49354917932E+03  0.74580177816E+02 0.  0.
         11    1    5    5    0    0 -0.23367640128E+03  0.40600993709E+02 -0.14636233794E+02  0.23762853479E+03  0.00000000000E+00 0. -1.
        -12    1    5    5    0    0 -0.13079368271E+03  0.72721574069E+02  0.25826686240E+02  0.15186320323E+03  0.00000000000E+00 0.  1.
         15    1    3    3    0    0  0.94958333351E+02 -0.81331654567E+02 -0.99040559261E+02  0.15951210993E+03  0.17770000000E+01 0. -1.
        -16    1    3    3    0    0  0.30406423164E+03 -0.12692935122E+03 -0.36776740955E+03  0.49378030002E+03  0.00000000000E+00 0.  1.
          4    1    6    6  502    0 -0.52389846442E+02  0.91038761147E+02 -0.43441750938E+03  0.44693548136E+03  0.00000000000E+00 0. -1.
         -3    1    6    6    0  502  0.17837365451E+02  0.38996768637E+01 -0.42888900094E+02  0.46613697956E+02  0.00000000000E+00 0.  1.
<mgrwt>
<rscale>  0 0.48232898E+03</rscale>
<asrwt>0</asrwt>
<pdfrwt beam="1">  1        1 0.18994287E+00 0.48232898E+03</pdfrwt>
<pdfrwt beam="2">  1       -2 0.46416107E-01 0.48232898E+03</pdfrwt>
<totfact> 0.41209561E+01</totfact>
</mgrwt>
</event>
<event>
12    3  0.1092576E-007  0.8439216E+03  0.7818608E-02  0.9498532E-01
          1   -1    0    0  501    0  0.00000000000E+00  0.00000000000E+00  0.17529740911E+04  0.17529740911E+04  0.00000000000E+00 0. -1.
         -2   -1    0    0    0  501 -0.00000000000E+00 -0.00000000000E+00 -0.20648845327E+04  0.20648845327E+04  0.00000000000E+00 0.  1.
        -24    2    1    2    0    0 -0.18376087834E+02  0.80458516450E+03 -0.18283701717E+04  0.19992483466E+04  0.79759008076E+02 0.  0.
    5000000    2    1    2    0    0  0.18376087834E+02 -0.80458516450E+03  0.15164597301E+04  0.18186102772E+04  0.59999854976E+03 0.  0.
        -24    2    4    4    0    0 -0.16344712604E+03 -0.39281931412E+03  0.32132808127E+03  0.53907789553E+03  0.79569247124E+02 0.  0.
         24    2    4    4    0    0  0.18182321387E+03 -0.41176585038E+03  0.11951316488E+04  0.12795323817E+04  0.79073769353E+02 0.  0.
         11    1    5    5    0    0 -0.45452142547E+02 -0.52099324670E+02  0.29344710966E+02  0.75108913951E+02  0.00000000000E+00 0. -1.
        -12    1    5    5    0    0 -0.11799498349E+03 -0.34071998945E+03  0.29198337030E+03  0.46396898158E+03  0.00000000000E+00 0.  1.
         15    1    3    3    0    0 -0.32713911876E+02  0.70767673141E+03 -0.15524212467E+04  0.17064265120E+04  0.17770000000E+01 0. -1.
        -16    1    3    3    0    0  0.14337824042E+02  0.96908433091E+02 -0.27594892501E+03  0.29282183460E+03  0.00000000000E+00 0.  1.
          4    1    6    6  502    0  0.97311691352E+02 -0.17355121493E+03  0.62436678539E+03  0.65530410664E+03  0.00000000000E+00 0. -1.
         -3    1    6    6    0  502  0.84511522517E+02 -0.23821463545E+03  0.57076486345E+03  0.62422827502E+03  0.00000000000E+00 0.  1.
<mgrwt>
<rscale>  0 0.84392162E+03</rscale>
<asrwt>0</asrwt>
<pdfrwt beam="1">  1        1 0.26968832E+00 0.84392162E+03</pdfrwt>
<pdfrwt beam="2">  1       -2 0.31767454E+00 0.84392162E+03</pdfrwt>
<totfact> 0.99967885E-02</totfact>
</mgrwt>
</event>
<event>
12    3  0.1092576E-007  0.1322976E+04  0.7818608E-02  0.9011541E-01
         -2   -1    0    0    0  501 -0.00000000000E+00  0.00000000000E+00  0.14537140735E+04  0.14537140735E+04  0.00000000000E+00 0.  1.
          1   -1    0    0  501    0  0.00000000000E+00 -0.00000000000E+00 -0.16168266019E+04  0.16168266019E+04  0.00000000000E+00 0. -1.
        -24    2    1    2    0    0  0.92920256471E+03  0.85052513642E+03  0.68664895256E+03  0.14368455730E+04  0.78917695100E+02 0.  0.
    5000000    2    1    2    0    0 -0.92920256471E+03 -0.85052513642E+03 -0.84976148092E+03  0.16336951024E+04  0.60004558106E+03 0.  0.
        -24    2    4    4    0    0 -0.31545150548E+03  0.20298076318E+02 -0.17418140577E+03  0.36947817011E+03  0.79077758305E+02 0.  0.
         24    2    4    4    0    0 -0.61375105922E+03 -0.87082321274E+03 -0.67558007515E+03  0.12642169323E+04  0.82538375990E+02 0.  0.
         11    1    5    5    0    0 -0.50715677106E+02  0.47243558012E+01 -0.65267730885E+02  0.82790555844E+02  0.00000000000E+00 0. -1.
        -12    1    5    5    0    0 -0.26473582838E+03  0.15573720517E+02 -0.10891367489E+03  0.28668761427E+03  0.00000000000E+00 0.  1.
         15    1    3    3    0    0  0.14706527220E+03  0.99009203818E+02  0.87953517964E+02  0.19791411213E+03  0.17770000000E+01 0. -1.
        -16    1    3    3    0    0  0.78213729251E+03  0.75151593260E+03  0.59869543460E+03  0.12389314609E+04  0.00000000000E+00 0.  1.
          4    1    6    6  502    0 -0.45492798030E+02 -0.10319402547E+03 -0.85916387843E+02  0.14177527029E+03  0.00000000000E+00 0. -1.
         -3    1    6    6    0  502 -0.56825826119E+03 -0.76762918727E+03 -0.58966368731E+03  0.11224416620E+04  0.00000000000E+00 0.  1.
<mgrwt>
<rscale>  0 0.13229760E+04</rscale>
<asrwt>0</asrwt>
<pdfrwt beam="1">  1        1 0.24874255E+00 0.13229760E+04</pdfrwt>
<pdfrwt beam="2">  1       -2 0.22364832E+00 0.13229760E+04</pdfrwt>
<totfact> 0.42880973E-01</totfact>
</mgrwt>
</event>
<event>
12    3  0.1092576E-007  0.1452193E+04  0.7818608E-02  0.8916881E-01
         -2   -1    0    0    0  501 -0.00000000000E+00  0.00000000000E+00  0.84286739617E+03  0.84286739617E+03  0.00000000000E+00 0.  1.
          1   -1    0    0  501    0  0.00000000000E+00 -0.00000000000E+00 -0.26061520481E+04  0.26061520481E+04  0.00000000000E+00 0. -1.
        -24    2    1    2    0    0  0.52570249338E+03  0.13106983635E+04 -0.67029154588E+03  0.15651545942E+04  0.78261328725E+02 0.  0.
    5000000    2    1    2    0    0 -0.52570249338E+03 -0.13106983635E+04 -0.10929931060E+04  0.18838648501E+04  0.60001627646E+03 0.  0.
        -24    2    4    4    0    0 -0.30624867096E+03 -0.11871041125E+04 -0.10510094182E+04  0.16161930951E+04  0.66745044190E+02 0.  0.
         24    2    4    4    0    0 -0.21945382242E+03 -0.12359425096E+03 -0.41983687812E+02  0.26767175503E+03  0.80312012520E+02 0.  0.
         13    1    5    5    0    0 -0.30725962764E+02 -0.65795138001E+02 -0.51592131270E+02  0.89077679479E+02  0.00000000000E+00 0. -1.
        -14    1    5    5    0    0 -0.27552270820E+03 -0.11213089745E+04 -0.99941728695E+03  0.15271154156E+04  0.00000000000E+00 0.  1.
         15    1    3    3    0    0  0.31311857805E+03  0.83368230318E+03 -0.38668968607E+03  0.97087666446E+03  0.17770000000E+01 0. -1.
        -16    1    3    3    0    0  0.21258391533E+03  0.47701606030E+03 -0.28360185980E+03  0.59427792970E+03  0.00000000000E+00 0.  1.
          2    1    6    6  502    0 -0.44060396538E+02  0.83420485158E+01 -0.88489801903E+01  0.45707907051E+02  0.00000000000E+00 0. -1.
         -1    1    6    6    0  502 -0.17539342588E+03 -0.13193629947E+03 -0.33134707622E+02  0.22196384798E+03  0.00000000000E+00 0.  1.
<mgrwt>
<rscale>  0 0.14521933E+04</rscale>
<asrwt>0</asrwt>
<pdfrwt beam="1">  1        1 0.40094646E+00 0.14521933E+04</pdfrwt>
<pdfrwt beam="2">  1       -2 0.12967191E+00 0.14521933E+04</pdfrwt>
<totfact> 0.41839212E-01</totfact>
</mgrwt>
</event>
<event>
12    3  0.1092576E-007  0.8653651E+03  0.7818608E-02  0.9469943E-01
          1   -1    0    0  501    0  0.00000000000E+00  0.00000000000E+00  0.88541099778E+03  0.88541099778E+03  0.00000000000E+00 0. -1.
         -2   -1    0    0    0  501 -0.00000000000E+00 -0.00000000000E+00 -0.10404104499E+04  0.10404104499E+04  0.00000000000E+00 0.  1.
        -24    2    1    2    0    0  0.50793112481E+03 -0.58079411319E+03  0.32014023389E+03  0.83904585305E+03  0.78691452539E+02 0.  0.
    5000000    2    1    2    0    0 -0.50793112481E+03  0.58079411319E+03 -0.47513968600E+03  0.10867755946E+04  0.60000636860E+03 0.  0.
        -24    2    4    4    0    0 -0.45493267471E+03  0.10759219764E+03 -0.34556919318E+03  0.58687610302E+03  0.80409411798E+02 0.  0.
         24    2    4    4    0    0 -0.52998450108E+02  0.47320191555E+03 -0.12957049281E+03  0.49989949159E+03  0.79888049758E+02 0.  0.
         13    1    5    5    0    0 -0.33555487976E+03  0.11314103864E+03 -0.27220713414E+03  0.44664829098E+03  0.00000000000E+00 0. -1.
        -14    1    5    5    0    0 -0.11937779494E+03 -0.55488409994E+01 -0.73362059047E+02  0.14022781204E+03  0.00000000000E+00 0.  1.
         15    1    3    3    0    0  0.40583868237E+03 -0.42033517591E+03  0.22205758458E+03  0.62505953701E+03  0.17770000000E+01 0. -1.
        -16    1    3    3    0    0  0.10209244245E+03 -0.16045893728E+03  0.98082649307E+02  0.21398631604E+03  0.00000000000E+00 0.  1.
          4    1    6    6  502    0 -0.45229112372E+02  0.10466663516E+03 -0.24876188394E+02  0.11670304996E+03  0.00000000000E+00 0. -1.
         -3    1    6    6    0  502 -0.77693377367E+01  0.36853528039E+03 -0.10469430442E+03  0.38319644163E+03  0.00000000000E+00 0.  1.
<mgrwt>
<rscale>  0 0.86536514E+03</rscale>
<asrwt>0</asrwt>
<pdfrwt beam="1">  1        1 0.13621708E+00 0.86536514E+03</pdfrwt>
<pdfrwt beam="2">  1       -2 0.16006314E+00 0.86536514E+03</pdfrwt>
<totfact> 0.41685137E+00</totfact>
</mgrwt>
</event>
<event>
12    3  0.1092576E-007  0.8148592E+03  0.7818608E-02  0.9538755E-01
          1   -1    0    0  501    0  0.00000000000E+00  0.00000000000E+00  0.70605935151E+03  0.70605935151E+03  0.00000000000E+00 0. -1.
         -2   -1    0    0    0  501 -0.00000000000E+00 -0.00000000000E+00 -0.13350605063E+04  0.13350605063E+04  0.00000000000E+00 0.  1.
        -24    2    1    2    0    0  0.80351930267E+03 -0.73357714255E+02  0.73933272315E+02  0.81427827770E+03  0.80983706891E+02 0.  0.
    5000000    2    1    2    0    0 -0.80351930267E+03  0.73357714255E+02 -0.70293442712E+03  0.12268415801E+04  0.59999902491E+03 0.  0.
        -24    2    4    4    0    0 -0.43409421748E+03 -0.18519604638E+02 -0.20904342723E+02  0.44170062674E+03  0.76692155452E+02 0.  0.
         24    2    4    4    0    0 -0.36942508519E+03  0.91877318893E+02 -0.68203008440E+03  0.78514095339E+03  0.79780607754E+02 0.  0.
         13    1    5    5    0    0 -0.18847459121E+03  0.41026457816E+01 -0.45156430889E+02  0.19385202213E+03  0.00000000000E+00 0. -1.
        -14    1    5    5    0    0 -0.24561962627E+03 -0.22622250420E+02  0.24252088166E+02  0.24784860461E+03  0.00000000000E+00 0.  1.
         15    1    3    3    0    0  0.60418272311E+03 -0.54428321718E+02  0.20234099688E+02  0.60696934159E+03  0.17770000000E+01 0. -1.
        -16    1    3    3    0    0  0.19933657956E+03 -0.18929392537E+02  0.53699172627E+02  0.20730893612E+03  0.00000000000E+00 0.  1.
          2    1    6    6  502    0 -0.14064994677E+03  0.72081339861E+02 -0.24724914573E+03  0.29344550967E+03  0.00000000000E+00 0. -1.
         -1    1    6    6    0  502 -0.22877513841E+03  0.19795979032E+02 -0.43478093867E+03  0.49169544372E+03  0.00000000000E+00 0.  1.
<mgrwt>
<rscale>  0 0.81485925E+03</rscale>
<asrwt>0</asrwt>
<pdfrwt beam="1">  1        1 0.10862452E+00 0.81485925E+03</pdfrwt>
<pdfrwt beam="2">  1       -2 0.20539392E+00 0.81485925E+03</pdfrwt>
<totfact> 0.29448553E+00</totfact>
</mgrwt>
</event>
<event>
12    3  0.1092576E-007  0.8132857E+03  0.7818608E-02  0.9540983E-01
         -2   -1    0    0    0  501 -0.00000000000E+00  0.00000000000E+00  0.72243495787E+03  0.72243495787E+03  0.00000000000E+00 0.  1.
          1   -1    0    0  501    0  0.00000000000E+00 -0.00000000000E+00 -0.10829914409E+04  0.10829914409E+04  0.00000000000E+00 0. -1.
        -24    2    1    2    0    0 -0.13693827754E+03  0.75672328134E+03 -0.23175102414E+02  0.77341654152E+03  0.79081255413E+02 0.  0.
    5000000    2    1    2    0    0  0.13693827754E+03 -0.75672328134E+03 -0.33738138066E+03  0.10320098573E+04  0.59986326205E+03 0.  0.
        -24    2    4    4    0    0 -0.11249748835E+03 -0.20396581944E+03 -0.33421227597E+03  0.41562441218E+03  0.82389721485E+02 0.  0.
         24    2    4    4    0    0  0.24943576589E+03 -0.55275746190E+03 -0.31691046886E+01  0.61638544511E+03  0.11028128002E+03 0.  0.
         13    1    5    5    0    0 -0.79037793551E+02 -0.19762789475E+03 -0.28257864228E+03  0.35377174374E+03  0.00000000000E+00 0. -1.
        -14    1    5    5    0    0 -0.33459694803E+02 -0.63379246860E+01 -0.51633633690E+02  0.61852668444E+02  0.00000000000E+00 0.  1.
         15    1    3    3    0    0 -0.11796009088E+02  0.27229365524E+03 -0.16189628843E+02  0.27303524008E+03  0.17770000000E+01 0. -1.
        -16    1    3    3    0    0 -0.12514226845E+03  0.48442962609E+03 -0.69854735711E+01  0.50038130144E+03  0.00000000000E+00 0.  1.
          4    1    6    6  502    0  0.13288556218E+03 -0.26938743852E+03 -0.55733562458E+02  0.30550678332E+03  0.00000000000E+00 0. -1.
         -3    1    6    6    0  502  0.11655020371E+03 -0.28337002338E+03  0.52564457770E+02  0.31087866179E+03  0.00000000000E+00 0.  1.
<mgrwt>
<rscale>  0 0.81328571E+03</rscale>
<asrwt>0</asrwt>
<pdfrwt beam="1">  1        1 0.16661407E+00 0.81328571E+03</pdfrwt>
<pdfrwt beam="2">  1       -2 0.11114384E+00 0.81328571E+03</pdfrwt>
<totfact> 0.74675011E+00</totfact>
</mgrwt>
</event>
<event>
12    3  0.1092576E-007  0.6330165E+03  0.7818608E-02  0.9839180E-01
          1   -1    0    0  501    0  0.00000000000E+00  0.00000000000E+00  0.12850274682E+04  0.12850274682E+04  0.00000000000E+00 0. -1.
         -2   -1    0    0    0  501 -0.00000000000E+00 -0.00000000000E+00 -0.37562830542E+03  0.37562830542E+03  0.00000000000E+00 0.  1.
        -24    2    1    2    0    0  0.50200751541E+03 -0.14245377748E+03  0.12222760026E+03  0.54145003160E+03  0.76967046208E+02 0.  0.
    5000000    2    1    2    0    0 -0.50200751541E+03  0.14245377748E+03  0.78717156253E+03  0.11192057420E+04  0.60056456763E+03 0.  0.
        -24    2    4    4    0    0 -0.23664178064E+03 -0.18931375308E+03  0.14561004347E+03  0.34560215760E+03  0.79997106997E+02 0.  0.
         24    2    4    4    0    0 -0.26536573477E+03  0.33176753056E+03  0.64156151905E+03  0.77360358443E+03  0.79828914499E+02 0.  0.
         11    1    5    5    0    0 -0.12970918837E+03 -0.71094749225E+02  0.36260260811E+02  0.15229492253E+03  0.00000000000E+00 0. -1.
        -12    1    5    5    0    0 -0.10693259228E+03 -0.11821900385E+03  0.10934978266E+03  0.19330723507E+03  0.00000000000E+00 0.  1.
         15    1    3    3    0    0  0.35367092578E+03 -0.65722062522E+02  0.70101251265E+02  0.36649673450E+03  0.17770000000E+01 0. -1.
        -16    1    3    3    0    0  0.14833658963E+03 -0.76731714956E+02  0.52126348999E+02  0.17495329709E+03  0.00000000000E+00 0.  1.
          2    1    6    6  502    0 -0.12058622763E+03  0.91159967845E+02  0.21088523180E+03  0.25946822354E+03  0.00000000000E+00 0. -1.
         -3    1    6    6    0  502 -0.14477950713E+03  0.24060756271E+03  0.43067628725E+03  0.51413536089E+03  0.00000000000E+00 0.  1.
<mgrwt>
<rscale>  0 0.63301646E+03</rscale>
<asrwt>0</asrwt>
<pdfrwt beam="1">  1        1 0.19769653E+00 0.63301646E+03</pdfrwt>
<pdfrwt beam="2">  1       -2 0.57788971E-01 0.63301646E+03</pdfrwt>
<totfact> 0.23752872E+01</totfact>
</mgrwt>
</event>
<event>
12    3  0.1092576E-007  0.4732062E+03  0.7818608E-02  0.1021019E+00
          3   -1    0    0  501    0  0.00000000000E+00  0.00000000000E+00  0.17037363959E+04  0.17037363959E+04  0.00000000000E+00 0. -1.
         -4   -1    0    0    0  501 -0.00000000000E+00 -0.00000000000E+00 -0.14785246703E+03  0.14785246703E+03  0.00000000000E+00 0.  1.
        -24    2    1    2    0    0 -0.19306191278E+03  0.22422726704E+03  0.30172729294E+03  0.43013213361E+03  0.80146887742E+02 0.  0.
    5000000    2    1    2    0    0  0.19306191278E+03 -0.22422726704E+03  0.12541566359E+04  0.14214567293E+04  0.60006632668E+03 0.  0.
        -24    2    4    4    0    0 -0.26794816551E+02  0.17601280047E+03  0.49449773338E+03  0.53157242231E+03  0.79641469818E+02 0.  0.
         24    2    4    4    0    0  0.21985672933E+03 -0.40024006751E+03  0.75965890251E+03  0.88988430697E+03  0.79267512635E+02 0.  0.
         11    1    5    5    0    0 -0.30482780784E+02  0.65552179050E+02  0.29265092143E+03  0.30144792240E+03  0.00000000000E+00 0. -1.
        -12    1    5    5    0    0  0.36879642328E+01  0.11046062142E+03  0.20184681195E+03  0.23012449991E+03  0.00000000000E+00 0.  1.
         15    1    3    3    0    0 -0.17732893529E+03  0.15546146155E+03  0.22600453501E+03  0.32664204398E+03  0.17770000000E+01 0. -1.
        -16    1    3    3    0    0 -0.15732977486E+02  0.68765805486E+02  0.75722757923E+02  0.10349008963E+03  0.00000000000E+00 0.  1.
          2    1    6    6  502    0  0.12377789087E+03 -0.20159826736E+03  0.46550863108E+03  0.52216962118E+03  0.00000000000E+00 0. -1.
         -1    1    6    6    0  502  0.96078838456E+02 -0.19864180015E+03  0.29415027143E+03  0.36771468579E+03  0.00000000000E+00 0.  1.
<mgrwt>
<rscale>  0 0.47320623E+03</rscale>
<asrwt>0</asrwt>
<pdfrwt beam="1">  1        3 0.26211328E+00 0.47320623E+03</pdfrwt>
<pdfrwt beam="2">  1       -4 0.22746535E-01 0.47320623E+03</pdfrwt>
<totfact> 0.26758754E+00</totfact>
</mgrwt>
</event>
<event>
12    3  0.1092576E-007  0.4369701E+03  0.7818608E-02  0.1031681E+00
         -2   -1    0    0    0  501 -0.00000000000E+00  0.00000000000E+00  0.32251573147E+03  0.32251573147E+03  0.00000000000E+00 0.  1.
          1   -1    0    0  501    0  0.00000000000E+00 -0.00000000000E+00 -0.13526613004E+04  0.13526613004E+04  0.00000000000E+00 0. -1.
        -24    2    1    2    0    0 -0.10365746569E+03  0.40806475281E+03 -0.79827666238E+03  0.90616512372E+03  0.81411848487E+02 0.  0.
    5000000    2    1    2    0    0  0.10365746569E+03 -0.40806475281E+03 -0.23186890651E+03  0.76901190812E+03  0.60029527096E+03 0.  0.
        -24    2    4    4    0    0  0.75498423543E+02 -0.30633688443E+03 -0.42504028953E+03  0.53477144572E+03  0.76019423307E+02 0.  0.
         24    2    4    4    0    0  0.28159042151E+02 -0.10172786839E+03  0.19317138301E+03  0.23424046240E+03  0.80074466259E+02 0.  0.
         11    1    5    5    0    0  0.67624761918E+02 -0.25363259185E+03 -0.39297102317E+03  0.47257679283E+03  0.00000000000E+00 0. -1.
        -12    1    5    5    0    0  0.78736616248E+01 -0.52704292574E+02 -0.32069266359E+02  0.62194652888E+02  0.00000000000E+00 0.  1.
         15    1    3    3    0    0 -0.16052593918E+01  0.14475066175E+03 -0.30918957033E+03  0.34140398221E+03  0.17770000000E+01 0. -1.
        -16    1    3    3    0    0 -0.10205220630E+03  0.26331409106E+03 -0.48908709205E+03  0.56476114152E+03  0.00000000000E+00 0.  1.
          4    1    6    6  502    0 -0.27178147577E+02 -0.32851132469E+02  0.80131600722E+02  0.90768508000E+02  0.00000000000E+00 0. -1.
         -3    1    6    6    0  502  0.55337189728E+02 -0.68876735917E+02  0.11303978229E+03  0.14347195440E+03  0.00000000000E+00 0.  1.
<mgrwt>
<rscale>  0 0.43697014E+03</rscale>
<asrwt>0</asrwt>
<pdfrwt beam="1">  1        1 0.20810174E+00 0.43697014E+03</pdfrwt>
<pdfrwt beam="2">  1       -2 0.49617805E-01 0.43697014E+03</pdfrwt>
<totfact> 0.30058177E+01</totfact>
</mgrwt>
</event>
<event>
12    3  0.1092576E-007  0.9662202E+03  0.7818608E-02  0.9346390E-01
         -2   -1    0    0    0  501 -0.00000000000E+00  0.00000000000E+00  0.36885613904E+03  0.36885613904E+03  0.00000000000E+00 0.  1.
          1   -1    0    0  501    0  0.00000000000E+00 -0.00000000000E+00 -0.39679883350E+04  0.39679883350E+04  0.00000000000E+00 0. -1.
        -24    2    1    2    0    0  0.91035037078E+03  0.18649699162E+03 -0.52548763749E+03  0.10702437514E+04  0.75930921727E+02 0.  0.
    5000000    2    1    2    0    0 -0.91035037078E+03 -0.18649699162E+03 -0.30736445584E+04  0.32666007226E+04  0.59989205997E+03 0.  0.
        -24    2    4    4    0    0 -0.51322245981E+03 -0.28789699095E+03 -0.24179225882E+04  0.24894312889E+04  0.68092060322E+02 0.  0.
         24    2    4    4    0    0 -0.39712791097E+03  0.10139999933E+03 -0.65572197021E+03  0.77716943370E+03  0.77643344406E+02 0.  0.
         13    1    5    5    0    0 -0.15077812150E+03 -0.11748349339E+03 -0.72439451544E+03  0.74918877938E+03  0.00000000000E+00 0. -1.
        -14    1    5    5    0    0 -0.36244433831E+03 -0.17041349756E+03 -0.16935280728E+04  0.17402425095E+04  0.00000000000E+00 0.  1.
         15    1    3    3    0    0  0.33988288239E+03  0.80563428639E+02 -0.15750833980E+03  0.38317473117E+03  0.17770000000E+01 0. -1.
        -16    1    3    3    0    0  0.57046748839E+03  0.10593356298E+03 -0.36797929769E+03  0.68706902026E+03  0.00000000000E+00 0.  1.
          4    1    6    6  502    0 -0.21263202790E+03  0.71675461041E+02 -0.29209079653E+03  0.36832972242E+03  0.00000000000E+00 0. -1.
         -1    1    6    6    0  502 -0.18449588307E+03  0.29724538294E+02 -0.36363117368E+03  0.40883971128E+03  0.00000000000E+00 0.  1.
<mgrwt>
<rscale>  0 0.96622021E+03</rscale>
<asrwt>0</asrwt>
<pdfrwt beam="1">  1        1 0.61045978E+00 0.96622021E+03</pdfrwt>
<pdfrwt beam="2">  1       -2 0.56747095E-01 0.96622021E+03</pdfrwt>
<totfact> 0.27685491E-01</totfact>
</mgrwt>
</event>
<event>
12    3  0.1092576E-007  0.6112527E+03  0.7818608E-02  0.9882331E-01
          3   -1    0    0  501    0  0.00000000000E+00  0.00000000000E+00  0.94976083569E+03  0.94976083569E+03  0.00000000000E+00 0. -1.
         -2   -1    0    0    0  501 -0.00000000000E+00 -0.00000000000E+00 -0.41619157835E+03  0.41619157835E+03  0.00000000000E+00 0.  1.
        -24    2    1    2    0    0 -0.35204813228E+03  0.31529879899E+03  0.31006457784E+03  0.57017342580E+03  0.74876384565E+02 0.  0.
    5000000    2    1    2    0    0  0.35204813228E+03 -0.31529879899E+03  0.22350467949E+03  0.79577898824E+03  0.59996552924E+03 0.  0.
        -24    2    4    4    0    0  0.48493588286E+03 -0.10583043656E+03  0.16065452743E+03  0.52783776896E+03  0.80249245306E+02 0.  0.
         24    2    4    4    0    0 -0.13288775057E+03 -0.20946836244E+03  0.62850152056E+02  0.26794121928E+03  0.79411625477E+02 0.  0.
         11    1    5    5    0    0  0.31403945408E+03 -0.89557680332E+02  0.13860822721E+03  0.35475850586E+03  0.00000000000E+00 0. -1.
        -12    1    5    5    0    0  0.17089642877E+03 -0.16272756224E+02  0.22046300221E+02  0.17307926310E+03  0.00000000000E+00 0.  1.
         15    1    3    3    0    0 -0.16456578307E+03  0.11522596635E+03  0.16500453223E+03  0.25997802535E+03  0.17770000000E+01 0. -1.
        -16    1    3    3    0    0 -0.18748234921E+03  0.20007283264E+03  0.14506004562E+03  0.31019540045E+03  0.00000000000E+00 0.  1.
          2    1    6    6  502    0 -0.32130869802E+02 -0.71066669530E+02 -0.15749306288E+02  0.79566984113E+02  0.00000000000E+00 0. -1.
         -1    1    6    6    0  502 -0.10075688077E+03 -0.13840169291E+03  0.78599458345E+02  0.18837423517E+03  0.00000000000E+00 0.  1.
<mgrwt>
<rscale>  0 0.61125273E+03</rscale>
<asrwt>0</asrwt>
<pdfrwt beam="1">  1        3 0.14611705E+00 0.61125273E+03</pdfrwt>
<pdfrwt beam="2">  1       -2 0.64029474E-01 0.61125273E+03</pdfrwt>
<totfact> 0.32712721E+00</totfact>
</mgrwt>
</event>
<event>
12    3  0.1092576E-007  0.6224860E+03  0.7818608E-02  0.9859823E-01
         -2   -1    0    0    0  501 -0.00000000000E+00  0.00000000000E+00  0.53843438706E+03  0.53843438706E+03  0.00000000000E+00 0.  1.
          1   -1    0    0  501    0  0.00000000000E+00 -0.00000000000E+00 -0.95230317801E+03  0.95230317801E+03  0.00000000000E+00 0. -1.
        -24    2    1    2    0    0 -0.30730683527E+03 -0.49838054723E+03 -0.21880764204E+03  0.62998560597E+03  0.78641074835E+02 0.  0.
    5000000    2    1    2    0    0  0.30730683527E+03  0.49838054723E+03 -0.19506114890E+03  0.86075195910E+03  0.60002035166E+03 0.  0.
        -24    2    4    4    0    0  0.29530386924E+03  0.50999776988E+03 -0.34690895999E+03  0.68861136639E+03  0.80855964080E+02 0.  0.
         24    2    4    4    0    0  0.12002966032E+02 -0.11617222650E+02  0.15184781109E+03  0.17214059270E+03  0.79344784764E+02 0.  0.
         11    1    5    5    0    0  0.13186846982E+02  0.19187605680E+02 -0.35630224201E+02  0.42562542472E+02  0.00000000000E+00 0. -1.
        -12    1    5    5    0    0  0.28211702226E+03  0.49081016420E+03 -0.31127873579E+03  0.64604882392E+03  0.00000000000E+00 0.  1.
         15    1    3    3    0    0 -0.96994928275E+02 -0.16352585506E+03 -0.11085408303E+03  0.22009204174E+03  0.17770000000E+01 0. -1.
        -16    1    3    3    0    0 -0.21031190700E+03 -0.33485469218E+03 -0.10795355901E+03  0.40989356424E+03  0.00000000000E+00 0.  1.
          2    1    6    6  502    0 -0.69018172455E+01 -0.37408383896E+02  0.37539962174E+02  0.53444092537E+02  0.00000000000E+00 0. -1.
         -1    1    6    6    0  502  0.18904783278E+02  0.25791161247E+02  0.11430784891E+03  0.11869650017E+03  0.00000000000E+00 0.  1.
<mgrwt>
<rscale>  0 0.62248597E+03</rscale>
<asrwt>0</asrwt>
<pdfrwt beam="1">  1        1 0.14650818E+00 0.62248597E+03</pdfrwt>
<pdfrwt beam="2">  1       -2 0.82836060E-01 0.62248597E+03</pdfrwt>
<totfact> 0.19186390E+01</totfact>
</mgrwt>
</event>
<event>
12    3  0.1092576E-007  0.4860369E+03  0.7818608E-02  0.1017489E+00
          1   -1    0    0  501    0  0.00000000000E+00  0.00000000000E+00  0.61199940472E+03  0.61199940472E+03  0.00000000000E+00 0. -1.
         -2   -1    0    0    0  501 -0.00000000000E+00 -0.00000000000E+00 -0.48979715469E+03  0.48979715469E+03  0.00000000000E+00 0.  1.
        -24    2    1    2    0    0  0.21732341875E+03  0.21377369791E+03 -0.18044128574E+03  0.36405132235E+03  0.83938343143E+02 0.  0.
    5000000    2    1    2    0    0 -0.21732341875E+03 -0.21377369791E+03  0.30264353577E+03  0.73774523706E+03  0.59978851506E+03 0.  0.
        -24    2    4    4    0    0 -0.37548051848E+03  0.77439953985E+01  0.22087575252E+03  0.44280812489E+03  0.79040168219E+02 0.  0.
         24    2    4    4    0    0  0.15815709973E+03 -0.22151769331E+03  0.81767783258E+02  0.29493711217E+03  0.78855393678E+02 0.  0.
         11    1    5    5    0    0 -0.28138052913E+03 -0.24388422737E+02  0.18226307627E+03  0.33613929599E+03  0.00000000000E+00 0. -1.
        -12    1    5    5    0    0 -0.94099989351E+02  0.32132418136E+02  0.38612676243E+02  0.10666882889E+03  0.00000000000E+00 0.  1.
         15    1    3    3    0    0  0.17508249813E+02  0.34678478142E+02  0.30096222284E+01  0.39004502467E+02  0.17770000000E+01 0. -1.
        -16    1    3    3    0    0  0.19981516894E+03  0.17909521977E+03 -0.18345090797E+03  0.32504681988E+03  0.00000000000E+00 0.  1.
          2    1    6    6  502    0  0.10568844845E+03 -0.20013318022E+03  0.71531993749E+02  0.23736083099E+03  0.00000000000E+00 0. -1.
         -1    1    6    6    0  502  0.52468651280E+02 -0.21384513090E+02  0.10235789508E+02  0.57576281177E+02  0.00000000000E+00 0.  1.
<mgrwt>
<rscale>  0 0.48603693E+03</rscale>
<asrwt>0</asrwt>
<pdfrwt beam="1">  1        1 0.94153755E-01 0.48603693E+03</pdfrwt>
<pdfrwt beam="2">  1       -2 0.75353408E-01 0.48603693E+03</pdfrwt>
<totfact> 0.48008499E+01</totfact>
</mgrwt>
</event>
<event>
12    3  0.1092576E-007  0.4349524E+03  0.7818608E-02  0.1032307E+00
          1   -1    0    0  501    0  0.00000000000E+00  0.00000000000E+00  0.21998473681E+04  0.21998473681E+04  0.00000000000E+00 0. -1.
         -2   -1    0    0    0  501 -0.00000000000E+00 -0.00000000000E+00 -0.15349501205E+03  0.15349501205E+03  0.00000000000E+00 0.  1.
        -24    2    1    2    0    0 -0.45381898359E+02  0.40647306805E+03  0.55264035913E+03  0.69222138932E+03  0.80493562070E+02 0.  0.
    5000000    2    1    2    0    0  0.45381898359E+02 -0.40647306805E+03  0.14937119970E+04  0.16611209909E+04  0.60072251890E+03 0.  0.
        -24    2    4    4    0    0 -0.84511180788E+02 -0.15319780560E+03  0.12836239153E+04  0.12987365557E+04  0.91731007916E+02 0.  0.
         24    2    4    4    0    0  0.12989307915E+03 -0.25327526244E+03  0.21008808162E+03  0.36238443516E+03  0.78516916819E+02 0.  0.
         11    1    5    5    0    0 -0.27200494571E+02 -0.68216120766E+02  0.84982768496E+03  0.85299495904E+03  0.00000000000E+00 0. -1.
        -12    1    5    5    0    0 -0.57310686217E+02 -0.84981684838E+02  0.43379623038E+03  0.44574159668E+03  0.00000000000E+00 0.  1.
         15    1    3    3    0    0 -0.42365957984E+01  0.98253430572E+02  0.81610315904E+02  0.12780878982E+03  0.17770000000E+01 0. -1.
        -16    1    3    3    0    0 -0.41145302561E+02  0.30821963748E+03  0.47103004323E+03  0.56441259950E+03  0.00000000000E+00 0.  1.
          2    1    6    6  502    0  0.85240790740E+02 -0.16382096257E+03  0.87951872334E+02  0.20454542780E+03  0.00000000000E+00 0. -1.
         -1    1    6    6    0  502  0.44652288407E+02 -0.89454299869E+02  0.12213620929E+03  0.15783900736E+03  0.00000000000E+00 0.  1.
<mgrwt>
<rscale>  0 0.43495238E+03</rscale>
<asrwt>0</asrwt>
<pdfrwt beam="1">  1        1 0.33843803E+00 0.43495238E+03</pdfrwt>
<pdfrwt beam="2">  1       -2 0.23614619E-01 0.43495238E+03</pdfrwt>
<totfact> 0.33281578E+01</totfact>
</mgrwt>
</event>
<event>
12    3  0.1092576E-007  0.4029231E+03  0.7818608E-02  0.1042772E+00
          3   -1    0    0  501    0  0.00000000000E+00  0.00000000000E+00  0.10134611012E+04  0.10134611012E+04  0.00000000000E+00 0. -1.
         -4   -1    0    0    0  501 -0.00000000000E+00 -0.00000000000E+00 -0.18062091155E+03  0.18062091155E+03  0.00000000000E+00 0.  1.
        -24    2    1    2    0    0 -0.11543571435E+03 -0.16446533515E+03  0.15679022207E+03  0.26825964879E+03  0.83700745614E+02 0.  0.
    5000000    2    1    2    0    0  0.11543571435E+03  0.16446533515E+03  0.67604996758E+03  0.92582236396E+03  0.59977432449E+03 0.  0.
        -24    2    4    4    0    0 -0.21264655987E+03  0.70239008712E+00  0.12655608486E+03  0.26036340696E+03  0.80954359306E+02 0.  0.
         24    2    4    4    0    0  0.32808227422E+03  0.16376294507E+03  0.54949388273E+03  0.66545895700E+03  0.80223534368E+02 0.  0.
         13    1    5    5    0    0 -0.15047901740E+03 -0.24564791150E+02  0.11782489640E+03  0.19269164448E+03  0.00000000000E+00 0. -1.
        -14    1    5    5    0    0 -0.62167542473E+02  0.25267181238E+02  0.87311884617E+01  0.67671762477E+02  0.00000000000E+00 0.  1.
         15    1    3    3    0    0 -0.65614675098E+02 -0.37650035160E+02  0.27740109729E+02  0.80594554112E+02  0.17770000000E+01 0. -1.
        -16    1    3    3    0    0 -0.49821039255E+02 -0.12681529999E+03  0.12905011234E+03  0.18766509468E+03  0.00000000000E+00 0.  1.
          2    1    6    6  502    0  0.18204812158E+03  0.48752715999E+02  0.30099147333E+03  0.35512562975E+03  0.00000000000E+00 0. -1.
         -1    1    6    6    0  502  0.14603415264E+03  0.11501022907E+03  0.24850240939E+03  0.31033332725E+03  0.00000000000E+00 0.  1.
<mgrwt>
<rscale>  0 0.40292310E+03</rscale>
<asrwt>0</asrwt>
<pdfrwt beam="1">  1        3 0.15591709E+00 0.40292310E+03</pdfrwt>
<pdfrwt beam="2">  1       -4 0.27787833E-01 0.40292310E+03</pdfrwt>
<totfact> 0.82368711E+00</totfact>
</mgrwt>
</event>
<event>
12    3  0.1092576E-007  0.1954926E+04  0.7818608E-02  0.8627989E-01
          1   -1    0    0  501    0  0.00000000000E+00  0.00000000000E+00  0.16473080704E+04  0.16473080704E+04  0.00000000000E+00 0. -1.
         -2   -1    0    0    0  501 -0.00000000000E+00 -0.00000000000E+00 -0.24316211836E+04  0.24316211836E+04  0.00000000000E+00 0.  1.
        -24    2    1    2    0    0  0.85909694408E+03  0.17273786209E+04 -0.57396306324E+02  0.19318190760E+04  0.82134932312E+02 0.  0.
    5000000    2    1    2    0    0 -0.85909694408E+03 -0.17273786209E+04 -0.72691680679E+03  0.21471101781E+04  0.59982465235E+03 0.  0.
        -24    2    4    4    0    0 -0.84916002693E+03 -0.13528919671E+04 -0.74253674525E+03  0.17636133892E+04  0.87074349888E+02 0.  0.
         24    2    4    4    0    0 -0.99369171547E+01 -0.37448665375E+03  0.15619938458E+02  0.38349678888E+03  0.80540725398E+02 0.  0.
         13    1    5    5    0    0 -0.72525153080E+03 -0.11531815951E+04 -0.66653534426E+03  0.15166037516E+04  0.00000000000E+00 0. -1.
        -14    1    5    5    0    0 -0.12390849613E+03 -0.19971037206E+03 -0.76001400993E+02  0.24700963761E+03  0.00000000000E+00 0.  1.
         15    1    3    3    0    0  0.33393674233E+03  0.72011335794E+03  0.10486715098E+02  0.79384515183E+03  0.17770000000E+01 0. -1.
        -16    1    3    3    0    0  0.52516020175E+03  0.10072652629E+04 -0.67883021422E+02  0.11379739241E+04  0.00000000000E+00 0.  1.
          2    1    6    6  502    0  0.34542319757E+02 -0.18324977623E+03 -0.70039719681E+00  0.18647826388E+03  0.00000000000E+00 0. -1.
         -1    1    6    6    0  502 -0.44479236912E+02 -0.19123687752E+03  0.16320335654E+02  0.19701852500E+03  0.00000000000E+00 0.  1.
<mgrwt>
<rscale>  0 0.19549262E+04</rscale>
<asrwt>0</asrwt>
<pdfrwt beam="1">  1        1 0.25343201E+00 0.19549262E+04</pdfrwt>
<pdfrwt beam="2">  1       -2 0.37409557E+00 0.19549262E+04</pdfrwt>
<totfact> 0.44468955E-02</totfact>
</mgrwt>
</event>
<event>
12    3  0.1092576E-007  0.9427288E+03  0.7818608E-02  0.9373690E-01
          1   -1    0    0  501    0  0.00000000000E+00  0.00000000000E+00  0.61920376512E+03  0.61920376512E+03  0.00000000000E+00 0. -1.
         -2   -1    0    0    0  501 -0.00000000000E+00 -0.00000000000E+00 -0.14945460182E+04  0.14945460182E+04  0.00000000000E+00 0.  1.
        -24    2    1    2    0    0 -0.71729535807E+03 -0.47730446131E+03 -0.29486893607E+03  0.91408499800E+03  0.79192894976E+02 0.  0.
    5000000    2    1    2    0    0  0.71729535807E+03  0.47730446131E+03 -0.58047331703E+03  0.11996647853E+04  0.59992845067E+03 0.  0.
        -24    2    4    4    0    0  0.73408627798E+03  0.55766737735E+03 -0.57286905385E+03  0.10884070046E+04  0.81088146804E+02 0.  0.
         24    2    4    4    0    0 -0.16790919904E+02 -0.80362916045E+02 -0.76042631785E+01  0.11125778073E+03  0.74701644486E+02 0.  0.
         13    1    5    5    0    0  0.70157700717E+03  0.50841461668E+03 -0.53721111824E+03  0.10194564753E+04  0.00000000000E+00 0. -1.
        -14    1    5    5    0    0  0.32509270804E+02  0.49252760670E+02 -0.35657935609E+02  0.68950529321E+02  0.00000000000E+00 0.  1.
         15    1    3    3    0    0 -0.92372956377E+02 -0.42387296988E+02 -0.56385615465E+02  0.11624087653E+03  0.17770000000E+01 0. -1.
        -16    1    3    3    0    0 -0.62492240169E+03 -0.43491716432E+03 -0.23848332060E+03  0.79784412147E+03  0.00000000000E+00 0.  1.
          4    1    6    6  502    0  0.49817645889E+01 -0.74205412439E+02  0.18573514083E+02  0.76656615103E+02  0.00000000000E+00 0. -1.
         -3    1    6    6    0  502 -0.21772684493E+02 -0.61575036068E+01 -0.26177777262E+02  0.34601165632E+02  0.00000000000E+00 0.  1.
<mgrwt>
<rscale>  0 0.94272880E+03</rscale>
<asrwt>0</asrwt>
<pdfrwt beam="1">  1        1 0.95262119E-01 0.94272880E+03</pdfrwt>
<pdfrwt beam="2">  1       -2 0.22993015E+00 0.94272880E+03</pdfrwt>
<totfact> 0.24682588E+00</totfact>
</mgrwt>
</event>
<event>
12    3  0.1092576E-007  0.4682842E+03  0.7818608E-02  0.1022406E+00
          1   -1    0    0  501    0  0.00000000000E+00  0.00000000000E+00  0.37802378324E+03  0.37802378324E+03  0.00000000000E+00 0. -1.
         -2   -1    0    0    0  501 -0.00000000000E+00 -0.00000000000E+00 -0.88055958934E+03  0.88055958934E+03  0.00000000000E+00 0.  1.
        -24    2    1    2    0    0 -0.49428843562E+02  0.33315391793E+03  0.82132676373E+02  0.35556598386E+03  0.79035743440E+02 0.  0.
    5000000    2    1    2    0    0  0.49428843562E+02 -0.33315391793E+03 -0.58466848247E+03  0.90301738871E+03  0.60014033885E+03 0.  0.
        -24    2    4    4    0    0 -0.10090974889E+03 -0.40045541612E+03 -0.58551229390E+03  0.72074297738E+03  0.78092735935E+02 0.  0.
         24    2    4    4    0    0  0.15033859246E+03  0.67301498187E+02  0.84381143144E+00  0.18227441134E+03  0.78051681405E+02 0.  0.
         13    1    5    5    0    0 -0.21428502329E+02 -0.24260253926E+03 -0.33663371521E+03  0.41549660767E+03  0.00000000000E+00 0. -1.
        -14    1    5    5    0    0 -0.79481246565E+02 -0.15785287685E+03 -0.24887857869E+03  0.30524636970E+03  0.00000000000E+00 0.  1.
         15    1    3    3    0    0 -0.56361951527E+02  0.29292280647E+03  0.94496259534E+02  0.31291075553E+03  0.17770000000E+01 0. -1.
        -16    1    3    3    0    0  0.69331079650E+01  0.40231111460E+02 -0.12363583161E+02  0.42655228331E+02  0.00000000000E+00 0.  1.
          4    1    6    6  502    0  0.12001922443E+03  0.21038250457E+02 -0.19378473057E+02  0.12338049860E+03  0.00000000000E+00 0. -1.
         -3    1    6    6    0  502  0.30319368024E+02  0.46263247731E+02  0.20222284488E+02  0.58893912741E+02  0.00000000000E+00 0.  1.
<mgrwt>
<rscale>  0 0.46828424E+03</rscale>
<asrwt>0</asrwt>
<pdfrwt beam="1">  1        1 0.58157506E-01 0.46828424E+03</pdfrwt>
<pdfrwt beam="2">  1       -2 0.13547070E+00 0.46828424E+03</pdfrwt>
<totfact> 0.23116122E+01</totfact>
</mgrwt>
</event>
<event>
12    3  0.1092576E-007  0.1114768E+04  0.7818608E-02  0.9190916E-01
          1   -1    0    0  501    0  0.00000000000E+00  0.00000000000E+00  0.27762797438E+04  0.27762797438E+04  0.00000000000E+00 0. -1.
         -2   -1    0    0    0  501 -0.00000000000E+00 -0.00000000000E+00 -0.18690147309E+04  0.18690147309E+04  0.00000000000E+00 0.  1.
        -24    2    1    2    0    0 -0.39641162696E+03  0.10283630774E+04 -0.15396762721E+04  0.18953442006E+04  0.83987015094E+02 0.  0.
    5000000    2    1    2    0    0  0.39641162696E+03 -0.10283630774E+04  0.24469412851E+04  0.27499502741E+04  0.60002671659E+03 0.  0.
        -24    2    4    4    0    0  0.27801652839E+03 -0.89764528160E+03  0.23517602528E+04  0.25338659945E+04  0.81488341745E+02 0.  0.
         24    2    4    4    0    0  0.11839509857E+03 -0.13071779581E+03  0.95181032285E+02  0.21608427963E+03  0.80798796337E+02 0.  0.
         13    1    5    5    0    0  0.74502221028E+02 -0.33508439395E+03  0.93246792751E+03  0.99364408509E+03  0.00000000000E+00 0. -1.
        -14    1    5    5    0    0  0.20351430736E+03 -0.56256088765E+03  0.14192923253E+04  0.15402219094E+04  0.00000000000E+00 0.  1.
         15    1    3    3    0    0 -0.10748613988E+03  0.18833925455E+03 -0.31398070773E+03  0.38159138831E+03  0.17770000000E+01 0. -1.
        -16    1    3    3    0    0 -0.28892548708E+03  0.84002382287E+03 -0.12256955644E+04  0.15137528123E+04  0.00000000000E+00 0.  1.
          2    1    6    6  502    0  0.11795118017E+03 -0.10739557452E+03  0.10478678747E+03  0.19085743674E+03  0.00000000000E+00 0. -1.
         -1    1    6    6    0  502  0.44391839827E+00 -0.23322221296E+02 -0.96057551851E+01  0.25226842894E+02  0.00000000000E+00 0.  1.
<mgrwt>
<rscale>  0 0.11147682E+04</rscale>
<asrwt>0</asrwt>
<pdfrwt beam="1">  1        1 0.42711996E+00 0.11147682E+04</pdfrwt>
<pdfrwt beam="2">  1       -2 0.28754073E+00 0.11147682E+04</pdfrwt>
<totfact> 0.28874316E-02</totfact>
</mgrwt>
</event>
<event>
12    3  0.1092576E-007  0.2113401E+03  0.7818608E-02  0.1140509E+00
          1   -1    0    0  501    0  0.00000000000E+00  0.00000000000E+00  0.87098513283E+03  0.87098513283E+03  0.00000000000E+00 0. -1.
         -2   -1    0    0    0  501 -0.00000000000E+00 -0.00000000000E+00 -0.18046420167E+03  0.18046420167E+03  0.00000000000E+00 0.  1.
        -24    2    1    2    0    0 -0.10438524299E+03  0.94706392202E+02  0.23270279963E+03  0.28375851713E+03  0.80639465615E+02 0.  0.
    5000000    2    1    2    0    0  0.10438524299E+03 -0.94706392202E+02  0.45781813153E+03  0.76769081737E+03  0.59990513403E+03 0.  0.
        -24    2    4    4    0    0 -0.22297275935E+02 -0.12787720577E+03  0.56151510813E+03  0.58174127009E+03  0.79208209101E+02 0.  0.
         24    2    4    4    0    0  0.12668251892E+03  0.33170813568E+02 -0.10369697660E+03  0.18594954729E+03  0.81703168283E+02 0.  0.
         13    1    5    5    0    0  0.25685951405E+02 -0.41776387074E+02  0.25807514421E+03  0.26269338529E+03  0.00000000000E+00 0. -1.
        -14    1    5    5    0    0 -0.47983227340E+02 -0.86100818696E+02  0.30343996392E+03  0.31904788480E+03  0.00000000000E+00 0.  1.
         15    1    3    3    0    0 -0.90330114806E+02  0.70813661022E+02  0.22851048256E+03  0.25572309750E+03  0.17770000000E+01 0. -1.
        -16    1    3    3    0    0 -0.14055128180E+02  0.23892731180E+02  0.41923170656E+01  0.28035419629E+02  0.00000000000E+00 0.  1.
          2    1    6    6  502    0  0.48008610861E+02  0.22986187836E+02 -0.91262542376E+02  0.10565057117E+03  0.00000000000E+00 0. -1.
         -1    1    6    6    0  502  0.78673908060E+02  0.10184625731E+02 -0.12434434223E+02  0.80298976115E+02  0.00000000000E+00 0.  1.
<mgrwt>
<rscale>  0 0.21134009E+03</rscale>
<asrwt>0</asrwt>
<pdfrwt beam="1">  1        1 0.13399771E+00 0.21134009E+03</pdfrwt>
<pdfrwt beam="2">  1       -2 0.27763724E-01 0.21134009E+03</pdfrwt>
<totfact> 0.21215368E+02</totfact>
</mgrwt>
</event>
<event>
12    3  0.1092576E-007  0.1528255E+04  0.7818608E-02  0.8865878E-01
          1   -1    0    0  501    0  0.00000000000E+00  0.00000000000E+00  0.11028188417E+04  0.11028188417E+04  0.00000000000E+00 0. -1.
         -2   -1    0    0    0  501 -0.00000000000E+00 -0.00000000000E+00 -0.21441765179E+04  0.21441765179E+04  0.00000000000E+00 0.  1.
        -24    2    1    2    0    0 -0.14574538237E+04 -0.24181587497E+03 -0.45277339959E+03  0.15472835050E+04  0.80224236061E+02 0.  0.
    5000000    2    1    2    0    0  0.14574538237E+04  0.24181587497E+03 -0.58858427657E+03  0.16997118546E+04  0.59995197522E+03 0.  0.
        -24    2    4    4    0    0  0.94520948136E+03  0.41542685960E+03 -0.28299032579E+03  0.10734302327E+04  0.78539802728E+02 0.  0.
         24    2    4    4    0    0  0.51224434231E+03 -0.17361098464E+03 -0.30559395078E+03  0.62628162194E+03  0.79410119019E+02 0.  0.
         11    1    5    5    0    0  0.67683975679E+03  0.33175122063E+03 -0.22193048067E+03  0.78576336579E+03  0.00000000000E+00 0. -1.
        -12    1    5    5    0    0  0.26836972456E+03  0.83675638969E+02 -0.61059845111E+02  0.28766686689E+03  0.00000000000E+00 0.  1.
         15    1    3    3    0    0 -0.69721508024E+03 -0.77489422222E+02 -0.22888707844E+03  0.73790645144E+03  0.17770000000E+01 0. -1.
        -16    1    3    3    0    0 -0.76023874343E+03 -0.16432645274E+03 -0.22388632115E+03  0.80937705359E+03  0.00000000000E+00 0.  1.
          4    1    6    6  502    0  0.28797744060E+03 -0.11833464674E+03 -0.21404425629E+03  0.37782143741E+03  0.00000000000E+00 0. -1.
         -3    1    6    6    0  502  0.22426690171E+03 -0.55276337898E+02 -0.91549694496E+02  0.24846018453E+03  0.00000000000E+00 0.  1.
<mgrwt>
<rscale>  0 0.15282550E+04</rscale>
<asrwt>0</asrwt>
<pdfrwt beam="1">  1        1 0.16966444E+00 0.15282550E+04</pdfrwt>
<pdfrwt beam="2">  1       -2 0.32987331E+00 0.15282550E+04</pdfrwt>
<totfact> 0.21741736E-01</totfact>
</mgrwt>
</event>
<event>
12    3  0.1092576E-007  0.5550069E+03  0.7818608E-02  0.1000342E+00
         -2   -1    0    0    0  501 -0.00000000000E+00  0.00000000000E+00  0.10360665762E+04  0.10360665762E+04  0.00000000000E+00 0.  1.
          1   -1    0    0  501    0  0.00000000000E+00 -0.00000000000E+00 -0.48688361367E+03  0.48688361367E+03  0.00000000000E+00 0. -1.
        -24    2    1    2    0    0  0.43514514374E+03  0.29245043869E+03  0.49333457902E+03  0.72426337854E+03  0.79371779769E+02 0.  0.
    5000000    2    1    2    0    0 -0.43514514374E+03 -0.29245043869E+03  0.55848383496E+02  0.79868681132E+03  0.59991918241E+03 0.  0.
        -24    2    4    4    0    0 -0.10085717873E+03 -0.20074876027E+03  0.28770083164E+03  0.37365808605E+03  0.79852122641E+02 0.  0.
         24    2    4    4    0    0 -0.33428796501E+03 -0.91701678428E+02 -0.23185244815E+03  0.42502872527E+03  0.82074467503E+02 0.  0.
         11    1    5    5    0    0 -0.10813507660E+03 -0.15181446409E+03  0.24795398718E+03  0.31019672154E+03  0.00000000000E+00 0. -1.
        -12    1    5    5    0    0  0.72778978735E+01 -0.48934296176E+02  0.39746844467E+02  0.63461364505E+02  0.00000000000E+00 0.  1.
         15    1    3    3    0    0  0.23245528514E+03  0.14477355554E+03  0.20474035326E+03  0.34193071221E+03  0.17770000000E+01 0. -1.
        -16    1    3    3    0    0  0.20268985860E+03  0.14767688316E+03  0.28859422576E+03  0.38233266633E+03  0.00000000000E+00 0.  1.
          2    1    6    6  502    0 -0.14036819196E+03 -0.61521450419E+02 -0.61446971012E+02  0.16511768052E+03  0.00000000000E+00 0. -1.
         -1    1    6    6    0  502 -0.19391977305E+03 -0.30180228009E+02 -0.17040547713E+03  0.25991104475E+03  0.00000000000E+00 0.  1.
<mgrwt>
<rscale>  0 0.55500686E+03</rscale>
<asrwt>0</asrwt>
<pdfrwt beam="1">  1        1 0.74905171E-01 0.55500686E+03</pdfrwt>
<pdfrwt beam="2">  1       -2 0.15939486E+00 0.55500686E+03</pdfrwt>
<totfact> 0.10684773E+01</totfact>
</mgrwt>
</event>
<event>
12    3  0.1092576E-007  0.7159466E+03  0.7818608E-02  0.9690343E-01
         -2   -1    0    0    0  501 -0.00000000000E+00  0.00000000000E+00  0.11060378845E+04  0.11060378845E+04  0.00000000000E+00 0.  1.
          1   -1    0    0  501    0  0.00000000000E+00 -0.00000000000E+00 -0.84509464959E+03  0.84509464959E+03  0.00000000000E+00 0. -1.
        -24    2    1    2    0    0 -0.26183687112E+03  0.65846139821E+03  0.63042551507E+03  0.95179924683E+03  0.79721491488E+02 0.  0.
    5000000    2    1    2    0    0  0.26183687112E+03 -0.65846139821E+03 -0.36948228014E+03  0.99933328727E+03  0.60001658618E+03 0.  0.
        -24    2    4    4    0    0  0.20567213220E+03 -0.46727144778E+03 -0.52774242207E+03  0.73910577154E+03  0.84389843013E+02 0.  0.
         24    2    4    4    0    0  0.56164738917E+02 -0.19118995043E+03  0.15826014192E+03  0.26022751573E+03  0.54442744009E+02 0.  0.
         11    1    5    5    0    0  0.11319160014E+03 -0.34086611458E+03 -0.39410778369E+03  0.53321945911E+03  0.00000000000E+00 0. -1.
        -12    1    5    5    0    0  0.92480532063E+02 -0.12640533320E+03 -0.13363463838E+03  0.20588631243E+03  0.00000000000E+00 0.  1.
         15    1    3    3    0    0 -0.89571313254E+01  0.73463873079E+02  0.87182306964E+02  0.11437256326E+03  0.17770000000E+01 0. -1.
        -16    1    3    3    0    0 -0.25287973979E+03  0.58499752513E+03  0.54324320810E+03  0.83742668357E+03  0.00000000000E+00 0.  1.
          2    1    6    6  502    0  0.64676107741E+01 -0.10550270803E+03  0.64449979026E+02  0.12380004518E+03  0.00000000000E+00 0. -1.
         -1    1    6    6    0  502  0.49697128142E+02 -0.85687242406E+02  0.93810162899E+02  0.13642747055E+03  0.00000000000E+00 0.  1.
<mgrwt>
<rscale>  0 0.71594657E+03</rscale>
<asrwt>0</asrwt>
<pdfrwt beam="1">  1        1 0.13001456E+00 0.71594657E+03</pdfrwt>
<pdfrwt beam="2">  1       -2 0.17015968E+00 0.71594657E+03</pdfrwt>
<totfact> 0.38813207E+00</totfact>
</mgrwt>
</event>
<event>
12    3  0.1092576E-007  0.6451472E+03  0.7818608E-02  0.9815928E-01
          1   -1    0    0  501    0  0.00000000000E+00  0.00000000000E+00  0.10956103064E+04  0.10956103064E+04  0.00000000000E+00 0. -1.
         -2   -1    0    0    0  501 -0.00000000000E+00 -0.00000000000E+00 -0.40583304302E+03  0.40583304302E+03  0.00000000000E+00 0.  1.
        -24    2    1    2    0    0  0.12191964274E+03  0.50399431032E+03  0.39034776628E+03  0.65380976032E+03  0.78874329957E+02 0.  0.
    5000000    2    1    2    0    0 -0.12191964274E+03 -0.50399431032E+03  0.29942949709E+03  0.84763358909E+03  0.59995834314E+03 0.  0.
        -24    2    4    4    0    0 -0.32115298518E+03 -0.16205403580E+03  0.50640775492E+02  0.37343603328E+03  0.86540351287E+02 0.  0.
         24    2    4    4    0    0  0.19923334244E+03 -0.34194027451E+03  0.24878872159E+03  0.47419755580E+03  0.79689509104E+02 0.  0.
         11    1    5    5    0    0 -0.17827074318E+03 -0.12751909075E+03  0.56409368457E+02  0.22632629814E+03  0.00000000000E+00 0. -1.
        -12    1    5    5    0    0 -0.14288224201E+03 -0.34534945054E+02 -0.57685929650E+01  0.14710973515E+03  0.00000000000E+00 0.  1.
         15    1    3    3    0    0  0.67636045596E+02  0.40544078073E+03  0.32209751012E+03  0.52221339039E+03  0.17770000000E+01 0. -1.
        -16    1    3    3    0    0  0.54283597143E+02  0.98553529587E+02  0.68250256157E+02  0.13159636993E+03  0.00000000000E+00 0.  1.
          2    1    6    6  502    0  0.18645053058E+03 -0.27400794724E+03  0.22702849864E+03  0.40172888208E+03  0.00000000000E+00 0. -1.
         -1    1    6    6    0  502  0.12782811864E+02 -0.67932327273E+02  0.21760222956E+02  0.72468673721E+02  0.00000000000E+00 0.  1.
<mgrwt>
<rscale>  0 0.64514720E+03</rscale>
<asrwt>0</asrwt>
<pdfrwt beam="1">  1        1 0.16855543E+00 0.64514720E+03</pdfrwt>
<pdfrwt beam="2">  1       -2 0.62435853E-01 0.64514720E+03</pdfrwt>
<totfact> 0.27623692E+01</totfact>
</mgrwt>
</event>
<event>
12    3  0.1734700E-007  0.9336529E+03  0.7818608E-02  0.9384465E-01
          1   -1    0    0  501    0  0.00000000000E+00  0.00000000000E+00  0.14275143936E+04  0.14275143936E+04  0.00000000000E+00 0. -1.
         -2   -1    0    0    0  501 -0.00000000000E+00 -0.00000000000E+00 -0.61889464699E+03  0.61889464699E+03  0.00000000000E+00 0.  1.
        -24    2    1    2    0    0  0.34022244839E+03  0.76987902603E+03  0.38604577601E+03  0.92968405813E+03  0.82559540070E+02 0.  0.
    5000000    2    1    2    0    0 -0.34022244839E+03 -0.76987902603E+03  0.42257397061E+03  0.11167249825E+04  0.60003407964E+03 0.  0.
        -24    2    4    4    0    0  0.10567767411E+03 -0.46650387634E+03  0.24549644094E+03  0.54346733939E+03  0.79338572159E+02 0.  0.
         24    2    4    4    0    0 -0.44590012250E+03 -0.30337514969E+03  0.17707752967E+03  0.57325764308E+03  0.80027952230E+02 0.  0.
         13    1    5    5    0    0  0.58214513310E+02 -0.32995072037E+03  0.13379141091E+03  0.36077215672E+03  0.00000000000E+00 0. -1.
        -14    1    5    5    0    0  0.47463160795E+02 -0.13655315596E+03  0.11170503003E+03  0.18269518267E+03  0.00000000000E+00 0.  1.
         15    1    3    3    0    0  0.25517600372E+03  0.48317758228E+03  0.26069429175E+03  0.60542550357E+03  0.17770000000E+01 0. -1.
        -16    1    3    3    0    0  0.85046444670E+02  0.28670144375E+03  0.12535148427E+03  0.32425855456E+03  0.00000000000E+00 0.  1.
          2    1    6    6  502    0 -0.30662899338E+03 -0.23910050529E+03  0.99464126520E+02  0.40135209440E+03  0.00000000000E+00 0. -1.
         -1    1    6    6    0  502 -0.13927112912E+03 -0.64274644398E+02  0.77613403149E+02  0.17190554868E+03  0.00000000000E+00 0.  1.
<mgrwt>
<rscale>  0 0.93365293E+03</rscale>
<asrwt>0</asrwt>
<pdfrwt beam="1">  1        1 0.21961760E+00 0.93365293E+03</pdfrwt>
<pdfrwt beam="2">  1       -2 0.95214561E-01 0.93365293E+03</pdfrwt>
<totfact> 0.60247331E+00</totfact>
</mgrwt>
</event>
<event>
12    3  0.1092576E-007  0.1382417E+04  0.7818608E-02  0.8966645E-01
         -2   -1    0    0    0  501 -0.00000000000E+00  0.00000000000E+00  0.13986938086E+04  0.13986938086E+04  0.00000000000E+00 0.  1.
          1   -1    0    0  501    0  0.00000000000E+00 -0.00000000000E+00 -0.17855838602E+04  0.17855838602E+04  0.00000000000E+00 0. -1.
        -24    2    1    2    0    0 -0.13254198371E+04  0.34211631202E+01 -0.94089109242E+03  0.16274282052E+04  0.80604380825E+02 0.  0.
    5000000    2    1    2    0    0  0.13254198371E+04 -0.34211631202E+01  0.55400104074E+03  0.15568494636E+04  0.60009470101E+03 0.  0.
        -24    2    4    4    0    0  0.32957335901E+02  0.12093591185E+03  0.10107259385E+03  0.17946507513E+03  0.79248742569E+02 0.  0.
         24    2    4    4    0    0  0.12924625012E+04 -0.12435707497E+03  0.45292844690E+03  0.13773843885E+04  0.78227721700E+02 0.  0.
         13    1    5    5    0    0 -0.11494110607E+02  0.78482385469E+02  0.84300727013E+02  0.11575064571E+03  0.00000000000E+00 0. -1.
        -14    1    5    5    0    0  0.44451446507E+02  0.42453526380E+02  0.16771866835E+02  0.63714429416E+02  0.00000000000E+00 0.  1.
         15    1    3    3    0    0 -0.36939158753E+03  0.38431433315E+01 -0.30712974265E+03  0.48041310477E+03  0.17770000000E+01 0. -1.
        -16    1    3    3    0    0 -0.95602824962E+03 -0.42198021131E+00 -0.63376134977E+03  0.11470151004E+04  0.00000000000E+00 0.  1.
          2    1    6    6  502    0  0.34282395734E+03 -0.23609809075E+02  0.85015375280E+02  0.35399619044E+03  0.00000000000E+00 0. -1.
         -1    1    6    6    0  502  0.94963854390E+03 -0.10074726589E+03  0.36791307162E+03  0.10233881980E+04  0.00000000000E+00 0.  1.
<mgrwt>
<rscale>  0 0.13824174E+04</rscale>
<asrwt>0</asrwt>
<pdfrwt beam="1">  1        1 0.27470521E+00 0.13824174E+04</pdfrwt>
<pdfrwt beam="2">  1       -2 0.21518366E+00 0.13824174E+04</pdfrwt>
<totfact> 0.36960927E-01</totfact>
</mgrwt>
</event>
<event>
12    3  0.1092576E-007  0.6073470E+03  0.7818608E-02  0.9890280E-01
         -2   -1    0    0    0  501 -0.00000000000E+00  0.00000000000E+00  0.23641016865E+03  0.23641016865E+03  0.00000000000E+00 0.  1.
          1   -1    0    0  501    0  0.00000000000E+00 -0.00000000000E+00 -0.21985138734E+04  0.21985138734E+04  0.00000000000E+00 0. -1.
        -24    2    1    2    0    0  0.50278530978E+03 -0.15252907371E+02 -0.13444326005E+04  0.14376571392E+04  0.79582117837E+02 0.  0.
    5000000    2    1    2    0    0 -0.50278530978E+03  0.15252907371E+02 -0.61767110420E+03  0.99726690288E+03  0.59999830308E+03 0.  0.
        -24    2    4    4    0    0 -0.30245630485E+03  0.25468523511E+03 -0.15165521980E+03  0.43092978155E+03  0.79729452523E+02 0.  0.
         24    2    4    4    0    0 -0.20032900492E+03 -0.23943232774E+03 -0.46601588440E+03  0.56633712133E+03  0.78149732560E+02 0.  0.
         11    1    5    5    0    0 -0.76769586195E+02  0.87961980945E+02 -0.11597261495E+02  0.11732593886E+03  0.00000000000E+00 0. -1.
        -12    1    5    5    0    0 -0.22568671866E+03  0.16672325417E+03 -0.14005795831E+03  0.31360384268E+03  0.00000000000E+00 0.  1.
         15    1    3    3    0    0  0.24400427764E+03 -0.21768554793E+02 -0.75873898889E+03  0.79730795084E+03  0.17770000000E+01 0. -1.
        -16    1    3    3    0    0  0.25878103214E+03  0.65156474223E+01 -0.58569361164E+03  0.64034918832E+03  0.00000000000E+00 0.  1.
          2    1    6    6  502    0 -0.11164008476E+03 -0.15530265167E+03 -0.21924855169E+03  0.29095076827E+03  0.00000000000E+00 0. -1.
         -1    1    6    6    0  502 -0.88688920163E+02 -0.84129676075E+02 -0.24676733271E+03  0.27538635306E+03  0.00000000000E+00 0.  1.
<mgrwt>
<rscale>  0 0.60734698E+03</rscale>
<asrwt>0</asrwt>
<pdfrwt beam="1">  1        1 0.33823289E+00 0.60734698E+03</pdfrwt>
<pdfrwt beam="2">  1       -2 0.36370796E-01 0.60734698E+03</pdfrwt>
<totfact> 0.14561740E+01</totfact>
</mgrwt>
</event>
<event>
12    3  0.1092576E-007  0.4037995E+03  0.7818608E-02  0.1042472E+00
         -2   -1    0    0    0  501 -0.00000000000E+00  0.00000000000E+00  0.46933380810E+03  0.46933380810E+03  0.00000000000E+00 0.  1.
          1   -1    0    0  501    0  0.00000000000E+00 -0.00000000000E+00 -0.39733926454E+03  0.39733926454E+03  0.00000000000E+00 0. -1.
        -24    2    1    2    0    0 -0.14992088973E+03  0.14957573078E+03  0.28341394034E+01  0.22652643019E+03  0.80355577371E+02 0.  0.
    5000000    2    1    2    0    0  0.14992088973E+03 -0.14957573078E+03  0.69160404162E+02  0.64014664244E+03  0.60012947762E+03 0.  0.
        -24    2    4    4    0    0 -0.20643572105E+03 -0.12935722570E+02 -0.58817098678E+02  0.22968802048E+03  0.80709948649E+02 0.  0.
         24    2    4    4    0    0  0.35635661078E+03 -0.13664000821E+03  0.12797750284E+03  0.41045862196E+03  0.80234115050E+02 0.  0.
         13    1    5    5    0    0 -0.12439040664E+03  0.13470778763E+02  0.39512650172E+00  0.12511830909E+03  0.00000000000E+00 0. -1.
        -14    1    5    5    0    0 -0.82045314411E+02 -0.26406501333E+02 -0.59212225180E+02  0.10456971139E+03  0.00000000000E+00 0.  1.
         15    1    3    3    0    0 -0.88091279637E+02  0.81126035521E+02 -0.37998386151E+02  0.12565246622E+03  0.17770000000E+01 0. -1.
        -16    1    3    3    0    0 -0.61829610092E+02  0.68449695260E+02  0.40832525554E+02  0.10087396398E+03  0.00000000000E+00 0.  1.
          4    1    6    6  502    0  0.28500356005E+03 -0.89353487768E+02  0.12775835657E+03  0.32485885041E+03  0.00000000000E+00 0. -1.
         -3    1    6    6    0  502  0.71353050732E+02 -0.47286520443E+02  0.21914627051E+00  0.85599771550E+02  0.00000000000E+00 0.  1.
<mgrwt>
<rscale>  0 0.40379949E+03</rscale>
<asrwt>0</asrwt>
<pdfrwt beam="1">  1        1 0.61129118E-01 0.40379949E+03</pdfrwt>
<pdfrwt beam="2">  1       -2 0.72205201E-01 0.40379949E+03</pdfrwt>
<totfact> 0.95485193E+01</totfact>
</mgrwt>
</event>
<event>
12    3  0.1092576E-007  0.4936823E+03  0.7818608E-02  0.1015441E+00
          1   -1    0    0  501    0  0.00000000000E+00  0.00000000000E+00  0.11012527191E+04  0.11012527191E+04  0.00000000000E+00 0. -1.
         -2   -1    0    0    0  501 -0.00000000000E+00 -0.00000000000E+00 -0.33853353719E+03  0.33853353719E+03  0.00000000000E+00 0.  1.
        -24    2    1    2    0    0  0.41698659895E+03  0.13709184580E+03  0.13259669486E+03  0.46522323744E+03  0.78605211489E+02 0.  0.
    5000000    2    1    2    0    0 -0.41698659895E+03 -0.13709184580E+03  0.63012248699E+03  0.97456301881E+03  0.60003894134E+03 0.  0.
        -24    2    4    4    0    0 -0.54241951964E+02  0.74727683346E+02 -0.79833855566E+02  0.14551379930E+03  0.79211143661E+02 0.  0.
         24    2    4    4    0    0 -0.36274464699E+03 -0.21181952915E+03  0.70995634256E+03  0.82904921951E+03  0.82664431218E+02 0.  0.
         13    1    5    5    0    0 -0.73027841595E+02  0.72208918058E+02 -0.67876586264E+02  0.12310330807E+03  0.00000000000E+00 0. -1.
        -14    1    5    5    0    0  0.18785889631E+02  0.25187652877E+01 -0.11957269302E+02  0.22410491225E+02  0.00000000000E+00 0.  1.
         15    1    3    3    0    0  0.22788483710E+03  0.11021499710E+03  0.96063419040E+02  0.27075853223E+03  0.17770000000E+01 0. -1.
        -16    1    3    3    0    0  0.18910176185E+03  0.26876848701E+02  0.36533275824E+02  0.19446470521E+03  0.00000000000E+00 0.  1.
          4    1    6    6  502    0 -0.28580910911E+03 -0.14945388691E+03  0.59907303539E+03  0.68037622893E+03  0.00000000000E+00 0. -1.
         -3    1    6    6    0  502 -0.76935537875E+02 -0.62365642234E+02  0.11088330717E+03  0.14867299058E+03  0.00000000000E+00 0.  1.
<mgrwt>
<rscale>  0 0.49368227E+03</rscale>
<asrwt>0</asrwt>
<pdfrwt beam="1">  1        1 0.16942349E+00 0.49368227E+03</pdfrwt>
<pdfrwt beam="2">  1       -2 0.52082083E-01 0.49368227E+03</pdfrwt>
<totfact> 0.40708138E+01</totfact>
</mgrwt>
</event>
<event>
12    3  0.1092576E-007  0.7251301E+03  0.7818608E-02  0.9675196E-01
         -2   -1    0    0    0  501 -0.00000000000E+00  0.00000000000E+00  0.59000934753E+03  0.59000934753E+03  0.00000000000E+00 0.  1.
          1   -1    0    0  501    0  0.00000000000E+00 -0.00000000000E+00 -0.90983707375E+03  0.90983707375E+03  0.00000000000E+00 0. -1.
        -24    2    1    2    0    0 -0.44353250234E+03  0.41323186286E+03 -0.11186915085E+03  0.62187456113E+03  0.82046387865E+02 0.  0.
    5000000    2    1    2    0    0  0.44353250234E+03 -0.41323186286E+03 -0.20795857536E+03  0.87797186015E+03  0.60008846434E+03 0.  0.
        -24    2    4    4    0    0  0.52251096735E+03 -0.13382545594E+03 -0.18629431489E+03  0.57605709182E+03  0.78798715808E+02 0.  0.
         24    2    4    4    0    0 -0.78978465016E+02 -0.27940640692E+03 -0.21664260471E+02  0.30191476833E+03  0.79860184007E+02 0.  0.
         13    1    5    5    0    0  0.45518391550E+03 -0.88278018580E+02 -0.16329003844E+03  0.49157811398E+03  0.00000000000E+00 0. -1.
        -14    1    5    5    0    0  0.67327051855E+02 -0.45547437358E+02 -0.23004276454E+02  0.84478977837E+02  0.00000000000E+00 0.  1.
         15    1    3    3    0    0 -0.11262313882E+03  0.91417456795E+02 -0.61428804705E+02  0.15753659442E+03  0.17770000000E+01 0. -1.
        -16    1    3    3    0    0 -0.33090936352E+03  0.32181440606E+03 -0.50440346145E+02  0.46433796672E+03  0.00000000000E+00 0.  1.
          4    1    6    6  502    0 -0.42532556681E+02 -0.46930378318E+02 -0.20582662596E+02  0.66596732550E+02  0.00000000000E+00 0. -1.
         -1    1    6    6    0  502 -0.36445908335E+02 -0.23247602860E+03 -0.10815978751E+01  0.23531803578E+03  0.00000000000E+00 0.  1.
<mgrwt>
<rscale>  0 0.72513009E+03</rscale>
<asrwt>0</asrwt>
<pdfrwt beam="1">  1        1 0.13997493E+00 0.72513009E+03</pdfrwt>
<pdfrwt beam="2">  1       -2 0.90770669E-01 0.72513009E+03</pdfrwt>
<totfact> 0.16630905E+01</totfact>
</mgrwt>
</event>
<event>
12    3  0.1092576E-007  0.6846440E+03  0.7818608E-02  0.9743859E-01
          1   -1    0    0  501    0  0.00000000000E+00  0.00000000000E+00  0.10929582216E+04  0.10929582216E+04  0.00000000000E+00 0. -1.
         -2   -1    0    0    0  501 -0.00000000000E+00 -0.00000000000E+00 -0.46027826375E+03  0.46027826375E+03  0.00000000000E+00 0.  1.
        -24    2    1    2    0    0  0.56888481579E+03 -0.23295671830E+01  0.14088890166E+03  0.59124046898E+03  0.77975951592E+02 0.  0.
    5000000    2    1    2    0    0 -0.56888481579E+03  0.23295671830E+01  0.49179105623E+03  0.96199601640E+03  0.59995210814E+03 0.  0.
        -24    2    4    4    0    0 -0.57356793561E+02 -0.22580329635E+03  0.72843775662E+02  0.25775425349E+03  0.82789547212E+02 0.  0.
         24    2    4    4    0    0 -0.51152802223E+03  0.22813286354E+03  0.41894728057E+03  0.70424176292E+03  0.82061658404E+02 0.  0.
         11    1    5    5    0    0 -0.41778818039E+02 -0.17457211195E+03  0.16870946597E+02  0.18029287491E+03  0.00000000000E+00 0. -1.
        -12    1    5    5    0    0 -0.15577975522E+02 -0.51231184407E+02  0.55972829064E+02  0.77461378574E+02  0.00000000000E+00 0.  1.
         15    1    3    3    0    0  0.31687660668E+03  0.35685838881E+02  0.90108711663E+02  0.33137139376E+03  0.17770000000E+01 0. -1.
        -16    1    3    3    0    0  0.25200820912E+03 -0.38015406064E+02  0.50780189994E+02  0.25986907522E+03  0.00000000000E+00 0.  1.
          2    1    6    6  502    0 -0.19265510262E+03  0.58679418631E+02  0.18867463567E+03  0.27596626765E+03  0.00000000000E+00 0. -1.
         -1    1    6    6    0  502 -0.31887291961E+03  0.16945344490E+03  0.23027264490E+03  0.42827549526E+03  0.00000000000E+00 0.  1.
<mgrwt>
<rscale>  0 0.68464402E+03</rscale>
<asrwt>0</asrwt>
<pdfrwt beam="1">  1        1 0.16814742E+00 0.68464402E+03</pdfrwt>
<pdfrwt beam="2">  1       -2 0.70812041E-01 0.68464402E+03</pdfrwt>
<totfact> 0.21056842E+01</totfact>
</mgrwt>
</event>
<event>
12    3  0.1092576E-007  0.5881968E+03  0.7818608E-02  0.9930201E-01
          1   -1    0    0  501    0  0.00000000000E+00  0.00000000000E+00  0.16859988951E+04  0.16859988951E+04  0.00000000000E+00 0. -1.
         -2   -1    0    0    0  501 -0.00000000000E+00 -0.00000000000E+00 -0.22487002926E+03  0.22487002926E+03  0.00000000000E+00 0.  1.
        -24    2    1    2    0    0 -0.38507384261E+03  0.20779458345E+03  0.31466239234E+03  0.54491047620E+03  0.80340231145E+02 0.  0.
    5000000    2    1    2    0    0  0.38507384261E+03 -0.20779458345E+03  0.11464664735E+04  0.13659584482E+04  0.59999721173E+03 0.  0.
        -24    2    4    4    0    0  0.44233206532E+03 -0.34784093830E+03  0.92939967067E+03  0.10892869273E+04  0.78174726257E+02 0.  0.
         24    2    4    4    0    0 -0.57258222707E+02  0.14004635485E+03  0.21706680284E+03  0.27667152086E+03  0.80855723258E+02 0.  0.
         13    1    5    5    0    0  0.37853103262E+03 -0.30149247393E+03  0.74068869043E+03  0.88476165753E+03  0.00000000000E+00 0. -1.
        -14    1    5    5    0    0  0.63801032702E+02 -0.46348464365E+02  0.18871098023E+03  0.20452526979E+03  0.00000000000E+00 0.  1.
         15    1    3    3    0    0 -0.12197629506E+02  0.23870483462E+02  0.72241721513E+01  0.27819571142E+02  0.17770000000E+01 0. -1.
        -16    1    3    3    0    0 -0.37287621311E+03  0.18392409999E+03  0.30743822019E+03  0.51709090506E+03  0.00000000000E+00 0.  1.
          4    1    6    6  502    0 -0.35400696850E+02  0.69265638138E+01  0.36966618502E+02  0.51649951666E+02  0.00000000000E+00 0. -1.
         -3    1    6    6    0  502 -0.21857525857E+02  0.13311979103E+03  0.18010018434E+03  0.22502156919E+03  0.00000000000E+00 0.  1.
<mgrwt>
<rscale>  0 0.58819683E+03</rscale>
<asrwt>0</asrwt>
<pdfrwt beam="1">  1        1 0.25938444E+00 0.58819683E+03</pdfrwt>
<pdfrwt beam="2">  1       -2 0.34595390E-01 0.58819683E+03</pdfrwt>
<totfact> 0.35246302E+01</totfact>
</mgrwt>
</event>
<event>
12    3  0.1092576E-007  0.5024698E+03  0.7818608E-02  0.1013136E+00
          1   -1    0    0  501    0  0.00000000000E+00  0.00000000000E+00  0.12643387856E+04  0.12643387856E+04  0.00000000000E+00 0. -1.
         -2   -1    0    0    0  501 -0.00000000000E+00 -0.00000000000E+00 -0.39817117165E+03  0.39817117165E+03  0.00000000000E+00 0.  1.
        -24    2    1    2    0    0  0.79745064362E+02  0.47472817944E+03 -0.21062259552E+02  0.48821306319E+03  0.78627327585E+02 0.  0.
    5000000    2    1    2    0    0 -0.79745064362E+02 -0.47472817944E+03  0.88722987349E+03  0.11742968941E+04  0.60005851992E+03 0.  0.
        -24    2    4    4    0    0  0.30620119945E+02 -0.31174175309E+03  0.72905286277E+02  0.33228604692E+03  0.83536362429E+02 0.  0.
         24    2    4    4    0    0 -0.11036518431E+03 -0.16298642635E+03  0.81432458721E+03  0.84201084714E+03  0.84336731459E+02 0.  0.
         13    1    5    5    0    0  0.26425152281E+01 -0.16657362378E+03  0.78881145463E+02  0.18432577176E+03  0.00000000000E+00 0. -1.
        -14    1    5    5    0    0  0.27977604717E+02 -0.14516812931E+03 -0.59758591860E+01  0.14796027516E+03  0.00000000000E+00 0.  1.
         15    1    3    3    0    0  0.62336497979E+02  0.14907044870E+03 -0.10164063970E+02  0.16190831845E+03  0.17770000000E+01 0. -1.
        -16    1    3    3    0    0  0.17408566382E+02  0.32565773074E+03 -0.10898195583E+02  0.32630474474E+03  0.00000000000E+00 0.  1.
          4    1    6    6  502    0 -0.22499028594E+02 -0.66564673337E+01  0.21925260583E+03  0.22050446709E+03  0.00000000000E+00 0. -1.
         -3    1    6    6    0  502 -0.87866155712E+02 -0.15632995902E+03  0.59507198139E+03  0.62150638005E+03  0.00000000000E+00 0.  1.
<mgrwt>
<rscale>  0 0.50246980E+03</rscale>
<asrwt>0</asrwt>
<pdfrwt beam="1">  1        1 0.19451366E+00 0.50246980E+03</pdfrwt>
<pdfrwt beam="2">  1       -2 0.61257104E-01 0.50246980E+03</pdfrwt>
<totfact> 0.22165009E+01</totfact>
</mgrwt>
</event>
<event>
12    3  0.1092576E-007  0.6896926E+03  0.7818608E-02  0.9735023E-01
         -2   -1    0    0    0  501 -0.00000000000E+00  0.00000000000E+00  0.48527441456E+03  0.48527441456E+03  0.00000000000E+00 0.  1.
          1   -1    0    0  501    0  0.00000000000E+00 -0.00000000000E+00 -0.11592436479E+04  0.11592436479E+04  0.00000000000E+00 0. -1.
        -24    2    1    2    0    0 -0.62198995151E+03  0.49463201325E+01 -0.19610823911E+03  0.65692303857E+03  0.78698610473E+02 0.  0.
    5000000    2    1    2    0    0  0.62198995151E+03 -0.49463201325E+01 -0.47786099418E+03  0.98759502385E+03  0.60008069084E+03 0.  0.
        -24    2    4    4    0    0  0.68063154632E+03 -0.15875533915E+02 -0.23473063515E+03  0.72489075954E+03  0.82805843745E+02 0.  0.
         24    2    4    4    0    0 -0.58641594813E+02  0.10929213782E+02 -0.24313035903E+03  0.26270426431E+03  0.79642166273E+02 0.  0.
         13    1    5    5    0    0  0.40956190400E+03  0.27856780760E+02 -0.15722286116E+03  0.43958614800E+03  0.00000000000E+00 0. -1.
        -14    1    5    5    0    0  0.27106964232E+03 -0.43732314675E+02 -0.77507773994E+02  0.28530461154E+03  0.00000000000E+00 0.  1.
         15    1    3    3    0    0 -0.39578415609E+03 -0.88970246976E+01 -0.16195713735E+03  0.42773534730E+03  0.17770000000E+01 0. -1.
        -16    1    3    3    0    0 -0.22620579542E+03  0.13843344830E+02 -0.34151101761E+02  0.22918769127E+03  0.00000000000E+00 0.  1.
          4    1    6    6  502    0 -0.25548590673E+02 -0.15104248861E+02 -0.20086135184E+03  0.20304224064E+03  0.00000000000E+00 0. -1.
         -3    1    6    6    0  502 -0.33093004140E+02  0.26033462643E+02 -0.42269007191E+02  0.59662023676E+02  0.00000000000E+00 0.  1.
<mgrwt>
<rscale>  0 0.68969255E+03</rscale>
<asrwt>0</asrwt>
<pdfrwt beam="1">  1        1 0.17834518E+00 0.68969255E+03</pdfrwt>
<pdfrwt beam="2">  1       -2 0.74657602E-01 0.68969255E+03</pdfrwt>
<totfact> 0.16738123E+01</totfact>
</mgrwt>
</event>
<event>
12    3  0.1112283E-007  0.6446894E+03  0.7818608E-02  0.9816796E-01
          1   -1    0    0  501    0  0.00000000000E+00  0.00000000000E+00  0.19885441530E+04  0.19885441530E+04  0.00000000000E+00 0. -1.
         -2   -1    0    0    0  501 -0.00000000000E+00 -0.00000000000E+00 -0.45189530851E+03  0.45189530851E+03  0.00000000000E+00 0.  1.
        -24    2    1    2    0    0 -0.13191902299E+03 -0.61388048426E+03 -0.46529616058E+02  0.63468048266E+03  0.80015200520E+02 0.  0.
    5000000    2    1    2    0    0  0.13191902299E+03  0.61388048426E+03  0.15831784606E+04  0.18057589789E+04  0.60004964311E+03 0.  0.
        -24    2    4    4    0    0 -0.28264524553E+02  0.19452928371E+03  0.11743074663E+04  0.11933060955E+04  0.79629682946E+02 0.  0.
         24    2    4    4    0    0  0.16018354754E+03  0.41935120055E+03  0.40887099424E+03  0.61245288342E+03  0.80055269490E+02 0.  0.
         11    1    5    5    0    0 -0.27161467026E+02  0.12580420320E+02  0.18487939013E+03  0.18728694872E+03  0.00000000000E+00 0. -1.
        -12    1    5    5    0    0 -0.11030575263E+01  0.18194886339E+03  0.98942807620E+03  0.10060191467E+04  0.00000000000E+00 0.  1.
         15    1    3    3    0    0 -0.36755902053E+02 -0.23655908047E+03 -0.54221882650E+02  0.24546764589E+03  0.17770000000E+01 0. -1.
        -16    1    3    3    0    0 -0.95163120936E+02 -0.37732140379E+03  0.76922665919E+01  0.38921283677E+03  0.00000000000E+00 0.  1.
          4    1    6    6  502    0  0.53832120493E+02  0.13229539335E+03  0.82328079348E+02  0.16485715316E+03  0.00000000000E+00 0. -1.
         -1    1    6    6    0  502  0.10635142705E+03  0.28705580720E+03  0.32654291490E+03  0.44759573027E+03  0.00000000000E+00 0.  1.
<mgrwt>
<rscale>  0 0.64468936E+03</rscale>
<asrwt>0</asrwt>
<pdfrwt beam="1">  1        1 0.30592986E+00 0.64468936E+03</pdfrwt>
<pdfrwt beam="2">  1       -2 0.69522356E-01 0.64468936E+03</pdfrwt>
<totfact> 0.53384162E+00</totfact>
</mgrwt>
</event>
<event>
12    3  0.1092576E-007  0.3870467E+03  0.7818608E-02  0.1048360E+00
         -2   -1    0    0    0  501 -0.00000000000E+00  0.00000000000E+00  0.10427470978E+03  0.10427470978E+03  0.00000000000E+00 0.  1.
          1   -1    0    0  501    0  0.00000000000E+00 -0.00000000000E+00 -0.18140891747E+04  0.18140891747E+04  0.00000000000E+00 0. -1.
        -24    2    1    2    0    0 -0.17615905239E+03 -0.11981863466E+03 -0.36225383872E+03  0.42795462265E+03  0.80800980360E+02 0.  0.
    5000000    2    1    2    0    0  0.17615905239E+03  0.11981863466E+03 -0.13475606262E+04  0.14904092619E+04  0.60000967452E+03 0.  0.
        -24    2    4    4    0    0  0.13940652996E+03 -0.18686595889E+03 -0.26565413536E+03  0.36266213040E+03  0.81231976500E+02 0.  0.
         24    2    4    4    0    0  0.36752522435E+02  0.30668459355E+03 -0.10819064909E+04  0.11277471315E+04  0.76718639824E+02 0.  0.
         11    1    5    5    0    0  0.10263765882E+03 -0.12408244329E+03 -0.23221993356E+03  0.28258987824E+03  0.00000000000E+00 0. -1.
        -12    1    5    5    0    0  0.36768871142E+02 -0.62783515602E+02 -0.33434201798E+02  0.80072252162E+02  0.00000000000E+00 0.  1.
         15    1    3    3    0    0 -0.14290737102E+03 -0.12768012870E+03 -0.32583688821E+03  0.37801794587E+03  0.17770000000E+01 0. -1.
        -16    1    3    3    0    0 -0.33251681374E+02  0.78614940393E+01 -0.36416950510E+02  0.49936676773E+02  0.00000000000E+00 0.  1.
          2    1    6    6  502    0  0.45837671544E+02  0.13506555277E+03 -0.40566302373E+03  0.43000730750E+03  0.00000000000E+00 0. -1.
         -1    1    6    6    0  502 -0.90851491086E+01  0.17161904078E+03 -0.67624346716E+03  0.69773982398E+03  0.00000000000E+00 0.  1.
<mgrwt>
<rscale>  0 0.38704672E+03</rscale>
<asrwt>0</asrwt>
<pdfrwt beam="1">  1        1 0.27909062E+00 0.38704672E+03</pdfrwt>
<pdfrwt beam="2">  1       -2 0.16042265E-01 0.38704672E+03</pdfrwt>
<totfact> 0.11755122E+02</totfact>
</mgrwt>
</event>
<event>
12    3  0.1092576E-007  0.6118291E+03  0.7818608E-02  0.9881164E-01
         -2   -1    0    0    0  501 -0.00000000000E+00  0.00000000000E+00  0.40240777340E+03  0.40240777340E+03  0.00000000000E+00 0.  1.
          1   -1    0    0  501    0  0.00000000000E+00 -0.00000000000E+00 -0.11959781366E+04  0.11959781366E+04  0.00000000000E+00 0. -1.
        -24    2    1    2    0    0  0.46261909492E+03  0.58962169218E+02  0.34149162393E+02  0.47470473036E+03  0.81764609403E+02 0.  0.
    5000000    2    1    2    0    0 -0.46261909492E+03 -0.58962169218E+02 -0.82771952559E+03  0.11236811796E+04  0.60003901212E+03 0.  0.
        -24    2    4    4    0    0 -0.59728887302E+03 -0.50932750989E+02 -0.65025822275E+03  0.88821453945E+03  0.82104621507E+02 0.  0.
         24    2    4    4    0    0  0.13466977810E+03 -0.80294182295E+01 -0.17746130284E+03  0.23546664020E+03  0.75839329842E+02 0.  0.
         13    1    5    5    0    0 -0.40997741299E+03 -0.63888320680E+02 -0.48310686166E+03  0.63683234565E+03  0.00000000000E+00 0. -1.
        -14    1    5    5    0    0 -0.18731146002E+03  0.12955569691E+02 -0.16715136109E+03  0.25138219379E+03  0.00000000000E+00 0.  1.
         15    1    3    3    0    0  0.96535103792E+02  0.55384559008E+01 -0.25378588583E+02  0.99984655050E+02  0.17770000000E+01 0. -1.
        -16    1    3    3    0    0  0.36608399112E+03  0.53423713318E+02  0.59527750975E+02  0.37472007531E+03  0.00000000000E+00 0.  1.
          2    1    6    6  502    0  0.10463788448E+03 -0.38521951644E+02 -0.11985397505E+03  0.16370095590E+03  0.00000000000E+00 0. -1.
         -1    1    6    6    0  502  0.30031893627E+02  0.30492533414E+02 -0.57607327784E+02  0.71765684301E+02  0.00000000000E+00 0.  1.
<mgrwt>
<rscale>  0 0.61182912E+03</rscale>
<asrwt>0</asrwt>
<pdfrwt beam="1">  1        1 0.18399664E+00 0.61182912E+03</pdfrwt>
<pdfrwt beam="2">  1       -2 0.61908888E-01 0.61182912E+03</pdfrwt>
<totfact> 0.23849292E+01</totfact>
</mgrwt>
</event>
<event>
12    3  0.1092576E-007  0.1692840E+04  0.7818608E-02  0.8765458E-01
          1   -1    0    0  501    0  0.00000000000E+00  0.00000000000E+00  0.19728522810E+04  0.19728522810E+04  0.00000000000E+00 0. -1.
         -2   -1    0    0    0  501 -0.00000000000E+00 -0.00000000000E+00 -0.19205983314E+04  0.19205983314E+04  0.00000000000E+00 0.  1.
        -24    2    1    2    0    0 -0.59790623136E+03 -0.15812817253E+04 -0.84061625374E+03  0.18896862543E+04  0.79590810848E+02 0.  0.
    5000000    2    1    2    0    0  0.59790623136E+03  0.15812817253E+04  0.89287020340E+03  0.20037643581E+04  0.59992553401E+03 0.  0.
        -24    2    4    4    0    0  0.28847132611E+03  0.70238408425E+03  0.72706248718E+03  0.10542991159E+04  0.79797604657E+02 0.  0.
         24    2    4    4    0    0  0.30943490525E+03  0.87889764109E+03  0.16580771622E+03  0.94946524222E+03  0.76033041107E+02 0.  0.
         13    1    5    5    0    0  0.56233182031E+02  0.12123155481E+03  0.17170977648E+03  0.21758563367E+03  0.00000000000E+00 0. -1.
        -14    1    5    5    0    0  0.23223814408E+03  0.58115252945E+03  0.55535271071E+03  0.83671348223E+03  0.00000000000E+00 0.  1.
         15    1    3    3    0    0 -0.20931777062E+03 -0.47926724980E+03 -0.23139286302E+03  0.57188883589E+03  0.17770000000E+01 0. -1.
        -16    1    3    3    0    0 -0.38858846073E+03 -0.11020144755E+04 -0.60922339072E+03  0.13177974184E+04  0.00000000000E+00 0.  1.
          4    1    6    6  502    0  0.10653738719E+03  0.41335335686E+03  0.84898696609E+02  0.43522293274E+03  0.00000000000E+00 0. -1.
         -3    1    6    6    0  502  0.20289751805E+03  0.46554428423E+03  0.80909019608E+02  0.51424230949E+03  0.00000000000E+00 0.  1.
<mgrwt>
<rscale>  0 0.16928403E+04</rscale>
<asrwt>0</asrwt>
<pdfrwt beam="1">  1        1 0.30351573E+00 0.16928403E+04</pdfrwt>
<pdfrwt beam="2">  1       -2 0.29547667E+00 0.16928403E+04</pdfrwt>
<totfact> 0.84923900E-02</totfact>
</mgrwt>
</event>
<event>
12    3  0.1092576E-007  0.6818207E+03  0.7818608E-02  0.9748836E-01
         -2   -1    0    0    0  501 -0.00000000000E+00  0.00000000000E+00  0.29722489017E+03  0.29722489017E+03  0.00000000000E+00 0.  1.
          1   -1    0    0  501    0  0.00000000000E+00 -0.00000000000E+00 -0.18574528586E+04  0.18574528586E+04  0.00000000000E+00 0. -1.
        -24    2    1    2    0    0  0.55065948224E+03  0.98177444457E+02 -0.10397281039E+04  0.11831806974E+04  0.77571622551E+02 0.  0.
    5000000    2    1    2    0    0 -0.55065948224E+03 -0.98177444457E+02 -0.52049986458E+03  0.97149705143E+03  0.60001811301E+03 0.  0.
        -24    2    4    4    0    0 -0.42042348748E+03  0.20349598196E+03 -0.23569348048E+03  0.52936576742E+03  0.80685658467E+02 0.  0.
         24    2    4    4    0    0 -0.13023599476E+03 -0.30167342642E+03 -0.28480638410E+03  0.44213128401E+03  0.79982031366E+02 0.  0.
         11    1    5    5    0    0 -0.31407028471E+03  0.13670161013E+03 -0.13415762318E+03  0.36786647280E+03  0.00000000000E+00 0. -1.
        -12    1    5    5    0    0 -0.10635320276E+03  0.66794371831E+02 -0.10153585730E+03  0.16149929463E+03  0.00000000000E+00 0.  1.
         15    1    3    3    0    0  0.45202343651E+03  0.69623538746E+02 -0.78471186165E+03  0.90826674928E+03  0.17770000000E+01 0. -1.
        -16    1    3    3    0    0  0.98636045734E+02  0.28553905711E+02 -0.25501624223E+03  0.27491394808E+03  0.00000000000E+00 0.  1.
          4    1    6    6  502    0 -0.37629399386E+02 -0.28997316213E+02 -0.61560222566E+02  0.77759096240E+02  0.00000000000E+00 0. -1.
         -3    1    6    6    0  502 -0.92606595379E+02 -0.27267611020E+03 -0.22324616153E+03  0.36437218777E+03  0.00000000000E+00 0.  1.
<mgrwt>
<rscale>  0 0.68182073E+03</rscale>
<asrwt>0</asrwt>
<pdfrwt beam="1">  1        1 0.28576197E+00 0.68182073E+03</pdfrwt>
<pdfrwt beam="2">  1       -2 0.45726907E-01 0.68182073E+03</pdfrwt>
<totfact> 0.15526357E+01</totfact>
</mgrwt>
</event>
<event>
12    3  0.1092576E-007  0.3307434E+03  0.7818608E-02  0.1070808E+00
         -2   -1    0    0    0  501 -0.00000000000E+00  0.00000000000E+00  0.68510623147E+03  0.68510623147E+03  0.00000000000E+00 0.  1.
          1   -1    0    0  501    0  0.00000000000E+00 -0.00000000000E+00 -0.53182240595E+03  0.53182240595E+03  0.00000000000E+00 0. -1.
        -24    2    1    2    0    0 -0.25929545783E+03  0.78659437107E+02  0.42029661312E+03  0.50601673619E+03  0.77345024440E+02 0.  0.
    5000000    2    1    2    0    0  0.25929545783E+03 -0.78659437107E+02 -0.26701278760E+03  0.71091190123E+03  0.60056511810E+03 0.  0.
        -24    2    4    4    0    0 -0.40487994332E+02 -0.68052201232E+02 -0.36778396825E+03  0.38404679964E+03  0.77178476481E+02 0.  0.
         24    2    4    4    0    0  0.29978345216E+03 -0.10607235875E+02  0.10077118065E+03  0.32686510160E+03  0.81873879539E+02 0.  0.
         13    1    5    5    0    0 -0.37550971133E+02 -0.61575413207E+02 -0.15301657603E+03  0.16916169627E+03  0.00000000000E+00 0. -1.
        -14    1    5    5    0    0 -0.29370231990E+01 -0.64767880244E+01 -0.21476739222E+03  0.21488510337E+03  0.00000000000E+00 0.  1.
         15    1    3    3    0    0 -0.49764340912E+02  0.26314066945E+02  0.14876167424E+03  0.15906637984E+03  0.17770000000E+01 0. -1.
        -16    1    3    3    0    0 -0.20953111692E+03  0.52345370162E+02  0.27153493889E+03  0.34695035635E+03  0.00000000000E+00 0.  1.
          4    1    6    6  502    0  0.26943857261E+03  0.15566404987E+02  0.96251884069E+02  0.28653775068E+03  0.00000000000E+00 0. -1.
         -3    1    6    6    0  502  0.30344879545E+02 -0.26173640862E+02  0.45192965824E+01  0.40327350919E+02  0.00000000000E+00 0.  1.
<mgrwt>
<rscale>  0 0.33074341E+03</rscale>
<asrwt>0</asrwt>
<pdfrwt beam="1">  1        1 0.81818832E-01 0.33074341E+03</pdfrwt>
<pdfrwt beam="2">  1       -2 0.10540096E+00 0.33074341E+03</pdfrwt>
<totfact> 0.27736919E+01</totfact>
</mgrwt>
</event>
<event>
12    3  0.1092576E-007  0.5057181E+03  0.7818608E-02  0.1012297E+00
          1   -1    0    0  501    0  0.00000000000E+00  0.00000000000E+00  0.31280988205E+04  0.31280988205E+04  0.00000000000E+00 0. -1.
         -2   -1    0    0    0  501 -0.00000000000E+00 -0.00000000000E+00 -0.12254399810E+03  0.12254399810E+03  0.00000000000E+00 0.  1.
        -24    2    1    2    0    0 -0.40352194757E+03 -0.19876839710E+03  0.80551722986E+03  0.92630006487E+03  0.82673845469E+02 0.  0.
    5000000    2    1    2    0    0  0.40352194757E+03  0.19876839710E+03  0.22000375926E+04  0.23243427538E+04  0.60005415619E+03 0.  0.
        -24    2    4    4    0    0  0.12734760223E+03 -0.72397371097E+02  0.11351412625E+03  0.20069517973E+03  0.77034454459E+02 0.  0.
         24    2    4    4    0    0  0.27617434534E+03  0.27116576820E+03  0.20865234663E+04  0.21236475740E+04  0.80595907306E+02 0.  0.
         11    1    5    5    0    0  0.62245401728E+01 -0.36097168034E+02  0.12010571891E+02  0.38548726018E+02  0.00000000000E+00 0. -1.
        -12    1    5    5    0    0  0.12112306206E+03 -0.36300203063E+02  0.10150355436E+03  0.16214645371E+03  0.00000000000E+00 0.  1.
         15    1    3    3    0    0 -0.49473876683E+02 -0.15580709963E+01  0.12197736679E+03  0.13165002012E+03  0.17770000000E+01 0. -1.
        -16    1    3    3    0    0 -0.35404807089E+03 -0.19721032610E+03  0.68353986307E+03  0.79465004475E+03  0.00000000000E+00 0.  1.
          4    1    6    6  502    0  0.14165484799E+03  0.18806263832E+03  0.11475773752E+04  0.11714808936E+04  0.00000000000E+00 0. -1.
         -3    1    6    6    0  502  0.13451949735E+03  0.83103129882E+02  0.93894609111E+03  0.95216668045E+03  0.00000000000E+00 0.  1.
<mgrwt>
<rscale>  0 0.50571807E+03</rscale>
<asrwt>0</asrwt>
<pdfrwt beam="1">  1        1 0.48124591E+00 0.50571807E+03</pdfrwt>
<pdfrwt beam="2">  1       -2 0.18852925E-01 0.50571807E+03</pdfrwt>
<totfact> 0.11174890E+01</totfact>
</mgrwt>
</event>
<event>
12    3  0.1092576E-007  0.1632825E+04  0.7818608E-02  0.8800632E-01
         -2   -1    0    0    0  501 -0.00000000000E+00  0.00000000000E+00  0.11375123312E+04  0.11375123312E+04  0.00000000000E+00 0.  1.
          1   -1    0    0  501    0  0.00000000000E+00 -0.00000000000E+00 -0.24023417370E+04  0.24023417370E+04  0.00000000000E+00 0. -1.
        -24    2    1    2    0    0 -0.15757068909E+04  0.10582206474E+03 -0.87053912085E+03  0.18050772883E+04  0.80094571202E+02 0.  0.
    5000000    2    1    2    0    0  0.15757068909E+04 -0.10582206474E+03 -0.39429028488E+03  0.17347767799E+04  0.59994594076E+03 0.  0.
        -24    2    4    4    0    0  0.34796069638E+03 -0.26854752634E+03 -0.13707359906E+03  0.46727384931E+03  0.79757498426E+02 0.  0.
         24    2    4    4    0    0  0.12277461945E+04  0.16272546161E+03 -0.25721668582E+03  0.12675029306E+04  0.81012107250E+02 0.  0.
         11    1    5    5    0    0  0.57943867862E+02 -0.87091881225E+02 -0.31154814641E+02  0.10914719453E+03  0.00000000000E+00 0. -1.
        -12    1    5    5    0    0  0.29001682852E+03 -0.18145564512E+03 -0.10591878442E+03  0.35812665478E+03  0.00000000000E+00 0.  1.
         15    1    3    3    0    0 -0.79566257085E+03  0.79017171328E+02 -0.40532232286E+03  0.89644407698E+03  0.17770000000E+01 0. -1.
        -16    1    3    3    0    0 -0.78004432007E+03  0.26804893407E+02 -0.46521679799E+03  0.90863321132E+03  0.00000000000E+00 0.  1.
          4    1    6    6  502    0  0.63498472474E+03  0.99473785924E+02 -0.17174904198E+03  0.66528066871E+03  0.00000000000E+00 0. -1.
         -3    1    6    6    0  502  0.59276146980E+03  0.63251675686E+02 -0.85467643835E+02  0.60222226187E+03  0.00000000000E+00 0.  1.
<mgrwt>
<rscale>  0 0.16328252E+04</rscale>
<asrwt>0</asrwt>
<pdfrwt beam="1">  1        1 0.36959103E+00 0.16328252E+04</pdfrwt>
<pdfrwt beam="2">  1       -2 0.17500190E+00 0.16328252E+04</pdfrwt>
<totfact> 0.25385862E-01</totfact>
</mgrwt>
</event>
<event>
12    3  0.1092576E-007  0.3902906E+03  0.7818608E-02  0.1047195E+00
         -2   -1    0    0    0  501 -0.00000000000E+00  0.00000000000E+00  0.19160621061E+03  0.19160621061E+03  0.00000000000E+00 0.  1.
          1   -1    0    0  501    0  0.00000000000E+00 -0.00000000000E+00 -0.20557393409E+04  0.20557393409E+04  0.00000000000E+00 0. -1.
        -24    2    1    2    0    0 -0.26669078171E+03 -0.25134945231E+03 -0.16711214794E+03  0.41045739824E+03  0.79046097653E+02 0.  0.
    5000000    2    1    2    0    0  0.26669078171E+03  0.25134945231E+03 -0.16970209823E+04  0.18368881532E+04  0.59998112706E+03 0.  0.
        -24    2    4    4    0    0  0.43567433106E+02  0.54229675883E+02  0.49350948188E+01  0.10719633458E+03  0.81410810176E+02 0.  0.
         24    2    4    4    0    0  0.22312334860E+03  0.19711977643E+03 -0.17019560771E+04  0.17296918187E+04  0.80864479495E+02 0.  0.
         11    1    5    5    0    0  0.66141499407E+02  0.29816174859E+02 -0.43253715666E+01  0.72680197208E+02  0.00000000000E+00 0. -1.
        -12    1    5    5    0    0 -0.22574066301E+02  0.24413501024E+02  0.92604663854E+01  0.34516137375E+02  0.00000000000E+00 0.  1.
         15    1    3    3    0    0 -0.23170843356E+03 -0.24310853723E+03 -0.16567470413E+03  0.37448875066E+03  0.17770000000E+01 0. -1.
        -16    1    3    3    0    0 -0.34982348151E+02 -0.82409150810E+01 -0.14374438048E+01  0.35968647573E+02  0.00000000000E+00 0.  1.
          4    1    6    6  502    0  0.12463563281E+03  0.14621128724E+03 -0.91398564179E+03  0.93396013560E+03  0.00000000000E+00 0. -1.
         -3    1    6    6    0  502  0.98487715790E+02  0.50908489187E+02 -0.78797043536E+03  0.79573168306E+03  0.00000000000E+00 0.  1.
<mgrwt>
<rscale>  0 0.39029059E+03</rscale>
<asrwt>0</asrwt>
<pdfrwt beam="1">  1        1 0.31626760E+00 0.39029059E+03</pdfrwt>
<pdfrwt beam="2">  1       -2 0.29477877E-01 0.39029059E+03</pdfrwt>
<totfact> 0.28080507E+01</totfact>
</mgrwt>
</event>
<event>
12    3  0.1092576E-007  0.7339913E+03  0.7818608E-02  0.9660806E-01
          1   -1    0    0  501    0  0.00000000000E+00  0.00000000000E+00  0.22116358606E+04  0.22116358606E+04  0.00000000000E+00 0. -1.
         -2   -1    0    0    0  501 -0.00000000000E+00 -0.00000000000E+00 -0.30629915191E+03  0.30629915191E+03  0.00000000000E+00 0.  1.
        -24    2    1    2    0    0 -0.68845022249E+03 -0.19530570149E+02  0.10998979253E+04  0.13001877446E+04  0.79797074744E+02 0.  0.
    5000000    2    1    2    0    0  0.68845022249E+03  0.19530570149E+02  0.80543878338E+03  0.12177472679E+04  0.59985966914E+03 0.  0.
        -24    2    4    4    0    0  0.29899394434E+03  0.17686738560E+03  0.64424210702E+02  0.36220919999E+03  0.79784552313E+02 0.  0.
         24    2    4    4    0    0  0.38945627815E+03 -0.15733681545E+03  0.74101457268E+03  0.85553806791E+03  0.80073232878E+02 0.  0.
         13    1    5    5    0    0  0.35941570766E+02  0.13922977715E+02  0.33803180454E+02  0.51266956477E+02  0.00000000000E+00 0. -1.
        -14    1    5    5    0    0  0.26305237357E+03  0.16294440789E+03  0.30621030248E+02  0.31094224351E+03  0.00000000000E+00 0.  1.
         15    1    3    3    0    0 -0.37953013596E+03  0.26278886308E+02  0.57719485787E+03  0.69129643833E+03  0.17770000000E+01 0. -1.
        -16    1    3    3    0    0 -0.30892008652E+03 -0.45809456457E+02  0.52270306739E+03  0.60889130624E+03  0.00000000000E+00 0.  1.
          4    1    6    6  502    0  0.22687233441E+03 -0.49614324083E+02  0.38585883505E+03  0.45035505755E+03  0.00000000000E+00 0. -1.
         -3    1    6    6    0  502  0.16258394374E+03 -0.10772249137E+03  0.35515573763E+03  0.40518301035E+03  0.00000000000E+00 0.  1.
<mgrwt>
<rscale>  0 0.73399126E+03</rscale>
<asrwt>0</asrwt>
<pdfrwt beam="1">  1        1 0.34025166E+00 0.73399126E+03</pdfrwt>
<pdfrwt beam="2">  1       -2 0.47122948E-01 0.73399126E+03</pdfrwt>
<totfact> 0.84085038E+00</totfact>
</mgrwt>
</event>
<event>
12    3  0.1092576E-007  0.4861395E+03  0.7818608E-02  0.1017461E+00
          1   -1    0    0  501    0  0.00000000000E+00  0.00000000000E+00  0.29521155475E+03  0.29521155475E+03  0.00000000000E+00 0. -1.
         -2   -1    0    0    0  501 -0.00000000000E+00 -0.00000000000E+00 -0.92470446824E+03  0.92470446824E+03  0.00000000000E+00 0.  1.
        -24    2    1    2    0    0  0.11995100360E+03  0.27811088525E+03 -0.40405460993E+03  0.51104470266E+03  0.78566230367E+02 0.  0.
    5000000    2    1    2    0    0 -0.11995100360E+03 -0.27811088525E+03 -0.22543830356E+03  0.70887132033E+03  0.59995184167E+03 0.  0.
        -24    2    4    4    0    0  0.20440363592E+03  0.24381390949E+02 -0.94174281989E+02  0.23982257192E+03  0.79188206268E+02 0.  0.
         24    2    4    4    0    0 -0.32435463952E+03 -0.30249227620E+03 -0.13126402157E+03  0.46904874842E+03  0.77903630840E+02 0.  0.
         13    1    5    5    0    0  0.10970701625E+03  0.43244205024E+02 -0.79350192069E+02  0.14213424522E+03  0.00000000000E+00 0. -1.
        -14    1    5    5    0    0  0.94696619663E+02 -0.18862814075E+02 -0.14824089921E+02  0.97688326695E+02  0.00000000000E+00 0.  1.
         15    1    3    3    0    0  0.46750099829E+02  0.17996250105E+03 -0.20008034209E+03  0.27314350557E+03  0.17770000000E+01 0. -1.
        -16    1    3    3    0    0  0.73200903770E+02  0.98148384199E+02 -0.20397426785E+03  0.23790119709E+03  0.00000000000E+00 0.  1.
          4    1    6    6  502    0 -0.17303268553E+03 -0.11192661420E+03 -0.74909696320E+02  0.21927001580E+03  0.00000000000E+00 0. -1.
         -3    1    6    6    0  502 -0.15132195399E+03 -0.19056566200E+03 -0.56354325247E+02  0.24977873261E+03  0.00000000000E+00 0.  1.
<mgrwt>
<rscale>  0 0.48613953E+03</rscale>
<asrwt>0</asrwt>
<pdfrwt beam="1">  1        1 0.45417162E-01 0.48613953E+03</pdfrwt>
<pdfrwt beam="2">  1       -2 0.14226223E+00 0.48613953E+03</pdfrwt>
<totfact> 0.28004228E+01</totfact>
</mgrwt>
</event>
<event>
12    3  0.1092576E-007  0.7420169E+03  0.7818608E-02  0.9647958E-01
          1   -1    0    0  501    0  0.00000000000E+00  0.00000000000E+00  0.16075477451E+04  0.16075477451E+04  0.00000000000E+00 0. -1.
         -2   -1    0    0    0  501 -0.00000000000E+00 -0.00000000000E+00 -0.42470911835E+03  0.42470911835E+03  0.00000000000E+00 0.  1.
        -24    2    1    2    0    0  0.15798804755E+03  0.64671149206E+03  0.19489730573E+03  0.69840721633E+03  0.81189302909E+02 0.  0.
    5000000    2    1    2    0    0 -0.15798804755E+03 -0.64671149206E+03  0.98794132098E+03  0.13338496471E+04  0.59994237240E+03 0.  0.
        -24    2    4    4    0    0 -0.24790564847E+03 -0.66898085886E+03  0.62850787438E+03  0.95422921953E+03  0.80861951450E+02 0.  0.
         24    2    4    4    0    0  0.89917600913E+02  0.22269366798E+02  0.35943344660E+03  0.37962042755E+03  0.79612604720E+02 0.  0.
         11    1    5    5    0    0 -0.81657848970E+02 -0.14813065775E+03  0.11832180050E+03  0.20642370149E+03  0.00000000000E+00 0. -1.
        -12    1    5    5    0    0 -0.16624779950E+03 -0.52085020111E+03  0.51018607388E+03  0.74780551804E+03  0.00000000000E+00 0.  1.
         15    1    3    3    0    0  0.73822959498E+02  0.21732168422E+03  0.10162076556E+03  0.25101490295E+03  0.17770000000E+01 0. -1.
        -16    1    3    3    0    0  0.84165088056E+02  0.42938980784E+03  0.93276540177E+02  0.44739231338E+03  0.00000000000E+00 0.  1.
          2    1    6    6  502    0  0.22493944107E+02  0.24940702397E+02  0.24087247790E+03  0.24320272771E+03  0.00000000000E+00 0. -1.
         -1    1    6    6    0  502  0.67423656805E+02 -0.26713355987E+01  0.11856096870E+03  0.13641769984E+03  0.00000000000E+00 0.  1.
<mgrwt>
<rscale>  0 0.74201694E+03</rscale>
<asrwt>0</asrwt>
<pdfrwt beam="1">  1        1 0.24731504E+00 0.74201694E+03</pdfrwt>
<pdfrwt beam="2">  1       -2 0.65339865E-01 0.74201694E+03</pdfrwt>
<totfact> 0.10814003E+01</totfact>
</mgrwt>
</event>
<event>
12    3  0.1092576E-007  0.8930453E+03  0.7818608E-02  0.9434317E-01
         -2   -1    0    0    0  501 -0.00000000000E+00  0.00000000000E+00  0.18966972113E+04  0.18966972113E+04  0.00000000000E+00 0.  1.
          1   -1    0    0  501    0  0.00000000000E+00 -0.00000000000E+00 -0.58948487468E+03  0.58948487468E+03  0.00000000000E+00 0. -1.
        -24    2    1    2    0    0  0.83832055629E+03 -0.20528103816E+03  0.11238395357E+04  0.14191610053E+04  0.77980749141E+02 0.  0.
    5000000    2    1    2    0    0 -0.83832055629E+03  0.20528103816E+03  0.18337280094E+03  0.10670210807E+04  0.59998895224E+03 0.  0.
        -24    2    4    4    0    0 -0.23741253400E+03 -0.64299489496E+02 -0.17558194571E+03  0.31297928240E+03  0.81411767620E+02 0.  0.
         24    2    4    4    0    0 -0.60090802229E+03  0.26958052766E+03  0.35895474665E+03  0.75404179830E+03  0.77242548461E+02 0.  0.
         11    1    5    5    0    0 -0.22708335082E+03 -0.39170880802E+02 -0.14590558493E+03  0.27274465318E+03  0.00000000000E+00 0. -1.
        -12    1    5    5    0    0 -0.10329183174E+02 -0.25128608694E+02 -0.29676360771E+02  0.40234629221E+02  0.00000000000E+00 0.  1.
         15    1    3    3    0    0  0.31590341398E+03 -0.11339792800E+03  0.45972607244E+03  0.56921461370E+03  0.17770000000E+01 0. -1.
        -16    1    3    3    0    0  0.52241714231E+03 -0.91883110163E+02  0.66411346325E+03  0.84994639159E+03  0.00000000000E+00 0.  1.
          4    1    6    6  502    0 -0.31579999554E+03  0.18029678579E+03  0.21446610942E+03  0.42217565094E+03  0.00000000000E+00 0. -1.
         -3    1    6    6    0  502 -0.28510802675E+03  0.89283741865E+02  0.14448863723E+03  0.33186614736E+03  0.00000000000E+00 0.  1.
<mgrwt>
<rscale>  0 0.89304527E+03</rscale>
<asrwt>0</asrwt>
<pdfrwt beam="1">  1        1 0.90689982E-01 0.89304527E+03</pdfrwt>
<pdfrwt beam="2">  1       -2 0.29179957E+00 0.89304527E+03</pdfrwt>
<totfact> 0.11229142E+00</totfact>
</mgrwt>
</event>
<event>
12    3  0.1092576E-007  0.5069982E+03  0.7818608E-02  0.1011968E+00
         -2   -1    0    0    0  501 -0.00000000000E+00  0.00000000000E+00  0.28011272667E+03  0.28011272667E+03  0.00000000000E+00 0.  1.
          1   -1    0    0  501    0  0.00000000000E+00 -0.00000000000E+00 -0.97123107450E+03  0.97123107450E+03  0.00000000000E+00 0. -1.
        -24    2    1    2    0    0 -0.18852116221E+03  0.28164815246E+03 -0.29549879708E+03  0.45676521998E+03  0.80305770186E+02 0.  0.
    5000000    2    1    2    0    0  0.18852116221E+03 -0.28164815246E+03 -0.39561955075E+03  0.79457858119E+03  0.59997865159E+03 0.  0.
        -24    2    4    4    0    0  0.68276812560E+02 -0.45075687931E+03 -0.22556424849E+03  0.51499066351E+03  0.80577080708E+02 0.  0.
         24    2    4    4    0    0  0.12024434965E+03  0.16910872685E+03 -0.17005530227E+03  0.27958791768E+03  0.78702812947E+02 0.  0.
         11    1    5    5    0    0  0.67415416767E+02 -0.18936675919E+03 -0.11068820280E+03  0.22947001142E+03  0.00000000000E+00 0. -1.
        -12    1    5    5    0    0  0.86139579260E+00 -0.26139012011E+03 -0.11487604569E+03  0.28552065209E+03  0.00000000000E+00 0.  1.
         15    1    3    3    0    0 -0.16695410361E+03  0.20592635558E+03 -0.19501597415E+03  0.32911050505E+03  0.17770000000E+01 0. -1.
        -16    1    3    3    0    0 -0.21567058603E+02  0.75721796879E+02 -0.10048282294E+03  0.12765471493E+03  0.00000000000E+00 0.  1.
          4    1    6    6  502    0  0.25104590742E+02  0.42855159257E+02 -0.89028225309E+02  0.10194523065E+03  0.00000000000E+00 0. -1.
         -3    1    6    6    0  502  0.95139758907E+02  0.12625356759E+03 -0.81027076956E+02  0.17764268703E+03  0.00000000000E+00 0.  1.
<mgrwt>
<rscale>  0 0.50699815E+03</rscale>
<asrwt>0</asrwt>
<pdfrwt beam="1">  1        1 0.14942017E+00 0.50699815E+03</pdfrwt>
<pdfrwt beam="2">  1       -2 0.43094265E-01 0.50699815E+03</pdfrwt>
<totfact> 0.74438189E+01</totfact>
</mgrwt>
</event>
<event>
12    3  0.1092576E-007  0.6027858E+03  0.7818608E-02  0.9899643E-01
         -2   -1    0    0    0  501 -0.00000000000E+00  0.00000000000E+00  0.15729833097E+03  0.15729833097E+03  0.00000000000E+00 0.  1.
          1   -1    0    0  501    0  0.00000000000E+00 -0.00000000000E+00 -0.32015496839E+04  0.32015496839E+04  0.00000000000E+00 0. -1.
        -24    2    1    2    0    0  0.27915970170E+03  0.40851318256E+03 -0.53927899970E+03  0.73599354433E+03  0.77791377384E+02 0.  0.
    5000000    2    1    2    0    0 -0.27915970170E+03 -0.40851318256E+03 -0.25049723533E+04  0.26228544706E+04  0.59972153856E+03 0.  0.
        -24    2    4    4    0    0 -0.39896773944E+03 -0.19320789428E+03 -0.10152388088E+04  0.11104936304E+04  0.77341559182E+02 0.  0.
         24    2    4    4    0    0  0.11980803774E+03 -0.21530528828E+03 -0.14897335445E+04  0.15123608402E+04  0.84964370578E+02 0.  0.
         13    1    5    5    0    0 -0.29955167804E+02 -0.37290064225E+02 -0.13965258449E+03  0.14761675150E+03  0.00000000000E+00 0. -1.
        -14    1    5    5    0    0 -0.36901257164E+03 -0.15591783005E+03 -0.87558622430E+03  0.96287687891E+03  0.00000000000E+00 0.  1.
         15    1    3    3    0    0  0.14308318733E+03  0.26230796092E+03 -0.28795430178E+03  0.41496879701E+03  0.17770000000E+01 0. -1.
        -16    1    3    3    0    0  0.13607651438E+03  0.14620522164E+03 -0.25132469793E+03  0.32102474731E+03  0.00000000000E+00 0.  1.
          2    1    6    6  502    0  0.12310966775E+03 -0.15375232727E+03 -0.10482144373E+04  0.10665595506E+04  0.00000000000E+00 0. -1.
         -1    1    6    6    0  502 -0.33016300031E+01 -0.61552961011E+02 -0.44151910721E+03  0.44580128959E+03  0.00000000000E+00 0.  1.
<mgrwt>
<rscale>  0 0.60278578E+03</rscale>
<asrwt>0</asrwt>
<pdfrwt beam="1">  1        1 0.49254604E+00 0.60278578E+03</pdfrwt>
<pdfrwt beam="2">  1       -2 0.24199746E-01 0.60278578E+03</pdfrwt>
<totfact> 0.62290537E+00</totfact>
</mgrwt>
</event>
<event>
12    3  0.1092576E-007  0.6734684E+03  0.7818608E-02  0.9763712E-01
         -2   -1    0    0    0  501 -0.00000000000E+00  0.00000000000E+00  0.80062555229E+03  0.80062555229E+03  0.00000000000E+00 0.  1.
          1   -1    0    0  501    0  0.00000000000E+00 -0.00000000000E+00 -0.77115468923E+03  0.77115468923E+03  0.00000000000E+00 0. -1.
        -24    2    1    2    0    0  0.42751312780E+03  0.50863834203E+03  0.65407556468E+02  0.67579098181E+03  0.10456990594E+03 0.  0.
    5000000    2    1    2    0    0 -0.42751312780E+03 -0.50863834203E+03 -0.35936693407E+02  0.89598925972E+03  0.60002072479E+03 0.  0.
        -24    2    4    4    0    0 -0.14725514795E+03 -0.17022861107E+03 -0.29540431432E+03  0.37957094802E+03  0.78412607639E+02 0.  0.
         24    2    4    4    0    0 -0.28025797985E+03 -0.33840973095E+03  0.25946762091E+03  0.51641831170E+03  0.79364633707E+02 0.  0.
         13    1    5    5    0    0 -0.19985681438E+02 -0.63329698914E+02 -0.12492047361E+03  0.14147509659E+03  0.00000000000E+00 0. -1.
        -14    1    5    5    0    0 -0.12726946651E+03 -0.10689891216E+03 -0.17048384070E+03  0.23809585143E+03  0.00000000000E+00 0.  1.
         15    1    3    3    0    0  0.16204153158E+03  0.25202138348E+03  0.64859722564E+02  0.30656512689E+03  0.17770000000E+01 0. -1.
        -16    1    3    3    0    0  0.26547159623E+03  0.25661695855E+03  0.54783390377E+00  0.36922585492E+03  0.00000000000E+00 0.  1.
          4    1    6    6  502    0 -0.16736038618E+03 -0.25535870185E+03  0.19391395334E+03  0.36169073360E+03  0.00000000000E+00 0. -1.
         -3    1    6    6    0  502 -0.11289759368E+03 -0.83051029104E+02  0.65553667573E+02  0.15472757810E+03  0.00000000000E+00 0.  1.
<mgrwt>
<rscale>  0 0.67346845E+03</rscale>
<asrwt>0</asrwt>
<pdfrwt beam="1">  1        1 0.11863918E+00 0.67346845E+03</pdfrwt>
<pdfrwt beam="2">  1       -2 0.12317316E+00 0.67346845E+03</pdfrwt>
<totfact> 0.10530412E+01</totfact>
</mgrwt>
</event>
<event>
12    3  0.1092576E-007  0.1301436E+04  0.7818608E-02  0.9028427E-01
         -2   -1    0    0    0  501 -0.00000000000E+00  0.00000000000E+00  0.53604615289E+03  0.53604615289E+03  0.00000000000E+00 0.  1.
          1   -1    0    0  501    0  0.00000000000E+00 -0.00000000000E+00 -0.34636833524E+04  0.34636833524E+04  0.00000000000E+00 0. -1.
        -24    2    1    2    0    0 -0.10702610871E+04  0.72554067813E+03 -0.15067259991E+04  0.19870354199E+04  0.78857171051E+02 0.  0.
    5000000    2    1    2    0    0  0.10702610871E+04 -0.72554067813E+03 -0.14209112004E+04  0.20126940854E+04  0.60006730605E+03 0.  0.
        -24    2    4    4    0    0  0.98304028040E+03 -0.68396640268E+03 -0.96656580140E+03  0.15412097932E+04  0.83065909164E+02 0.  0.
         24    2    4    4    0    0  0.87220806680E+02 -0.41574275452E+02 -0.45434539903E+03  0.47148429223E+03  0.80819593564E+02 0.  0.
         11    1    5    5    0    0  0.45975896310E+03 -0.32825190617E+03 -0.50854395939E+03  0.76009511029E+03  0.00000000000E+00 0. -1.
        -12    1    5    5    0    0  0.52328131730E+03 -0.35571449651E+03 -0.45802184200E+03  0.78111468288E+03  0.00000000000E+00 0.  1.
         15    1    3    3    0    0 -0.98750212851E+03  0.67257395852E+03 -0.13579588884E+04  0.18087486514E+04  0.17770000000E+01 0. -1.
        -16    1    3    3    0    0 -0.82758958571E+02  0.52966719615E+02 -0.14876711067E+03  0.17828676852E+03  0.00000000000E+00 0.  1.
          4    1    6    6  502    0  0.66189331030E+02 -0.55975664456E+02 -0.23170282047E+03  0.24738734723E+03  0.00000000000E+00 0. -1.
         -3    1    6    6    0  502  0.21031475650E+02  0.14401389004E+02 -0.22264257855E+03  0.22409694500E+03  0.00000000000E+00 0.  1.
<mgrwt>
<rscale>  0 0.13014357E+04</rscale>
<asrwt>0</asrwt>
<pdfrwt beam="1">  1        1 0.53287437E+00 0.13014357E+04</pdfrwt>
<pdfrwt beam="2">  1       -2 0.82468638E-01 0.13014357E+04</pdfrwt>
<totfact> 0.29883556E-01</totfact>
</mgrwt>
</event>
<event>
12    3  0.1092576E-007  0.1542639E+04  0.7818608E-02  0.8856583E-01
         -2   -1    0    0    0  501 -0.00000000000E+00  0.00000000000E+00  0.10334923935E+04  0.10334923935E+04  0.00000000000E+00 0.  1.
          1   -1    0    0  501    0  0.00000000000E+00 -0.00000000000E+00 -0.24482555153E+04  0.24482555153E+04  0.00000000000E+00 0. -1.
        -24    2    1    2    0    0 -0.87120560096E+03  0.12151512161E+04 -0.10529009355E+04  0.18305002634E+04  0.80865056114E+02 0.  0.
    5000000    2    1    2    0    0  0.87120560096E+03 -0.12151512161E+04 -0.36186218626E+03  0.16512476454E+04  0.60006905238E+03 0.  0.
        -24    2    4    4    0    0  0.67062487269E+03 -0.12131173961E+04 -0.26128586019E+03  0.14128050181E+04  0.79725666579E+02 0.  0.
         24    2    4    4    0    0  0.20058072827E+03 -0.20338199616E+01 -0.10057632607E+03  0.23844262729E+03  0.80638230201E+02 0.  0.
         11    1    5    5    0    0  0.27630202411E+03 -0.57735797737E+03 -0.10713763076E+03  0.64897111991E+03  0.00000000000E+00 0. -1.
        -12    1    5    5    0    0  0.39432284858E+03 -0.63575941873E+03 -0.15414822943E+03  0.76383389821E+03  0.00000000000E+00 0.  1.
         15    1    3    3    0    0 -0.59964934090E+03  0.87342236439E+03 -0.78163219114E+03  0.13165857354E+04  0.17770000000E+01 0. -1.
        -16    1    3    3    0    0 -0.27155626006E+03  0.34172885167E+03 -0.27126874434E+03  0.51391452801E+03  0.00000000000E+00 0.  1.
          2    1    6    6  502    0  0.21706306420E+02 -0.48973912165E+01 -0.46501580361E+02  0.51551383640E+02  0.00000000000E+00 0. -1.
         -1    1    6    6    0  502  0.17887442185E+03  0.28635712549E+01 -0.54074745707E+02  0.18689124365E+03  0.00000000000E+00 0.  1.
<mgrwt>
<rscale>  0 0.15426391E+04</rscale>
<asrwt>0</asrwt>
<pdfrwt beam="1">  1        1 0.37665469E+00 0.15426391E+04</pdfrwt>
<pdfrwt beam="2">  1       -2 0.15899883E+00 0.15426391E+04</pdfrwt>
<totfact> 0.31127512E-01</totfact>
</mgrwt>
</event>
<event>
12    3  0.1092576E-007  0.1120109E+04  0.7818608E-02  0.9185811E-01
         -2   -1    0    0    0  501 -0.00000000000E+00  0.00000000000E+00  0.11513040150E+04  0.11513040150E+04  0.00000000000E+00 0.  1.
          1   -1    0    0  501    0  0.00000000000E+00 -0.00000000000E+00 -0.20573276312E+04  0.20573276312E+04  0.00000000000E+00 0. -1.
        -24    2    1    2    0    0 -0.10879435653E+04  0.25444106600E+03  0.57476206465E+03  0.12589840066E+04  0.79547724647E+02 0.  0.
    5000000    2    1    2    0    0  0.10879435653E+04 -0.25444106600E+03 -0.14807856808E+04  0.19496476396E+04  0.60003185620E+03 0.  0.
        -24    2    4    4    0    0  0.44053863731E+03 -0.14009963446E+03 -0.20463945816E+03  0.51187290603E+03  0.80214497173E+02 0.  0.
         24    2    4    4    0    0  0.64740492803E+03 -0.11434143155E+03 -0.12761462227E+04  0.14377747335E+04  0.80248980861E+02 0.  0.
         13    1    5    5    0    0  0.57554134691E+02 -0.37020110125E+02 -0.71341129825E+01  0.68803070729E+02  0.00000000000E+00 0. -1.
        -14    1    5    5    0    0  0.38298450261E+03 -0.10307952433E+03 -0.19750534518E+03  0.44306983530E+03  0.00000000000E+00 0.  1.
         15    1    3    3    0    0 -0.24094525106E+03  0.61760535498E+02  0.16544775462E+03  0.29873917552E+03  0.17770000000E+01 0. -1.
        -16    1    3    3    0    0 -0.84699831428E+03  0.19268053051E+03  0.40931431003E+03  0.96024483108E+03  0.00000000000E+00 0.  1.
          2    1    6    6  502    0  0.38183296016E+02 -0.15261335448E+01 -0.12191985951E+03  0.12776832675E+03  0.00000000000E+00 0. -1.
         -3    1    6    6    0  502  0.60922163201E+03 -0.11281529800E+03 -0.11542263632E+04  0.13100064068E+04  0.00000000000E+00 0.  1.
<mgrwt>
<rscale>  0 0.11201090E+04</rscale>
<asrwt>0</asrwt>
<pdfrwt beam="1">  1        1 0.31651194E+00 0.11201090E+04</pdfrwt>
<pdfrwt beam="2">  1       -2 0.17712370E+00 0.11201090E+04</pdfrwt>
<totfact> 0.44779910E-01</totfact>
</mgrwt>
</event>
<event>
12    3  0.1092576E-007  0.3752023E+03  0.7818608E-02  0.1052721E+00
          1   -1    0    0  501    0  0.00000000000E+00  0.00000000000E+00  0.63652862299E+03  0.63652862299E+03  0.00000000000E+00 0. -1.
         -2   -1    0    0    0  501 -0.00000000000E+00 -0.00000000000E+00 -0.98275787013E+03  0.98275787013E+03  0.00000000000E+00 0.  1.
        -24    2    1    2    0    0  0.32644200963E+03 -0.85310397791E+02 -0.74666381174E+03  0.82300020250E+03  0.77331985141E+02 0.  0.
    5000000    2    1    2    0    0 -0.32644200963E+03  0.85310397791E+02  0.40043456460E+03  0.79628629062E+03  0.59990146398E+03 0.  0.
        -24    2    4    4    0    0 -0.30833857217E+03  0.33551801758E+02 -0.59346796171E+02  0.32563635603E+03  0.79489594669E+02 0.  0.
         24    2    4    4    0    0 -0.18103437455E+02  0.51758596032E+02  0.45978136077E+03  0.47064993459E+03  0.84295756182E+02 0.  0.
         13    1    5    5    0    0 -0.81770640574E+02 -0.55155451605E+00 -0.50982216198E+02  0.96363521318E+02  0.00000000000E+00 0. -1.
        -14    1    5    5    0    0 -0.22656793160E+03  0.34103356274E+02 -0.83645799732E+01  0.22927283471E+03  0.00000000000E+00 0.  1.
         15    1    3    3    0    0  0.18583900234E+03 -0.79704136279E+02 -0.38392925500E+03  0.43392823682E+03  0.17770000000E+01 0. -1.
        -16    1    3    3    0    0  0.14060300729E+03 -0.56062615113E+01 -0.36273455674E+03  0.38907196568E+03  0.00000000000E+00 0.  1.
          2    1    6    6  502    0  0.31515143377E+02  0.15472533030E+02  0.23527679142E+03  0.23788184487E+03  0.00000000000E+00 0. -1.
         -1    1    6    6    0  502 -0.49618580831E+02  0.36286063003E+02  0.22450456935E+03  0.23276808972E+03  0.00000000000E+00 0.  1.
<mgrwt>
<rscale>  0 0.37520234E+03</rscale>
<asrwt>0</asrwt>
<pdfrwt beam="1">  1        1 0.97927481E-01 0.37520234E+03</pdfrwt>
<pdfrwt beam="2">  1       -2 0.15119352E+00 0.37520234E+03</pdfrwt>
<totfact> 0.87341837E+00</totfact>
</mgrwt>
</event>
<event>
12    3  0.1092576E-007  0.1505389E+04  0.7818608E-02  0.8880877E-01
         -2   -1    0    0    0  501 -0.00000000000E+00  0.00000000000E+00  0.87535408214E+03  0.87535408214E+03  0.00000000000E+00 0.  1.
          1   -1    0    0  501    0  0.00000000000E+00 -0.00000000000E+00 -0.27562660438E+04  0.27562660438E+04  0.00000000000E+00 0. -1.
        -24    2    1    2    0    0 -0.85928265964E+03  0.12223574282E+04 -0.88899700132E+03  0.17404407826E+04  0.79335226209E+02 0.  0.
    5000000    2    1    2    0    0  0.85928265964E+03 -0.12223574282E+04 -0.99191496039E+03  0.18911793434E+04  0.60011636272E+03 0.  0.
        -24    2    4    4    0    0  0.62279578207E+03 -0.68383096443E+03 -0.29315521515E+03  0.97426061816E+03  0.88002260490E+02 0.  0.
         24    2    4    4    0    0  0.23648687757E+03 -0.53852646372E+03 -0.69875974524E+03  0.91691872520E+03  0.80857724856E+02 0.  0.
         13    1    5    5    0    0  0.53760545091E+03 -0.61755226578E+03 -0.23590336513E+03  0.85208028935E+03  0.00000000000E+00 0. -1.
        -14    1    5    5    0    0  0.85190331159E+02 -0.66278698657E+02 -0.57251850021E+02  0.12218032882E+03  0.00000000000E+00 0.  1.
         15    1    3    3    0    0 -0.31510171078E+03  0.50662375732E+03 -0.33199667903E+03  0.68277497921E+03  0.17770000000E+01 0. -1.
        -16    1    3    3    0    0 -0.54418094885E+03  0.71573367084E+03 -0.55700032229E+03  0.10576658034E+04  0.00000000000E+00 0.  1.
          2    1    6    6  502    0  0.69967315441E+02 -0.17548589754E+03 -0.28414316203E+03  0.34121556529E+03  0.00000000000E+00 0. -1.
         -1    1    6    6    0  502  0.16651956213E+03 -0.36304056618E+03 -0.41461658321E+03  0.57570315991E+03  0.00000000000E+00 0.  1.
<mgrwt>
<rscale>  0 0.15053886E+04</rscale>
<asrwt>0</asrwt>
<pdfrwt beam="1">  1        1 0.42404092E+00 0.15053886E+04</pdfrwt>
<pdfrwt beam="2">  1       -2 0.13466986E+00 0.15053886E+04</pdfrwt>
<totfact> 0.29601153E-01</totfact>
</mgrwt>
</event>
<event>
12    3  0.1092576E-007  0.8163518E+03  0.7818608E-02  0.9536645E-01
          1   -1    0    0  501    0  0.00000000000E+00  0.00000000000E+00  0.67420790888E+03  0.67420790888E+03  0.00000000000E+00 0. -1.
         -2   -1    0    0    0  501 -0.00000000000E+00 -0.00000000000E+00 -0.10383206067E+04  0.10383206067E+04  0.00000000000E+00 0.  1.
        -24    2    1    2    0    0  0.34877900784E+01  0.70984649425E+03 -0.31897552795E+03  0.78206589867E+03  0.77378759011E+02 0.  0.
    5000000    2    1    2    0    0 -0.34877900784E+01 -0.70984649425E+03 -0.45137169827E+02  0.93046261688E+03  0.59985757245E+03 0.  0.
        -24    2    4    4    0    0  0.27674616194E+03 -0.42222927652E+03  0.37858359541E+02  0.51277396346E+03  0.81473198723E+02 0.  0.
         24    2    4    4    0    0 -0.28023395202E+03 -0.28761721773E+03 -0.82995529368E+02  0.41768865342E+03  0.79503594260E+02 0.  0.
         13    1    5    5    0    0  0.15025008568E+03 -0.15789337328E+03  0.64638249629E+01  0.21805317381E+03  0.00000000000E+00 0. -1.
        -14    1    5    5    0    0  0.12649607626E+03 -0.26433590324E+03  0.31394534578E+02  0.29472078965E+03  0.00000000000E+00 0.  1.
         15    1    3    3    0    0 -0.24891670339E+02  0.17774779759E+03 -0.10428147622E+03  0.20758530490E+03  0.17770000000E+01 0. -1.
        -16    1    3    3    0    0  0.28379460418E+02  0.53209869666E+03 -0.21469405173E+03  0.57448059377E+03  0.00000000000E+00 0.  1.
          4    1    6    6  502    0 -0.19235202656E+03 -0.14129183118E+03 -0.49239357719E+02  0.24369488716E+03  0.00000000000E+00 0. -1.
         -3    1    6    6    0  502 -0.87881925457E+02 -0.14632538655E+03 -0.33756171649E+02  0.17399376626E+03  0.00000000000E+00 0.  1.
<mgrwt>
<rscale>  0 0.81635185E+03</rscale>
<asrwt>0</asrwt>
<pdfrwt beam="1">  1        1 0.10372429E+00 0.81635185E+03</pdfrwt>
<pdfrwt beam="2">  1       -2 0.15974163E+00 0.81635185E+03</pdfrwt>
<totfact> 0.64834670E+00</totfact>
</mgrwt>
</event>
<event>
12    3  0.1092576E-007  0.5404681E+03  0.7818608E-02  0.1003725E+00
         -2   -1    0    0    0  501 -0.00000000000E+00  0.00000000000E+00  0.74929143858E+03  0.74929143858E+03  0.00000000000E+00 0.  1.
          1   -1    0    0  501    0  0.00000000000E+00 -0.00000000000E+00 -0.11280258358E+04  0.11280258358E+04  0.00000000000E+00 0. -1.
        -24    2    1    2    0    0  0.36396654148E+03  0.36204296784E+03  0.48211283222E+03  0.70913477034E+03  0.83021597434E+02 0.  0.
    5000000    2    1    2    0    0 -0.36396654148E+03 -0.36204296784E+03 -0.86084722945E+03  0.11681825040E+04  0.60003804580E+03 0.  0.
        -24    2    4    4    0    0 -0.15328909481E+03 -0.15204426974E+02 -0.70663142995E+03  0.72757910962E+03  0.79464846149E+02 0.  0.
         24    2    4    4    0    0 -0.21067744667E+03 -0.34683854086E+03 -0.15421579950E+03  0.44060339442E+03  0.75278671566E+02 0.  0.
         11    1    5    5    0    0 -0.18765723855E+02  0.38275937703E+00 -0.26468261787E+03  0.26534729525E+03  0.00000000000E+00 0. -1.
        -12    1    5    5    0    0 -0.13452337096E+03 -0.15587186352E+02 -0.44194881208E+03  0.46223181437E+03  0.00000000000E+00 0.  1.
         15    1    3    3    0    0  0.65130605741E+02  0.38246349674E+02  0.42359705612E+02  0.86615711370E+02  0.17770000000E+01 0. -1.
        -16    1    3    3    0    0  0.29883593574E+03  0.32379661816E+03  0.43975312661E+03  0.62251905897E+03  0.00000000000E+00 0.  1.
          2    1    6    6  502    0 -0.19989619260E+03 -0.28690509755E+03 -0.14686636778E+03  0.37926607125E+03  0.00000000000E+00 0. -1.
         -1    1    6    6    0  502 -0.10781254069E+02 -0.59933443315E+02 -0.73494317212E+01  0.61337323169E+02  0.00000000000E+00 0.  1.
<mgrwt>
<rscale>  0 0.54046814E+03</rscale>
<asrwt>0</asrwt>
<pdfrwt beam="1">  1        1 0.17354244E+00 0.54046814E+03</pdfrwt>
<pdfrwt beam="2">  1       -2 0.11527561E+00 0.54046814E+03</pdfrwt>
<totfact> 0.65855850E+00</totfact>
</mgrwt>
</event>
<event>
12    3  0.1092576E-007  0.5410257E+03  0.7818608E-02  0.1003593E+00
         -2   -1    0    0    0  501 -0.00000000000E+00  0.00000000000E+00  0.17292654452E+03  0.17292654452E+03  0.00000000000E+00 0.  1.
          1   -1    0    0  501    0  0.00000000000E+00 -0.00000000000E+00 -0.18296204254E+04  0.18296204254E+04  0.00000000000E+00 0. -1.
        -24    2    1    2    0    0  0.48915949234E+02 -0.39422909005E+03 -0.58262276110E+03  0.70975598214E+03  0.80591109338E+02 0.  0.
    5000000    2    1    2    0    0 -0.48915949234E+02  0.39422909005E+03 -0.10740711198E+04  0.12927909878E+04  0.59989200880E+03 0.  0.
        -24    2    4    4    0    0  0.16218512036E+03 -0.66673305697E+02 -0.16927217373E+03  0.25268152641E+03  0.66674898070E+02 0.  0.
         24    2    4    4    0    0 -0.21110106959E+03  0.46090239575E+03 -0.90479894610E+03  0.10401094614E+04  0.78561306430E+02 0.  0.
         13    1    5    5    0    0  0.15349380946E+03 -0.60515419157E+02 -0.12459454968E+03  0.20675170448E+03  0.00000000000E+00 0. -1.
        -14    1    5    5    0    0  0.86913109050E+01 -0.61578865407E+01 -0.44677624048E+02  0.45929821930E+02  0.00000000000E+00 0.  1.
         15    1    3    3    0    0  0.14702756314E+02 -0.24144384082E+03 -0.41523270193E+03  0.48055452739E+03  0.17770000000E+01 0. -1.
        -16    1    3    3    0    0  0.34213192920E+02 -0.15278524923E+03 -0.16739005917E+03  0.22920145476E+03  0.00000000000E+00 0.  1.
          4    1    6    6  502    0 -0.15581466719E+03  0.37110183904E+03 -0.65237190535E+03  0.76654020660E+03  0.00000000000E+00 0. -1.
         -3    1    6    6    0  502 -0.55286402406E+02  0.89800556716E+02 -0.25242704075E+03  0.27356925481E+03  0.00000000000E+00 0.  1.
<mgrwt>
<rscale>  0 0.54102566E+03</rscale>
<asrwt>0</asrwt>
<pdfrwt beam="1">  1        1 0.28148008E+00 0.54102566E+03</pdfrwt>
<pdfrwt beam="2">  1       -2 0.26604083E-01 0.54102566E+03</pdfrwt>
<totfact> 0.46318591E+01</totfact>
</mgrwt>
</event>
<event>
12    3  0.1092576E-007  0.1752874E+04  0.7818608E-02  0.8731770E-01
          1   -1    0    0  501    0  0.00000000000E+00  0.00000000000E+00  0.24470886415E+04  0.24470886415E+04  0.00000000000E+00 0. -1.
         -2   -1    0    0    0  501 -0.00000000000E+00 -0.00000000000E+00 -0.13707187820E+04  0.13707187820E+04  0.00000000000E+00 0.  1.
        -24    2    1    2    0    0  0.41406541776E+02  0.17359495676E+04  0.10957338688E+03  0.17417259761E+04  0.79797529171E+02 0.  0.
    5000000    2    1    2    0    0 -0.41406541776E+02 -0.17359495676E+04  0.96679647270E+03  0.20760814474E+04  0.60015277541E+03 0.  0.
        -24    2    4    4    0    0  0.12489958950E+03 -0.10376515644E+04  0.83896160824E+03  0.13425775666E+04  0.79606945160E+02 0.  0.
         24    2    4    4    0    0 -0.16630613128E+03 -0.69829800320E+03  0.12783486446E+03  0.73350388082E+03  0.80052233217E+02 0.  0.
         13    1    5    5    0    0  0.35730017548E+02 -0.61513813145E+03  0.50527328970E+03  0.79685171280E+03  0.00000000000E+00 0. -1.
        -14    1    5    5    0    0  0.89169571951E+02 -0.42251343294E+03  0.33368831854E+03  0.54572585380E+03  0.00000000000E+00 0.  1.
         15    1    3    3    0    0  0.57575850805E+02  0.11374351797E+04  0.94444235135E+02  0.11428020992E+04  0.17770000000E+01 0. -1.
        -16    1    3    3    0    0 -0.16169309029E+02  0.59851438789E+03  0.15129151749E+02  0.59892387688E+03  0.00000000000E+00 0.  1.
          4    1    6    6  502    0 -0.11777305724E+03 -0.58715533138E+03  0.12727161368E+03  0.61222539953E+03  0.00000000000E+00 0. -1.
         -3    1    6    6    0  502 -0.48533074035E+02 -0.11114267182E+03  0.56325078410E+00  0.12127848130E+03  0.00000000000E+00 0.  1.
<mgrwt>
<rscale>  0 0.17528743E+04</rscale>
<asrwt>0</asrwt>
<pdfrwt beam="1">  1        1 0.37647518E+00 0.17528743E+04</pdfrwt>
<pdfrwt beam="2">  1       -2 0.21087981E+00 0.17528743E+04</pdfrwt>
<totfact> 0.13378712E-01</totfact>
</mgrwt>
</event>
<event>
12    3  0.1092576E-007  0.1109487E+04  0.7818608E-02  0.9195994E-01
         -2   -1    0    0    0  501 -0.00000000000E+00  0.00000000000E+00  0.58245202844E+03  0.58245202844E+03  0.00000000000E+00 0.  1.
          1   -1    0    0  501    0  0.00000000000E+00 -0.00000000000E+00 -0.23703127960E+04  0.23703127960E+04  0.00000000000E+00 0. -1.
        -24    2    1    2    0    0  0.65154175040E+03 -0.87151853362E+03 -0.10103920946E+04  0.14870048184E+04  0.78993279339E+02 0.  0.
    5000000    2    1    2    0    0 -0.65154175040E+03  0.87151853362E+03 -0.77746867293E+03  0.14657600060E+04  0.59995304060E+03 0.  0.
        -24    2    4    4    0    0 -0.46227199796E+02  0.26477724249E+03 -0.47945430240E+03  0.55492392680E+03  0.76290197966E+02 0.  0.
         24    2    4    4    0    0 -0.60531455060E+03  0.60674129113E+03 -0.29801437053E+03  0.91083607922E+03  0.79177639771E+02 0.  0.
         13    1    5    5    0    0  0.90868700895E+01  0.65355434602E+02 -0.70341354845E+02  0.96445892818E+02  0.00000000000E+00 0. -1.
        -14    1    5    5    0    0 -0.55314069885E+02  0.19942180789E+03 -0.40911294756E+03  0.45847803398E+03  0.00000000000E+00 0.  1.
         15    1    3    3    0    0  0.12655466107E+03 -0.16992419526E+03 -0.15571178315E+03  0.26294416045E+03  0.17770000000E+01 0. -1.
        -16    1    3    3    0    0  0.52498708933E+03 -0.70159433836E+03 -0.85468031149E+03  0.12240606580E+04  0.00000000000E+00 0.  1.
          2    1    6    6  502    0 -0.16681470210E+03  0.14379322428E+03 -0.44802922908E+02  0.22474638615E+03  0.00000000000E+00 0. -1.
         -1    1    6    6    0  502 -0.43849984850E+03  0.46294806685E+03 -0.25321144762E+03  0.68608969307E+03  0.00000000000E+00 0.  1.
<mgrwt>
<rscale>  0 0.11094869E+04</rscale>
<asrwt>0</asrwt>
<pdfrwt beam="1">  1        1 0.36466350E+00 0.11094869E+04</pdfrwt>
<pdfrwt beam="2">  1       -2 0.89608006E-01 0.11094869E+04</pdfrwt>
<totfact> 0.15566025E+00</totfact>
</mgrwt>
</event>
<event>
12    3  0.1092576E-007  0.7125048E+03  0.7818608E-02  0.9696083E-01
         -2   -1    0    0    0  501 -0.00000000000E+00  0.00000000000E+00  0.52977931195E+03  0.52977931195E+03  0.00000000000E+00 0.  1.
          1   -1    0    0  501    0  0.00000000000E+00 -0.00000000000E+00 -0.21875338354E+04  0.21875338354E+04  0.00000000000E+00 0. -1.
        -24    2    1    2    0    0  0.64929189435E+03  0.17106666578E+03  0.15421113928E+03  0.69389664497E+03  0.82871648998E+02 0.  0.
    5000000    2    1    2    0    0 -0.64929189435E+03 -0.17106666578E+03 -0.18119656627E+04  0.20234165024E+04  0.60012582931E+03 0.  0.
        -24    2    4    4    0    0 -0.20925206299E+03 -0.22127410721E+03 -0.25634863199E+03  0.40396947982E+03  0.68760912695E+02 0.  0.
         24    2    4    4    0    0 -0.44003983137E+03  0.50207441433E+02 -0.15556170307E+04  0.16194470225E+04  0.80675102828E+02 0.  0.
         13    1    5    5    0    0 -0.34351017443E+02 -0.51747947878E+02 -0.21806716649E+02  0.65828378378E+02  0.00000000000E+00 0. -1.
        -14    1    5    5    0    0 -0.17490104554E+03 -0.16952615934E+03 -0.23454191534E+03  0.33814110144E+03  0.00000000000E+00 0.  1.
         15    1    3    3    0    0  0.31867230258E+03  0.42353448221E+02  0.83166855569E+02  0.33206284737E+03  0.17770000000E+01 0. -1.
        -16    1    3    3    0    0  0.33061959178E+03  0.12871321756E+03  0.71044283710E+02  0.36183379760E+03  0.00000000000E+00 0.  1.
          2    1    6    6  502    0 -0.33770542474E+03  0.43533132191E+02 -0.13042733192E+04  0.13479870099E+04  0.00000000000E+00 0. -1.
         -3    1    6    6    0  502 -0.10233440663E+03  0.66743092424E+01 -0.25134371148E+03  0.27146001268E+03  0.00000000000E+00 0.  1.
<mgrwt>
<rscale>  0 0.71250482E+03</rscale>
<asrwt>0</asrwt>
<pdfrwt beam="1">  1        1 0.33654367E+00 0.71250482E+03</pdfrwt>
<pdfrwt beam="2">  1       -2 0.81504509E-01 0.71250482E+03</pdfrwt>
<totfact> 0.27292439E+00</totfact>
</mgrwt>
</event>
<event>
12    3  0.1092576E-007  0.1887265E+03  0.7818608E-02  0.1159615E+00
         -2   -1    0    0    0  501 -0.00000000000E+00  0.00000000000E+00  0.15917036691E+03  0.15917036691E+03  0.00000000000E+00 0.  1.
          1   -1    0    0  501    0  0.00000000000E+00 -0.00000000000E+00 -0.90554709791E+03  0.90554709791E+03  0.00000000000E+00 0. -1.
        -24    2    1    2    0    0 -0.82871764166E+02 -0.17646336896E+02 -0.26953957961E+03  0.29369136763E+03  0.80149310300E+02 0.  0.
    5000000    2    1    2    0    0  0.82871764166E+02  0.17646336896E+02 -0.47683715139E+03  0.77102609719E+03  0.59994037295E+03 0.  0.
        -24    2    4    4    0    0 -0.45327070966E+02  0.10104090746E+03 -0.56252780768E+03  0.57818697126E+03  0.74825336471E+02 0.  0.
         24    2    4    4    0    0  0.12819883513E+03 -0.83394570566E+02  0.85690656292E+02  0.19283912593E+03  0.80339555535E+02 0.  0.
         11    1    5    5    0    0  0.56036374084E+01  0.23954142021E+02 -0.35927159563E+02  0.43542651118E+02  0.00000000000E+00 0. -1.
        -12    1    5    5    0    0 -0.50930708374E+02  0.77086765440E+02 -0.52660064812E+03  0.53464432015E+03  0.00000000000E+00 0.  1.
         15    1    3    3    0    0  0.46305645684E+00  0.26326147521E+01 -0.12905808563E+03  0.12909799486E+03  0.17770000000E+01 0. -1.
        -16    1    3    3    0    0 -0.83334820623E+02 -0.20278951648E+02 -0.14048149398E+03  0.16459337277E+03  0.00000000000E+00 0.  1.
          2    1    6    6  502    0  0.71766146889E+02 -0.11940797041E+01  0.47488845465E+02  0.86063907123E+02  0.00000000000E+00 0. -1.
         -1    1    6    6    0  502  0.56432688243E+02 -0.82200490862E+02  0.38201810827E+02  0.10677521880E+03  0.00000000000E+00 0.  1.
<mgrwt>
<rscale>  0 0.18872649E+03</rscale>
<asrwt>0</asrwt>
<pdfrwt beam="1">  1        1 0.13931494E+00 0.18872649E+03</pdfrwt>
<pdfrwt beam="2">  1       -2 0.24487749E-01 0.18872649E+03</pdfrwt>
<totfact> 0.24992058E+02</totfact>
</mgrwt>
</event>
<event>
12    3  0.1092576E-007  0.1071035E+04  0.7818608E-02  0.9233893E-01
          1   -1    0    0  501    0  0.00000000000E+00  0.00000000000E+00  0.32501395338E+03  0.32501395338E+03  0.00000000000E+00 0. -1.
         -2   -1    0    0    0  501 -0.00000000000E+00 -0.00000000000E+00 -0.42337626747E+04  0.42337626747E+04  0.00000000000E+00 0.  1.
        -24    2    1    2    0    0 -0.79251814717E+03 -0.62286378694E+03 -0.99877238025E+03  0.14212547117E+04  0.79839696856E+02 0.  0.
    5000000    2    1    2    0    0  0.79251814717E+03  0.62286378694E+03 -0.29099763411E+04  0.31375219164E+04  0.60003096563E+03 0.  0.
        -24    2    4    4    0    0  0.41220698180E+02  0.31230500045E+03 -0.11954447461E+04  0.12383915826E+04  0.72746213847E+02 0.  0.
         24    2    4    4    0    0  0.75129744899E+03  0.31055878649E+03 -0.17145315950E+04  0.18991303338E+04  0.78630896658E+02 0.  0.
         11    1    5    5    0    0  0.49398283834E+02  0.30451231421E+03 -0.11770521797E+04  0.12168072048E+04  0.00000000000E+00 0. -1.
        -12    1    5    5    0    0 -0.81775856532E+01  0.77926862371E+01 -0.18392566403E+02  0.21584377795E+02  0.00000000000E+00 0.  1.
         15    1    3    3    0    0 -0.51702306059E+03 -0.42962988306E+03 -0.71102282362E+03  0.97849440215E+03  0.17770000000E+01 0. -1.
        -16    1    3    3    0    0 -0.27549508658E+03 -0.19323390388E+03 -0.28774955663E+03  0.44276030951E+03  0.00000000000E+00 0.  1.
          4    1    6    6  502    0  0.70846960669E+03  0.30038822370E+03 -0.16543870880E+04  0.18245982860E+04  0.00000000000E+00 0. -1.
         -3    1    6    6    0  502  0.42827842298E+02  0.10170562788E+02 -0.60144506997E+02  0.74532047773E+02  0.00000000000E+00 0.  1.
<mgrwt>
<rscale>  0 0.10710345E+04</rscale>
<asrwt>0</asrwt>
<pdfrwt beam="1">  1        1 0.50002146E-01 0.10710345E+04</pdfrwt>
<pdfrwt beam="2">  1       -2 0.65134811E+00 0.10710345E+04</pdfrwt>
<totfact> 0.22606906E-02</totfact>
</mgrwt>
</event>
<event>
12    3  0.1092576E-007  0.9077390E+03  0.7818608E-02  0.9415959E-01
          1   -1    0    0  501    0  0.00000000000E+00  0.00000000000E+00  0.85479200354E+03  0.85479200354E+03  0.00000000000E+00 0. -1.
         -2   -1    0    0    0  501 -0.00000000000E+00 -0.00000000000E+00 -0.11177261442E+04  0.11177261442E+04  0.00000000000E+00 0.  1.
        -24    2    1    2    0    0 -0.82938126690E+02 -0.80533153095E+03  0.23743098487E+03  0.84744790045E+03  0.79729942922E+02 0.  0.
    5000000    2    1    2    0    0  0.82938126690E+02  0.80533153095E+03 -0.50036512557E+03  0.11250702473E+04  0.59998349554E+03 0.  0.
        -24    2    4    4    0    0 -0.24730928449E+03  0.42531043338E+03 -0.25145251903E+03  0.55819503699E+03  0.79388179602E+02 0.  0.
         24    2    4    4    0    0  0.33024741118E+03  0.38002109757E+03 -0.24891260654E+03  0.56687521033E+03  0.76880629595E+02 0.  0.
         13    1    5    5    0    0 -0.24634267679E+03  0.38689829976E+03 -0.22081919043E+03  0.50905414606E+03  0.00000000000E+00 0. -1.
        -14    1    5    5    0    0 -0.96660769655E+00  0.38412133626E+02 -0.30633328607E+02  0.49140890933E+02  0.00000000000E+00 0.  1.
         15    1    3    3    0    0 -0.32807214897E+02 -0.14396715462E+03  0.17644389349E+02  0.14871898723E+03  0.17770000000E+01 0. -1.
        -16    1    3    3    0    0 -0.50130911793E+02 -0.66136437633E+03  0.21978659552E+03  0.69872891322E+03  0.00000000000E+00 0.  1.
          2    1    6    6  502    0  0.84635362720E+02  0.58625558999E+02 -0.31603530655E+02  0.10769811484E+03  0.00000000000E+00 0. -1.
         -1    1    6    6    0  502  0.24561204846E+03  0.32139553857E+03 -0.21730907588E+03  0.45917709549E+03  0.00000000000E+00 0.  1.
<mgrwt>
<rscale>  0 0.90773899E+03</rscale>
<asrwt>0</asrwt>
<pdfrwt beam="1">  1        1 0.13150646E+00 0.90773899E+03</pdfrwt>
<pdfrwt beam="2">  1       -2 0.17195787E+00 0.90773899E+03</pdfrwt>
<totfact> 0.36106048E+00</totfact>
</mgrwt>
</event>
<event>
12    3  0.1092576E-007  0.4531994E+03  0.7818608E-02  0.1026772E+00
         -2   -1    0    0    0  501 -0.00000000000E+00  0.00000000000E+00  0.75829716892E+02  0.75829716892E+02  0.00000000000E+00 0.  1.
          1   -1    0    0  501    0  0.00000000000E+00 -0.00000000000E+00 -0.30215923005E+04  0.30215923005E+04  0.00000000000E+00 0. -1.
        -24    2    1    2    0    0  0.12907064165E+03 -0.25156520202E+03 -0.87020707987E+03  0.91847154441E+03  0.79908288960E+02 0.  0.
    5000000    2    1    2    0    0 -0.12907064165E+03  0.25156520202E+03 -0.20755555037E+04  0.21789504730E+04  0.59995852621E+03 0.  0.
        -24    2    4    4    0    0 -0.32378871442E+03  0.65757634239E+02 -0.75629700606E+03  0.82992108998E+03  0.87296369736E+02 0.  0.
         24    2    4    4    0    0  0.19471807277E+03  0.18580756778E+03 -0.13192584977E+04  0.13490293830E+04  0.83652330390E+02 0.  0.
         13    1    5    5    0    0 -0.18491838111E+03  0.28202038443E+02 -0.52720068321E+03  0.55940211210E+03  0.00000000000E+00 0. -1.
        -14    1    5    5    0    0 -0.13887033331E+03  0.37555595795E+02 -0.22909632286E+03  0.27051897788E+03  0.00000000000E+00 0.  1.
         15    1    3    3    0    0  0.85697305327E+02 -0.81994327902E+02 -0.33624748088E+03  0.35655662114E+03  0.17770000000E+01 0. -1.
        -16    1    3    3    0    0  0.43373336324E+02 -0.16957087412E+03 -0.53395959899E+03  0.56191492328E+03  0.00000000000E+00 0.  1.
          4    1    6    6  502    0  0.88308457204E+02  0.14101109850E+03 -0.77291228614E+03  0.79061742681E+03  0.00000000000E+00 0. -1.
         -3    1    6    6    0  502  0.10640961557E+03  0.44796469281E+02 -0.54634621153E+03  0.55841195618E+03  0.00000000000E+00 0.  1.
<mgrwt>
<rscale>  0 0.45319939E+03</rscale>
<asrwt>0</asrwt>
<pdfrwt beam="1">  1        1 0.46486044E+00 0.45319939E+03</pdfrwt>
<pdfrwt beam="2">  1       -2 0.11666108E-01 0.45319939E+03</pdfrwt>
<totfact> 0.30179769E+01</totfact>
</mgrwt>
</event>
<event>
12    3  0.1092576E-007  0.6513767E+03  0.7818608E-02  0.9804199E-01
          1   -1    0    0  501    0  0.00000000000E+00  0.00000000000E+00  0.35991932106E+04  0.35991932106E+04  0.00000000000E+00 0. -1.
         -2   -1    0    0    0  501 -0.00000000000E+00 -0.00000000000E+00 -0.17593490117E+03  0.17593490117E+03  0.00000000000E+00 0.  1.
        -24    2    1    2    0    0 -0.19613026154E+03  0.49685303036E+03  0.47836156866E+03  0.72262895042E+03  0.89625868692E+02 0.  0.
    5000000    2    1    2    0    0  0.19613026154E+03 -0.49685303036E+03  0.29448967408E+04  0.30524991613E+04  0.60000358583E+03 0.  0.
        -24    2    4    4    0    0  0.25230720433E+03  0.26917469335E+01  0.14396337250E+04  0.14635538013E+04  0.76015105555E+02 0.  0.
         24    2    4    4    0    0 -0.56176942784E+02 -0.49954477729E+03  0.15052630158E+04  0.15889453600E+04  0.78928937591E+02 0.  0.
         11    1    5    5    0    0  0.19410744455E+03  0.14621881640E+02  0.90925909777E+03  0.92986214373E+03  0.00000000000E+00 0. -1.
        -12    1    5    5    0    0  0.58199759773E+02 -0.11930134707E+02  0.53037462723E+03  0.53369165757E+03  0.00000000000E+00 0.  1.
         15    1    3    3    0    0 -0.30379786716E+02  0.19123687007E+03  0.15935937551E+03  0.25078484844E+03  0.17770000000E+01 0. -1.
        -16    1    3    3    0    0 -0.16575047483E+03  0.30561616029E+03  0.31900219316E+03  0.47184410198E+03  0.00000000000E+00 0.  1.
          4    1    6    6  502    0 -0.31907713286E+02 -0.67653484517E+02  0.18195161819E+03  0.19672693638E+03  0.00000000000E+00 0. -1.
         -3    1    6    6    0  502 -0.24269229498E+02 -0.43189129277E+03  0.13233113976E+04  0.13922184237E+04  0.00000000000E+00 0.  1.
<mgrwt>
<rscale>  0 0.65137671E+03</rscale>
<asrwt>0</asrwt>
<pdfrwt beam="1">  1        1 0.55372198E+00 0.65137671E+03</pdfrwt>
<pdfrwt beam="2">  1       -2 0.27066910E-01 0.65137671E+03</pdfrwt>
<totfact> 0.25144965E+00</totfact>
</mgrwt>
</event>
<event>
12    3  0.1092576E-007  0.8794796E+03  0.7818608E-02  0.9451603E-01
          1   -1    0    0  501    0  0.00000000000E+00  0.00000000000E+00  0.11506512787E+04  0.11506512787E+04  0.00000000000E+00 0. -1.
         -2   -1    0    0    0  501 -0.00000000000E+00 -0.00000000000E+00 -0.11898622874E+04  0.11898622874E+04  0.00000000000E+00 0.  1.
        -24    2    1    2    0    0  0.48443768615E+03  0.61029862389E+03  0.74624449795E+03  0.10818803805E+04  0.80249765794E+02 0.  0.
    5000000    2    1    2    0    0 -0.48443768615E+03 -0.61029862389E+03 -0.78545550666E+03  0.12586331857E+04  0.60006071444E+03 0.  0.
        -24    2    4    4    0    0 -0.50079127117E+03 -0.17026470569E+03 -0.40248508954E+03  0.66965116529E+03  0.81587184008E+02 0.  0.
         24    2    4    4    0    0  0.16353585013E+02 -0.44003391819E+03 -0.38297041712E+03  0.58898202036E+03  0.79600194854E+02 0.  0.
         11    1    5    5    0    0 -0.18436806302E+03 -0.21945534101E+02 -0.13450912748E+03  0.22927253325E+03  0.00000000000E+00 0. -1.
        -12    1    5    5    0    0 -0.31642320815E+03 -0.14831917159E+03 -0.26797596206E+03  0.44037863204E+03  0.00000000000E+00 0.  1.
         15    1    3    3    0    0  0.21534550048E+03  0.22167119194E+03  0.32875129636E+03  0.45121211697E+03  0.17770000000E+01 0. -1.
        -16    1    3    3    0    0  0.26909218567E+03  0.38862743195E+03  0.41749320158E+03  0.63066826353E+03  0.00000000000E+00 0.  1.
          2    1    6    6  502    0  0.21442272237E+02 -0.11366912348E+03 -0.14262009788E+03  0.18363260329E+03  0.00000000000E+00 0. -1.
         -1    1    6    6    0  502 -0.50886872237E+01 -0.32636479471E+03 -0.24035031924E+03  0.40534941707E+03  0.00000000000E+00 0.  1.
<mgrwt>
<rscale>  0 0.87947957E+03</rscale>
<asrwt>0</asrwt>
<pdfrwt beam="1">  1        1 0.17702327E+00 0.87947957E+03</pdfrwt>
<pdfrwt beam="2">  1       -2 0.18305574E+00 0.87947957E+03</pdfrwt>
<totfact> 0.17813423E+00</totfact>
</mgrwt>
</event>
<event>
12    3  0.1092576E-007  0.4377037E+03  0.7818608E-02  0.1031454E+00
          1   -1    0    0  501    0  0.00000000000E+00  0.00000000000E+00  0.10142964768E+04  0.10142964768E+04  0.00000000000E+00 0. -1.
         -2   -1    0    0    0  501 -0.00000000000E+00 -0.00000000000E+00 -0.39416311783E+03  0.39416311783E+03  0.00000000000E+00 0.  1.
        -24    2    1    2    0    0  0.51670463267E+02  0.30153233013E+03  0.66215835086E+03  0.73332274266E+03  0.75610716174E+02 0.  0.
    5000000    2    1    2    0    0 -0.51670463267E+02 -0.30153233013E+03 -0.42024991862E+02  0.67513685199E+03  0.60037662020E+03 0.  0.
        -24    2    4    4    0    0  0.13141870121E+03  0.60888846909E+02 -0.17488807866E+03  0.24107538167E+03  0.80951670051E+02 0.  0.
         24    2    4    4    0    0 -0.18308916448E+03 -0.36242117704E+03  0.13286308680E+03  0.43406147032E+03  0.76720326294E+02 0.  0.
         11    1    5    5    0    0  0.11765462135E+03  0.18932921635E+02 -0.14532208090E+03  0.18793502240E+03  0.00000000000E+00 0. -1.
        -12    1    5    5    0    0  0.13764079864E+02  0.41955925275E+02 -0.29565997757E+02  0.53140359272E+02  0.00000000000E+00 0.  1.
         15    1    3    3    0    0  0.12445786581E+02  0.77834661427E+02  0.10232817434E+03  0.12917950734E+03  0.17770000000E+01 0. -1.
        -16    1    3    3    0    0  0.39224676685E+02  0.22369766871E+03  0.55983017652E+03  0.60414323532E+03  0.00000000000E+00 0.  1.
          4    1    6    6  502    0 -0.15404893259E+03 -0.29789242711E+03  0.13900420622E+03  0.36303325069E+03  0.00000000000E+00 0. -1.
         -3    1    6    6    0  502 -0.29040231892E+02 -0.64528749937E+02 -0.61411194220E+01  0.71028219635E+02  0.00000000000E+00 0.  1.
<mgrwt>
<rscale>  0 0.43770370E+03</rscale>
<asrwt>0</asrwt>
<pdfrwt beam="1">  1        1 0.15604561E+00 0.43770370E+03</pdfrwt>
<pdfrwt beam="2">  1       -2 0.60640480E-01 0.43770370E+03</pdfrwt>
<totfact> 0.34808702E+01</totfact>
</mgrwt>
</event>
<event>
12    3  0.1092576E-007  0.8564823E+03  0.7818608E-02  0.9481678E-01
          1   -1    0    0  501    0  0.00000000000E+00  0.00000000000E+00  0.10347224602E+04  0.10347224602E+04  0.00000000000E+00 0. -1.
         -2   -1    0    0    0  501 -0.00000000000E+00 -0.00000000000E+00 -0.83719046835E+03  0.83719046835E+03  0.00000000000E+00 0.  1.
        -24    2    1    2    0    0  0.81233072940E+03  0.58782453334E+02  0.26005819357E+03  0.85834733140E+03  0.76113642185E+02 0.  0.
    5000000    2    1    2    0    0 -0.81233072940E+03 -0.58782453334E+02 -0.62526201762E+02  0.10135655971E+04  0.60005758308E+03 0.  0.
        -24    2    4    4    0    0 -0.94148382628E+02 -0.13562768659E+03 -0.20410497869E+03  0.27419147916E+03  0.79141250894E+02 0.  0.
         24    2    4    4    0    0 -0.71818234677E+03  0.76845233257E+02  0.14157877693E+03  0.73937411796E+03  0.70274199758E+02 0.  0.
         13    1    5    5    0    0 -0.31132961703E+02 -0.97376231987E+02 -0.79872088360E+02  0.12973412180E+03  0.00000000000E+00 0. -1.
        -14    1    5    5    0    0 -0.63015420924E+02 -0.38251454603E+02 -0.12423289033E+03  0.14445735735E+03  0.00000000000E+00 0.  1.
         15    1    3    3    0    0  0.63101042747E+03  0.49502766000E+02  0.16842881114E+03  0.65497794281E+03  0.17770000000E+01 0. -1.
        -16    1    3    3    0    0  0.18132030193E+03  0.92796873339E+01  0.91629382439E+02  0.20336938859E+03  0.00000000000E+00 0.  1.
          2    1    6    6  502    0 -0.43039097802E+03  0.37162202476E+02  0.11846726604E+03  0.44794186718E+03  0.00000000000E+00 0. -1.
         -3    1    6    6    0  502 -0.28779136875E+03  0.39683030781E+02  0.23111510893E+02  0.29143225078E+03  0.00000000000E+00 0.  1.
<mgrwt>
<rscale>  0 0.85648230E+03</rscale>
<asrwt>0</asrwt>
<pdfrwt beam="1">  1        1 0.15918807E+00 0.85648230E+03</pdfrwt>
<pdfrwt beam="2">  1       -2 0.12879853E+00 0.85648230E+03</pdfrwt>
<totfact> 0.56097300E+00</totfact>
</mgrwt>
</event>
<event>
12    3  0.1092576E-007  0.1766518E+04  0.7818608E-02  0.8724310E-01
         -2   -1    0    0    0  501 -0.00000000000E+00  0.00000000000E+00  0.15582187640E+04  0.15582187640E+04  0.00000000000E+00 0.  1.
          1   -1    0    0  501    0  0.00000000000E+00 -0.00000000000E+00 -0.22183942069E+04  0.22183942069E+04  0.00000000000E+00 0. -1.
        -24    2    1    2    0    0 -0.26328376667E+03 -0.17365714353E+04  0.12201558447E+03  0.17624575656E+04  0.79813381028E+02 0.  0.
    5000000    2    1    2    0    0  0.26328376667E+03  0.17365714353E+04 -0.78219102737E+03  0.20141554053E+04  0.60000041784E+03 0.  0.
        -24    2    4    4    0    0  0.28401454884E+03  0.14700654597E+04 -0.41950659991E+03  0.15567367792E+04  0.75411487077E+02 0.  0.
         24    2    4    4    0    0 -0.20730782166E+02  0.26650597561E+03 -0.36268442746E+03  0.45741862610E+03  0.78972179993E+02 0.  0.
         11    1    5    5    0    0  0.13767758405E+03  0.52514715747E+03 -0.15917975077E+03  0.56574980972E+03  0.00000000000E+00 0. -1.
        -12    1    5    5    0    0  0.14633696479E+03  0.94491830226E+03 -0.26032684914E+03  0.99098696944E+03  0.00000000000E+00 0.  1.
         15    1    3    3    0    0 -0.18072165275E+03 -0.13748085844E+04  0.11385445699E+03  0.13913033295E+04  0.17770000000E+01 0. -1.
        -16    1    3    3    0    0 -0.82562113923E+02 -0.36176285092E+03  0.81611274822E+01  0.37115423609E+03  0.00000000000E+00 0.  1.
          4    1    6    6  502    0  0.11365558729E+02  0.21674868288E+03 -0.25805286264E+03  0.33719496938E+03  0.00000000000E+00 0. -1.
         -3    1    6    6    0  502 -0.32096340895E+02  0.49757292730E+02 -0.10463156482E+03  0.12022365672E+03  0.00000000000E+00 0.  1.
<mgrwt>
<rscale>  0 0.17665182E+04</rscale>
<asrwt>0</asrwt>
<pdfrwt beam="1">  1        1 0.34129141E+00 0.17665182E+04</pdfrwt>
<pdfrwt beam="2">  1       -2 0.23972596E+00 0.17665182E+04</pdfrwt>
<totfact> 0.12602121E-01</totfact>
</mgrwt>
</event>
<event>
12    3  0.1092576E-007  0.3600969E+03  0.7818608E-02  0.1058546E+00
         -2   -1    0    0    0  501 -0.00000000000E+00  0.00000000000E+00  0.21529299068E+03  0.21529299068E+03  0.00000000000E+00 0.  1.
          1   -1    0    0  501    0  0.00000000000E+00 -0.00000000000E+00 -0.18573107348E+04  0.18573107348E+04  0.00000000000E+00 0. -1.
        -24    2    1    2    0    0  0.14778482946E+03  0.16419660058E+03  0.69916056824E+02  0.24519489563E+03  0.80196024721E+02 0.  0.
    5000000    2    1    2    0    0 -0.14778482946E+03 -0.16419660058E+03 -0.17119338009E+04  0.18274088298E+04  0.59992067233E+03 0.  0.
        -24    2    4    4    0    0 -0.29134842123E+03 -0.19048443071E+03 -0.56395202193E+03  0.66742046291E+03  0.78993483191E+02 0.  0.
         24    2    4    4    0    0  0.14356359176E+03  0.26287830133E+02 -0.11479817790E+04  0.11599883669E+04  0.80058051109E+02 0.  0.
         11    1    5    5    0    0 -0.10656073416E+03 -0.58961388803E+02 -0.13239079055E+03  0.17988595514E+03  0.00000000000E+00 0. -1.
        -12    1    5    5    0    0 -0.18478768707E+03 -0.13152304191E+03 -0.43156123137E+03  0.48753450777E+03  0.00000000000E+00 0.  1.
         15    1    3    3    0    0  0.12441942565E+03  0.11444867088E+03  0.83531304739E+02  0.18857181217E+03  0.17770000000E+01 0. -1.
        -16    1    3    3    0    0  0.23365403814E+02  0.49747929703E+02 -0.13615247915E+02  0.56623083464E+02  0.00000000000E+00 0.  1.
          4    1    6    6  502    0  0.50747819981E+02  0.19984548825E+02 -0.19522608381E+03  0.20270162117E+03  0.00000000000E+00 0. -1.
         -3    1    6    6    0  502  0.92815771783E+02  0.63032813078E+01 -0.95275569521E+03  0.95728674575E+03  0.00000000000E+00 0.  1.
<mgrwt>
<rscale>  0 0.36009686E+03</rscale>
<asrwt>0</asrwt>
<pdfrwt beam="1">  1        1 0.28574012E+00 0.36009686E+03</pdfrwt>
<pdfrwt beam="2">  1       -2 0.33121998E-01 0.36009686E+03</pdfrwt>
<totfact> 0.30793946E+01</totfact>
</mgrwt>
</event>
<event>
12    3  0.1092576E-007  0.7777547E+03  0.7818608E-02  0.9592786E-01
          1   -1    0    0  501    0  0.00000000000E+00  0.00000000000E+00  0.14739803333E+04  0.14739803333E+04  0.00000000000E+00 0. -1.
         -2   -1    0    0    0  501 -0.00000000000E+00 -0.00000000000E+00 -0.56515466816E+03  0.56515466816E+03  0.00000000000E+00 0.  1.
        -24    2    1    2    0    0 -0.64742193091E+03  0.22609368926E+03  0.89150192176E+03  0.11276820849E+04  0.81349217160E+02 0.  0.
    5000000    2    1    2    0    0  0.64742193091E+03 -0.22609368926E+03  0.17323743395E+02  0.91145291658E+03  0.60014397781E+03 0.  0.
        -24    2    4    4    0    0  0.26360122619E+03  0.16494219431E+03  0.13003031485E+03  0.34634314235E+03  0.79712957250E+02 0.  0.
         24    2    4    4    0    0  0.38382070472E+03 -0.39103588357E+03 -0.11270657146E+03  0.56510977423E+03  0.80117975945E+02 0.  0.
         11    1    5    5    0    0  0.10644183104E+03  0.29828554325E+02  0.68915516234E+02  0.13026493936E+03  0.00000000000E+00 0. -1.
        -12    1    5    5    0    0  0.15715939515E+03  0.13511363999E+03  0.61114798617E+02  0.21607820299E+03  0.00000000000E+00 0.  1.
         15    1    3    3    0    0 -0.29107570960E+03  0.14089012567E+03  0.44504614548E+03  0.55013118942E+03  0.17770000000E+01 0. -1.
        -16    1    3    3    0    0 -0.35634622131E+03  0.85203563587E+02  0.44645577627E+03  0.57755089547E+03  0.00000000000E+00 0.  1.
          4    1    6    6  502    0  0.22659964551E+03 -0.23253166029E+03 -0.26395822077E+02  0.32575314551E+03  0.00000000000E+00 0. -1.
         -3    1    6    6    0  502  0.15722105921E+03 -0.15850422328E+03 -0.86310749379E+02  0.23935662873E+03  0.00000000000E+00 0.  1.
<mgrwt>
<rscale>  0 0.77775472E+03</rscale>
<asrwt>0</asrwt>
<pdfrwt beam="1">  1        1 0.22676620E+00 0.77775472E+03</pdfrwt>
<pdfrwt beam="2">  1       -2 0.86946873E-01 0.77775472E+03</pdfrwt>
<totfact> 0.70401699E+00</totfact>
</mgrwt>
</event>
<event>
12    3  0.1092576E-007  0.4260013E+03  0.7818608E-02  0.1035131E+00
         -2   -1    0    0    0  501 -0.00000000000E+00  0.00000000000E+00  0.53059195647E+03  0.53059195647E+03  0.00000000000E+00 0.  1.
          1   -1    0    0  501    0  0.00000000000E+00 -0.00000000000E+00 -0.34920861788E+03  0.34920861788E+03  0.00000000000E+00 0. -1.
        -24    2    1    2    0    0  0.16164800438E+03  0.13286670569E+03  0.26794009888E+02  0.22549749005E+03  0.79671577458E+02 0.  0.
    5000000    2    1    2    0    0 -0.16164800438E+03 -0.13286670569E+03  0.15458932870E+03  0.65430308430E+03  0.60035908153E+03 0.  0.
        -24    2    4    4    0    0  0.17323491995E+03  0.10625199948E+03  0.60931332418E+02  0.22503415068E+03  0.75019442953E+02 0.  0.
         24    2    4    4    0    0 -0.33488292433E+03 -0.23911870517E+03  0.93657996284E+02  0.42926893362E+03  0.78585424458E+02 0.  0.
         11    1    5    5    0    0  0.59061379015E+02  0.72125095905E+02  0.48886032650E+02  0.10526214960E+03  0.00000000000E+00 0. -1.
        -12    1    5    5    0    0  0.11417354093E+03  0.34126903572E+02  0.12045299769E+02  0.11977200108E+03  0.00000000000E+00 0.  1.
         15    1    3    3    0    0  0.49360489267E+02  0.91492542035E+02  0.70515583747E+01  0.10421240499E+03  0.17770000000E+01 0. -1.
        -16    1    3    3    0    0  0.11228751511E+03  0.41374163655E+02  0.19742451513E+02  0.12128508507E+03  0.00000000000E+00 0.  1.
          2    1    6    6  502    0 -0.30571675944E+03 -0.19342928576E+03  0.98236972644E+02  0.37487081560E+03  0.00000000000E+00 0. -1.
         -1    1    6    6    0  502 -0.29166164883E+02 -0.45689419404E+02 -0.45789763608E+01  0.54398118019E+02  0.00000000000E+00 0.  1.
<mgrwt>
<rscale>  0 0.42600133E+03</rscale>
<asrwt>0</asrwt>
<pdfrwt beam="1">  1        1 0.53724403E-01 0.42600133E+03</pdfrwt>
<pdfrwt beam="2">  1       -2 0.81629532E-01 0.42600133E+03</pdfrwt>
<totfact> 0.85925958E+01</totfact>
</mgrwt>
</event>
<event>
12    3  0.1092576E-007  0.7696254E+03  0.7818608E-02  0.9605054E-01
          1   -1    0    0  501    0  0.00000000000E+00  0.00000000000E+00  0.16075704895E+04  0.16075704895E+04  0.00000000000E+00 0. -1.
         -2   -1    0    0    0  501 -0.00000000000E+00 -0.00000000000E+00 -0.37881286512E+03  0.37881286512E+03  0.00000000000E+00 0.  1.
        -24    2    1    2    0    0 -0.23889216096E+03  0.61395801495E+03  0.61139237058E+03  0.90228160216E+03  0.79357105019E+02 0.  0.
    5000000    2    1    2    0    0  0.23889216096E+03 -0.61395801495E+03  0.61736525379E+03  0.10841017524E+04  0.60010236159E+03 0.  0.
        -24    2    4    4    0    0  0.41817760387E+03 -0.31872326444E+03  0.42532972085E+03  0.68108804680E+03  0.80737403881E+02 0.  0.
         24    2    4    4    0    0 -0.17928544291E+03 -0.29523475050E+03  0.19203553293E+03  0.40301370564E+03  0.78965644935E+02 0.  0.
         13    1    5    5    0    0  0.19173523790E+03 -0.14312045743E+03  0.14258703534E+03  0.27852635321E+03  0.00000000000E+00 0. -1.
        -14    1    5    5    0    0  0.22644236597E+03 -0.17560280702E+03  0.28274268551E+03  0.40256169359E+03  0.00000000000E+00 0.  1.
         15    1    3    3    0    0 -0.16153007888E+03  0.38796175518E+03  0.43881257950E+03  0.60759026285E+03  0.17770000000E+01 0. -1.
        -16    1    3    3    0    0 -0.77362082080E+02  0.22599625977E+03  0.17257979108E+03  0.29469133931E+03  0.00000000000E+00 0.  1.
          4    1    6    6  502    0 -0.11218283006E+03 -0.10922132540E+03  0.84099668203E+02  0.17772743028E+03  0.00000000000E+00 0. -1.
         -3    1    6    6    0  502 -0.67102612848E+02 -0.18601342510E+03  0.10793586473E+03  0.22528627536E+03  0.00000000000E+00 0.  1.
<mgrwt>
<rscale>  0 0.76962544E+03</rscale>
<asrwt>0</asrwt>
<pdfrwt beam="1">  1        1 0.24731853E+00 0.76962544E+03</pdfrwt>
<pdfrwt beam="2">  1       -2 0.58278903E-01 0.76962544E+03</pdfrwt>
<totfact> 0.13737882E+01</totfact>
</mgrwt>
</event>
<event>
12    3  0.1092576E-007  0.9398989E+03  0.7818608E-02  0.9377036E-01
         -2   -1    0    0    0  501 -0.00000000000E+00  0.00000000000E+00  0.64440096745E+03  0.64440096745E+03  0.00000000000E+00 0.  1.
          1   -1    0    0  501    0  0.00000000000E+00 -0.00000000000E+00 -0.14385407932E+04  0.14385407932E+04  0.00000000000E+00 0. -1.
        -24    2    1    2    0    0  0.64105264038E+03 -0.55714143998E+03 -0.16883305647E+03  0.86949917263E+03  0.78543862671E+02 0.  0.
    5000000    2    1    2    0    0 -0.64105264038E+03  0.55714143998E+03 -0.62530676926E+03  0.12134425880E+04  0.60006606875E+03 0.  0.
        -24    2    4    4    0    0 -0.69129331854E+03  0.29206255648E+03 -0.50272722551E+03  0.90711968236E+03  0.83333460854E+02 0.  0.
         24    2    4    4    0    0  0.50240678162E+02  0.26507888350E+03 -0.12257954375E+03  0.30632290566E+03  0.77569567269E+02 0.  0.
         13    1    5    5    0    0 -0.10883171435E+03  0.80070058508E+02 -0.83905938571E+02  0.15904641727E+03  0.00000000000E+00 0. -1.
        -14    1    5    5    0    0 -0.58246160419E+03  0.21199249797E+03 -0.41882128694E+03  0.74807326509E+03  0.00000000000E+00 0.  1.
         15    1    3    3    0    0  0.19363528384E+03 -0.21431228340E+03 -0.70609112630E+02  0.29734354286E+03  0.17770000000E+01 0. -1.
        -16    1    3    3    0    0  0.44741735653E+03 -0.34282915658E+03 -0.98223943845E+02  0.57215562977E+03  0.00000000000E+00 0.  1.
          2    1    6    6  502    0  0.43262829322E+02  0.12849885528E+03 -0.98191313104E+02  0.16740717481E+03  0.00000000000E+00 0. -1.
         -1    1    6    6    0  502  0.69778488400E+01  0.13658002823E+03 -0.24388230648E+02  0.13891573085E+03  0.00000000000E+00 0.  1.
<mgrwt>
<rscale>  0 0.93989885E+03</rscale>
<asrwt>0</asrwt>
<pdfrwt beam="1">  1        1 0.22131397E+00 0.93989885E+03</pdfrwt>
<pdfrwt beam="2">  1       -2 0.99138612E-01 0.93989885E+03</pdfrwt>
<totfact> 0.53779633E+00</totfact>
</mgrwt>
</event>
<event>
12    3  0.1092576E-007  0.6772622E+03  0.7818608E-02  0.9756927E-01
         -2   -1    0    0    0  501 -0.00000000000E+00  0.00000000000E+00  0.41139394855E+03  0.41139394855E+03  0.00000000000E+00 0.  1.
          1   -1    0    0  501    0  0.00000000000E+00 -0.00000000000E+00 -0.12970531015E+04  0.12970531015E+04  0.00000000000E+00 0. -1.
        -24    2    1    2    0    0 -0.29343687334E+03  0.52834763012E+03 -0.38867908545E+03  0.72248905074E+03  0.75250116778E+02 0.  0.
    5000000    2    1    2    0    0  0.29343687334E+03 -0.52834763012E+03 -0.49698006755E+03  0.98595799936E+03  0.59988963325E+03 0.  0.
        -24    2    4    4    0    0 -0.10300955817E+03 -0.17549315064E+03  0.48541109484E+02  0.21955399896E+03  0.66625101514E+02 0.  0.
         24    2    4    4    0    0  0.39644643152E+03 -0.35285447948E+03 -0.54552117703E+03  0.76640400040E+03  0.90031552788E+02 0.  0.
         13    1    5    5    0    0 -0.99056033070E+02 -0.10815546005E+03  0.32531343492E+02  0.15022646084E+03  0.00000000000E+00 0. -1.
        -14    1    5    5    0    0 -0.39535251021E+01 -0.67337690590E+02  0.16009765992E+02  0.69327538121E+02  0.00000000000E+00 0.  1.
         15    1    3    3    0    0 -0.11646831184E+03  0.28254950252E+03 -0.18005822300E+03  0.35471567549E+03  0.17770000000E+01 0. -1.
        -16    1    3    3    0    0 -0.17696856151E+03  0.24579812760E+03 -0.20862086245E+03  0.36777337525E+03  0.00000000000E+00 0.  1.
          4    1    6    6  502    0  0.29466148437E+03 -0.28229861391E+03 -0.36502749815E+03  0.54750613895E+03  0.00000000000E+00 0. -1.
         -3    1    6    6    0  502  0.10178494714E+03 -0.70555865571E+02 -0.18049367888E+03  0.21889786145E+03  0.00000000000E+00 0.  1.
<mgrwt>
<rscale>  0 0.67726223E+03</rscale>
<asrwt>0</asrwt>
<pdfrwt beam="1">  1        1 0.19954663E+00 0.67726223E+03</pdfrwt>
<pdfrwt beam="2">  1       -2 0.63291377E-01 0.67726223E+03</pdfrwt>
<totfact> 0.19112616E+01</totfact>
</mgrwt>
</event>
<event>
12    3  0.1092576E-007  0.9284911E+03  0.7818608E-02  0.9390651E-01
          1   -1    0    0  501    0  0.00000000000E+00  0.00000000000E+00  0.11182948474E+04  0.11182948474E+04  0.00000000000E+00 0. -1.
         -2   -1    0    0    0  501 -0.00000000000E+00 -0.00000000000E+00 -0.82593664167E+03  0.82593664167E+03  0.00000000000E+00 0.  1.
        -24    2    1    2    0    0 -0.72914775596E+03 -0.46333163906E+03  0.18277529506E+03  0.88683133004E+03  0.82038659686E+02 0.  0.
    5000000    2    1    2    0    0  0.72914775596E+03  0.46333163906E+03  0.10958291069E+03  0.10574001590E+04  0.59979498519E+03 0.  0.
        -24    2    4    4    0    0 -0.55609251560E+02  0.11578274185E+03 -0.85050694051E+02  0.17369519219E+03  0.80239435827E+02 0.  0.
         24    2    4    4    0    0  0.78475700752E+03  0.34754889721E+03  0.19463360474E+03  0.88370496685E+03  0.80115114359E+02 0.  0.
         11    1    5    5    0    0 -0.25333652381E+02  0.22584172951E+02  0.11786517778E+02  0.35927159812E+02  0.00000000000E+00 0. -1.
        -12    1    5    5    0    0 -0.30275599180E+02  0.93198568901E+02 -0.96837211829E+02  0.13776803238E+03  0.00000000000E+00 0.  1.
         15    1    3    3    0    0 -0.16277610553E+03 -0.12339839308E+03  0.74667225383E+02  0.21748925542E+03  0.17770000000E+01 0. -1.
        -16    1    3    3    0    0 -0.56637165043E+03 -0.33993324598E+03  0.10810806967E+03  0.66934207462E+03  0.00000000000E+00 0.  1.
          2    1    6    6  502    0  0.39694708717E+03  0.20744807530E+03  0.12966496673E+03  0.46627748987E+03  0.00000000000E+00 0. -1.
         -1    1    6    6    0  502  0.38780992035E+03  0.14010082191E+03  0.64968638009E+02  0.41742747698E+03  0.00000000000E+00 0.  1.
<mgrwt>
<rscale>  0 0.92849110E+03</rscale>
<asrwt>0</asrwt>
<pdfrwt beam="1">  1        1 0.17204536E+00 0.92849110E+03</pdfrwt>
<pdfrwt beam="2">  1       -2 0.12706718E+00 0.92849110E+03</pdfrwt>
<totfact> 0.49783745E+00</totfact>
</mgrwt>
</event>
<event>
12    3  0.1092576E-007  0.5855754E+03  0.7818608E-02  0.9935793E-01
         -4   -1    0    0    0  501 -0.00000000000E+00  0.00000000000E+00  0.10391945621E+04  0.10391945621E+04  0.00000000000E+00 0.  1.
          3   -1    0    0  501    0  0.00000000000E+00 -0.00000000000E+00 -0.37864586801E+03  0.37864586801E+03  0.00000000000E+00 0. -1.
        -24    2    1    2    0    0  0.62640314499E+02  0.45574024916E+03  0.40996777821E+03  0.62129232871E+03  0.79420367876E+02 0.  0.
    5000000    2    1    2    0    0 -0.62640314499E+02 -0.45574024916E+03  0.25058091584E+03  0.79654810136E+03  0.60006257897E+03 0.  0.
        -24    2    4    4    0    0  0.99823107340E+02 -0.52154344073E+03  0.87564170844E+02  0.54400138583E+03  0.79358745198E+02 0.  0.
         24    2    4    4    0    0 -0.16246342184E+03  0.65803191568E+02  0.16301674500E+03  0.25254671553E+03  0.80504415511E+02 0.  0.
         11    1    5    5    0    0  0.33373312201E+02 -0.16830697877E+03 -0.90128275465E+01  0.17182039497E+03  0.00000000000E+00 0. -1.
        -12    1    5    5    0    0  0.66449795139E+02 -0.35323646197E+03  0.96576998391E+02  0.37218099086E+03  0.00000000000E+00 0.  1.
         15    1    3    3    0    0  0.39111669318E+02  0.99854367876E+02  0.66868823175E+02  0.12639309595E+03  0.17770000000E+01 0. -1.
        -16    1    3    3    0    0  0.23528645181E+02  0.35588588129E+03  0.34309895504E+03  0.49489923276E+03  0.00000000000E+00 0.  1.
          4    1    6    6  502    0 -0.83230073936E+02  0.23946229033E+02  0.29002817412E+02  0.91333622013E+02  0.00000000000E+00 0. -1.
         -3    1    6    6    0  502 -0.79233347904E+02  0.41856962535E+02  0.13401392759E+03  0.16121309351E+03  0.00000000000E+00 0.  1.
<mgrwt>
<rscale>  0 0.58557543E+03</rscale>
<asrwt>0</asrwt>
<pdfrwt beam="1">  1        3 0.58253211E-01 0.58557543E+03</pdfrwt>
<pdfrwt beam="2">  1       -4 0.15987609E+00 0.58557543E+03</pdfrwt>
<totfact> 0.16466526E+00</totfact>
</mgrwt>
</event>
<event>
12    3  0.1920580E-007  0.7804151E+03  0.7818608E-02  0.9588806E-01
         -2   -1    0    0    0  501 -0.00000000000E+00  0.00000000000E+00  0.12321826570E+04  0.12321826570E+04  0.00000000000E+00 0.  1.
          1   -1    0    0  501    0  0.00000000000E+00 -0.00000000000E+00 -0.62452840923E+03  0.62452840923E+03  0.00000000000E+00 0. -1.
        -24    2    1    2    0    0  0.42470091019E+03 -0.64630794870E+03  0.26015736489E+03  0.81806920516E+03  0.58911308390E+02 0.  0.
    5000000    2    1    2    0    0 -0.42470091019E+03  0.64630794870E+03  0.34749688283E+03  0.10386418610E+04  0.59994833462E+03 0.  0.
        -24    2    4    4    0    0 -0.19017708329E+03  0.36030302197E+03  0.48287623399E+03  0.63674962817E+03  0.79341294189E+02 0.  0.
         24    2    4    4    0    0 -0.23452382690E+03  0.28600492673E+03 -0.13537935116E+03  0.40189223285E+03  0.79934689650E+02 0.  0.
         13    1    5    5    0    0 -0.14851687429E+03  0.19844881958E+03  0.29404603769E+03  0.38458063943E+03  0.00000000000E+00 0. -1.
        -14    1    5    5    0    0 -0.41660209003E+02  0.16185420239E+03  0.18883019630E+03  0.25216898874E+03  0.00000000000E+00 0.  1.
         15    1    3    3    0    0  0.13909095681E+03 -0.23767807399E+03  0.67119993386E+02  0.28345266335E+03  0.17770000000E+01 0. -1.
        -16    1    3    3    0    0  0.28560995337E+03 -0.40862987472E+03  0.19303737151E+03  0.53461654181E+03  0.00000000000E+00 0.  1.
          2    1    6    6  502    0 -0.13217857641E+03  0.13062853891E+03 -0.30527614466E+02  0.18832664837E+03  0.00000000000E+00 0. -1.
         -1    1    6    6    0  502 -0.10234525049E+03  0.15537638782E+03 -0.10485173670E+03  0.21356558449E+03  0.00000000000E+00 0.  1.
<mgrwt>
<rscale>  0 0.78041514E+03</rscale>
<asrwt>0</asrwt>
<pdfrwt beam="1">  1        1 0.96081294E-01 0.78041514E+03</pdfrwt>
<pdfrwt beam="2">  1       -2 0.18956656E+00 0.78041514E+03</pdfrwt>
<totfact> 0.45079432E+00</totfact>
</mgrwt>
</event>
<event>
12    3  0.1092576E-007  0.5992160E+03  0.7818608E-02  0.9907034E-01
         -2   -1    0    0    0  501 -0.00000000000E+00  0.00000000000E+00  0.66322241269E+03  0.66322241269E+03  0.00000000000E+00 0.  1.
          1   -1    0    0  501    0  0.00000000000E+00 -0.00000000000E+00 -0.70482180645E+03  0.70482180645E+03  0.00000000000E+00 0. -1.
        -24    2    1    2    0    0 -0.47009444138E+03 -0.59168978355E+01  0.26575987443E+03  0.54619284988E+03  0.81697765638E+02 0.  0.
    5000000    2    1    2    0    0  0.47009444138E+03  0.59168978355E+01 -0.30735926820E+03  0.82185136926E+03  0.59995513158E+03 0.  0.
        -24    2    4    4    0    0 -0.86659823729E+02  0.10863054025E+03  0.23325391844E+02  0.16153020214E+03  0.78977294056E+02 0.  0.
         24    2    4    4    0    0  0.55675426511E+03 -0.10271364241E+03 -0.33068466004E+03  0.66032116711E+03  0.78398311855E+02 0.  0.
         13    1    5    5    0    0  0.99961190750E+01  0.17756660379E+02  0.20396561159E+02  0.28831251993E+02  0.00000000000E+00 0. -1.
        -14    1    5    5    0    0 -0.96655942804E+02  0.90873879868E+02  0.29288306850E+01  0.13269895015E+03  0.00000000000E+00 0.  1.
         15    1    3    3    0    0 -0.32577444363E+03  0.28170651733E+02  0.15992268121E+03  0.36400686180E+03  0.17770000000E+01 0. -1.
        -16    1    3    3    0    0 -0.14431999775E+03 -0.34087549568E+02  0.10583719322E+03  0.18218598808E+03  0.00000000000E+00 0.  1.
          4    1    6    6  502    0  0.48391388305E+03 -0.65562965487E+02 -0.29917537573E+03  0.57269280954E+03  0.00000000000E+00 0. -1.
         -3    1    6    6    0  502  0.72840382055E+02 -0.37150676925E+02 -0.31509284314E+02  0.87628357578E+02  0.00000000000E+00 0.  1.
<mgrwt>
<rscale>  0 0.59921601E+03</rscale>
<asrwt>0</asrwt>
<pdfrwt beam="1">  1        1 0.10843412E+00 0.59921601E+03</pdfrwt>
<pdfrwt beam="2">  1       -2 0.10203422E+00 0.59921601E+03</pdfrwt>
<totfact> 0.19270110E+01</totfact>
</mgrwt>
</event>
<event>
12    3  0.1092576E-007  0.8760779E+03  0.7818608E-02  0.9455989E-01
         -2   -1    0    0    0  501 -0.00000000000E+00  0.00000000000E+00  0.35716174654E+03  0.35716174654E+03  0.00000000000E+00 0.  1.
          1   -1    0    0  501    0  0.00000000000E+00 -0.00000000000E+00 -0.22558038729E+04  0.22558038729E+04  0.00000000000E+00 0. -1.
        -24    2    1    2    0    0  0.29028635975E+03  0.73413993163E+03 -0.70798224612E+03  0.10634815992E+04  0.80787629840E+02 0.  0.
    5000000    2    1    2    0    0 -0.29028635975E+03 -0.73413993163E+03 -0.11906598802E+04  0.15494840202E+04  0.60000180728E+03 0.  0.
        -24    2    4    4    0    0 -0.28343938619E+03 -0.71605601169E+02 -0.23461165171E+03  0.38351729833E+03  0.81102670984E+02 0.  0.
         24    2    4    4    0    0 -0.68469735553E+01 -0.66253433046E+03 -0.95604822851E+03  0.11659667219E+04  0.80321611446E+02 0.  0.
         11    1    5    5    0    0 -0.43090687725E+02 -0.26958594940E+02 -0.78312220905E+02  0.93361540009E+02  0.00000000000E+00 0. -1.
        -12    1    5    5    0    0 -0.24034869847E+03 -0.44647006230E+02 -0.15629943080E+03  0.29015575832E+03  0.00000000000E+00 0.  1.
         15    1    3    3    0    0  0.13128715789E+03  0.41703041675E+03 -0.35692010791E+03  0.56439862463E+03  0.17770000000E+01 0. -1.
        -16    1    3    3    0    0  0.15899920185E+03  0.31710951487E+03 -0.35106213821E+03  0.49908297456E+03  0.00000000000E+00 0.  1.
          4    1    6    6  502    0 -0.25196276148E+02 -0.57131768518E+03 -0.85483124572E+03  0.10284819923E+04  0.00000000000E+00 0. -1.
         -3    1    6    6    0  502  0.18349302592E+02 -0.91216645281E+02 -0.10121698279E+03  0.13748472965E+03  0.00000000000E+00 0.  1.
<mgrwt>
<rscale>  0 0.87607789E+03</rscale>
<asrwt>0</asrwt>
<pdfrwt beam="1">  1        1 0.34704675E+00 0.87607789E+03</pdfrwt>
<pdfrwt beam="2">  1       -2 0.54947961E-01 0.87607789E+03</pdfrwt>
<totfact> 0.56155117E+00</totfact>
</mgrwt>
</event>
<event>
12    3  0.1092576E-007  0.3435822E+03  0.7818608E-02  0.1065280E+00
          1   -1    0    0  501    0  0.00000000000E+00  0.00000000000E+00  0.25198923727E+03  0.25198923727E+03  0.00000000000E+00 0. -1.
         -2   -1    0    0    0  501 -0.00000000000E+00 -0.00000000000E+00 -0.85419750443E+03  0.85419750443E+03  0.00000000000E+00 0.  1.
        -24    2    1    2    0    0  0.24865545451E+03  0.17595641564E+01 -0.28214784471E+03  0.38230258321E+03  0.68667515836E+02 0.  0.
    5000000    2    1    2    0    0 -0.24865545451E+03 -0.17595641564E+01 -0.32006042245E+03  0.72388415850E+03  0.59978076810E+03 0.  0.
        -24    2    4    4    0    0  0.67872978182E+02  0.40807804297E+02 -0.37356806887E+03  0.39038984899E+03  0.81111738088E+02 0.  0.
         24    2    4    4    0    0 -0.31652843270E+03 -0.42567368453E+02  0.53507646415E+02  0.33349430951E+03  0.79706691614E+02 0.  0.
         11    1    5    5    0    0  0.16970256769E+02  0.51605259258E+02 -0.25785348153E+03  0.26351377636E+03  0.00000000000E+00 0. -1.
        -12    1    5    5    0    0  0.50902721413E+02 -0.10797454961E+02 -0.11571458734E+03  0.12687607262E+03  0.00000000000E+00 0.  1.
         15    1    3    3    0    0  0.12703186486E+03  0.27656528647E+02 -0.11232103371E+03  0.17181720115E+03  0.17770000000E+01 0. -1.
        -16    1    3    3    0    0  0.12162358965E+03 -0.25896964491E+02 -0.16982681099E+03  0.21048538206E+03  0.00000000000E+00 0.  1.
          4    1    6    6  502    0 -0.26395641772E+03 -0.60660315388E+02  0.27862139256E+02  0.27226634592E+03  0.00000000000E+00 0. -1.
         -3    1    6    6    0  502 -0.52572014976E+02  0.18092946935E+02  0.25645507159E+02  0.61227963585E+02  0.00000000000E+00 0.  1.
<mgrwt>
<rscale>  0 0.34358220E+03</rscale>
<asrwt>0</asrwt>
<pdfrwt beam="1">  1        1 0.38767575E-01 0.34358220E+03</pdfrwt>
<pdfrwt beam="2">  1       -2 0.13141500E+00 0.34358220E+03</pdfrwt>
<totfact> 0.42614573E+01</totfact>
</mgrwt>
</event>
<event>
12    3  0.1092576E-007  0.6408650E+03  0.7818608E-02  0.9824073E-01
          1   -1    0    0  501    0  0.00000000000E+00  0.00000000000E+00  0.18424611048E+04  0.18424611048E+04  0.00000000000E+00 0. -1.
         -2   -1    0    0    0  501 -0.00000000000E+00 -0.00000000000E+00 -0.28787805419E+03  0.28787805419E+03  0.00000000000E+00 0.  1.
        -24    2    1    2    0    0  0.49919066888E+03  0.15464931170E+03  0.21267041962E+03  0.57024094419E+03  0.82693975279E+02 0.  0.
    5000000    2    1    2    0    0 -0.49919066888E+03 -0.15464931170E+03  0.13419126310E+04  0.15600982148E+04  0.60005766144E+03 0.  0.
        -24    2    4    4    0    0 -0.19282827356E+03 -0.34031429494E+03  0.90899265132E+03  0.99269681796E+03  0.78630590823E+02 0.  0.
         24    2    4    4    0    0 -0.30636239532E+03  0.18566498324E+03  0.43291997965E+03  0.56740139680E+03  0.78709802728E+02 0.  0.
         11    1    5    5    0    0 -0.76567589676E+02 -0.20790970117E+03  0.46764350739E+03  0.51747414392E+03  0.00000000000E+00 0. -1.
        -12    1    5    5    0    0 -0.11626068388E+03 -0.13240459377E+03  0.44134914394E+03  0.47522267404E+03  0.00000000000E+00 0.  1.
         15    1    3    3    0    0  0.42371006769E+03  0.14774751987E+03  0.20716161920E+03  0.49424553138E+03  0.17770000000E+01 0. -1.
        -16    1    3    3    0    0  0.75480601190E+02  0.69017918327E+01  0.55088004115E+01  0.75995412812E+02  0.00000000000E+00 0.  1.
          2    1    6    6  502    0 -0.37230680433E+02  0.34497152678E+02  0.27137639768E+02  0.57555439366E+02  0.00000000000E+00 0. -1.
         -1    1    6    6    0  502 -0.26913171489E+03  0.15116783056E+03  0.40578233988E+03  0.50984595744E+03  0.00000000000E+00 0.  1.
<mgrwt>
<rscale>  0 0.64086503E+03</rscale>
<asrwt>0</asrwt>
<pdfrwt beam="1">  1        1 0.28345555E+00 0.64086503E+03</pdfrwt>
<pdfrwt beam="2">  1       -2 0.44288933E-01 0.64086503E+03</pdfrwt>
<totfact> 0.17037672E+01</totfact>
</mgrwt>
</event>
<event>
12    3  0.1092576E-007  0.8333284E+03  0.7818608E-02  0.9512990E-01
         -2   -1    0    0    0  501 -0.00000000000E+00  0.00000000000E+00  0.90935307203E+03  0.90935307203E+03  0.00000000000E+00 0.  1.
          1   -1    0    0  501    0  0.00000000000E+00 -0.00000000000E+00 -0.87244984196E+03  0.87244984196E+03  0.00000000000E+00 0. -1.
        -24    2    1    2    0    0 -0.60727387294E+03  0.50075727412E+03 -0.12509458905E+01  0.79112772883E+03  0.79637391453E+02 0.  0.
    5000000    2    1    2    0    0  0.60727387294E+03 -0.50075727412E+03  0.38154175963E+02  0.99067518516E+03  0.60036836776E+03 0.  0.
        -24    2    4    4    0    0  0.40337754912E+02 -0.23839529560E+03  0.21920574295E+03  0.33542097643E+03  0.77437860612E+02 0.  0.
         24    2    4    4    0    0  0.56693611803E+03 -0.26236197853E+03 -0.18105156699E+03  0.65525420873E+03  0.79548968847E+02 0.  0.
         13    1    5    5    0    0  0.57714471008E+02 -0.21452722808E+03  0.20640339690E+03  0.30324124720E+03  0.00000000000E+00 0. -1.
        -14    1    5    5    0    0 -0.17376716096E+02 -0.23868067518E+02  0.12802346050E+02  0.32179729236E+02  0.00000000000E+00 0.  1.
         15    1    3    3    0    0 -0.36904279156E+03  0.34818620803E+03  0.16801472117E+02  0.50765309480E+03  0.17770000000E+01 0. -1.
        -16    1    3    3    0    0 -0.23823108138E+03  0.15257106610E+03 -0.18052418007E+02  0.28347463403E+03  0.00000000000E+00 0.  1.
          4    1    6    6  502    0  0.41685993453E+03 -0.19396259782E+03 -0.96015112336E+02  0.46969415173E+03  0.00000000000E+00 0. -1.
         -3    1    6    6    0  502  0.15007618350E+03 -0.68399380706E+02 -0.85036454649E+02  0.18556005700E+03  0.00000000000E+00 0.  1.
<mgrwt>
<rscale>  0 0.83332838E+03</rscale>
<asrwt>0</asrwt>
<pdfrwt beam="1">  1        1 0.13422305E+00 0.83332838E+03</pdfrwt>
<pdfrwt beam="2">  1       -2 0.13990047E+00 0.83332838E+03</pdfrwt>
<totfact> 0.61287204E+00</totfact>
</mgrwt>
</event>
<event>
12    3  0.1092576E-007  0.6126556E+03  0.7818608E-02  0.9879492E-01
         -2   -1    0    0    0  501 -0.00000000000E+00  0.00000000000E+00  0.59875792269E+03  0.59875792269E+03  0.00000000000E+00 0.  1.
          1   -1    0    0  501    0  0.00000000000E+00 -0.00000000000E+00 -0.11558615036E+04  0.11558615036E+04  0.00000000000E+00 0. -1.
        -24    2    1    2    0    0  0.57486296729E+03  0.31117156559E+02  0.21502899818E+03  0.61988021109E+03  0.81106704090E+02 0.  0.
    5000000    2    1    2    0    0 -0.57486296729E+03 -0.31117156559E+02 -0.77213257908E+03  0.11347392152E+04  0.60000721512E+03 0.  0.
        -24    2    4    4    0    0 -0.21107537997E+03 -0.14314557723E+03  0.34282375188E+01  0.26738019118E+03  0.80230552246E+02 0.  0.
         24    2    4    4    0    0 -0.36378758732E+03  0.11202842067E+03 -0.77556081660E+03  0.86735902400E+03  0.76976103739E+02 0.  0.
         11    1    5    5    0    0 -0.77067947173E+02 -0.84800859444E+02  0.30856888945E+02  0.11867098145E+03  0.00000000000E+00 0. -1.
        -12    1    5    5    0    0 -0.13400743280E+03 -0.58344717783E+02 -0.27428651426E+02  0.14870920973E+03  0.00000000000E+00 0.  1.
         15    1    3    3    0    0  0.25562786949E+03  0.52520775353E+02  0.84295469041E+02  0.27424974628E+03  0.17770000000E+01 0. -1.
        -16    1    3    3    0    0  0.31923509780E+03 -0.21403618794E+02  0.13073352914E+03  0.34563046482E+03  0.00000000000E+00 0.  1.
          2    1    6    6  502    0 -0.31344370377E+03  0.11326341951E+03 -0.62071508297E+03  0.70453017810E+03  0.00000000000E+00 0. -1.
         -1    1    6    6    0  502 -0.50343883547E+02 -0.12349988413E+01 -0.15484573363E+03  0.16282884590E+03  0.00000000000E+00 0.  1.
<mgrwt>
<rscale>  0 0.61265562E+03</rscale>
<asrwt>0</asrwt>
<pdfrwt beam="1">  1        1 0.17782485E+00 0.61265562E+03</pdfrwt>
<pdfrwt beam="2">  1       -2 0.92116604E-01 0.61265562E+03</pdfrwt>
<totfact> 0.10577479E+01</totfact>
</mgrwt>
</event>
<event>
12    3  0.1092576E-007  0.6280355E+03  0.7818608E-02  0.9848890E-01
         -2   -1    0    0    0  501 -0.00000000000E+00  0.00000000000E+00  0.11598423666E+04  0.11598423666E+04  0.00000000000E+00 0.  1.
          1   -1    0    0  501    0  0.00000000000E+00 -0.00000000000E+00 -0.34466019812E+03  0.34466019812E+03  0.00000000000E+00 0. -1.
        -24    2    1    2    0    0 -0.11856640016E+03  0.46943873693E+03  0.26975418446E+03  0.56006789403E+03  0.80486066598E+02 0.  0.
    5000000    2    1    2    0    0  0.11856640016E+03 -0.46943873693E+03  0.54542798401E+03  0.94443467068E+03  0.60002870137E+03 0.  0.
        -24    2    4    4    0    0 -0.20508456174E+03 -0.35799945128E+02  0.18214243452E+03  0.28812564923E+03  0.80617676456E+02 0.  0.
         24    2    4    4    0    0  0.32365096189E+03 -0.43363879180E+03  0.36328554949E+03  0.65630902145E+03  0.77282561324E+02 0.  0.
         11    1    5    5    0    0 -0.13687142958E+03 -0.61525343948E+02  0.11570077820E+03  0.18948832750E+03  0.00000000000E+00 0. -1.
        -12    1    5    5    0    0 -0.68213132161E+02  0.25725398821E+02  0.66441656323E+02  0.98637321733E+02  0.00000000000E+00 0.  1.
         15    1    3    3    0    0 -0.12555343357E+03  0.36254499980E+03  0.21337200882E+03  0.43901402419E+03  0.17770000000E+01 0. -1.
        -16    1    3    3    0    0  0.69870334113E+01  0.10689373713E+03  0.56382175637E+02  0.12105386984E+03  0.00000000000E+00 0.  1.
          2    1    6    6  502    0  0.10647764304E+03 -0.17187368161E+03  0.96476801374E+02  0.22402192772E+03  0.00000000000E+00 0. -1.
         -1    1    6    6    0  502  0.21717331885E+03 -0.26176511019E+03  0.26680874812E+03  0.43228709373E+03  0.00000000000E+00 0.  1.
<mgrwt>
<rscale>  0 0.62803551E+03</rscale>
<asrwt>0</asrwt>
<pdfrwt beam="1">  1        1 0.53024647E-01 0.62803551E+03</pdfrwt>
<pdfrwt beam="2">  1       -2 0.17843728E+00 0.62803551E+03</pdfrwt>
<totfact> 0.12264321E+01</totfact>
</mgrwt>
</event>
<event>
12    3  0.1092576E-007  0.1432688E+04  0.7818608E-02  0.8930491E-01
         -2   -1    0    0    0  501 -0.00000000000E+00  0.00000000000E+00  0.16146017596E+04  0.16146017596E+04  0.00000000000E+00 0.  1.
          1   -1    0    0  501    0  0.00000000000E+00 -0.00000000000E+00 -0.18637219164E+04  0.18637219164E+04  0.00000000000E+00 0. -1.
        -24    2    1    2    0    0 -0.14173538137E+04  0.41643234419E+01 -0.10280674268E+04  0.17530595953E+04  0.85942629966E+02 0.  0.
    5000000    2    1    2    0    0  0.14173538137E+04 -0.41643234419E+01  0.77894727004E+03  0.17252640807E+04  0.60072300080E+03 0.  0.
        -24    2    4    4    0    0  0.35005857540E+03 -0.12397982436E+03 -0.22392429425E+02  0.38291253664E+03  0.90601251459E+02 0.  0.
         24    2    4    4    0    0  0.10672952383E+04  0.11981550091E+03  0.80133969946E+03  0.13423515440E+04  0.79293592470E+02 0.  0.
         11    1    5    5    0    0  0.19761405318E+03 -0.84069109272E+02  0.30022722209E+02  0.21684163114E+03  0.00000000000E+00 0. -1.
        -12    1    5    5    0    0  0.15244452222E+03 -0.39910715084E+02 -0.52415151634E+02  0.16607090550E+03  0.00000000000E+00 0.  1.
         15    1    3    3    0    0 -0.28825306033E+03 -0.19109447679E+02 -0.24503524194E+03  0.37881449986E+03  0.17770000000E+01 0. -1.
        -16    1    3    3    0    0 -0.11291007534E+04  0.23273771121E+02 -0.78303218489E+03  0.13742450954E+04  0.00000000000E+00 0.  1.
          4    1    6    6  502    0  0.22772714978E+03  0.84160802515E+01  0.13641445170E+03  0.26559252208E+03  0.00000000000E+00 0. -1.
         -3    1    6    6    0  502  0.83956808855E+03  0.11139942066E+03  0.66492524776E+03  0.10767590219E+04  0.00000000000E+00 0.  1.
<mgrwt>
<rscale>  0 0.14326882E+04</rscale>
<asrwt>0</asrwt>
<pdfrwt beam="1">  1        1 0.28672645E+00 0.14326882E+04</pdfrwt>
<pdfrwt beam="2">  1       -2 0.24840027E+00 0.14326882E+04</pdfrwt>
<totfact> 0.20144630E-01</totfact>
</mgrwt>
</event>
<event>
12    3  0.1092576E-007  0.5525170E+03  0.7818608E-02  0.1000913E+00
          1   -1    0    0  501    0  0.00000000000E+00  0.00000000000E+00  0.15762435028E+04  0.15762435028E+04  0.00000000000E+00 0. -1.
         -2   -1    0    0    0  501 -0.00000000000E+00 -0.00000000000E+00 -0.40800404029E+03  0.40800404029E+03  0.00000000000E+00 0.  1.
        -24    2    1    2    0    0  0.44089431175E+03  0.19123626833E+03  0.11108062538E+04  0.12129324797E+04  0.79721781655E+02 0.  0.
    5000000    2    1    2    0    0 -0.44089431175E+03 -0.19123626833E+03  0.57433208760E+02  0.77131506339E+03  0.60055744861E+03 0.  0.
        -24    2    4    4    0    0 -0.15199268018E+03 -0.27117166630E+03  0.24960501078E+03  0.40616644167E+03  0.77670261378E+02 0.  0.
         24    2    4    4    0    0 -0.28890163157E+03  0.79935397974E+02 -0.19217180202E+03  0.36514862172E+03  0.80930179014E+02 0.  0.
         11    1    5    5    0    0 -0.68450285868E+01 -0.71680469038E+02  0.74659458382E+02  0.10372549727E+03  0.00000000000E+00 0. -1.
        -12    1    5    5    0    0 -0.14514765159E+03 -0.19949119727E+03  0.17494555240E+03  0.30244094441E+03  0.00000000000E+00 0.  1.
         15    1    3    3    0    0  0.33774253481E+03  0.12526777910E+03  0.75241186253E+03  0.83419949946E+03  0.17770000000E+01 0. -1.
        -16    1    3    3    0    0  0.10315177695E+03  0.65968489234E+02  0.35839439123E+03  0.37873298024E+03  0.00000000000E+00 0.  1.
          4    1    6    6  502    0 -0.10167053235E+03  0.52475868931E+02 -0.36451113201E+02  0.12008037984E+03  0.00000000000E+00 0. -1.
         -3    1    6    6    0  502 -0.18723109922E+03  0.27459529043E+02 -0.15572068882E+03  0.24506824188E+03  0.00000000000E+00 0.  1.
<mgrwt>
<rscale>  0 0.55251699E+03</rscale>
<asrwt>0</asrwt>
<pdfrwt beam="1">  1        1 0.24249900E+00 0.55251699E+03</pdfrwt>
<pdfrwt beam="2">  1       -2 0.62769853E-01 0.55251699E+03</pdfrwt>
<totfact> 0.12745277E+01</totfact>
</mgrwt>
</event>
<event>
12    3  0.1092576E-007  0.3536981E+03  0.7818608E-02  0.1061107E+00
          1   -1    0    0  501    0  0.00000000000E+00  0.00000000000E+00  0.21582647818E+04  0.21582647818E+04  0.00000000000E+00 0. -1.
         -2   -1    0    0    0  501 -0.00000000000E+00 -0.00000000000E+00 -0.10698019729E+03  0.10698019729E+03  0.00000000000E+00 0.  1.
        -24    2    1    2    0    0 -0.12918341450E+03 -0.60606793531E+02  0.12209774104E+04  0.12311246974E+04  0.67235749412E+02 0.  0.
    5000000    2    1    2    0    0  0.12918341450E+03  0.60606793531E+02  0.83030717411E+03  0.10341202816E+04  0.59969426836E+03 0.  0.
        -24    2    4    4    0    0  0.21528682418E+03  0.25001125929E+03  0.69403229819E+03  0.77270865887E+03  0.80893721115E+02 0.  0.
         24    2    4    4    0    0 -0.86103409683E+02 -0.18940446576E+03  0.13627487592E+03  0.26141162276E+03  0.80481960084E+02 0.  0.
         13    1    5    5    0    0  0.16684301654E+03  0.14250434016E+03  0.40652490982E+03  0.46195950194E+03  0.00000000000E+00 0. -1.
        -14    1    5    5    0    0  0.48443807644E+02  0.10750691913E+03  0.28750738837E+03  0.31074915693E+03  0.00000000000E+00 0.  1.
         15    1    3    3    0    0 -0.12239735304E+03 -0.37690597405E+02  0.87521297865E+03  0.88453525023E+03  0.17770000000E+01 0. -1.
        -16    1    3    3    0    0 -0.67860614542E+01 -0.22916196126E+02  0.34576443172E+03  0.34658944721E+03  0.00000000000E+00 0.  1.
          2    1    6    6  502    0  0.87643968829E+01 -0.41131262429E+02  0.50141199067E+02  0.65442610321E+02  0.00000000000E+00 0. -1.
         -3    1    6    6    0  502 -0.94867806566E+02 -0.14827320333E+03  0.86133676849E+02  0.19596901244E+03  0.00000000000E+00 0.  1.
<mgrwt>
<rscale>  0 0.35369808E+03</rscale>
<asrwt>0</asrwt>
<pdfrwt beam="1">  1        1 0.33204070E+00 0.35369808E+03</pdfrwt>
<pdfrwt beam="2">  1       -2 0.16458493E-01 0.35369808E+03</pdfrwt>
<totfact> 0.67388636E+01</totfact>
</mgrwt>
</event>
<event>
12    3  0.1092576E-007  0.1129661E+04  0.7818608E-02  0.9176754E-01
          1   -1    0    0  501    0  0.00000000000E+00  0.00000000000E+00  0.32956683068E+04  0.32956683068E+04  0.00000000000E+00 0. -1.
         -2   -1    0    0    0  501 -0.00000000000E+00 -0.00000000000E+00 -0.42005327446E+03  0.42005327446E+03  0.00000000000E+00 0.  1.
        -24    2    1    2    0    0  0.84036270892E+03 -0.70027682046E+03  0.12026404572E+04  0.16287264376E+04  0.99038534101E+02 0.  0.
    5000000    2    1    2    0    0 -0.84036270892E+03  0.70027682046E+03  0.16729745751E+04  0.20869951437E+04  0.60008973749E+03 0.  0.
        -24    2    4    4    0    0 -0.84161309343E+03  0.55836220002E+03  0.11186448854E+04  0.15093027935E+04  0.80917224302E+02 0.  0.
         24    2    4    4    0    0  0.12503845077E+01  0.14191462044E+03  0.55432968966E+03  0.57769235023E+03  0.79408587190E+02 0.  0.
         13    1    5    5    0    0 -0.56566865117E+03  0.41528421926E+03  0.79995617237E+03  0.10641296366E+04  0.00000000000E+00 0. -1.
        -14    1    5    5    0    0 -0.27594444226E+03  0.14307798076E+03  0.31868871307E+03  0.44517315691E+03  0.00000000000E+00 0.  1.
         15    1    3    3    0    0  0.69414280142E+03 -0.62392125257E+03  0.10152147194E+04  0.13790489630E+04  0.17770000000E+01 0. -1.
        -16    1    3    3    0    0  0.14621990750E+03 -0.76355567884E+02  0.18742573780E+03  0.24967747452E+03  0.00000000000E+00 0.  1.
          4    1    6    6  502    0 -0.14597623358E+02  0.12263189446E+03  0.33666809093E+03  0.35860434408E+03  0.00000000000E+00 0. -1.
         -3    1    6    6    0  502  0.15848007866E+02  0.19282725981E+02  0.21766159874E+03  0.21908800615E+03  0.00000000000E+00 0.  1.
<mgrwt>
<rscale>  0 0.11296615E+04</rscale>
<asrwt>0</asrwt>
<pdfrwt beam="1">  1        1 0.50702588E+00 0.11296615E+04</pdfrwt>
<pdfrwt beam="2">  1       -2 0.64623583E-01 0.11296615E+04</pdfrwt>
<totfact> 0.70665169E-01</totfact>
</mgrwt>
</event>
<event>
12    3  0.1092576E-007  0.1300919E+04  0.7818608E-02  0.9028837E-01
         -2   -1    0    0    0  501 -0.00000000000E+00  0.00000000000E+00  0.91926917167E+03  0.91926917167E+03  0.00000000000E+00 0.  1.
          1   -1    0    0  501    0  0.00000000000E+00 -0.00000000000E+00 -0.20743428259E+04  0.20743428259E+04  0.00000000000E+00 0. -1.
        -24    2    1    2    0    0  0.11068482708E+04  0.63352372006E+03 -0.89554623187E+03  0.15604575713E+04  0.80990000319E+02 0.  0.
    5000000    2    1    2    0    0 -0.11068482708E+04 -0.63352372006E+03 -0.25952742236E+03  0.14331544262E+04  0.60009309956E+03 0.  0.
        -24    2    4    4    0    0 -0.25073120426E+03  0.11315856652E+02 -0.24278619640E+03  0.35826335149E+03  0.80083122174E+02 0.  0.
         24    2    4    4    0    0 -0.85611706650E+03 -0.64483957671E+03 -0.16741225960E+02  0.10748910748E+04  0.79724793480E+02 0.  0.
         11    1    5    5    0    0 -0.64729375006E+02 -0.10195701206E+02 -0.11236800491E+03  0.13007848723E+03  0.00000000000E+00 0. -1.
        -12    1    5    5    0    0 -0.18600182925E+03  0.21511557858E+02 -0.13041819149E+03  0.22818486426E+03  0.00000000000E+00 0.  1.
         15    1    3    3    0    0  0.73739394053E+03  0.38592611542E+03 -0.61088697986E+03  0.10324121512E+04  0.17770000000E+01 0. -1.
        -16    1    3    3    0    0  0.36945433023E+03  0.24759760463E+03 -0.28465925201E+03  0.52804542011E+03  0.00000000000E+00 0.  1.
          2    1    6    6  502    0 -0.30408215399E+03 -0.21550747893E+03 -0.42243049920E+02  0.37509186223E+03  0.00000000000E+00 0. -1.
         -3    1    6    6    0  502 -0.55203491251E+03 -0.42933209778E+03  0.25501823960E+02  0.69979921252E+03  0.00000000000E+00 0.  1.
<mgrwt>
<rscale>  0 0.13009193E+04</rscale>
<asrwt>0</asrwt>
<pdfrwt beam="1">  1        1 0.31912966E+00 0.13009193E+04</pdfrwt>
<pdfrwt beam="2">  1       -2 0.14142603E+00 0.13009193E+04</pdfrwt>
<totfact> 0.78747748E-01</totfact>
</mgrwt>
</event>
<event>
12    3  0.1092576E-007  0.9309702E+03  0.7818608E-02  0.9387674E-01
          1   -1    0    0  501    0  0.00000000000E+00  0.00000000000E+00  0.25371736169E+04  0.25371736169E+04  0.00000000000E+00 0. -1.
         -2   -1    0    0    0  501 -0.00000000000E+00 -0.00000000000E+00 -0.42087072173E+03  0.42087072173E+03  0.00000000000E+00 0.  1.
        -24    2    1    2    0    0  0.60082815565E+03 -0.58734526207E+03  0.15871057886E+04  0.17976797174E+04  0.82332573229E+02 0.  0.
    5000000    2    1    2    0    0 -0.60082815565E+03  0.58734526207E+03  0.52919710653E+03  0.11603646212E+04  0.60035618350E+03 0.  0.
        -24    2    4    4    0    0 -0.55887977648E+03  0.68885029608E+03  0.41306375028E+03  0.98173729924E+03  0.79530673135E+02 0.  0.
         24    2    4    4    0    0 -0.41948379170E+02 -0.10150503401E+03  0.11613335625E+03  0.17862732195E+03  0.79735972246E+02 0.  0.
         11    1    5    5    0    0 -0.38667318003E+03  0.45627512209E+03  0.23924942792E+03  0.64416102331E+03  0.00000000000E+00 0. -1.
        -12    1    5    5    0    0 -0.17220659645E+03  0.23257517399E+03  0.17381432236E+03  0.33757627593E+03  0.00000000000E+00 0.  1.
         15    1    3    3    0    0  0.14340633600E+03 -0.11116419597E+03  0.28789138249E+03  0.34030495370E+03  0.17770000000E+01 0. -1.
        -16    1    3    3    0    0  0.45742181965E+03 -0.47618106610E+03  0.12992144061E+04  0.14573747637E+04  0.00000000000E+00 0.  1.
          2    1    6    6  502    0  0.20190684948E+02 -0.42405816759E+02  0.23941250502E+02  0.52717174898E+02  0.00000000000E+00 0. -1.
         -1    1    6    6    0  502 -0.62139064118E+02 -0.59099217250E+02  0.92192105750E+02  0.12591014706E+03  0.00000000000E+00 0.  1.
<mgrwt>
<rscale>  0 0.93097022E+03</rscale>
<asrwt>0</asrwt>
<pdfrwt beam="1">  1        1 0.39033439E+00 0.93097022E+03</pdfrwt>
<pdfrwt beam="2">  1       -2 0.64749343E-01 0.93097022E+03</pdfrwt>
<totfact> 0.25325392E+00</totfact>
</mgrwt>
</event>
<event>
12    3  0.1092576E-007  0.7025179E+03  0.7818608E-02  0.9712936E-01
          1   -1    0    0  501    0  0.00000000000E+00  0.00000000000E+00  0.96326701165E+03  0.96326701165E+03  0.00000000000E+00 0. -1.
         -2   -1    0    0    0  501 -0.00000000000E+00 -0.00000000000E+00 -0.76152813447E+03  0.76152813447E+03  0.00000000000E+00 0.  1.
        -24    2    1    2    0    0  0.22507563865E+03  0.59925017660E+03 -0.30283043530E+03  0.71267935618E+03  0.80285583420E+02 0.  0.
    5000000    2    1    2    0    0 -0.22507563865E+03 -0.59925017660E+03  0.50456931248E+03  0.10121157899E+04  0.60002363609E+03 0.  0.
        -24    2    4    4    0    0  0.85890211769E+02 -0.41441104926E+02 -0.76079688324E+02  0.14545292670E+03  0.79208214568E+02 0.  0.
         24    2    4    4    0    0 -0.31096585042E+03 -0.55780907168E+03  0.58064900081E+03  0.86666286324E+03  0.78105926828E+02 0.  0.
         11    1    5    5    0    0  0.90351073552E+02 -0.13385182728E+02 -0.40474293242E+02  0.99903193253E+02  0.00000000000E+00 0. -1.
        -12    1    5    5    0    0 -0.44608617826E+01 -0.28055922198E+02 -0.35605395082E+02  0.45549733448E+02  0.00000000000E+00 0.  1.
         15    1    3    3    0    0  0.11754992820E+03  0.20343218045E+03 -0.11284834124E+03  0.26065406867E+03  0.17770000000E+01 0. -1.
        -16    1    3    3    0    0  0.10752571045E+03  0.39581799615E+03 -0.18998209406E+03  0.45202528751E+03  0.00000000000E+00 0.  1.
          2    1    6    6  502    0 -0.19323459556E+03 -0.38911828575E+03  0.43351102918E+03  0.61374625184E+03  0.00000000000E+00 0. -1.
         -1    1    6    6    0  502 -0.11773125485E+03 -0.16869078593E+03  0.14713797163E+03  0.25291661140E+03  0.00000000000E+00 0.  1.
<mgrwt>
<rscale>  0 0.70251794E+03</rscale>
<asrwt>0</asrwt>
<pdfrwt beam="1">  1        1 0.14819493E+00 0.70251794E+03</pdfrwt>
<pdfrwt beam="2">  1       -2 0.11715817E+00 0.70251794E+03</pdfrwt>
<totfact> 0.82284622E+00</totfact>
</mgrwt>
</event>
<event>
12    3  0.1092576E-007  0.4519638E+03  0.7818608E-02  0.1027138E+00
          1   -1    0    0  501    0  0.00000000000E+00  0.00000000000E+00  0.11762924383E+04  0.11762924383E+04  0.00000000000E+00 0. -1.
         -2   -1    0    0    0  501 -0.00000000000E+00 -0.00000000000E+00 -0.45233796628E+03  0.45233796628E+03  0.00000000000E+00 0.  1.
        -24    2    1    2    0    0  0.24647570495E+03  0.75032710969E+00  0.91577764880E+03  0.95190598924E+03  0.82008988495E+02 0.  0.
    5000000    2    1    2    0    0 -0.24647570495E+03 -0.75032710969E+00 -0.19182317681E+03  0.67672441530E+03  0.60034070908E+03 0.  0.
        -24    2    4    4    0    0  0.16218047646E+03 -0.11869984636E+03 -0.61352486588E+02  0.22478566515E+03  0.79826732209E+02 0.  0.
         24    2    4    4    0    0 -0.40865618140E+03  0.11794951925E+03 -0.13047069022E+03  0.45193875015E+03  0.79461117469E+02 0.  0.
         13    1    5    5    0    0  0.37420454840E+01  0.10647787147E+02 -0.13031460546E+00  0.11286950759E+02  0.00000000000E+00 0. -1.
        -14    1    5    5    0    0  0.15843843097E+03 -0.12934763351E+03 -0.61222171983E+02  0.21349871439E+03  0.00000000000E+00 0.  1.
         15    1    3    3    0    0  0.13885127821E+03 -0.40009119449E+02  0.52665451864E+03  0.54612136639E+03  0.17770000000E+01 0. -1.
        -16    1    3    3    0    0  0.10762442674E+03  0.40759446559E+02  0.38912313016E+03  0.40578462285E+03  0.00000000000E+00 0.  1.
          4    1    6    6  502    0 -0.10134873200E+03  0.53182157394E+02 -0.76226358403E+01  0.11470837772E+03  0.00000000000E+00 0. -1.
         -1    1    6    6    0  502 -0.30730744941E+03  0.64767361860E+02 -0.12284805438E+03  0.33723037243E+03  0.00000000000E+00 0.  1.
<mgrwt>
<rscale>  0 0.45196375E+03</rscale>
<asrwt>0</asrwt>
<pdfrwt beam="1">  1        1 0.18096807E+00 0.45196375E+03</pdfrwt>
<pdfrwt beam="2">  1       -2 0.69590457E-01 0.45196375E+03</pdfrwt>
<totfact> 0.19672820E+01</totfact>
</mgrwt>
</event>
<event>
12    3  0.1092576E-007  0.6718714E+03  0.7818608E-02  0.9766583E-01
          1   -1    0    0  501    0  0.00000000000E+00  0.00000000000E+00  0.12354469114E+04  0.12354469114E+04  0.00000000000E+00 0. -1.
         -2   -1    0    0    0  501 -0.00000000000E+00 -0.00000000000E+00 -0.48326230652E+03  0.48326230652E+03  0.00000000000E+00 0.  1.
        -24    2    1    2    0    0  0.63777034953E+03 -0.12353488527E+03  0.39599563594E+03  0.76540244481E+03  0.83764385125E+02 0.  0.
    5000000    2    1    2    0    0 -0.63777034953E+03  0.12353488527E+03  0.35618896893E+03  0.95330677311E+03  0.59992610833E+03 0.  0.
        -24    2    4    4    0    0 -0.49660809385E+03  0.34623838506E+02 -0.50263905912E+02  0.50674317154E+03  0.80273112551E+02 0.  0.
         24    2    4    4    0    0 -0.14116225568E+03  0.88911046760E+02  0.40645287484E+03  0.44656360157E+03  0.79894643850E+02 0.  0.
         11    1    5    5    0    0 -0.27927264916E+03 -0.20317989988E+02 -0.31828716700E+02  0.28181394659E+03  0.00000000000E+00 0. -1.
        -12    1    5    5    0    0 -0.21733544468E+03  0.54941828495E+02 -0.18435189212E+02  0.22492922495E+03  0.00000000000E+00 0.  1.
         15    1    3    3    0    0  0.13830366090E+03  0.75523775659E+01  0.89227643530E+02  0.16477157256E+03  0.17770000000E+01 0. -1.
        -16    1    3    3    0    0  0.49946668863E+03 -0.13108726283E+03  0.30676799241E+03  0.60063087225E+03  0.00000000000E+00 0.  1.
          4    1    6    6  502    0 -0.36799908464E+02  0.69303284168E+02  0.18574627743E+03  0.20164041767E+03  0.00000000000E+00 0. -1.
         -3    1    6    6    0  502 -0.10436234722E+03  0.19607762592E+02  0.22070659741E+03  0.24492318390E+03  0.00000000000E+00 0.  1.
<mgrwt>
<rscale>  0 0.67187143E+03</rscale>
<asrwt>0</asrwt>
<pdfrwt beam="1">  1        1 0.19006875E+00 0.67187143E+03</pdfrwt>
<pdfrwt beam="2">  1       -2 0.74348048E-01 0.67187143E+03</pdfrwt>
<totfact> 0.14915100E+01</totfact>
</mgrwt>
</event>
<event>
12    3  0.1092576E-007  0.1199539E+04  0.7818608E-02  0.9113260E-01
          1   -1    0    0  501    0  0.00000000000E+00  0.00000000000E+00  0.22627171211E+04  0.22627171211E+04  0.00000000000E+00 0. -1.
         -2   -1    0    0    0  501 -0.00000000000E+00 -0.00000000000E+00 -0.70660252669E+03  0.70660252669E+03  0.00000000000E+00 0.  1.
        -24    2    1    2    0    0  0.11284394676E+04  0.37980352464E+03  0.79838138550E+03  0.14357923256E+04  0.80376713751E+02 0.  0.
    5000000    2    1    2    0    0 -0.11284394676E+04 -0.37980352464E+03  0.75773320889E+03  0.15335273221E+04  0.59993339836E+03 0.  0.
        -24    2    4    4    0    0 -0.85489931133E+03 -0.22478415595E+03  0.23462161640E+03  0.91809169883E+03  0.80400965817E+02 0.  0.
         24    2    4    4    0    0 -0.27354015631E+03 -0.15501936869E+03  0.52311159248E+03  0.61543562332E+03  0.79120455454E+02 0.  0.
         13    1    5    5    0    0 -0.28686304870E+03 -0.61113541081E+02  0.41629523920E+02  0.29624025870E+03  0.00000000000E+00 0. -1.
        -14    1    5    5    0    0 -0.56803626263E+03 -0.16367061487E+03  0.19299209248E+03  0.62185144013E+03  0.00000000000E+00 0.  1.
         15    1    3    3    0    0  0.85767438561E+03  0.29627707789E+03  0.56721457065E+03  0.10701032593E+04  0.17770000000E+01 0. -1.
        -16    1    3    3    0    0  0.27076508203E+03  0.83526446752E+02  0.23116681485E+03  0.36568906634E+03  0.00000000000E+00 0.  1.
          4    1    6    6  502    0 -0.19084241347E+03 -0.14678233981E+03  0.40103934229E+03  0.46775895088E+03  0.00000000000E+00 0. -1.
         -3    1    6    6    0  502 -0.82697742840E+02 -0.82370288800E+01  0.12207225019E+03  0.14767667244E+03  0.00000000000E+00 0.  1.
<mgrwt>
<rscale>  0 0.11995388E+04</rscale>
<asrwt>0</asrwt>
<pdfrwt beam="1">  1        1 0.34811032E+00 0.11995388E+04</pdfrwt>
<pdfrwt beam="2">  1       -2 0.10870808E+00 0.11995388E+04</pdfrwt>
<totfact> 0.11517364E+00</totfact>
</mgrwt>
</event>
<event>
12    3  0.1092576E-007  0.1454906E+04  0.7818608E-02  0.8915006E-01
         -2   -1    0    0    0  501 -0.00000000000E+00  0.00000000000E+00  0.88409485867E+03  0.88409485867E+03  0.00000000000E+00 0.  1.
          1   -1    0    0  501    0  0.00000000000E+00 -0.00000000000E+00 -0.26460146633E+04  0.26460146633E+04  0.00000000000E+00 0. -1.
        -24    2    1    2    0    0 -0.43637149849E+03  0.13840970000E+04 -0.11137790927E+04  0.18311340282E+04  0.80021071253E+02 0.  0.
    5000000    2    1    2    0    0  0.43637149849E+03 -0.13840970000E+04 -0.64814071198E+03  0.16989754938E+04  0.60023891567E+03 0.  0.
        -24    2    4    4    0    0  0.29724837265E+03 -0.11083456072E+04 -0.74211000073E+03  0.13688460794E+04  0.78903458762E+02 0.  0.
         24    2    4    4    0    0  0.13912312585E+03 -0.27575139276E+03  0.93969288745E+02  0.33012941439E+03  0.69000929429E+02 0.  0.
         11    1    5    5    0    0  0.23600902482E+03 -0.97070631584E+03 -0.65938127794E+03  0.11969773102E+04  0.00000000000E+00 0. -1.
        -12    1    5    5    0    0  0.61239347829E+02 -0.13763929140E+03 -0.82728722791E+02  0.17186876922E+03  0.00000000000E+00 0.  1.
         15    1    3    3    0    0 -0.34361460121E+03  0.10935827680E+04 -0.83768957107E+03  0.14197609798E+04  0.17770000000E+01 0. -1.
        -16    1    3    3    0    0 -0.92756897285E+02  0.29051423202E+03 -0.27608952161E+03  0.41137304840E+03  0.00000000000E+00 0.  1.
          4    1    6    6  502    0  0.75588809565E+02 -0.15648124664E+03  0.88167490636E+02  0.19486804532E+03  0.00000000000E+00 0. -1.
         -3    1    6    6    0  502  0.63534316282E+02 -0.11927014612E+03  0.58017981094E+01  0.13526136907E+03  0.00000000000E+00 0.  1.
<mgrwt>
<rscale>  0 0.14549058E+04</rscale>
<asrwt>0</asrwt>
<pdfrwt beam="1">  1        1 0.40707918E+00 0.14549058E+04</pdfrwt>
<pdfrwt beam="2">  1       -2 0.13601459E+00 0.14549058E+04</pdfrwt>
<totfact> 0.34695479E-01</totfact>
</mgrwt>
</event>
<event>
12    3  0.1092576E-007  0.4834314E+03  0.7818608E-02  0.1018196E+00
          1   -1    0    0  501    0  0.00000000000E+00  0.00000000000E+00  0.18665372154E+04  0.18665372154E+04  0.00000000000E+00 0. -1.
         -2   -1    0    0    0  501 -0.00000000000E+00 -0.00000000000E+00 -0.37327536272E+03  0.37327536272E+03  0.00000000000E+00 0.  1.
        -24    2    1    2    0    0 -0.27872263675E+03  0.12961118195E+03 -0.22873935097E+03  0.39055854975E+03  0.75689651697E+02 0.  0.
    5000000    2    1    2    0    0  0.27872263675E+03 -0.12961118195E+03  0.17220012037E+04  0.18492540284E+04  0.59997245716E+03 0.  0.
        -24    2    4    4    0    0 -0.81453273436E+02  0.16222680627E+03  0.57493262475E+03  0.60948343686E+03  0.89276897280E+02 0.  0.
         24    2    4    4    0    0  0.36017591019E+03 -0.29183798822E+03  0.11470685789E+04  0.12397705915E+04  0.79804117803E+02 0.  0.
         13    1    5    5    0    0 -0.90643124632E+02  0.12041066845E+03  0.35910094533E+03  0.38944626594E+03  0.00000000000E+00 0. -1.
        -14    1    5    5    0    0  0.91898511961E+01  0.41816137813E+02  0.21583167942E+03  0.22003717092E+03  0.00000000000E+00 0.  1.
         15    1    3    3    0    0 -0.86647798433E+02  0.21998555661E+02 -0.10532871657E+03  0.13816321394E+03  0.17770000000E+01 0. -1.
        -16    1    3    3    0    0 -0.19207483832E+03  0.10761262629E+03 -0.12341063441E+03  0.25239533580E+03  0.00000000000E+00 0.  1.
          2    1    6    6  502    0  0.93101048323E+02 -0.82900758936E+02  0.22343197029E+03  0.25585579216E+03  0.00000000000E+00 0. -1.
         -1    1    6    6    0  502  0.26707486186E+03 -0.20893722928E+03  0.92363660865E+03  0.98391479939E+03  0.00000000000E+00 0.  1.
<mgrwt>
<rscale>  0 0.48343144E+03</rscale>
<asrwt>0</asrwt>
<pdfrwt beam="1">  1        1 0.28715956E+00 0.48343144E+03</pdfrwt>
<pdfrwt beam="2">  1       -2 0.57426980E-01 0.48343144E+03</pdfrwt>
<totfact> 0.99838601E+00</totfact>
</mgrwt>
</event>
<event>
12    3  0.1092576E-007  0.5657966E+03  0.7818608E-02  0.9979024E-01
         -2   -1    0    0    0  501 -0.00000000000E+00  0.00000000000E+00  0.37565200085E+03  0.37565200085E+03  0.00000000000E+00 0.  1.
          1   -1    0    0  501    0  0.00000000000E+00 -0.00000000000E+00 -0.10511214702E+04  0.10511214702E+04  0.00000000000E+00 0. -1.
        -24    2    1    2    0    0  0.36833509049E+03  0.19652564726E+03  0.94389794370E+01  0.42506934216E+03  0.79383766561E+02 0.  0.
    5000000    2    1    2    0    0 -0.36833509049E+03 -0.19652564726E+03 -0.68490844879E+03  0.10017041289E+04  0.60001542454E+03 0.  0.
        -24    2    4    4    0    0 -0.21209930804E+03 -0.39594452302E+03 -0.35133824267E+03  0.57543569766E+03  0.77003244101E+02 0.  0.
         24    2    4    4    0    0 -0.15623578245E+03  0.19941887576E+03 -0.33357020612E+03  0.42626843122E+03  0.79108693080E+02 0.  0.
         11    1    5    5    0    0 -0.44515823262E+02 -0.70217016944E+02 -0.30725962195E+02  0.88635053687E+02  0.00000000000E+00 0. -1.
        -12    1    5    5    0    0 -0.16758348478E+03 -0.32572750607E+03 -0.32061228047E+03  0.48680064397E+03  0.00000000000E+00 0.  1.
         15    1    3    3    0    0  0.21467628392E+03  0.86204300540E+02 -0.25373661084E+02  0.23273175270E+03  0.17770000000E+01 0. -1.
        -16    1    3    3    0    0  0.15365880657E+03  0.11032134672E+03  0.34812640521E+02  0.19233758946E+03  0.00000000000E+00 0.  1.
          2    1    6    6  502    0  0.27784052591E+01  0.26794413331E+02 -0.60305793812E+02  0.66048837150E+02  0.00000000000E+00 0. -1.
         -1    1    6    6    0  502 -0.15901418771E+03  0.17262446242E+03 -0.27326441231E+03  0.36021959407E+03  0.00000000000E+00 0.  1.
<mgrwt>
<rscale>  0 0.56579657E+03</rscale>
<asrwt>0</asrwt>
<pdfrwt beam="1">  1        1 0.16171099E+00 0.56579657E+03</pdfrwt>
<pdfrwt beam="2">  1       -2 0.57792617E-01 0.56579657E+03</pdfrwt>
<totfact> 0.35441836E+01</totfact>
</mgrwt>
</event>
<event>
12    3  0.1092576E-007  0.8392318E+03  0.7818608E-02  0.9504905E-01
         -2   -1    0    0    0  501 -0.00000000000E+00  0.00000000000E+00  0.24487559875E+03  0.24487559875E+03  0.00000000000E+00 0.  1.
          1   -1    0    0  501    0  0.00000000000E+00 -0.00000000000E+00 -0.30858533303E+04  0.30858533303E+04  0.00000000000E+00 0. -1.
        -24    2    1    2    0    0 -0.53060232701E+03 -0.53362634271E+03 -0.15014331279E+04  0.16811766759E+04  0.75879343420E+02 0.  0.
    5000000    2    1    2    0    0  0.53060232701E+03  0.53362634271E+03 -0.13395446036E+04  0.16495522532E+04  0.60028908689E+03 0.  0.
        -24    2    4    4    0    0  0.26440414039E+02  0.39320483255E+03 -0.78898279128E+03  0.88562715644E+03  0.80823755550E+02 0.  0.
         24    2    4    4    0    0  0.50416191297E+03  0.14042151016E+03 -0.55056181236E+03  0.76392509676E+03  0.81029681116E+02 0.  0.
         13    1    5    5    0    0 -0.29033302258E+02  0.12753731695E+03 -0.24750823806E+03  0.27994468697E+03  0.00000000000E+00 0. -1.
        -14    1    5    5    0    0  0.55473716297E+02  0.26566751560E+03 -0.54147455322E+03  0.60568246947E+03  0.00000000000E+00 0.  1.
         15    1    3    3    0    0 -0.20289953174E+03 -0.21130155306E+03 -0.50465879342E+03  0.58352396849E+03  0.17770000000E+01 0. -1.
        -16    1    3    3    0    0 -0.32770279527E+03 -0.32232478966E+03 -0.99677433450E+03  0.10976527074E+04  0.00000000000E+00 0.  1.
          2    1    6    6  502    0  0.25220703619E+02  0.30233710026E+01 -0.65791308802E+01  0.26239466961E+02  0.00000000000E+00 0. -1.
         -1    1    6    6    0  502  0.47894120935E+03  0.13739813916E+03 -0.54398268148E+03  0.73768562980E+03  0.00000000000E+00 0.  1.
<mgrwt>
<rscale>  0 0.83923176E+03</rscale>
<asrwt>0</asrwt>
<pdfrwt beam="1">  1        1 0.47474668E+00 0.83923176E+03</pdfrwt>
<pdfrwt beam="2">  1       -2 0.37673168E-01 0.83923176E+03</pdfrwt>
<totfact> 0.31771962E+00</totfact>
</mgrwt>
</event>
<event>
12    3  0.1092576E-007  0.7435040E+03  0.7818608E-02  0.9645597E-01
         -2   -1    0    0    0  501 -0.00000000000E+00  0.00000000000E+00  0.82949555902E+03  0.82949555902E+03  0.00000000000E+00 0.  1.
          1   -1    0    0  501    0  0.00000000000E+00 -0.00000000000E+00 -0.77066357752E+03  0.77066357752E+03  0.00000000000E+00 0. -1.
        -24    2    1    2    0    0 -0.28125076664E+03 -0.60550914646E+03 -0.12788299167E+03  0.68326806184E+03  0.68977275968E+02 0.  0.
    5000000    2    1    2    0    0  0.28125076664E+03  0.60550914646E+03  0.18671497318E+03  0.91689107469E+03  0.60006953053E+03 0.  0.
        -24    2    4    4    0    0  0.19986445134E+03  0.10409896244E+02 -0.10790763919E+03  0.24134078031E+03  0.80914453566E+02 0.  0.
         24    2    4    4    0    0  0.81386315294E+02  0.59509925021E+03  0.29462261236E+03  0.67555029438E+03  0.93802273985E+02 0.  0.
         13    1    5    5    0    0  0.18541748693E+03 -0.10245762442E+02 -0.75932515319E+02  0.20062494110E+03  0.00000000000E+00 0. -1.
        -14    1    5    5    0    0  0.14446964411E+02  0.20655658686E+02 -0.31975123867E+02  0.40715839212E+02  0.00000000000E+00 0.  1.
         15    1    3    3    0    0 -0.13591532507E+03 -0.25562090820E+03 -0.24525343445E+02  0.29055064016E+03  0.17770000000E+01 0. -1.
        -16    1    3    3    0    0 -0.14533544157E+03 -0.34988823826E+03 -0.10335764823E+03  0.39271742168E+03  0.00000000000E+00 0.  1.
          2    1    6    6  502    0  0.96273364521E+02  0.37665150811E+03  0.18004360111E+03  0.42842807748E+03  0.00000000000E+00 0. -1.
         -1    1    6    6    0  502 -0.14887049227E+02  0.21844774211E+03  0.11457901125E+03  0.24712221690E+03  0.00000000000E+00 0.  1.
<mgrwt>
<rscale>  0 0.74350401E+03</rscale>
<asrwt>0</asrwt>
<pdfrwt beam="1">  1        1 0.11856363E+00 0.74350401E+03</pdfrwt>
<pdfrwt beam="2">  1       -2 0.12761470E+00 0.74350401E+03</pdfrwt>
<totfact> 0.95659816E+00</totfact>
</mgrwt>
</event>
<event>
12    3  0.1092576E-007  0.4304738E+03  0.7818608E-02  0.1033710E+00
         -2   -1    0    0    0  501 -0.00000000000E+00  0.00000000000E+00  0.55237523690E+03  0.55237523690E+03  0.00000000000E+00 0.  1.
          1   -1    0    0  501    0  0.00000000000E+00 -0.00000000000E+00 -0.87141322193E+03  0.87141322193E+03  0.00000000000E+00 0. -1.
        -24    2    1    2    0    0 -0.18358908724E+03 -0.30915067984E+03 -0.57161229296E+03  0.67996795029E+03  0.79603418007E+02 0.  0.
    5000000    2    1    2    0    0  0.18358908724E+03  0.30915067984E+03  0.25257430792E+03  0.74382050854E+03  0.60016337118E+03 0.  0.
        -24    2    4    4    0    0 -0.66715582500E+02  0.17861883849E+03 -0.14314547376E+03  0.25103486331E+03  0.78563461752E+02 0.  0.
         24    2    4    4    0    0  0.25030466974E+03  0.13053184135E+03  0.39571978169E+03  0.49278564523E+03  0.80947867359E+02 0.  0.
         11    1    5    5    0    0 -0.34138884730E+02  0.19019419342E+02 -0.92071897237E+01  0.40149397323E+02  0.00000000000E+00 0. -1.
        -12    1    5    5    0    0 -0.32576697770E+02  0.15959941915E+03 -0.13393828404E+03  0.21088546598E+03  0.00000000000E+00 0.  1.
         15    1    3    3    0    0 -0.85588928737E+02 -0.21649649504E+03 -0.38019452115E+03  0.44581075439E+03  0.17770000000E+01 0. -1.
        -16    1    3    3    0    0 -0.98000158502E+02 -0.92654184802E+02 -0.19141777181E+03  0.23415719590E+03  0.00000000000E+00 0.  1.
          4    1    6    6  502    0  0.37438483210E+01 -0.77548112992E+01  0.25902404570E+02  0.27296301234E+02  0.00000000000E+00 0. -1.
         -3    1    6    6    0  502  0.24656082142E+03  0.13828665264E+03  0.36981737712E+03  0.46548934400E+03  0.00000000000E+00 0.  1.
<mgrwt>
<rscale>  0 0.43047378E+03</rscale>
<asrwt>0</asrwt>
<pdfrwt beam="1">  1        1 0.13406357E+00 0.43047378E+03</pdfrwt>
<pdfrwt beam="2">  1       -2 0.84980807E-01 0.43047378E+03</pdfrwt>
<totfact> 0.21626922E+01</totfact>
</mgrwt>
</event>
<event>
12    3  0.1092576E-007  0.5661364E+03  0.7818608E-02  0.9978265E-01
         -2   -1    0    0    0  501 -0.00000000000E+00  0.00000000000E+00  0.10213696010E+04  0.10213696010E+04  0.00000000000E+00 0.  1.
          1   -1    0    0  501    0  0.00000000000E+00 -0.00000000000E+00 -0.11089354904E+04  0.11089354904E+04  0.00000000000E+00 0. -1.
        -24    2    1    2    0    0  0.46385893157E+03 -0.17527848200E+03  0.80300865897E+03  0.94747090510E+03  0.83609538803E+02 0.  0.
    5000000    2    1    2    0    0 -0.46385893157E+03  0.17527848200E+03 -0.89057454835E+03  0.11828341863E+04  0.60007168860E+03 0.  0.
        -24    2    4    4    0    0 -0.51231311544E+03  0.17012662047E+03 -0.93276181493E+03  0.10806363132E+04  0.79513789401E+02 0.  0.
         24    2    4    4    0    0  0.48454183870E+02  0.51518615254E+01  0.42187266586E+02  0.10219787312E+03  0.79311349740E+02 0.  0.
         11    1    5    5    0    0 -0.19408642051E+03  0.10543051630E+03 -0.38374937187E+03  0.44277388451E+03  0.00000000000E+00 0. -1.
        -12    1    5    5    0    0 -0.31822669493E+03  0.64696104176E+02 -0.54901244306E+03  0.63786242866E+03  0.00000000000E+00 0.  1.
         15    1    3    3    0    0  0.21065361778E+03 -0.11640957946E+03  0.43067939276E+03  0.49337007809E+03  0.17770000000E+01 0. -1.
        -16    1    3    3    0    0  0.25320531379E+03 -0.58868902545E+02  0.37232926621E+03  0.45410082701E+03  0.00000000000E+00 0.  1.
          2    1    6    6  502    0  0.94009376836E+00  0.31617364687E+02  0.35263272274E+02  0.47371298246E+02  0.00000000000E+00 0. -1.
         -1    1    6    6    0  502  0.47514090102E+02 -0.26465503161E+02  0.69239943118E+01  0.54826574879E+02  0.00000000000E+00 0.  1.
<mgrwt>
<rscale>  0 0.56613635E+03</rscale>
<asrwt>0</asrwt>
<pdfrwt beam="1">  1        1 0.17060546E+00 0.56613635E+03</pdfrwt>
<pdfrwt beam="2">  1       -2 0.15713378E+00 0.56613635E+03</pdfrwt>
<totfact> 0.30742247E+00</totfact>
</mgrwt>
</event>
<event>
12    3  0.1092576E-007  0.7033633E+03  0.7818608E-02  0.9711498E-01
         -2   -1    0    0    0  501 -0.00000000000E+00  0.00000000000E+00  0.82585051217E+03  0.82585051217E+03  0.00000000000E+00 0.  1.
          1   -1    0    0  501    0  0.00000000000E+00 -0.00000000000E+00 -0.69875220124E+03  0.69875220124E+03  0.00000000000E+00 0. -1.
        -24    2    1    2    0    0 -0.59881381552E+03  0.20188619961E+03  0.14347474995E+03  0.65306177935E+03  0.81047273401E+02 0.  0.
    5000000    2    1    2    0    0  0.59881381552E+03 -0.20188619961E+03 -0.16376439015E+02  0.87154093405E+03  0.59998282369E+03 0.  0.
        -24    2    4    4    0    0  0.67581364574E+02 -0.22508373796E+03 -0.18236002413E+03  0.30773179017E+03  0.78827319837E+02 0.  0.
         24    2    4    4    0    0  0.53123245095E+03  0.23197538347E+02  0.16598358511E+03  0.56380914388E+03  0.87087068348E+02 0.  0.
         13    1    5    5    0    0  0.59425982314E+02 -0.17765162791E+03 -0.17961611244E+03  0.25952552114E+03  0.00000000000E+00 0. -1.
        -14    1    5    5    0    0  0.81553822603E+01 -0.47432110043E+02 -0.27439116902E+01  0.48206269036E+02  0.00000000000E+00 0.  1.
         15    1    3    3    0    0 -0.86346743076E+02  0.19740347585E+02 -0.66692570280E+01  0.88842996803E+02  0.17770000000E+01 0. -1.
        -16    1    3    3    0    0 -0.51246707244E+03  0.18214585203E+03  0.15014400697E+03  0.56421878255E+03  0.00000000000E+00 0.  1.
          2    1    6    6  502    0  0.81028592198E+02  0.35425542515E+02  0.25496833170E+02  0.92036353240E+02  0.00000000000E+00 0. -1.
         -1    1    6    6    0  502  0.45020385875E+03 -0.12228004168E+02  0.14048675194E+03  0.47177279064E+03  0.00000000000E+00 0.  1.
<mgrwt>
<rscale>  0 0.70336325E+03</rscale>
<asrwt>0</asrwt>
<pdfrwt beam="1">  1        1 0.10750034E+00 0.70336325E+03</pdfrwt>
<pdfrwt beam="2">  1       -2 0.12705392E+00 0.70336325E+03</pdfrwt>
<totfact> 0.11295998E+01</totfact>
</mgrwt>
</event>
<event>
12    3  0.1092576E-007  0.1005555E+04  0.7818608E-02  0.9302474E-01
         -2   -1    0    0    0  501 -0.00000000000E+00  0.00000000000E+00  0.58466095070E+03  0.58466095070E+03  0.00000000000E+00 0.  1.
          1   -1    0    0  501    0  0.00000000000E+00 -0.00000000000E+00 -0.18720836540E+04  0.18720836540E+04  0.00000000000E+00 0. -1.
        -24    2    1    2    0    0  0.86060556805E+03 -0.32807871482E+03 -0.90271040452E+03  0.12921155331E+04  0.79993059354E+02 0.  0.
    5000000    2    1    2    0    0 -0.86060556805E+03  0.32807871482E+03 -0.38471229877E+03  0.11646290716E+04  0.60006644194E+03 0.  0.
        -24    2    4    4    0    0 -0.28111833921E+03 -0.15705572316E+03 -0.58700177467E+02  0.33696302414E+03  0.80027170312E+02 0.  0.
         24    2    4    4    0    0 -0.57948722884E+03  0.48513443798E+03 -0.32601212130E+03  0.82766604747E+03  0.87099435082E+02 0.  0.
         11    1    5    5    0    0 -0.20476121866E+03 -0.77868234636E+02 -0.18517265216E+02  0.21984882930E+03  0.00000000000E+00 0. -1.
        -12    1    5    5    0    0 -0.76357120546E+02 -0.79187488523E+02 -0.40182912251E+02  0.11711419484E+03  0.00000000000E+00 0.  1.
         15    1    3    3    0    0  0.59921574295E+03 -0.19666115846E+03 -0.58486993153E+03  0.86012273100E+03  0.17770000000E+01 0. -1.
        -16    1    3    3    0    0  0.26138982509E+03 -0.13141755637E+03 -0.31784047299E+03  0.43199280209E+03  0.00000000000E+00 0.  1.
          4    1    6    6  502    0 -0.34546203412E+03  0.33198541596E+03 -0.17706070677E+03  0.51079235244E+03  0.00000000000E+00 0. -1.
         -3    1    6    6    0  502 -0.23402519472E+03  0.15314902202E+03 -0.14895141453E+03  0.31687369503E+03  0.00000000000E+00 0.  1.
<mgrwt>
<rscale>  0 0.10055546E+04</rscale>
<asrwt>0</asrwt>
<pdfrwt beam="1">  1        1 0.28801287E+00 0.10055546E+04</pdfrwt>
<pdfrwt beam="2">  1       -2 0.89947838E-01 0.10055546E+04</pdfrwt>
<totfact> 0.33956441E+00</totfact>
</mgrwt>
</event>
<event>
12    3  0.1092576E-007  0.8344041E+03  0.7818608E-02  0.9511512E-01
          1   -1    0    0  501    0  0.00000000000E+00  0.00000000000E+00  0.56999069975E+03  0.56999069975E+03  0.00000000000E+00 0. -1.
         -2   -1    0    0    0  501 -0.00000000000E+00 -0.00000000000E+00 -0.21781859886E+04  0.21781859886E+04  0.00000000000E+00 0.  1.
        -24    2    1    2    0    0 -0.24235325850E+03 -0.77008471620E+03  0.45707238373E+02  0.81241672193E+03  0.78525196017E+02 0.  0.
    5000000    2    1    2    0    0  0.24235325850E+03  0.77008471620E+03 -0.16539025272E+04  0.19357599664E+04  0.60000625494E+03 0.  0.
        -24    2    4    4    0    0 -0.55665892282E+02  0.90491960912E+02 -0.16033511497E+02  0.13585402648E+03  0.83136974126E+02 0.  0.
         24    2    4    4    0    0  0.29801915078E+03  0.67959275529E+03 -0.16378690157E+04  0.17999059399E+04  0.79904647229E+02 0.  0.
         13    1    5    5    0    0  0.46706617337E+00  0.37001098416E+02  0.28255671548E+02  0.46558376362E+02  0.00000000000E+00 0. -1.
        -14    1    5    5    0    0 -0.56132958455E+02  0.53490862496E+02 -0.44289183044E+02  0.89295650119E+02  0.00000000000E+00 0.  1.
         15    1    3    3    0    0 -0.10652903152E+03 -0.39411625330E+03  0.58660358341E+02  0.41245636259E+03  0.17770000000E+01 0. -1.
        -16    1    3    3    0    0 -0.13582422697E+03 -0.37596846290E+03 -0.12953119969E+02  0.39996035934E+03  0.00000000000E+00 0.  1.
          2    1    6    6  502    0  0.98237670782E+02  0.32180501006E+03 -0.72356740507E+03  0.79797173769E+03  0.00000000000E+00 0. -1.
         -1    1    6    6    0  502  0.19978148000E+03  0.35778774523E+03 -0.91430161063E+03  0.10019342022E+04  0.00000000000E+00 0.  1.
<mgrwt>
<rscale>  0 0.83440415E+03</rscale>
<asrwt>0</asrwt>
<pdfrwt beam="1">  1        1 0.87690874E-01 0.83440415E+03</pdfrwt>
<pdfrwt beam="2">  1       -2 0.33510555E+00 0.83440415E+03</pdfrwt>
<totfact> 0.64856965E-01</totfact>
</mgrwt>
</event>
<event>
12    3  0.1092576E-007  0.4442727E+03  0.7818608E-02  0.1029444E+00
         -4   -1    0    0    0  501 -0.00000000000E+00  0.00000000000E+00  0.47791361703E+03  0.47791361703E+03  0.00000000000E+00 0.  1.
          3   -1    0    0  501    0  0.00000000000E+00 -0.00000000000E+00 -0.86381185717E+03  0.86381185717E+03  0.00000000000E+00 0. -1.
        -24    2    1    2    0    0  0.23989153810E+02 -0.42512534042E+03 -0.42215241090E+03  0.60505440980E+03  0.81062606729E+02 0.  0.
    5000000    2    1    2    0    0 -0.23989153810E+02  0.42512534042E+03  0.36254170769E+02  0.73667106440E+03  0.60005237909E+03 0.  0.
        -24    2    4    4    0    0  0.41258805931E+02  0.36349095732E+03 -0.23388509769E+03  0.44140377241E+03  0.79417166034E+02 0.  0.
         24    2    4    4    0    0 -0.65247959740E+02  0.61634383108E+02  0.27013926846E+03  0.29526729199E+03  0.78431217796E+02 0.  0.
         13    1    5    5    0    0  0.12180752351E+02  0.93836390769E+02 -0.21784358082E+02  0.97098904306E+02  0.00000000000E+00 0. -1.
        -14    1    5    5    0    0  0.29078053579E+02  0.26965456655E+03 -0.21210073960E+03  0.34430486811E+03  0.00000000000E+00 0.  1.
         15    1    3    3    0    0  0.49583664444E+02 -0.29681749920E+03 -0.31804767390E+03  0.43785459711E+03  0.17770000000E+01 0. -1.
        -16    1    3    3    0    0 -0.25594510635E+02 -0.12830784123E+03 -0.10410473700E+03  0.16719981268E+03  0.00000000000E+00 0.  1.
          2    1    6    6  502    0 -0.24910336787E+02  0.33525729513E+02  0.22394027203E+03  0.22780198607E+03  0.00000000000E+00 0. -1.
         -1    1    6    6    0  502 -0.40337622953E+02  0.28108653595E+02  0.46198996422E+02  0.67465305920E+02  0.00000000000E+00 0.  1.
<mgrwt>
<rscale>  0 0.44427270E+03</rscale>
<asrwt>0</asrwt>
<pdfrwt beam="1">  1        3 0.13289413E+00 0.44427270E+03</pdfrwt>
<pdfrwt beam="2">  1       -4 0.73525173E-01 0.44427270E+03</pdfrwt>
<totfact> 0.16726222E+00</totfact>
</mgrwt>
</event>
<event>
12    3  0.1092576E-007  0.5972345E+03  0.7818608E-02  0.9911160E-01
         -2   -1    0    0    0  501 -0.00000000000E+00  0.00000000000E+00  0.10088246760E+04  0.10088246760E+04  0.00000000000E+00 0.  1.
          1   -1    0    0  501    0  0.00000000000E+00 -0.00000000000E+00 -0.44723545920E+03  0.44723545920E+03  0.00000000000E+00 0. -1.
        -24    2    1    2    0    0 -0.26472726625E+03 -0.41634198770E+03  0.44751433087E+03  0.67087820571E+03  0.79920675265E+02 0.  0.
    5000000    2    1    2    0    0  0.26472726625E+03  0.41634198770E+03  0.11407488589E+03  0.78518192945E+03  0.60006366872E+03 0.  0.
        -24    2    4    4    0    0 -0.69796916814E+02  0.32734469305E+03 -0.11549899683E+03  0.36228827639E+03  0.76724306958E+02 0.  0.
         24    2    4    4    0    0  0.33452418306E+03  0.88997294650E+02  0.22957388272E+03  0.42289365305E+03  0.79422456876E+02 0.  0.
         13    1    5    5    0    0 -0.31944446962E+02  0.27922666917E+03 -0.10580025790E+03  0.30030263908E+03  0.00000000000E+00 0. -1.
        -14    1    5    5    0    0 -0.37852469853E+02  0.48118023886E+02 -0.96987389246E+01  0.61985637316E+02  0.00000000000E+00 0.  1.
         15    1    3    3    0    0 -0.17577581282E+03 -0.33118224194E+03  0.31206707688E+03  0.48781946655E+03  0.17770000000E+01 0. -1.
        -16    1    3    3    0    0 -0.88951453426E+02 -0.85159745767E+02  0.13544725400E+03  0.18305873916E+03  0.00000000000E+00 0.  1.
          4    1    6    6  502    0  0.10377343118E+03 -0.73961391281E+01  0.52965732419E+02  0.11674329404E+03  0.00000000000E+00 0. -1.
         -3    1    6    6    0  502  0.23075075188E+03  0.96393433779E+02  0.17660815030E+03  0.30615035901E+03  0.00000000000E+00 0.  1.
<mgrwt>
<rscale>  0 0.59723453E+03</rscale>
<asrwt>0</asrwt>
<pdfrwt beam="1">  1        1 0.68805456E-01 0.59723453E+03</pdfrwt>
<pdfrwt beam="2">  1       -2 0.15520379E+00 0.59723453E+03</pdfrwt>
<totfact> 0.12798238E+01</totfact>
</mgrwt>
</event>
<event>
12    3  0.1092576E-007  0.2195256E+03  0.7818608E-02  0.1134237E+00
         -2   -1    0    0    0  501 -0.00000000000E+00  0.00000000000E+00  0.33322080091E+03  0.33322080091E+03  0.00000000000E+00 0.  1.
          1   -1    0    0  501    0  0.00000000000E+00 -0.00000000000E+00 -0.50270322628E+03  0.50270322628E+03  0.00000000000E+00 0. -1.
        -24    2    1    2    0    0 -0.16246362121E+03  0.26940735297E+02 -0.10079778290E+03  0.20985312432E+03  0.82206504091E+02 0.  0.
    5000000    2    1    2    0    0  0.16246362121E+03 -0.26940735297E+02 -0.68684642478E+02  0.62607090286E+03  0.60010579389E+03 0.  0.
        -24    2    4    4    0    0  0.16648749830E+03 -0.31533005282E+02 -0.31503647496E+03  0.36661032293E+03  0.80266623279E+02 0.  0.
         24    2    4    4    0    0 -0.40238770819E+01  0.45922699851E+01  0.24635183248E+03  0.25946057994E+03  0.81199055686E+02 0.  0.
         11    1    5    5    0    0  0.11262680758E+03  0.17116804545E+02 -0.17364559267E+03  0.20767901829E+03  0.00000000000E+00 0. -1.
        -12    1    5    5    0    0  0.53860690718E+02 -0.48649809827E+02 -0.14139088229E+03  0.15893130464E+03  0.00000000000E+00 0.  1.
         15    1    3    3    0    0 -0.13891631379E+03  0.53212675210E+02 -0.80608805911E+02  0.16920481187E+03  0.17770000000E+01 0. -1.
        -16    1    3    3    0    0 -0.23547307426E+02 -0.26271939913E+02 -0.20188976989E+02  0.40648312458E+02  0.00000000000E+00 0.  1.
          2    1    6    6  502    0  0.30448836289E+02 -0.85214627354E+01  0.46485686176E+02  0.56219800584E+02  0.00000000000E+00 0. -1.
         -1    1    6    6    0  502 -0.34472713371E+02  0.13113732720E+02  0.19986614630E+03  0.20324077935E+03  0.00000000000E+00 0.  1.
<mgrwt>
<rscale>  0 0.21952558E+03</rscale>
<asrwt>0</asrwt>
<pdfrwt beam="1">  1        1 0.77338958E-01 0.21952558E+03</pdfrwt>
<pdfrwt beam="2">  1       -2 0.51264739E-01 0.21952558E+03</pdfrwt>
<totfact> 0.14628869E+02</totfact>
</mgrwt>
</event>
<event>
12    3  0.1092576E-007  0.4158613E+03  0.7818608E-02  0.1038422E+00
          1   -1    0    0  501    0  0.00000000000E+00  0.00000000000E+00  0.84579531737E+03  0.84579531737E+03  0.00000000000E+00 0. -1.
         -2   -1    0    0    0  501 -0.00000000000E+00 -0.00000000000E+00 -0.53694048941E+03  0.53694048941E+03  0.00000000000E+00 0.  1.
        -24    2    1    2    0    0  0.21460870894E+03  0.52755794050E+02  0.62635430729E+03  0.66886888411E+03  0.78903701479E+02 0.  0.
    5000000    2    1    2    0    0 -0.21460870894E+03 -0.52755794050E+02 -0.31749947933E+03  0.71386692267E+03  0.59996665920E+03 0.  0.
        -24    2    4    4    0    0 -0.25918599423E+03  0.21040375885E+03 -0.88832743631E+02  0.35373364458E+03  0.76086224943E+02 0.  0.
         24    2    4    4    0    0  0.44577285286E+02 -0.26315955290E+03 -0.22866673570E+03  0.36013327809E+03  0.78532906019E+02 0.  0.
         13    1    5    5    0    0 -0.25020666612E+03  0.20533151254E+03 -0.68364796268E+02  0.33081437572E+03  0.00000000000E+00 0. -1.
        -14    1    5    5    0    0 -0.89793281061E+01  0.50722463052E+01 -0.20467947363E+02  0.22919268860E+02  0.00000000000E+00 0.  1.
         15    1    3    3    0    0  0.17100997304E+03  0.64958563213E+02  0.55490464983E+03  0.58428276882E+03  0.17770000000E+01 0. -1.
        -16    1    3    3    0    0  0.43598735901E+02 -0.12202769163E+02  0.71449657460E+02  0.84586115283E+02  0.00000000000E+00 0.  1.
          2    1    6    6  502    0  0.75492559752E+01 -0.15530092287E+03 -0.86653394072E+02  0.17800050173E+03  0.00000000000E+00 0. -1.
         -1    1    6    6    0  502  0.37028029310E+02 -0.10785863003E+03 -0.14201334163E+03  0.18213277636E+03  0.00000000000E+00 0.  1.
<mgrwt>
<rscale>  0 0.41586133E+03</rscale>
<asrwt>0</asrwt>
<pdfrwt beam="1">  1        1 0.13012236E+00 0.41586133E+03</pdfrwt>
<pdfrwt beam="2">  1       -2 0.82606229E-01 0.41586133E+03</pdfrwt>
<totfact> 0.24254308E+01</totfact>
</mgrwt>
</event>
<event>
12    3  0.1092576E-007  0.3843706E+03  0.7818608E-02  0.1049330E+00
          1   -1    0    0  501    0  0.00000000000E+00  0.00000000000E+00  0.16963068629E+04  0.16963068629E+04  0.00000000000E+00 0. -1.
         -2   -1    0    0    0  501 -0.00000000000E+00 -0.00000000000E+00 -0.18775462371E+03  0.18775462371E+03  0.00000000000E+00 0.  1.
        -24    2    1    2    0    0 -0.33142905190E+03 -0.11972765736E+03  0.23046508499E+03  0.42888706189E+03  0.81547704309E+02 0.  0.
    5000000    2    1    2    0    0  0.33142905190E+03  0.11972765736E+03  0.12780871542E+04  0.14551744247E+04  0.59987157314E+03 0.  0.
        -24    2    4    4    0    0  0.30282904675E+03  0.91540438450E+02  0.22069074174E+03  0.39398752839E+03  0.80228957447E+02 0.  0.
         24    2    4    4    0    0  0.28600005149E+02  0.28187218905E+02  0.10573964124E+04  0.10611868963E+04  0.80112272847E+02 0.  0.
         13    1    5    5    0    0  0.19296213007E+03  0.17436090560E+02  0.13596995443E+03  0.23669860456E+03  0.00000000000E+00 0. -1.
        -14    1    5    5    0    0  0.10986691668E+03  0.74104347891E+02  0.84720787309E+02  0.15728892383E+03  0.00000000000E+00 0.  1.
         15    1    3    3    0    0 -0.15729009205E+03 -0.79720923981E+02  0.15552799203E+03  0.23513339366E+03  0.17770000000E+01 0. -1.
        -16    1    3    3    0    0 -0.17413895985E+03 -0.40006733375E+02  0.74937092953E+02  0.19375366823E+03  0.00000000000E+00 0.  1.
          2    1    6    6  502    0  0.49066175161E+02 -0.40807408751E+01  0.47709209421E+03  0.47962590458E+03  0.00000000000E+00 0. -1.
         -1    1    6    6    0  502 -0.20466170012E+02  0.32267959781E+02  0.58030431824E+03  0.58156099173E+03  0.00000000000E+00 0.  1.
<mgrwt>
<rscale>  0 0.38437060E+03</rscale>
<asrwt>0</asrwt>
<pdfrwt beam="1">  1        1 0.26097028E+00 0.38437060E+03</pdfrwt>
<pdfrwt beam="2">  1       -2 0.28885328E-01 0.38437060E+03</pdfrwt>
<totfact> 0.50284729E+01</totfact>
</mgrwt>
</event>
<event>
12    3  0.1092576E-007  0.4914004E+03  0.7818608E-02  0.1016048E+00
         -2   -1    0    0    0  501 -0.00000000000E+00  0.00000000000E+00  0.27467714125E+03  0.27467714125E+03  0.00000000000E+00 0.  1.
          1   -1    0    0  501    0  0.00000000000E+00 -0.00000000000E+00 -0.13399319171E+04  0.13399319171E+04  0.00000000000E+00 0. -1.
        -24    2    1    2    0    0  0.22343862113E+03 -0.32215238466E+03 -0.99683073085E+02  0.41226889412E+03  0.79510688852E+02 0.  0.
    5000000    2    1    2    0    0 -0.22343862113E+03  0.32215238466E+03 -0.96557170274E+03  0.12023401642E+04  0.59965505165E+03 0.  0.
        -24    2    4    4    0    0 -0.28209062089E+02  0.36391727469E+03 -0.90434520560E+03  0.97858636876E+03  0.80990716925E+02 0.  0.
         24    2    4    4    0    0 -0.19522955904E+03 -0.41764890025E+02 -0.61226497136E+02  0.22375379544E+03  0.80362866179E+02 0.  0.
         13    1    5    5    0    0 -0.52584104514E+02  0.23515380341E+03 -0.63120554279E+03  0.67563513567E+03  0.00000000000E+00 0. -1.
        -14    1    5    5    0    0  0.24375042424E+02  0.12876347128E+03 -0.27313966282E+03  0.30295123309E+03  0.00000000000E+00 0.  1.
         15    1    3    3    0    0  0.41794355620E+02 -0.10504957766E+03 -0.54841095139E+02  0.12566974725E+03  0.17770000000E+01 0. -1.
        -16    1    3    3    0    0  0.18164426551E+03 -0.21710280700E+03 -0.44841977946E+02  0.28659914687E+03  0.00000000000E+00 0.  1.
          2    1    6    6  502    0 -0.10301716843E+03  0.18255377549E+02 -0.21736358151E+02  0.10685628230E+03  0.00000000000E+00 0. -1.
         -1    1    6    6    0  502 -0.92212390607E+02 -0.60020267574E+02 -0.39490138985E+02  0.11689751314E+03  0.00000000000E+00 0.  1.
<mgrwt>
<rscale>  0 0.49140037E+03</rscale>
<asrwt>0</asrwt>
<pdfrwt beam="1">  1        1 0.20614337E+00 0.49140037E+03</pdfrwt>
<pdfrwt beam="2">  1       -2 0.42258021E-01 0.49140037E+03</pdfrwt>
<totfact> 0.41794859E+01</totfact>
</mgrwt>
</event>
<event>
12    3  0.1092576E-007  0.6019011E+03  0.7818608E-02  0.9901470E-01
         -2   -1    0    0    0  501 -0.00000000000E+00  0.00000000000E+00  0.77772796408E+03  0.77772796408E+03  0.00000000000E+00 0.  1.
          1   -1    0    0  501    0  0.00000000000E+00 -0.00000000000E+00 -0.68941474329E+03  0.68941474329E+03  0.00000000000E+00 0. -1.
        -24    2    1    2    0    0  0.46364412291E+03 -0.14080520558E+03  0.40211797845E+03  0.63457486577E+03  0.78704593509E+02 0.  0.
    5000000    2    1    2    0    0 -0.46364412291E+03  0.14080520558E+03 -0.31380475766E+03  0.83256784160E+03  0.59991983324E+03 0.  0.
        -24    2    4    4    0    0 -0.15148496105E+03 -0.19726895260E+03 -0.24926522142E+03  0.36115697099E+03  0.80240102219E+02 0.  0.
         24    2    4    4    0    0 -0.31215916187E+03  0.33807415818E+03 -0.64539536240E+02  0.47141087061E+03  0.79532247705E+02 0.  0.
         13    1    5    5    0    0 -0.14692001248E+03 -0.18304684226E+03 -0.25365345447E+03  0.34558893428E+03  0.00000000000E+00 0. -1.
        -14    1    5    5    0    0 -0.45649485643E+01 -0.14222110341E+02  0.43882330500E+01  0.15568036718E+02  0.00000000000E+00 0.  1.
         15    1    3    3    0    0  0.26746719400E+03 -0.11211672103E+03  0.27059601945E+03  0.39665378162E+03  0.17770000000E+01 0. -1.
        -16    1    3    3    0    0  0.19617692891E+03 -0.28688484553E+02  0.13152195901E+03  0.23792108415E+03  0.00000000000E+00 0.  1.
          2    1    6    6  502    0 -0.26865001593E+03  0.24704043444E+03 -0.63851841772E+02  0.37051162600E+03  0.00000000000E+00 0. -1.
         -1    1    6    6    0  502 -0.43509145939E+02  0.91033723744E+02 -0.68769446766E+00  0.10089924461E+03  0.00000000000E+00 0.  1.
<mgrwt>
<rscale>  0 0.60190110E+03</rscale>
<asrwt>0</asrwt>
<pdfrwt beam="1">  1        1 0.10606381E+00 0.60190110E+03</pdfrwt>
<pdfrwt beam="2">  1       -2 0.11965046E+00 0.60190110E+03</pdfrwt>
<totfact> 0.13551880E+01</totfact>
</mgrwt>
</event>
<event>
12    3  0.1092576E-007  0.7475711E+03  0.7818608E-02  0.9639169E-01
          1   -1    0    0  501    0  0.00000000000E+00  0.00000000000E+00  0.14361688173E+04  0.14361688173E+04  0.00000000000E+00 0. -1.
         -2   -1    0    0    0  501 -0.00000000000E+00 -0.00000000000E+00 -0.47414373173E+03  0.47414373173E+03  0.00000000000E+00 0.  1.
        -24    2    1    2    0    0  0.16752576176E+03 -0.65972760929E+03  0.17014734638E+03  0.70604309814E+03  0.79002136940E+02 0.  0.
    5000000    2    1    2    0    0 -0.16752576176E+03  0.65972760929E+03  0.79187773923E+03  0.12042694509E+04  0.59990762395E+03 0.  0.
        -24    2    4    4    0    0 -0.25478210983E+03  0.17257511980E+03  0.64878510332E+02  0.32138631018E+03  0.66210601877E+02 0.  0.
         24    2    4    4    0    0  0.87256348075E+02  0.48715248949E+03  0.72699922890E+03  0.88288314077E+03  0.77611488445E+02 0.  0.
         11    1    5    5    0    0 -0.84373527122E+02  0.21584071050E+02  0.17613292176E+02  0.88853768988E+02  0.00000000000E+00 0. -1.
        -12    1    5    5    0    0 -0.17040858271E+03  0.15099104875E+03  0.47265218156E+02  0.23253254119E+03  0.00000000000E+00 0.  1.
         15    1    3    3    0    0  0.69411150903E+02 -0.42745769953E+03  0.10423354322E+03  0.44542763948E+03  0.17770000000E+01 0. -1.
        -16    1    3    3    0    0  0.98114610854E+02 -0.23226990976E+03  0.65913803166E+02  0.26061545866E+03  0.00000000000E+00 0.  1.
          2    1    6    6  502    0  0.37523265879E+02  0.16582704803E+03  0.31582751864E+03  0.35868318454E+03  0.00000000000E+00 0. -1.
         -1    1    6    6    0  502  0.49733082196E+02  0.32132544146E+03  0.41117171026E+03  0.52419995623E+03  0.00000000000E+00 0.  1.
<mgrwt>
<rscale>  0 0.74757111E+03</rscale>
<asrwt>0</asrwt>
<pdfrwt beam="1">  1        1 0.22094905E+00 0.74757111E+03</pdfrwt>
<pdfrwt beam="2">  1       -2 0.72945190E-01 0.74757111E+03</pdfrwt>
<totfact> 0.11135001E+01</totfact>
</mgrwt>
</event>
<event>
12    3  0.1092576E-007  0.3662642E+03  0.7818608E-02  0.1056131E+00
         -2   -1    0    0    0  501 -0.00000000000E+00  0.00000000000E+00  0.11395378060E+03  0.11395378060E+03  0.00000000000E+00 0.  1.
          1   -1    0    0  501    0  0.00000000000E+00 -0.00000000000E+00 -0.19437577559E+04  0.19437577559E+04  0.00000000000E+00 0. -1.
        -24    2    1    2    0    0 -0.14061279989E+03 -0.22275050255E+03 -0.69189669399E+03  0.74453865063E+03  0.78911477331E+02 0.  0.
    5000000    2    1    2    0    0  0.14061279989E+03  0.22275050255E+03 -0.11379072813E+04  0.13131728859E+04  0.60016689464E+03 0.  0.
        -24    2    4    4    0    0 -0.10657836086E+03  0.39126931614E+00 -0.86666404104E+03  0.87678255818E+03  0.79259032315E+02 0.  0.
         24    2    4    4    0    0  0.24719116075E+03  0.22235923323E+03 -0.27124324027E+03  0.43639032768E+03  0.79476563475E+02 0.  0.
         13    1    5    5    0    0  0.23854161383E+01 -0.19021423951E+02 -0.74637829784E+02  0.77060433519E+02  0.00000000000E+00 0. -1.
        -14    1    5    5    0    0 -0.10896377700E+03  0.19412693267E+02 -0.79202621125E+03  0.79972212466E+03  0.00000000000E+00 0.  1.
         15    1    3    3    0    0 -0.79481128822E+02 -0.17634744386E+03 -0.55288099662E+03  0.58574416339E+03  0.17770000000E+01 0. -1.
        -16    1    3    3    0    0 -0.61131671068E+02 -0.46403058686E+02 -0.13901569737E+03  0.15879448724E+03  0.00000000000E+00 0.  1.
          2    1    6    6  502    0  0.90686112274E+02  0.80484608914E+02 -0.14982601546E+03  0.19274225831E+03  0.00000000000E+00 0. -1.
         -1    1    6    6    0  502  0.15650504848E+03  0.14187462432E+03 -0.12141722481E+03  0.24364806936E+03  0.00000000000E+00 0.  1.
<mgrwt>
<rscale>  0 0.36626419E+03</rscale>
<asrwt>0</asrwt>
<pdfrwt beam="1">  1        1 0.29903966E+00 0.36626419E+03</pdfrwt>
<pdfrwt beam="2">  1       -2 0.17531350E-01 0.36626419E+03</pdfrwt>
<totfact> 0.83497889E+01</totfact>
</mgrwt>
</event>
<event>
12    3  0.1092576E-007  0.6379353E+03  0.7818608E-02  0.9829685E-01
         -2   -1    0    0    0  501 -0.00000000000E+00  0.00000000000E+00  0.12218101517E+04  0.12218101517E+04  0.00000000000E+00 0.  1.
          1   -1    0    0  501    0  0.00000000000E+00 -0.00000000000E+00 -0.35297200233E+03  0.35297200233E+03  0.00000000000E+00 0. -1.
        -24    2    1    2    0    0  0.42854356172E+03 -0.28528684878E+03  0.30128764934E+03  0.60178569113E+03  0.79583918155E+02 0.  0.
    5000000    2    1    2    0    0 -0.42854356172E+03  0.28528684878E+03  0.56755049999E+03  0.97299646285E+03  0.59964187337E+03 0.  0.
        -24    2    4    4    0    0 -0.52246844944E+03  0.84043340291E+02  0.48912255913E+03  0.72458753231E+03  0.75826449399E+02 0.  0.
         24    2    4    4    0    0  0.93924887715E+02  0.20124350849E+03  0.78427940857E+02  0.24840893054E+03  0.78963413189E+02 0.  0.
         13    1    5    5    0    0 -0.61263061990E+01 -0.38378932865E+01  0.20651669386E+02  0.21880413638E+02  0.00000000000E+00 0. -1.
        -14    1    5    5    0    0 -0.51634214324E+03  0.87881233577E+02  0.46847088974E+03  0.70270711867E+03  0.00000000000E+00 0.  1.
         15    1    3    3    0    0  0.23392413878E+03 -0.15088350607E+03  0.20816662397E+03  0.34759579424E+03  0.17770000000E+01 0. -1.
        -16    1    3    3    0    0  0.19461942295E+03 -0.13440334271E+03  0.93121025368E+02  0.25418989690E+03  0.00000000000E+00 0.  1.
          4    1    6    6  502    0  0.72438785238E+02  0.84579230239E+02  0.10857385674E+02  0.11188791989E+03  0.00000000000E+00 0. -1.
         -3    1    6    6    0  502  0.21486102476E+02  0.11666427825E+03  0.67570555183E+02  0.13652101064E+03  0.00000000000E+00 0.  1.
<mgrwt>
<rscale>  0 0.63793531E+03</rscale>
<asrwt>0</asrwt>
<pdfrwt beam="1">  1        1 0.54303386E-01 0.63793531E+03</pdfrwt>
<pdfrwt beam="2">  1       -2 0.18797079E+00 0.63793531E+03</pdfrwt>
<totfact> 0.10235861E+01</totfact>
</mgrwt>
</event>
<event>
12    3  0.1092576E-007  0.1027103E+04  0.7818608E-02  0.9279308E-01
         -2   -1    0    0    0  501 -0.00000000000E+00  0.00000000000E+00  0.76937476911E+03  0.76937476911E+03  0.00000000000E+00 0.  1.
          1   -1    0    0  501    0  0.00000000000E+00 -0.00000000000E+00 -0.24010622212E+04  0.24010622212E+04  0.00000000000E+00 0. -1.
        -24    2    1    2    0    0  0.81190339722E+03  0.48197680011E+03 -0.18047077485E+04  0.20381852063E+04  0.75763548139E+02 0.  0.
    5000000    2    1    2    0    0 -0.81190339722E+03 -0.48197680011E+03  0.17302029641E+03  0.11322517841E+04  0.60047424366E+03 0.  0.
        -24    2    4    4    0    0 -0.76884305907E+03 -0.16861220328E+03  0.14783665554E+03  0.80486835359E+03  0.80047893931E+02 0.  0.
         24    2    4    4    0    0 -0.43060338150E+02 -0.31336459683E+03  0.25183640874E+02  0.32738343048E+03  0.80586174478E+02 0.  0.
         13    1    5    5    0    0 -0.59854145525E+02 -0.24019752283E+02  0.32263075642E+02  0.72113613736E+02  0.00000000000E+00 0. -1.
        -14    1    5    5    0    0 -0.70898891354E+03 -0.14459245100E+03  0.11557357989E+03  0.73275473985E+03  0.00000000000E+00 0.  1.
         15    1    3    3    0    0  0.28714001638E+03  0.16676455315E+03 -0.71387598319E+03  0.78732577902E+03  0.17770000000E+01 0. -1.
        -16    1    3    3    0    0  0.52476338084E+03  0.31521224696E+03 -0.10908317653E+04  0.12508594273E+04  0.00000000000E+00 0.  1.
          4    1    6    6  502    0  0.10786458184E+02 -0.13915717360E+03  0.37816241119E+02  0.14460682811E+03  0.00000000000E+00 0. -1.
         -1    1    6    6    0  502 -0.53846796333E+02 -0.17420742323E+03 -0.12632600245E+02  0.18277660236E+03  0.00000000000E+00 0.  1.
<mgrwt>
<rscale>  0 0.10271030E+04</rscale>
<asrwt>0</asrwt>
<pdfrwt beam="1">  1        1 0.36939418E+00 0.10271030E+04</pdfrwt>
<pdfrwt beam="2">  1       -2 0.11836535E+00 0.10271030E+04</pdfrwt>
<totfact> 0.76961944E-01</totfact>
</mgrwt>
</event>
<event>
12    3  0.1092576E-007  0.1053173E+04  0.7818608E-02  0.9252075E-01
          1   -1    0    0  501    0  0.00000000000E+00  0.00000000000E+00  0.22453433387E+04  0.22453433387E+04  0.00000000000E+00 0. -1.
         -2   -1    0    0    0  501 -0.00000000000E+00 -0.00000000000E+00 -0.57086511763E+03  0.57086511763E+03  0.00000000000E+00 0.  1.
        -24    2    1    2    0    0  0.58266136944E+03  0.78218068517E+03  0.29248382786E+03  0.10214211196E+04  0.80333171065E+02 0.  0.
    5000000    2    1    2    0    0 -0.58266136944E+03 -0.78218068517E+03  0.13819943932E+04  0.17947873367E+04  0.60004348626E+03 0.  0.
        -24    2    4    4    0    0 -0.35101607327E+02  0.78870236839E+02  0.12357977273E+03  0.17278718939E+03  0.84444156065E+02 0.  0.
         24    2    4    4    0    0 -0.54755976211E+03 -0.86105092201E+03  0.12584146204E+04  0.16220001473E+04  0.77760770533E+02 0.  0.
         11    1    5    5    0    0 -0.52457750573E+02  0.65209105154E+02  0.53548595402E+02  0.99355397738E+02  0.00000000000E+00 0. -1.
        -12    1    5    5    0    0  0.17356143246E+02  0.13661131686E+02  0.70031177331E+02  0.73431791655E+02  0.00000000000E+00 0.  1.
         15    1    3    3    0    0  0.15634907659E+03  0.15403374229E+03  0.67600668846E+02  0.22966156769E+03  0.17770000000E+01 0. -1.
        -16    1    3    3    0    0  0.42631229284E+03  0.62814694288E+03  0.22488315901E+03  0.79175955194E+03  0.00000000000E+00 0.  1.
          4    1    6    6  502    0 -0.12679633096E+03 -0.24551952817E+03  0.37925951097E+03  0.46924932064E+03  0.00000000000E+00 0. -1.
         -3    1    6    6    0  502 -0.42076343116E+03 -0.61553139384E+03  0.87915510946E+03  0.11527508266E+04  0.00000000000E+00 0.  1.
<mgrwt>
<rscale>  0 0.10531726E+04</rscale>
<asrwt>0</asrwt>
<pdfrwt beam="1">  1        1 0.34543743E+00 0.10531726E+04</pdfrwt>
<pdfrwt beam="2">  1       -2 0.87825404E-01 0.10531726E+04</pdfrwt>
<totfact> 0.19973298E+00</totfact>
</mgrwt>
</event>
<event>
12    3  0.1092576E-007  0.7594466E+03  0.7818608E-02  0.9620646E-01
         -2   -1    0    0    0  501 -0.00000000000E+00  0.00000000000E+00  0.11604671965E+04  0.11604671965E+04  0.00000000000E+00 0.  1.
          1   -1    0    0  501    0  0.00000000000E+00 -0.00000000000E+00 -0.60863261993E+03  0.60863261993E+03  0.00000000000E+00 0. -1.
        -24    2    1    2    0    0  0.56468676366E+03  0.38762371739E+03 -0.27126474007E+02  0.69004258373E+03  0.79370236467E+02 0.  0.
    5000000    2    1    2    0    0 -0.56468676366E+03 -0.38762371739E+03  0.57896105056E+03  0.10790572327E+04  0.60003777049E+03 0.  0.
        -24    2    4    4    0    0 -0.22495373718E+03  0.86613479604E+02  0.37727756959E+03  0.45473711248E+03  0.79632896651E+02 0.  0.
         24    2    4    4    0    0 -0.33973302647E+03 -0.47423719700E+03  0.20168348097E+03  0.62432012021E+03  0.93701321807E+02 0.  0.
         11    1    5    5    0    0 -0.21369848605E+03  0.82867874810E+02  0.37883270733E+03  0.44277347228E+03  0.00000000000E+00 0. -1.
        -12    1    5    5    0    0 -0.11255251139E+02  0.37456047940E+01 -0.15551377372E+01  0.11963640201E+02  0.00000000000E+00 0.  1.
         15    1    3    3    0    0  0.15218922012E+03  0.14562875646E+03 -0.21775980725E+02  0.21177026348E+03  0.17770000000E+01 0. -1.
        -16    1    3    3    0    0  0.41249754354E+03  0.24199496093E+03 -0.53504932821E+01  0.47827232026E+03  0.00000000000E+00 0.  1.
          2    1    6    6  502    0 -0.32387829625E+03 -0.40849659953E+03  0.16196378095E+03  0.54589274491E+03  0.00000000000E+00 0. -1.
         -1    1    6    6    0  502 -0.15854730221E+02 -0.65740597468E+02  0.39719700021E+02  0.78427375294E+02  0.00000000000E+00 0.  1.
<mgrwt>
<rscale>  0 0.75944665E+03</rscale>
<asrwt>0</asrwt>
<pdfrwt beam="1">  1        1 0.93635788E-01 0.75944665E+03</pdfrwt>
<pdfrwt beam="2">  1       -2 0.17853341E+00 0.75944665E+03</pdfrwt>
<totfact> 0.55736071E+00</totfact>
</mgrwt>
</event>
<event>
12    3  0.1092576E-007  0.6823977E+03  0.7818608E-02  0.9747817E-01
          1   -1    0    0  501    0  0.00000000000E+00  0.00000000000E+00  0.14612395684E+04  0.14612395684E+04  0.00000000000E+00 0. -1.
         -2   -1    0    0    0  501 -0.00000000000E+00 -0.00000000000E+00 -0.38148303667E+03  0.38148303667E+03  0.00000000000E+00 0.  1.
        -24    2    1    2    0    0 -0.57991955777E+03 -0.21657832394E+03  0.54217141106E+03  0.82679659386E+03  0.80186686983E+02 0.  0.
    5000000    2    1    2    0    0  0.57991955777E+03  0.21657832394E+03  0.53758512068E+03  0.10159260112E+04  0.59991252232E+03 0.  0.
        -24    2    4    4    0    0  0.56221950924E+03  0.40294188524E+02  0.15877119704E+03  0.59105307760E+03  0.80131450315E+02 0.  0.
         24    2    4    4    0    0  0.17700048525E+02  0.17628413541E+03  0.37881392364E+03  0.42487293363E+03  0.75017550397E+02 0.  0.
         13    1    5    5    0    0  0.14633624932E+03 -0.84493630527E+01  0.10917315440E+02  0.14698597681E+03  0.00000000000E+00 0. -1.
        -14    1    5    5    0    0  0.41588325992E+03  0.48743551577E+02  0.14785388160E+03  0.44406710079E+03  0.00000000000E+00 0.  1.
         15    1    3    3    0    0 -0.25872657150E+03 -0.64351271614E+02  0.19864868302E+03  0.33248305513E+03  0.17770000000E+01 0. -1.
        -16    1    3    3    0    0 -0.32119298627E+03 -0.15222705232E+03  0.34352272805E+03  0.49431353873E+03  0.00000000000E+00 0.  1.
          2    1    6    6  502    0  0.70111971572E+01  0.32446611477E+02  0.15568844227E+03  0.15918803516E+03  0.00000000000E+00 0. -1.
         -1    1    6    6    0  502  0.10688851368E+02  0.14383752394E+03  0.22312548138E+03  0.26568489847E+03  0.00000000000E+00 0.  1.
<mgrwt>
<rscale>  0 0.68239770E+03</rscale>
<asrwt>0</asrwt>
<pdfrwt beam="1">  1        1 0.22480609E+00 0.68239770E+03</pdfrwt>
<pdfrwt beam="2">  1       -2 0.58689699E-01 0.68239770E+03</pdfrwt>
<totfact> 0.17228775E+01</totfact>
</mgrwt>
</event>
<event>
12    3  0.1092576E-007  0.5222833E+03  0.7818608E-02  0.1008121E+00
          1   -1    0    0  501    0  0.00000000000E+00  0.00000000000E+00  0.62153225697E+03  0.62153225697E+03  0.00000000000E+00 0. -1.
         -2   -1    0    0    0  501 -0.00000000000E+00 -0.00000000000E+00 -0.76759412385E+03  0.76759412385E+03  0.00000000000E+00 0.  1.
        -24    2    1    2    0    0 -0.46691533877E+03 -0.20140020812E+03  0.16937493219E+03  0.54184707178E+03  0.79614095092E+02 0.  0.
    5000000    2    1    2    0    0  0.46691533877E+03  0.20140020812E+03 -0.31543679907E+03  0.84727930904E+03  0.59984154234E+03 0.  0.
        -24    2    4    4    0    0  0.29084735378E+03  0.73650590395E+02 -0.47352634351E+03  0.56658328382E+03  0.82297186106E+02 0.  0.
         24    2    4    4    0    0  0.17606798499E+03  0.12774961772E+03  0.15808954444E+03  0.28069602522E+03  0.80486361254E+02 0.  0.
         11    1    5    5    0    0  0.15947284389E+02  0.16919347794E+02 -0.79299738260E+02  0.82637937397E+02  0.00000000000E+00 0. -1.
        -12    1    5    5    0    0  0.27490006939E+03  0.56731242601E+02 -0.39422660525E+03  0.48394534642E+03  0.00000000000E+00 0.  1.
         15    1    3    3    0    0 -0.11253440290E+03 -0.87050831171E+02  0.43942673835E+02  0.14891593385E+03  0.17770000000E+01 0. -1.
        -16    1    3    3    0    0 -0.35438093587E+03 -0.11434937695E+03  0.12543225836E+03  0.39293113793E+03  0.00000000000E+00 0.  1.
          4    1    6    6  502    0  0.55055566251E+01  0.27663710497E+02  0.44355083457E+02  0.52563917860E+02  0.00000000000E+00 0. -1.
         -3    1    6    6    0  502  0.17056242837E+03  0.10008590722E+03  0.11373446098E+03  0.22813210736E+03  0.00000000000E+00 0.  1.
<mgrwt>
<rscale>  0 0.52228332E+03</rscale>
<asrwt>0</asrwt>
<pdfrwt beam="1">  1        1 0.95620347E-01 0.52228332E+03</pdfrwt>
<pdfrwt beam="2">  1       -2 0.11809140E+00 0.52228332E+03</pdfrwt>
<totfact> 0.16465817E+01</totfact>
</mgrwt>
</event>
<event>
12    3  0.1092576E-007  0.5059832E+03  0.7818608E-02  0.1012229E+00
          1   -1    0    0  501    0  0.00000000000E+00  0.00000000000E+00  0.13480627576E+04  0.13480627576E+04  0.00000000000E+00 0. -1.
         -2   -1    0    0    0  501 -0.00000000000E+00 -0.00000000000E+00 -0.28873491382E+03  0.28873491382E+03  0.00000000000E+00 0.  1.
        -24    2    1    2    0    0 -0.15461557967E+03  0.44371133113E+03  0.50441114181E+03  0.69406747304E+03  0.80705230889E+02 0.  0.
    5000000    2    1    2    0    0  0.15461557967E+03 -0.44371133113E+03  0.55491670193E+03  0.94273019833E+03  0.60001829798E+03 0.  0.
        -24    2    4    4    0    0  0.16895405288E+03 -0.17716234686E+03 -0.56885288341E+02  0.26984164685E+03  0.98217153371E+02 0.  0.
         24    2    4    4    0    0 -0.14338473206E+02 -0.26654898427E+03  0.61180199027E+03  0.67288855148E+03  0.84990438207E+02 0.  0.
         11    1    5    5    0    0  0.45068072843E+01 -0.50233286420E+02  0.10371067615E+02  0.51490323556E+02  0.00000000000E+00 0. -1.
        -12    1    5    5    0    0  0.16444724560E+03 -0.12692906044E+03 -0.67256355956E+02  0.21835132329E+03  0.00000000000E+00 0.  1.
         15    1    3    3    0    0 -0.60088504081E+01  0.11030305026E+03  0.13914289467E+03  0.17767040284E+03  0.17770000000E+01 0. -1.
        -16    1    3    3    0    0 -0.14860672927E+03  0.33340828087E+03  0.36526824714E+03  0.51639707020E+03  0.00000000000E+00 0.  1.
          2    1    6    6  502    0 -0.41697867950E+02 -0.22294682319E+03  0.52620704543E+03  0.57300772492E+03  0.00000000000E+00 0. -1.
         -1    1    6    6    0  502  0.27359394744E+02 -0.43602161084E+02  0.85594944840E+02  0.99880826559E+02  0.00000000000E+00 0.  1.
<mgrwt>
<rscale>  0 0.50598315E+03</rscale>
<asrwt>0</asrwt>
<pdfrwt beam="1">  1        1 0.20739427E+00 0.50598315E+03</pdfrwt>
<pdfrwt beam="2">  1       -2 0.44420757E-01 0.50598315E+03</pdfrwt>
<totfact> 0.37313189E+01</totfact>
</mgrwt>
</event>
<event>
12    3  0.1092576E-007  0.1425032E+04  0.7818608E-02  0.8935896E-01
          1   -1    0    0  501    0  0.00000000000E+00  0.00000000000E+00  0.98676255755E+03  0.98676255755E+03  0.00000000000E+00 0. -1.
         -2   -1    0    0    0  501 -0.00000000000E+00 -0.00000000000E+00 -0.20898629568E+04  0.20898629568E+04  0.00000000000E+00 0.  1.
        -24    2    1    2    0    0  0.51751446341E+03  0.12706484320E+04 -0.50353538194E+03  0.14636006306E+04  0.78805251126E+02 0.  0.
    5000000    2    1    2    0    0 -0.51751446341E+03 -0.12706484320E+04 -0.59956501726E+03  0.16130248837E+04  0.60000200653E+03 0.  0.
        -24    2    4    4    0    0  0.99561376563E+02 -0.28548030423E+03 -0.24222175301E+02  0.31354649710E+03  0.79455775525E+02 0.  0.
         24    2    4    4    0    0 -0.61707583997E+03 -0.98516812777E+03 -0.57534284196E+03  0.12994783866E+04  0.79283410027E+02 0.  0.
         11    1    5    5    0    0  0.10600440129E+03 -0.20526166322E+03 -0.63303922528E+01  0.23110464588E+03  0.00000000000E+00 0. -1.
        -12    1    5    5    0    0 -0.64430247267E+01 -0.80218641001E+02 -0.17891783048E+02  0.82441851219E+02  0.00000000000E+00 0.  1.
         15    1    3    3    0    0  0.28999524187E+03  0.80662107426E+03 -0.32850345217E+03  0.91796104142E+03  0.17770000000E+01 0. -1.
        -16    1    3    3    0    0  0.22751922154E+03  0.46402735773E+03 -0.17503192976E+03  0.54563958922E+03  0.00000000000E+00 0.  1.
          4    1    6    6  502    0 -0.25258498464E+03 -0.46926058353E+03 -0.28363725861E+03  0.60370088967E+03  0.00000000000E+00 0. -1.
         -3    1    6    6    0  502 -0.36449085533E+03 -0.51590754424E+03 -0.29170558335E+03  0.69577749689E+03  0.00000000000E+00 0.  1.
<mgrwt>
<rscale>  0 0.14250320E+04</rscale>
<asrwt>0</asrwt>
<pdfrwt beam="1">  1        1 0.15180963E+00 0.14250320E+04</pdfrwt>
<pdfrwt beam="2">  1       -2 0.32151737E+00 0.14250320E+04</pdfrwt>
<totfact> 0.30475386E-01</totfact>
</mgrwt>
</event>
<event>
12    3  0.1092576E-007  0.5953543E+03  0.7818608E-02  0.9915091E-01
         -2   -1    0    0    0  501 -0.00000000000E+00  0.00000000000E+00  0.24666976295E+03  0.24666976295E+03  0.00000000000E+00 0.  1.
          1   -1    0    0  501    0  0.00000000000E+00 -0.00000000000E+00 -0.21726168933E+04  0.21726168933E+04  0.00000000000E+00 0. -1.
        -24    2    1    2    0    0 -0.31078053976E+01 -0.54239757392E+03 -0.12508295777E+04  0.13657214002E+04  0.80096964645E+02 0.  0.
    5000000    2    1    2    0    0  0.31078053976E+01  0.54239757392E+03 -0.67511755261E+03  0.10535652560E+04  0.60000937681E+03 0.  0.
        -24    2    4    4    0    0  0.12227004858E+03  0.64636249236E+02 -0.50023551686E+03  0.52496253518E+03  0.78881439661E+02 0.  0.
         24    2    4    4    0    0 -0.11916224318E+03  0.47776132468E+03 -0.17488203575E+03  0.52860272086E+03  0.79884832827E+02 0.  0.
         13    1    5    5    0    0 -0.15242325679E+01 -0.70028651267E+01 -0.33684605749E+01  0.79189602568E+01  0.00000000000E+00 0. -1.
        -14    1    5    5    0    0  0.12379428115E+03  0.71639114363E+02 -0.49686705629E+03  0.51704357493E+03  0.00000000000E+00 0.  1.
         15    1    3    3    0    0  0.10608155553E+02 -0.34554215140E+03 -0.70232158846E+03  0.78279670586E+03  0.17770000000E+01 0. -1.
        -16    1    3    3    0    0 -0.13715960950E+02 -0.19685542252E+03 -0.54850798925E+03  0.58292469430E+03  0.00000000000E+00 0.  1.
          2    1    6    6  502    0 -0.43599267845E+02  0.67831423318E+02 -0.14236199923E+02  0.81882034258E+02  0.00000000000E+00 0. -1.
         -1    1    6    6    0  502 -0.75562975337E+02  0.40992990136E+03 -0.16064583583E+03  0.44672068661E+03  0.00000000000E+00 0.  1.
<mgrwt>
<rscale>  0 0.59535433E+03</rscale>
<asrwt>0</asrwt>
<pdfrwt beam="1">  1        1 0.33424877E+00 0.59535433E+03</pdfrwt>
<pdfrwt beam="2">  1       -2 0.37949192E-01 0.59535433E+03</pdfrwt>
<totfact> 0.13997549E+01</totfact>
</mgrwt>
</event>
<event>
12    3  0.1092576E-007  0.7470598E+03  0.7818608E-02  0.9639974E-01
          1   -1    0    0  501    0  0.00000000000E+00  0.00000000000E+00  0.16128470329E+04  0.16128470329E+04  0.00000000000E+00 0. -1.
         -2   -1    0    0    0  501 -0.00000000000E+00 -0.00000000000E+00 -0.39418696975E+03  0.39418696975E+03  0.00000000000E+00 0.  1.
        -24    2    1    2    0    0 -0.41546491163E+03  0.53101044107E+03  0.65278307371E+03  0.94189070124E+03  0.80306727287E+02 0.  0.
    5000000    2    1    2    0    0  0.41546491163E+03 -0.53101044107E+03  0.56587698940E+03  0.10651433014E+04  0.59977521122E+03 0.  0.
        -24    2    4    4    0    0  0.23905506195E+03  0.16768267950E+02  0.37812553538E+03  0.45455449051E+03  0.78818569344E+02 0.  0.
         24    2    4    4    0    0  0.17640984967E+03 -0.54777870902E+03  0.18775145402E+03  0.61058881086E+03  0.79913317677E+02 0.  0.
         11    1    5    5    0    0  0.17491888606E+03  0.16607159954E+02  0.20536205919E+03  0.27027021629E+03  0.00000000000E+00 0. -1.
        -12    1    5    5    0    0  0.64136175895E+02  0.16110799640E+00  0.17276347620E+03  0.18428427421E+03  0.00000000000E+00 0.  1.
         15    1    3    3    0    0 -0.81183964053E+02  0.60177117678E+02  0.84811417554E+02  0.13194034936E+03  0.17770000000E+01 0. -1.
        -16    1    3    3    0    0 -0.33428094757E+03  0.47083332339E+03  0.56797165615E+03  0.80995035188E+03  0.00000000000E+00 0.  1.
          2    1    6    6  502    0  0.22993457180E+02 -0.93686275319E+02  0.18288055254E+01  0.96483997564E+02  0.00000000000E+00 0. -1.
         -1    1    6    6    0  502  0.15341639249E+03 -0.45409243370E+03  0.18592264849E+03  0.51410481329E+03  0.00000000000E+00 0.  1.
<mgrwt>
<rscale>  0 0.74705981E+03</rscale>
<asrwt>0</asrwt>
<pdfrwt beam="1">  1        1 0.24813031E+00 0.74705981E+03</pdfrwt>
<pdfrwt beam="2">  1       -2 0.60644150E-01 0.74705981E+03</pdfrwt>
<totfact> 0.12566003E+01</totfact>
</mgrwt>
</event>
<event>
12    3  0.1092576E-007  0.5170470E+03  0.7818608E-02  0.1009423E+00
          1   -1    0    0  501    0  0.00000000000E+00  0.00000000000E+00  0.75955069981E+03  0.75955069981E+03  0.00000000000E+00 0. -1.
         -2   -1    0    0    0  501 -0.00000000000E+00 -0.00000000000E+00 -0.57074440382E+03  0.57074440382E+03  0.00000000000E+00 0.  1.
        -24    2    1    2    0    0  0.39586024113E+03 -0.31269704432E+03  0.19456881592E+03  0.54645536204E+03  0.79193854229E+02 0.  0.
    5000000    2    1    2    0    0 -0.39586024113E+03  0.31269704432E+03 -0.57625199265E+01  0.78383974160E+03  0.59990562744E+03 0.  0.
        -24    2    4    4    0    0 -0.15237495683E+03  0.10149735998E+03  0.28130604617E+03  0.34502078560E+03  0.79915013183E+02 0.  0.
         24    2    4    4    0    0 -0.24348528429E+03  0.21119968434E+03 -0.28706856609E+03  0.43881895600E+03  0.79141166106E+02 0.  0.
         13    1    5    5    0    0 -0.95901174748E+02  0.19340517163E+02  0.11360237051E+03  0.14992194472E+03  0.00000000000E+00 0. -1.
        -14    1    5    5    0    0 -0.56473782086E+02  0.82156842819E+02  0.16770367565E+03  0.19509884088E+03  0.00000000000E+00 0.  1.
         15    1    3    3    0    0  0.19584154605E+03 -0.14409282820E+03  0.13518548954E+03  0.27819944035E+03  0.17770000000E+01 0. -1.
        -16    1    3    3    0    0  0.20001869508E+03 -0.16860421612E+03  0.59383326374E+02  0.26825592170E+03  0.00000000000E+00 0.  1.
          2    1    6    6  502    0 -0.97346150876E+02  0.13661455714E+03 -0.14052341675E+03  0.21883016467E+03  0.00000000000E+00 0. -1.
         -1    1    6    6    0  502 -0.14613913342E+03  0.74585127194E+02 -0.14654514934E+03  0.21998879133E+03  0.00000000000E+00 0.  1.
<mgrwt>
<rscale>  0 0.51704702E+03</rscale>
<asrwt>0</asrwt>
<pdfrwt beam="1">  1        1 0.11685395E+00 0.51704702E+03</pdfrwt>
<pdfrwt beam="2">  1       -2 0.87806831E-01 0.51704702E+03</pdfrwt>
<totfact> 0.24638766E+01</totfact>
</mgrwt>
</event>
<event>
12    3  0.1092576E-007  0.1125567E+04  0.7818608E-02  0.9180624E-01
          1   -1    0    0  501    0  0.00000000000E+00  0.00000000000E+00  0.34826534874E+04  0.34826534874E+04  0.00000000000E+00 0. -1.
         -2   -1    0    0    0  501 -0.00000000000E+00 -0.00000000000E+00 -0.37780180068E+03  0.37780180068E+03  0.00000000000E+00 0.  1.
        -24    2    1    2    0    0  0.73536078633E+03  0.76905982228E+03  0.15845241525E+04  0.19103497612E+04  0.80690296690E+02 0.  0.
    5000000    2    1    2    0    0 -0.73536078633E+03 -0.76905982228E+03  0.15203275342E+04  0.19501055269E+04  0.59942243729E+03 0.  0.
        -24    2    4    4    0    0 -0.44911659487E+03 -0.77336518757E+03  0.13043565204E+04  0.15835851155E+04  0.81218573260E+02 0.  0.
         24    2    4    4    0    0 -0.28624419146E+03  0.43053652906E+01  0.21597101385E+03  0.36652041139E+03  0.75759222688E+02 0.  0.
         13    1    5    5    0    0 -0.34723038926E+03 -0.59204169809E+03  0.93780179547E+03  0.11621336081E+04  0.00000000000E+00 0. -1.
        -14    1    5    5    0    0 -0.10188620561E+03 -0.18132348948E+03  0.36655472492E+03  0.42145150740E+03  0.00000000000E+00 0.  1.
         15    1    3    3    0    0  0.46294661988E+03  0.45747708214E+03  0.10299800592E+04  0.12183870213E+04  0.17770000000E+01 0. -1.
        -16    1    3    3    0    0  0.27241416646E+03  0.31158274014E+03  0.55454409325E+03  0.69196273989E+03  0.00000000000E+00 0.  1.
          2    1    6    6  502    0 -0.25375290566E+03 -0.15131432254E+02  0.16512562155E+03  0.30312698373E+03  0.00000000000E+00 0. -1.
         -1    1    6    6    0  502 -0.32491285807E+02  0.19436797545E+02  0.50845392301E+02  0.63393427660E+02  0.00000000000E+00 0.  1.
<mgrwt>
<rscale>  0 0.11255675E+04</rscale>
<asrwt>0</asrwt>
<pdfrwt beam="1">  1        1 0.53579282E+00 0.11255675E+04</pdfrwt>
<pdfrwt beam="2">  1       -2 0.58123356E-01 0.11255675E+04</pdfrwt>
<totfact> 0.63767148E-01</totfact>
</mgrwt>
</event>
<event>
12    3  0.1092576E-007  0.4340136E+03  0.7818608E-02  0.1032600E+00
          1   -1    0    0  501    0  0.00000000000E+00  0.00000000000E+00  0.42895675409E+03  0.42895675409E+03  0.00000000000E+00 0. -1.
         -2   -1    0    0    0  501 -0.00000000000E+00 -0.00000000000E+00 -0.56436133192E+03  0.56436133192E+03  0.00000000000E+00 0.  1.
        -24    2    1    2    0    0 -0.28494196470E+03  0.10216720014E+03 -0.53786972926E+02  0.31639185018E+03  0.74704112123E+02 0.  0.
    5000000    2    1    2    0    0  0.28494196470E+03 -0.10216720014E+03 -0.81617604907E+02  0.67692623584E+03  0.59994802717E+03 0.  0.
        -24    2    4    4    0    0  0.35687029191E+03 -0.20244599557E+03  0.11316463785E+03  0.43318251767E+03  0.80623023933E+02 0.  0.
         24    2    4    4    0    0 -0.71928327210E+02  0.10027879542E+03 -0.19478224276E+03  0.24374371817E+03  0.79002259368E+02 0.  0.
         11    1    5    5    0    0  0.20651076085E+03 -0.16105354728E+03  0.78836413546E+02  0.27349610516E+03  0.00000000000E+00 0. -1.
        -12    1    5    5    0    0  0.15035953107E+03 -0.41392448284E+02  0.34328224305E+02  0.15968641251E+03  0.00000000000E+00 0.  1.
         15    1    3    3    0    0 -0.68656394329E+02  0.40815172575E+02 -0.44346723624E+02  0.91374878494E+02  0.17770000000E+01 0. -1.
        -16    1    3    3    0    0 -0.21628557037E+03  0.61352027568E+02 -0.94402493026E+01  0.22501697168E+03  0.00000000000E+00 0.  1.
          2    1    6    6  502    0 -0.70749007468E+02  0.32792188019E+02 -0.11885767943E+03  0.14215448503E+03  0.00000000000E+00 0. -1.
         -1    1    6    6    0  502 -0.11793197417E+01  0.67486607404E+02 -0.75924563324E+02  0.10158923314E+03  0.00000000000E+00 0.  1.
<mgrwt>
<rscale>  0 0.43401359E+03</rscale>
<asrwt>0</asrwt>
<pdfrwt beam="1">  1        1 0.65993347E-01 0.43401359E+03</pdfrwt>
<pdfrwt beam="2">  1       -2 0.86824820E-01 0.43401359E+03</pdfrwt>
<totfact> 0.57150213E+01</totfact>
</mgrwt>
</event>
<event>
12    3  0.1092576E-007  0.7734034E+03  0.7818608E-02  0.9599333E-01
         -2   -1    0    0    0  501 -0.00000000000E+00  0.00000000000E+00  0.28048463237E+03  0.28048463237E+03  0.00000000000E+00 0.  1.
          1   -1    0    0  501    0  0.00000000000E+00 -0.00000000000E+00 -0.30315715918E+04  0.30315715918E+04  0.00000000000E+00 0. -1.
        -24    2    1    2    0    0  0.38490388065E+03 -0.64500272561E+03 -0.18346870718E+04  0.19839276042E+04  0.75581569801E+02 0.  0.
    5000000    2    1    2    0    0 -0.38490388065E+03  0.64500272561E+03 -0.91639988756E+03  0.13281286199E+04  0.59996446879E+03 0.  0.
        -24    2    4    4    0    0 -0.37917102249E+03  0.43021726785E+03 -0.26070029547E+03  0.63358751626E+03  0.67903864768E+02 0.  0.
         24    2    4    4    0    0 -0.57328581521E+01  0.21478545776E+03 -0.65569959209E+03  0.69454110368E+03  0.79244754449E+02 0.  0.
         11    1    5    5    0    0 -0.25233267023E+03  0.33004856292E+03 -0.19805054535E+03  0.46024759517E+03  0.00000000000E+00 0. -1.
        -12    1    5    5    0    0 -0.12683835227E+03  0.10016870493E+03 -0.62649750125E+02  0.17333992109E+03  0.00000000000E+00 0.  1.
         15    1    3    3    0    0  0.19124500173E+03 -0.38779681913E+03 -0.10137226642E+04  0.11020879372E+04  0.17770000000E+01 0. -1.
        -16    1    3    3    0    0  0.19365887892E+03 -0.25720590648E+03 -0.82096440761E+03  0.88183966699E+03  0.00000000000E+00 0.  1.
          2    1    6    6  502    0 -0.58547026482E+01  0.28814583305E+02 -0.20319702762E+03  0.20531339408E+03  0.00000000000E+00 0. -1.
         -1    1    6    6    0  502  0.12184449608E+00  0.18597087446E+03 -0.45250256447E+03  0.48922770960E+03  0.00000000000E+00 0.  1.
<mgrwt>
<rscale>  0 0.77340341E+03</rscale>
<asrwt>0</asrwt>
<pdfrwt beam="1">  1        1 0.46639563E+00 0.77340341E+03</pdfrwt>
<pdfrwt beam="2">  1       -2 0.43151482E-01 0.77340341E+03</pdfrwt>
<totfact> 0.26982147E+00</totfact>
</mgrwt>
</event>
<event>
12    3  0.1092576E-007  0.9405866E+03  0.7818608E-02  0.9376222E-01
         -2   -1    0    0    0  501 -0.00000000000E+00  0.00000000000E+00  0.22001101106E+04  0.22001101106E+04  0.00000000000E+00 0.  1.
          1   -1    0    0  501    0  0.00000000000E+00 -0.00000000000E+00 -0.74249561732E+03  0.74249561732E+03  0.00000000000E+00 0. -1.
        -24    2    1    2    0    0 -0.74781457219E+03  0.55341208690E+03  0.15733561559E+04  0.18296094359E+04  0.80805460197E+02 0.  0.
    5000000    2    1    2    0    0  0.74781457219E+03 -0.55341208690E+03 -0.11574166265E+03  0.11129962920E+04  0.59989419164E+03 0.  0.
        -24    2    4    4    0    0  0.45767618545E+03 -0.26130116316E+03  0.21978804563E+03  0.57616442321E+03  0.76895181746E+02 0.  0.
         24    2    4    4    0    0  0.29013838674E+03 -0.29211092374E+03 -0.33552970828E+03  0.53683186876E+03  0.78097342802E+02 0.  0.
         13    1    5    5    0    0  0.21073752948E+03 -0.81703755918E+02  0.74199187065E+02  0.23788932180E+03  0.00000000000E+00 0. -1.
        -14    1    5    5    0    0  0.24693865597E+03 -0.17959740724E+03  0.14558885856E+03  0.33827510142E+03  0.00000000000E+00 0.  1.
         15    1    3    3    0    0 -0.32811128433E+03  0.26357182037E+03  0.64012543151E+03  0.76608801399E+03  0.17770000000E+01 0. -1.
        -16    1    3    3    0    0 -0.41970328786E+03  0.28984026653E+03  0.93323072439E+03  0.10635214219E+04  0.00000000000E+00 0.  1.
          2    1    6    6  502    0  0.82138266272E+02 -0.38009587824E+02 -0.66229795471E+02  0.11215083308E+03  0.00000000000E+00 0. -1.
         -1    1    6    6    0  502  0.20800012047E+03 -0.25410133591E+03 -0.26929991281E+03  0.42468103568E+03  0.00000000000E+00 0.  1.
<mgrwt>
<rscale>  0 0.94058660E+03</rscale>
<asrwt>0</asrwt>
<pdfrwt beam="1">  1        1 0.11423010E+00 0.94058660E+03</pdfrwt>
<pdfrwt beam="2">  1       -2 0.33847848E+00 0.94058660E+03</pdfrwt>
<totfact> 0.41037649E-01</totfact>
</mgrwt>
</event>
<event>
12    3  0.1092576E-007  0.3413314E+03  0.7818608E-02  0.1066230E+00
         -4   -1    0    0    0  501 -0.00000000000E+00  0.00000000000E+00  0.12466905116E+04  0.12466905116E+04  0.00000000000E+00 0.  1.
          3   -1    0    0  501    0  0.00000000000E+00 -0.00000000000E+00 -0.31061379729E+03  0.31061379729E+03  0.00000000000E+00 0. -1.
        -24    2    1    2    0    0 -0.23036935521E+03 -0.20632016321E+03  0.80919713549E+03  0.87042319160E+03  0.84843849708E+02 0.  0.
    5000000    2    1    2    0    0  0.23036935521E+03  0.20632016321E+03  0.12687957883E+03  0.68688111729E+03  0.60005765740E+03 0.  0.
        -24    2    4    4    0    0  0.80672511678E+00  0.83345713880E+02  0.32860019821E+03  0.34824581330E+03  0.79686243388E+02 0.  0.
         24    2    4    4    0    0  0.22956263009E+03  0.12297444933E+03 -0.20172061939E+03  0.33863530399E+03  0.78491684290E+02 0.  0.
         11    1    5    5    0    0  0.24775370088E+02  0.17990298903E+02  0.19703249978E+03  0.19939728129E+03  0.00000000000E+00 0. -1.
        -12    1    5    5    0    0 -0.23968644972E+02  0.65355414977E+02  0.13156769844E+03  0.14884853201E+03  0.00000000000E+00 0.  1.
         15    1    3    3    0    0 -0.18569891662E+03 -0.17980077800E+03  0.57337828694E+03  0.62895009744E+03  0.17770000000E+01 0. -1.
        -16    1    3    3    0    0 -0.44670438585E+02 -0.26519385210E+02  0.23581884854E+03  0.24147309416E+03  0.00000000000E+00 0.  1.
          2    1    6    6  502    0  0.20484113473E+03  0.75207005475E+02 -0.16222473829E+03  0.27190595776E+03  0.00000000000E+00 0. -1.
         -1    1    6    6    0  502  0.24721495356E+02  0.47767443857E+02 -0.39495881096E+02  0.66729346234E+02  0.00000000000E+00 0.  1.
<mgrwt>
<rscale>  0 0.34133141E+03</rscale>
<asrwt>0</asrwt>
<pdfrwt beam="1">  1        3 0.47786739E-01 0.34133141E+03</pdfrwt>
<pdfrwt beam="2">  1       -4 0.19179854E+00 0.34133141E+03</pdfrwt>
<totfact> 0.14922451E+00</totfact>
</mgrwt>
</event>
<event>
12    3  0.1092576E-007  0.9752064E+03  0.7818608E-02  0.9336164E-01
         -2   -1    0    0    0  501 -0.00000000000E+00  0.00000000000E+00  0.37821374374E+03  0.37821374374E+03  0.00000000000E+00 0.  1.
          1   -1    0    0  501    0  0.00000000000E+00 -0.00000000000E+00 -0.26721875008E+04  0.26721875008E+04  0.00000000000E+00 0. -1.
        -24    2    1    2    0    0 -0.51235864123E+03 -0.74910919410E+03 -0.12125846936E+04  0.15164022491E+04  0.73744016295E+02 0.  0.
    5000000    2    1    2    0    0  0.51235864123E+03  0.74910919410E+03 -0.10813890635E+04  0.15339989955E+04  0.60006220476E+03 0.  0.
        -24    2    4    4    0    0 -0.10144375799E+03  0.14476463376E+03 -0.77487349958E+02  0.20882152262E+03  0.79715140858E+02 0.  0.
         24    2    4    4    0    0  0.61380239922E+03  0.60434456034E+03 -0.10039017135E+04  0.13251774729E+04  0.79315517164E+02 0.  0.
         11    1    5    5    0    0 -0.34518513966E+01  0.85705503945E+01 -0.34364857355E+02  0.35585292372E+02  0.00000000000E+00 0. -1.
        -12    1    5    5    0    0 -0.97991906593E+02  0.13619408337E+03 -0.43122492603E+02  0.17323623025E+03  0.00000000000E+00 0.  1.
         15    1    3    3    0    0 -0.33795221316E+03 -0.43209363397E+03 -0.74501840306E+03  0.92518764881E+03  0.17770000000E+01 0. -1.
        -16    1    3    3    0    0 -0.17440642807E+03 -0.31701556013E+03 -0.46756629053E+03  0.59121460025E+03  0.00000000000E+00 0.  1.
          2    1    6    6  502    0  0.44064101960E+02  0.64585065801E+02 -0.11900835804E+03  0.14239334637E+03  0.00000000000E+00 0. -1.
         -1    1    6    6    0  502  0.56973829726E+03  0.53975949453E+03 -0.88489335550E+03  0.11827841265E+04  0.00000000000E+00 0.  1.
<mgrwt>
<rscale>  0 0.97520643E+03</rscale>
<asrwt>0</asrwt>
<pdfrwt beam="1">  1        1 0.41110576E+00 0.97520643E+03</pdfrwt>
<pdfrwt beam="2">  1       -2 0.58186731E-01 0.97520643E+03</pdfrwt>
<totfact> 0.25479183E+00</totfact>
</mgrwt>
</event>
<event>
12    3  0.1092576E-007  0.5687018E+03  0.7818608E-02  0.9972555E-01
         -2   -1    0    0    0  501 -0.00000000000E+00  0.00000000000E+00  0.27888850828E+03  0.27888850828E+03  0.00000000000E+00 0.  1.
          1   -1    0    0  501    0  0.00000000000E+00 -0.00000000000E+00 -0.14038617308E+04  0.14038617308E+04  0.00000000000E+00 0. -1.
        -24    2    1    2    0    0  0.38700367969E+03 -0.27827026868E+03 -0.47680108394E+03  0.67910551144E+03  0.81479024850E+02 0.  0.
    5000000    2    1    2    0    0 -0.38700367969E+03  0.27827026868E+03 -0.64817213861E+03  0.10036447277E+04  0.59997452245E+03 0.  0.
        -24    2    4    4    0    0 -0.17896499992E+03  0.38370864912E+03 -0.62055478458E+03  0.75551377787E+03  0.80324524780E+02 0.  0.
         24    2    4    4    0    0 -0.20803867977E+03 -0.10543838044E+03 -0.27617354034E+02  0.24813094980E+03  0.80055640994E+02 0.  0.
         11    1    5    5    0    0 -0.15359034885E+03  0.28170887552E+03 -0.51337868461E+03  0.60539867825E+03  0.00000000000E+00 0. -1.
        -12    1    5    5    0    0 -0.25374651067E+02  0.10199977360E+03 -0.10717609997E+03  0.15011509963E+03  0.00000000000E+00 0.  1.
         15    1    3    3    0    0  0.11081433194E+03 -0.85504737037E+02 -0.90937672216E+02  0.16692421686E+03  0.17770000000E+01 0. -1.
        -16    1    3    3    0    0  0.27618934775E+03 -0.19276553164E+03 -0.38586341173E+03  0.51218129458E+03  0.00000000000E+00 0.  1.
          2    1    6    6  502    0 -0.11645498491E+03 -0.73244377587E+02 -0.53584130343E+02  0.14764064950E+03  0.00000000000E+00 0. -1.
         -1    1    6    6    0  502 -0.91583694859E+02 -0.32194002856E+02  0.25966776309E+02  0.10049030031E+03  0.00000000000E+00 0.  1.
<mgrwt>
<rscale>  0 0.56870183E+03</rscale>
<asrwt>0</asrwt>
<pdfrwt beam="1">  1        1 0.21597873E+00 0.56870183E+03</pdfrwt>
<pdfrwt beam="2">  1       -2 0.42905923E-01 0.56870183E+03</pdfrwt>
<totfact> 0.36224562E+01</totfact>
</mgrwt>
</event>
<event>
12    3  0.1092576E-007  0.7073975E+03  0.7818608E-02  0.9704664E-01
         -2   -1    0    0    0  501 -0.00000000000E+00  0.00000000000E+00  0.83786363714E+03  0.83786363714E+03  0.00000000000E+00 0.  1.
          1   -1    0    0  501    0  0.00000000000E+00 -0.00000000000E+00 -0.18308457892E+04  0.18308457892E+04  0.00000000000E+00 0. -1.
        -24    2    1    2    0    0 -0.37757508662E+03  0.52832195781E+03  0.57330751079E+03  0.87000035597E+03  0.80821286365E+02 0.  0.
    5000000    2    1    2    0    0  0.37757508662E+03 -0.52832195781E+03 -0.15662896628E+04  0.17987090704E+04  0.60033655124E+03 0.  0.
        -24    2    4    4    0    0  0.42756181357E+03 -0.55507437785E+03 -0.15434096914E+04  0.16969007716E+04  0.80262592895E+02 0.  0.
         24    2    4    4    0    0 -0.49986726945E+02  0.26752420044E+02 -0.22879971384E+02  0.10180829870E+03  0.81406828618E+02 0.  0.
         13    1    5    5    0    0  0.11290960694E+03 -0.19296755837E+03 -0.43348945262E+03  0.48774805326E+03  0.00000000000E+00 0. -1.
        -14    1    5    5    0    0  0.31465220662E+03 -0.36210681948E+03 -0.11099202388E+04  0.12091527184E+04  0.00000000000E+00 0.  1.
         15    1    3    3    0    0 -0.16379562699E+03  0.29740941986E+03  0.30746955957E+03  0.45806337796E+03  0.17770000000E+01 0. -1.
        -16    1    3    3    0    0 -0.21377945964E+03  0.23091253795E+03  0.26583795122E+03  0.41193697801E+03  0.00000000000E+00 0.  1.
          4    1    6    6  502    0 -0.17807543911E+02  0.14103607972E+02  0.30608887597E+02  0.38117245151E+02  0.00000000000E+00 0. -1.
         -3    1    6    6    0  502 -0.32179183034E+02  0.12648812073E+02 -0.53488858982E+02  0.63691053554E+02  0.00000000000E+00 0.  1.
<mgrwt>
<rscale>  0 0.70739752E+03</rscale>
<asrwt>0</asrwt>
<pdfrwt beam="1">  1        1 0.28166858E+00 0.70739752E+03</pdfrwt>
<pdfrwt beam="2">  1       -2 0.12890210E+00 0.70739752E+03</pdfrwt>
<totfact> 0.15866634E+00</totfact>
</mgrwt>
</event>
<event>
12    3  0.1092576E-007  0.7000973E+03  0.7818608E-02  0.9717066E-01
          1   -1    0    0  501    0  0.00000000000E+00  0.00000000000E+00  0.30617311526E+04  0.30617311526E+04  0.00000000000E+00 0. -1.
         -2   -1    0    0    0  501 -0.00000000000E+00 -0.00000000000E+00 -0.17676497441E+03  0.17676497441E+03  0.00000000000E+00 0.  1.
        -24    2    1    2    0    0 -0.46256276958E+03 -0.36134538399E+03  0.83990630638E+03  0.10278975263E+04  0.81215261633E+02 0.  0.
    5000000    2    1    2    0    0  0.46256276958E+03  0.36134538399E+03  0.20450598719E+04  0.22105986008E+04  0.59995124126E+03 0.  0.
        -24    2    4    4    0    0 -0.28128681273E+02 -0.11305924565E+03  0.51084535146E+03  0.52991874849E+03  0.79229357920E+02 0.  0.
         24    2    4    4    0    0  0.49069145086E+03  0.47440462964E+03  0.15342145204E+04  0.16806798523E+04  0.70941656837E+02 0.  0.
         13    1    5    5    0    0 -0.91693140094E+01 -0.10585256941E+03  0.48771931681E+03  0.49915826624E+03  0.00000000000E+00 0. -1.
        -14    1    5    5    0    0 -0.18959367263E+02 -0.72066762389E+01  0.23126034654E+02  0.30760482250E+02  0.00000000000E+00 0.  1.
         15    1    3    3    0    0 -0.39149831579E+03 -0.27367026398E+03  0.64408916568E+03  0.80188550039E+03  0.17770000000E+01 0. -1.
        -16    1    3    3    0    0 -0.71064453793E+02 -0.87675120012E+02  0.19581714070E+03  0.22601202590E+03  0.00000000000E+00 0.  1.
          4    1    6    6  502    0  0.36768744632E+03  0.33767900429E+03  0.11885026945E+04  0.12890926355E+04  0.00000000000E+00 0. -1.
         -3    1    6    6    0  502  0.12300400454E+03  0.13672562535E+03  0.34571182588E+03  0.39158721674E+03  0.00000000000E+00 0.  1.
<mgrwt>
<rscale>  0 0.70009734E+03</rscale>
<asrwt>0</asrwt>
<pdfrwt beam="1">  1        1 0.47103552E+00 0.70009734E+03</pdfrwt>
<pdfrwt beam="2">  1       -2 0.27194614E-01 0.70009734E+03</pdfrwt>
<totfact> 0.62511489E+00</totfact>
</mgrwt>
</event>
<event>
12    3  0.1092576E-007  0.1706408E+04  0.7818608E-02  0.8757718E-01
         -2   -1    0    0    0  501 -0.00000000000E+00  0.00000000000E+00  0.22916682142E+04  0.22916682142E+04  0.00000000000E+00 0.  1.
          1   -1    0    0  501    0  0.00000000000E+00 -0.00000000000E+00 -0.13140616491E+04  0.13140616491E+04  0.00000000000E+00 0. -1.
        -24    2    1    2    0    0 -0.16615634365E+04 -0.26044354688E+03  0.43224738239E+03  0.17386464614E+04  0.86196424953E+02 0.  0.
    5000000    2    1    2    0    0  0.16615634365E+04  0.26044354688E+03  0.54535918271E+03  0.18670834018E+04  0.59996657946E+03 0.  0.
        -24    2    4    4    0    0  0.10117222449E+04 -0.35872241541E+02  0.53580429869E+03  0.11483919496E+04  0.82759318742E+02 0.  0.
         24    2    4    4    0    0  0.64984119155E+03  0.29631578842E+03  0.95548840212E+01  0.71869145217E+03  0.79558072556E+02 0.  0.
         11    1    5    5    0    0  0.31198908004E+03 -0.48410819487E+02  0.17624322474E+03  0.36158327917E+03  0.00000000000E+00 0. -1.
        -12    1    5    5    0    0  0.69973316491E+03  0.12538577946E+02  0.35956107395E+03  0.78680867046E+03  0.00000000000E+00 0.  1.
         15    1    3    3    0    0 -0.57334576153E+03 -0.69045309825E+02  0.18500068181E+03  0.60640005530E+03  0.17770000000E+01 0. -1.
        -16    1    3    3    0    0 -0.10882176750E+04 -0.19139823705E+03  0.24724670058E+03  0.11322464061E+04  0.00000000000E+00 0.  1.
          4    1    6    6  502    0  0.11844044015E+02  0.10154165091E+02 -0.11108580744E+02  0.19151736565E+02  0.00000000000E+00 0. -1.
         -3    1    6    6    0  502  0.63799714753E+03  0.28616162333E+03  0.20663464766E+02  0.69953971560E+03  0.00000000000E+00 0.  1.
<mgrwt>
<rscale>  0 0.17064079E+04</rscale>
<asrwt>0</asrwt>
<pdfrwt beam="1">  1        1 0.20216333E+00 0.17064079E+04</pdfrwt>
<pdfrwt beam="2">  1       -2 0.35256434E+00 0.17064079E+04</pdfrwt>
<totfact> 0.10740815E-01</totfact>
</mgrwt>
</event>
<event>
12    3  0.1092576E-007  0.5358991E+03  0.7818608E-02  0.1004811E+00
         -2   -1    0    0    0  501 -0.00000000000E+00  0.00000000000E+00  0.13927502387E+04  0.13927502387E+04  0.00000000000E+00 0.  1.
          1   -1    0    0  501    0  0.00000000000E+00 -0.00000000000E+00 -0.40528058880E+03  0.40528058880E+03  0.00000000000E+00 0. -1.
        -24    2    1    2    0    0 -0.26900390092E+03 -0.44637687534E+03 -0.41569283251E+01  0.52723114053E+03  0.79624003594E+02 0.  0.
    5000000    2    1    2    0    0  0.26900390092E+03  0.44637687534E+03  0.99162657823E+03  0.12707996870E+04  0.59999430013E+03 0.  0.
        -24    2    4    4    0    0  0.38281561191E+02  0.76948795121E+02  0.76329004902E+03  0.77250648863E+03  0.82267740061E+02 0.  0.
         24    2    4    4    0    0  0.23072233973E+03  0.36942808022E+03  0.22833652922E+03  0.49829319833E+03  0.80303402325E+02 0.  0.
         11    1    5    5    0    0  0.55175785805E+02  0.67528327676E+02  0.43542644635E+03  0.44407277845E+03  0.00000000000E+00 0. -1.
        -12    1    5    5    0    0 -0.16894224614E+02  0.94204674455E+01  0.32786360266E+03  0.32843371018E+03  0.00000000000E+00 0.  1.
         15    1    3    3    0    0 -0.10248046982E+03 -0.24237970278E+03  0.11697418686E+02  0.26342010999E+03  0.17770000000E+01 0. -1.
        -16    1    3    3    0    0 -0.16652343110E+03 -0.20399717256E+03 -0.15854347012E+02  0.26381103054E+03  0.00000000000E+00 0.  1.
          4    1    6    6  502    0  0.16746416629E+02  0.75922248759E+01  0.25784351804E+02  0.31668867148E+02  0.00000000000E+00 0. -1.
         -3    1    6    6    0  502  0.21397592310E+03  0.36183585534E+03  0.20255217741E+03  0.46662433118E+03  0.00000000000E+00 0.  1.
<mgrwt>
<rscale>  0 0.53589907E+03</rscale>
<asrwt>0</asrwt>
<pdfrwt beam="1">  1        1 0.62350861E-01 0.53589907E+03</pdfrwt>
<pdfrwt beam="2">  1       -2 0.21426926E+00 0.53589907E+03</pdfrwt>
<totfact> 0.58590547E+00</totfact>
</mgrwt>
</event>
<event>
12    3  0.1092576E-007  0.4549567E+03  0.7818608E-02  0.1026254E+00
          1   -1    0    0  501    0  0.00000000000E+00  0.00000000000E+00  0.10564874673E+04  0.10564874673E+04  0.00000000000E+00 0. -1.
         -2   -1    0    0    0  501 -0.00000000000E+00 -0.00000000000E+00 -0.41164294787E+03  0.41164294787E+03  0.00000000000E+00 0.  1.
        -24    2    1    2    0    0  0.11751160812E+03 -0.28198924132E+03 -0.21073613022E+03  0.37927752853E+03  0.78197294146E+02 0.  0.
    5000000    2    1    2    0    0 -0.11751160812E+03  0.28198924132E+03  0.85558064966E+03  0.10888528866E+04  0.60021283761E+03 0.  0.
        -24    2    4    4    0    0 -0.29184464079E+03  0.30137548802E+03  0.76142920754E+03  0.87299292290E+03  0.79634955975E+02 0.  0.
         24    2    4    4    0    0  0.17433303267E+03 -0.19386246700E+02  0.94151442120E+02  0.21585996374E+03  0.83445773130E+02 0.  0.
         11    1    5    5    0    0 -0.11589033585E+03  0.71822802661E+02  0.27834181031E+03  0.30994071738E+03  0.00000000000E+00 0. -1.
        -12    1    5    5    0    0 -0.17595430494E+03  0.22955268535E+03  0.48308739723E+03  0.56305220552E+03  0.00000000000E+00 0.  1.
         15    1    3    3    0    0  0.89698566596E+02 -0.18143298276E+03 -0.95415586598E+02  0.22376561840E+03  0.17770000000E+01 0. -1.
        -16    1    3    3    0    0  0.27813041521E+02 -0.10055625856E+03 -0.11532054362E+03  0.15551191013E+03  0.00000000000E+00 0.  1.
          4    1    6    6  502    0  0.57562414798E+02 -0.19685303195E+02  0.76534638518E+02  0.97767549076E+02  0.00000000000E+00 0. -1.
         -3    1    6    6    0  502  0.11677061787E+03  0.29905649542E+00  0.17616803602E+02  0.11809241467E+03  0.00000000000E+00 0.  1.
<mgrwt>
<rscale>  0 0.45495673E+03</rscale>
<asrwt>0</asrwt>
<pdfrwt beam="1">  1        1 0.16253653E+00 0.45495673E+03</pdfrwt>
<pdfrwt beam="2">  1       -2 0.63329685E-01 0.45495673E+03</pdfrwt>
<totfact> 0.29440713E+01</totfact>
</mgrwt>
</event>
<event>
12    3  0.1092576E-007  0.5441907E+03  0.7818608E-02  0.1002848E+00
         -2   -1    0    0    0  501 -0.00000000000E+00  0.00000000000E+00  0.21493952437E+03  0.21493952437E+03  0.00000000000E+00 0.  1.
          1   -1    0    0  501    0  0.00000000000E+00 -0.00000000000E+00 -0.17058590876E+04  0.17058590876E+04  0.00000000000E+00 0. -1.
        -24    2    1    2    0    0 -0.36888616518E+03 -0.23682555482E+03 -0.74293977617E+03  0.86645682124E+03  0.81391435476E+02 0.  0.
    5000000    2    1    2    0    0  0.36888616518E+03  0.23682555482E+03 -0.74797978703E+03  0.10543417907E+04  0.59999958629E+03 0.  0.
        -24    2    4    4    0    0 -0.69929559775E+02  0.18106420491E+03 -0.49699075020E+03  0.53953675792E+03  0.80160574662E+02 0.  0.
         24    2    4    4    0    0  0.43881572496E+03  0.55761349910E+02 -0.25098903683E+03  0.51480503279E+03  0.79750589735E+02 0.  0.
         13    1    5    5    0    0 -0.22193071952E+02  0.14440525839E+03 -0.39443272489E+03  0.42062166559E+03  0.00000000000E+00 0. -1.
        -14    1    5    5    0    0 -0.47736487822E+02  0.36658946522E+02 -0.10255802531E+03  0.11891509233E+03  0.00000000000E+00 0.  1.
         15    1    3    3    0    0 -0.22232598161E+02 -0.23189729516E+02 -0.23743387108E+02  0.39986974584E+02  0.17770000000E+01 0. -1.
        -16    1    3    3    0    0 -0.34665356702E+03 -0.21363582531E+03 -0.71919638906E+03  0.82646984665E+03  0.00000000000E+00 0.  1.
          2    1    6    6  502    0  0.75600124493E+02  0.26830640937E+01 -0.11503860942E+02  0.76517425942E+02  0.00000000000E+00 0. -1.
         -1    1    6    6    0  502  0.36321560046E+03  0.53078285816E+02 -0.23948517589E+03  0.43828760685E+03  0.00000000000E+00 0.  1.
<mgrwt>
<rscale>  0 0.54419070E+03</rscale>
<asrwt>0</asrwt>
<pdfrwt beam="1">  1        1 0.26243985E+00 0.54419070E+03</pdfrwt>
<pdfrwt beam="2">  1       -2 0.33067621E-01 0.54419070E+03</pdfrwt>
<totfact> 0.37475495E+01</totfact>
</mgrwt>
</event>
<event>
12    3  0.1092576E-007  0.8808870E+03  0.7818608E-02  0.9449794E-01
         -2   -1    0    0    0  501 -0.00000000000E+00  0.00000000000E+00  0.44708258476E+03  0.44708258476E+03  0.00000000000E+00 0.  1.
          1   -1    0    0  501    0  0.00000000000E+00 -0.00000000000E+00 -0.21008708696E+04  0.21008708696E+04  0.00000000000E+00 0. -1.
        -24    2    1    2    0    0  0.80269109527E+03  0.34650191865E+03 -0.76646277277E+03  0.11654556184E+04  0.80281021694E+02 0.  0.
    5000000    2    1    2    0    0 -0.80269109527E+03 -0.34650191865E+03 -0.88732551211E+03  0.13824978360E+04  0.59964750309E+03 0.  0.
        -24    2    4    4    0    0 -0.44228932399E+03 -0.14340687230E+03 -0.83378772895E+03  0.95793698633E+03  0.79094346775E+02 0.  0.
         24    2    4    4    0    0 -0.36040177127E+03 -0.20309504635E+03 -0.53537783154E+02  0.42456084963E+03  0.79047999497E+02 0.  0.
         11    1    5    5    0    0 -0.27528790225E+03 -0.55990635000E+02 -0.45273477011E+03  0.53281061589E+03  0.00000000000E+00 0. -1.
        -12    1    5    5    0    0 -0.16700142174E+03 -0.87416237298E+02 -0.38105295884E+03  0.42512637045E+03  0.00000000000E+00 0.  1.
         15    1    3    3    0    0  0.40953866390E+03  0.16992406009E+03 -0.33603361835E+03  0.55634328774E+03  0.17770000000E+01 0. -1.
        -16    1    3    3    0    0  0.39315243137E+03  0.17657785855E+03 -0.43042915442E+03  0.60911233069E+03  0.00000000000E+00 0.  1.
          2    1    6    6  502    0 -0.87640640219E+01 -0.19303217619E+02  0.87396586733E+01  0.22930430924E+02  0.00000000000E+00 0. -1.
         -1    1    6    6    0  502 -0.35163770725E+03 -0.18379182873E+03 -0.62277441827E+02  0.40163041871E+03  0.00000000000E+00 0.  1.
<mgrwt>
<rscale>  0 0.88088700E+03</rscale>
<asrwt>0</asrwt>
<pdfrwt beam="1">  1        1 0.32321090E+00 0.88088700E+03</pdfrwt>
<pdfrwt beam="2">  1       -2 0.68781937E-01 0.88088700E+03</pdfrwt>
<totfact> 0.44249571E+00</totfact>
</mgrwt>
</event>
<event>
12    3  0.1092576E-007  0.1262435E+04  0.7818608E-02  0.9059897E-01
          1   -1    0    0  501    0  0.00000000000E+00  0.00000000000E+00  0.16670261095E+04  0.16670261095E+04  0.00000000000E+00 0. -1.
         -2   -1    0    0    0  501 -0.00000000000E+00 -0.00000000000E+00 -0.18127516529E+04  0.18127516529E+04  0.00000000000E+00 0.  1.
        -24    2    1    2    0    0 -0.42280391432E+03 -0.11594123967E+04  0.10784441687E+04  0.16408724042E+04  0.80125940608E+02 0.  0.
    5000000    2    1    2    0    0  0.42280391432E+03  0.11594123967E+04 -0.12241697121E+04  0.18389053582E+04  0.59998431393E+03 0.  0.
        -24    2    4    4    0    0  0.69888991442E+02  0.37578441022E+02 -0.36013999564E+03  0.37737418584E+03  0.80086511516E+02 0.  0.
         24    2    4    4    0    0  0.35291492288E+03  0.11218339557E+04 -0.86402971641E+03  0.14615311724E+04  0.80409265972E+02 0.  0.
         11    1    5    5    0    0  0.45538700628E+02  0.61000326202E+02 -0.28493422947E+03  0.29492766601E+03  0.00000000000E+00 0. -1.
        -12    1    5    5    0    0  0.24350290814E+02 -0.23421885181E+02 -0.75205766168E+02  0.82446519836E+02  0.00000000000E+00 0.  1.
         15    1    3    3    0    0 -0.36214847952E+03 -0.89707891297E+03  0.84757770814E+03  0.12861933083E+04  0.17770000000E+01 0. -1.
        -16    1    3    3    0    0 -0.60655434796E+02 -0.26233348374E+03  0.23086646052E+03  0.35467909588E+03  0.00000000000E+00 0.  1.
          4    1    6    6  502    0  0.21878606977E+03  0.80557930378E+03 -0.63129385167E+03  0.10465931808E+04  0.00000000000E+00 0. -1.
         -3    1    6    6    0  502  0.13412885311E+03  0.31625465190E+03 -0.23273586474E+03  0.41493799154E+03  0.00000000000E+00 0.  1.
<mgrwt>
<rscale>  0 0.12624347E+04</rscale>
<asrwt>0</asrwt>
<pdfrwt beam="1">  1        1 0.25646556E+00 0.12624347E+04</pdfrwt>
<pdfrwt beam="2">  1       -2 0.27888487E+00 0.12624347E+04</pdfrwt>
<totfact> 0.18255683E-01</totfact>
</mgrwt>
</event>
<event>
12    3  0.1092576E-007  0.3618765E+03  0.7818608E-02  0.1057843E+00
         -2   -1    0    0    0  501 -0.00000000000E+00  0.00000000000E+00  0.87002942520E+02  0.87002942520E+02  0.00000000000E+00 0.  1.
          1   -1    0    0  501    0  0.00000000000E+00 -0.00000000000E+00 -0.18767347707E+04  0.18767347707E+04  0.00000000000E+00 0. -1.
        -24    2    1    2    0    0  0.14444184841E+03  0.23703212747E+02 -0.60781552030E+03  0.63020559394E+03  0.79335326594E+02 0.  0.
    5000000    2    1    2    0    0 -0.14444184841E+03 -0.23703212747E+02 -0.11819163079E+04  0.13335321193E+04  0.59996371928E+03 0.  0.
        -24    2    4    4    0    0 -0.17464475451E+03 -0.26372067726E+03 -0.88138213073E+03  0.93956326565E+03  0.76780752121E+02 0.  0.
         24    2    4    4    0    0  0.30202906100E+02  0.24001746451E+03 -0.30053417714E+03  0.39396885363E+03  0.79812700673E+02 0.  0.
         13    1    5    5    0    0 -0.12433957984E+03 -0.15757283795E+03 -0.64655748471E+03  0.67699786662E+03  0.00000000000E+00 0. -1.
        -14    1    5    5    0    0 -0.50305174669E+02 -0.10614783931E+03 -0.23482464602E+03  0.26256539903E+03  0.00000000000E+00 0.  1.
         15    1    3    3    0    0  0.27490378600E+02  0.27654567431E+02 -0.73454152147E+02  0.83181525665E+02  0.17770000000E+01 0. -1.
        -16    1    3    3    0    0  0.11695146981E+03 -0.39513546838E+01 -0.53436136816E+03  0.54702406827E+03  0.00000000000E+00 0.  1.
          4    1    6    6  502    0 -0.17406212332E+02  0.10299968846E+03 -0.87634969796E+02  0.13635175093E+03  0.00000000000E+00 0. -1.
         -3    1    6    6    0  502  0.47609118432E+02  0.13701777605E+03 -0.21289920735E+03  0.25761710269E+03  0.00000000000E+00 0.  1.
<mgrwt>
<rscale>  0 0.36187652E+03</rscale>
<asrwt>0</asrwt>
<pdfrwt beam="1">  1        1 0.28872840E+00 0.36187652E+03</pdfrwt>
<pdfrwt beam="2">  1       -2 0.13385069E-01 0.36187652E+03</pdfrwt>
<totfact> 0.14523553E+02</totfact>
</mgrwt>
</event>
<event>
12    3  0.1092576E-007  0.4495468E+03  0.7818608E-02  0.1027857E+00
         -2   -1    0    0    0  501 -0.00000000000E+00  0.00000000000E+00  0.85311042569E+02  0.85311042569E+02  0.00000000000E+00 0.  1.
          1   -1    0    0  501    0  0.00000000000E+00 -0.00000000000E+00 -0.29943399167E+04  0.29943399167E+04  0.00000000000E+00 0. -1.
        -24    2    1    2    0    0 -0.87881147308E+02 -0.30303903586E+03 -0.77707796371E+03  0.84249963087E+03  0.79998206445E+02 0.  0.
    5000000    2    1    2    0    0  0.87881147308E+02  0.30303903586E+03 -0.21319509104E+04  0.22371513284E+04  0.60006302034E+03 0.  0.
        -24    2    4    4    0    0 -0.16515661182E+03  0.27016522583E+03 -0.16865933928E+04  0.17179513078E+04  0.80582053859E+02 0.  0.
         24    2    4    4    0    0  0.25303775913E+03  0.32873810027E+02 -0.44535751759E+03  0.51920002063E+03  0.78208362856E+02 0.  0.
         13    1    5    5    0    0 -0.11779961820E+03  0.18908942214E+03 -0.13601114679E+04  0.13782361063E+04  0.00000000000E+00 0. -1.
        -14    1    5    5    0    0 -0.47356993629E+02  0.81075803690E+02 -0.32648192490E+03  0.33971520142E+03  0.00000000000E+00 0.  1.
         15    1    3    3    0    0 -0.73916175365E+01 -0.12104221028E+03 -0.22424997789E+03  0.25494521566E+03  0.17770000000E+01 0. -1.
        -16    1    3    3    0    0 -0.80489529772E+02 -0.18199682558E+03 -0.55282798582E+03  0.58755441521E+03  0.00000000000E+00 0.  1.
          2    1    6    6  502    0  0.15401138648E+03 -0.97657840350E+01 -0.30877425410E+03  0.34519040789E+03  0.00000000000E+00 0. -1.
         -1    1    6    6    0  502  0.99026372652E+02  0.42639594062E+02 -0.13658326349E+03  0.17400961275E+03  0.00000000000E+00 0.  1.
<mgrwt>
<rscale>  0 0.44954678E+03</rscale>
<asrwt>0</asrwt>
<pdfrwt beam="1">  1        1 0.46066774E+00 0.44954678E+03</pdfrwt>
<pdfrwt beam="2">  1       -2 0.13124774E-01 0.44954678E+03</pdfrwt>
<totfact> 0.26022196E+01</totfact>
</mgrwt>
</event>
<event>
12    3  0.1092576E-007  0.1086841E+04  0.7818608E-02  0.9218113E-01
          1   -1    0    0  501    0  0.00000000000E+00  0.00000000000E+00  0.31792018315E+04  0.31792018315E+04  0.00000000000E+00 0. -1.
         -2   -1    0    0    0  501 -0.00000000000E+00 -0.00000000000E+00 -0.41223499000E+03  0.41223499000E+03  0.00000000000E+00 0.  1.
        -24    2    1    2    0    0 -0.65628123902E+03 -0.79935483408E+03  0.89295622231E+03  0.13684449738E+04  0.74817216400E+02 0.  0.
    5000000    2    1    2    0    0  0.65628123902E+03  0.79935483408E+03  0.18740106192E+04  0.22229918477E+04  0.60008644267E+03 0.  0.
        -24    2    4    4    0    0  0.69834461527E+03  0.83114668190E+03  0.16241348480E+04  0.19549067909E+04  0.73188444646E+02 0.  0.
         24    2    4    4    0    0 -0.42063376247E+02 -0.31791847826E+02  0.24987577122E+03  0.26808505675E+03  0.81557632378E+02 0.  0.
         13    1    5    5    0    0  0.23760583576E+03  0.26526407737E+03  0.47545504228E+03  0.59403624566E+03  0.00000000000E+00 0. -1.
        -14    1    5    5    0    0  0.46073877950E+03  0.56588260453E+03  0.11486798057E+04  0.13608705453E+04  0.00000000000E+00 0.  1.
         15    1    3    3    0    0 -0.22732550661E+03 -0.30675539147E+03  0.37035730162E+03  0.53192428478E+03  0.17770000000E+01 0. -1.
        -16    1    3    3    0    0 -0.42895573241E+03 -0.49259944261E+03  0.52259892069E+03  0.83652068900E+03  0.00000000000E+00 0.  1.
          2    1    6    6  502    0 -0.97339284786E+01 -0.56243530077E+01 -0.31409261403E+01  0.11672537316E+02  0.00000000000E+00 0. -1.
         -1    1    6    6    0  502 -0.32329447769E+02 -0.26167494818E+02  0.25301669736E+03  0.25641251943E+03  0.00000000000E+00 0.  1.
<mgrwt>
<rscale>  0 0.10868415E+04</rscale>
<asrwt>0</asrwt>
<pdfrwt beam="1">  1        1 0.48910796E+00 0.10868415E+04</pdfrwt>
<pdfrwt beam="2">  1       -2 0.63420770E-01 0.10868415E+04</pdfrwt>
<totfact> 0.90447355E-01</totfact>
</mgrwt>
</event>
<event>
12    3  0.1092576E-007  0.1159492E+04  0.7818608E-02  0.9149071E-01
         -2   -1    0    0    0  501 -0.00000000000E+00  0.00000000000E+00  0.83997094415E+03  0.83997094415E+03  0.00000000000E+00 0.  1.
          1   -1    0    0  501    0  0.00000000000E+00 -0.00000000000E+00 -0.24875798442E+04  0.24875798442E+04  0.00000000000E+00 0. -1.
        -24    2    1    2    0    0  0.61674504529E+03 -0.96709428512E+03  0.98456228394E+02  0.11539899716E+04  0.79708333942E+02 0.  0.
    5000000    2    1    2    0    0 -0.61674504529E+03  0.96709428512E+03 -0.17460651284E+04  0.21735608167E+04  0.59998115309E+03 0.  0.
        -24    2    4    4    0    0 -0.41231141768E+03  0.46358778134E+03 -0.13728114220E+04  0.15086751847E+04  0.81088077847E+02 0.  0.
         24    2    4    4    0    0 -0.20443362761E+03  0.50350650378E+03 -0.37325370647E+03  0.66488563206E+03  0.86270892473E+02 0.  0.
         11    1    5    5    0    0 -0.18040301293E+03  0.23737048282E+03 -0.73872792759E+03  0.79662346450E+03  0.00000000000E+00 0. -1.
        -12    1    5    5    0    0 -0.23190840475E+03  0.22621729852E+03 -0.63408349439E+03  0.71205172017E+03  0.00000000000E+00 0.  1.
         15    1    3    3    0    0  0.21293480360E+03 -0.29636842887E+03  0.12263467806E+00  0.36493649993E+03  0.17770000000E+01 0. -1.
        -16    1    3    3    0    0  0.40381024169E+03 -0.67072585625E+03  0.98333593716E+02  0.78905347169E+03  0.00000000000E+00 0.  1.
          2    1    6    6  502    0 -0.97633355796E+02  0.33996985793E+03 -0.26123281660E+03  0.43972077610E+03  0.00000000000E+00 0. -1.
         -1    1    6    6    0  502 -0.10680027181E+03  0.16353664585E+03 -0.11202088987E+03  0.22516485596E+03  0.00000000000E+00 0.  1.
<mgrwt>
<rscale>  0 0.11594924E+04</rscale>
<asrwt>0</asrwt>
<pdfrwt beam="1">  1        1 0.38270458E+00 0.11594924E+04</pdfrwt>
<pdfrwt beam="2">  1       -2 0.12922630E+00 0.11594924E+04</pdfrwt>
<totfact> 0.52839588E-01</totfact>
</mgrwt>
</event>
<event>
12    3  0.1092576E-007  0.6581593E+03  0.7818608E-02  0.9791588E-01
          1   -1    0    0  501    0  0.00000000000E+00  0.00000000000E+00  0.50620444296E+03  0.50620444296E+03  0.00000000000E+00 0. -1.
         -2   -1    0    0    0  501 -0.00000000000E+00 -0.00000000000E+00 -0.14161150766E+04  0.14161150766E+04  0.00000000000E+00 0.  1.
        -24    2    1    2    0    0 -0.50236690775E+03  0.38463413478E+03  0.32067448429E+02  0.63855673510E+03  0.80065317389E+02 0.  0.
    5000000    2    1    2    0    0  0.50236690775E+03 -0.38463413478E+03 -0.94197808207E+03  0.12837627844E+04  0.60034011359E+03 0.  0.
        -24    2    4    4    0    0  0.47103373579E+03 -0.29616965779E+03 -0.31449471918E+03  0.64422579140E+03  0.80812718433E+02 0.  0.
         24    2    4    4    0    0  0.31333171958E+02 -0.88464476997E+02 -0.62748336289E+03  0.63953699305E+03  0.80401886913E+02 0.  0.
         11    1    5    5    0    0  0.42565603715E+03 -0.23883176700E+03 -0.28631487157E+03  0.56586206850E+03  0.00000000000E+00 0. -1.
        -12    1    5    5    0    0  0.45377698648E+02 -0.57337890791E+02 -0.28179847604E+02  0.78363722895E+02  0.00000000000E+00 0.  1.
         15    1    3    3    0    0 -0.11302103536E+03  0.12176827451E+03  0.29677511604E+02  0.16877553003E+03  0.17770000000E+01 0. -1.
        -16    1    3    3    0    0 -0.38934587239E+03  0.26286586028E+03  0.23899368255E+01  0.46978120508E+03  0.00000000000E+00 0.  1.
          2    1    6    6  502    0  0.34826044365E+02 -0.44519598336E+01 -0.27134011859E+03  0.27360214412E+03  0.00000000000E+00 0. -1.
         -1    1    6    6    0  502 -0.34928724068E+01 -0.84012517163E+02 -0.35614324430E+03  0.36593484893E+03  0.00000000000E+00 0.  1.
<mgrwt>
<rscale>  0 0.65815935E+03</rscale>
<asrwt>0</asrwt>
<pdfrwt beam="1">  1        1 0.77877608E-01 0.65815935E+03</pdfrwt>
<pdfrwt beam="2">  1       -2 0.21786385E+00 0.65815935E+03</pdfrwt>
<totfact> 0.40492432E+00</totfact>
</mgrwt>
</event>
<event>
12    3  0.1092576E-007  0.7638376E+03  0.7818608E-02  0.9613888E-01
         -2   -1    0    0    0  501 -0.00000000000E+00  0.00000000000E+00  0.22277800550E+03  0.22277800550E+03  0.00000000000E+00 0.  1.
          1   -1    0    0  501    0  0.00000000000E+00 -0.00000000000E+00 -0.27755251040E+04  0.27755251040E+04  0.00000000000E+00 0. -1.
        -24    2    1    2    0    0  0.20231900406E+03  0.63192410553E+03 -0.92727146912E+03  0.11429749290E+04  0.79361555149E+02 0.  0.
    5000000    2    1    2    0    0 -0.20231900406E+03 -0.63192410553E+03 -0.16254756293E+04  0.18553281804E+04  0.59984213001E+03 0.  0.
        -24    2    4    4    0    0 -0.36513071420E+03 -0.26049927217E+03 -0.63557927033E+03  0.78206408707E+03  0.80516570752E+02 0.  0.
         24    2    4    4    0    0  0.16281171014E+03 -0.37142483336E+03 -0.98989635902E+03  0.10732640934E+04  0.86815624692E+02 0.  0.
         11    1    5    5    0    0 -0.62662976068E+02 -0.37946920989E+02 -0.59391379062E+02  0.94307758372E+02  0.00000000000E+00 0. -1.
        -12    1    5    5    0    0 -0.30246773813E+03 -0.22255235118E+03 -0.57618789127E+03  0.68775632870E+03  0.00000000000E+00 0.  1.
         15    1    3    3    0    0  0.73069724028E+02  0.15725792804E+03 -0.19693017376E+03  0.26240025070E+03  0.17770000000E+01 0. -1.
        -16    1    3    3    0    0  0.12924928003E+03  0.47466617749E+03 -0.73034129536E+03  0.88057467835E+03  0.00000000000E+00 0.  1.
          2    1    6    6  502    0  0.84694009932E+02 -0.99770146783E+02 -0.35221371981E+03  0.37574148285E+03  0.00000000000E+00 0. -1.
         -1    1    6    6    0  502  0.78117700207E+02 -0.27165468658E+03 -0.63768263920E+03  0.69752261050E+03  0.00000000000E+00 0.  1.
<mgrwt>
<rscale>  0 0.76383764E+03</rscale>
<asrwt>0</asrwt>
<pdfrwt beam="1">  1        1 0.42700388E+00 0.76383764E+03</pdfrwt>
<pdfrwt beam="2">  1       -2 0.34273538E-01 0.76383764E+03</pdfrwt>
<totfact> 0.64166785E+00</totfact>
</mgrwt>
</event>
<event>
12    3  0.1092576E-007  0.6331062E+03  0.7818608E-02  0.9839006E-01
         -2   -1    0    0    0  501 -0.00000000000E+00  0.00000000000E+00  0.33385859738E+03  0.33385859738E+03  0.00000000000E+00 0.  1.
          1   -1    0    0  501    0  0.00000000000E+00 -0.00000000000E+00 -0.13443196531E+04  0.13443196531E+04  0.00000000000E+00 0. -1.
        -24    2    1    2    0    0  0.42364229349E+03 -0.31749926399E+03 -0.33933799825E+03  0.63380416564E+03  0.79239307453E+02 0.  0.
    5000000    2    1    2    0    0 -0.42364229349E+03  0.31749926399E+03 -0.67112305750E+03  0.10443740849E+04  0.60002707886E+03 0.  0.
        -24    2    4    4    0    0  0.19720157928E+02 -0.95736683448E+02 -0.30866503109E+03  0.33365642508E+03  0.80610863992E+02 0.  0.
         24    2    4    4    0    0 -0.44336245142E+03  0.41323594744E+03 -0.36245802641E+03  0.71071765979E+03  0.80059724174E+02 0.  0.
         13    1    5    5    0    0 -0.17093937871E+02 -0.87119368321E+02 -0.21004148564E+03  0.22803379736E+03  0.00000000000E+00 0. -1.
        -14    1    5    5    0    0  0.36814095800E+02 -0.86173151276E+01 -0.98623545447E+02  0.10562262772E+03  0.00000000000E+00 0.  1.
         15    1    3    3    0    0  0.38295492234E+03 -0.28138640047E+03 -0.27315949677E+03  0.54813506303E+03  0.17770000000E+01 0. -1.
        -16    1    3    3    0    0  0.40687371156E+02 -0.36112863519E+02 -0.66178501486E+02  0.85669102611E+02  0.00000000000E+00 0.  1.
          4    1    6    6  502    0 -0.29454714808E+03  0.22855278762E+03 -0.19835780353E+03  0.42230346600E+03  0.00000000000E+00 0. -1.
         -3    1    6    6    0  502 -0.14881530334E+03  0.18468315983E+03 -0.16410022288E+03  0.28841419379E+03  0.00000000000E+00 0.  1.
<mgrwt>
<rscale>  0 0.63310623E+03</rscale>
<asrwt>0</asrwt>
<pdfrwt beam="1">  1        1 0.20681841E+00 0.63310623E+03</pdfrwt>
<pdfrwt beam="2">  1       -2 0.51362862E-01 0.63310623E+03</pdfrwt>
<totfact> 0.27534634E+01</totfact>
</mgrwt>
</event>
<event>
12    3  0.1092576E-007  0.1658828E+04  0.7818608E-02  0.8785201E-01
         -2   -1    0    0    0  501 -0.00000000000E+00  0.00000000000E+00  0.20809580262E+04  0.20809580262E+04  0.00000000000E+00 0.  1.
          1   -1    0    0  501    0  0.00000000000E+00 -0.00000000000E+00 -0.15181056487E+04  0.15181056487E+04  0.00000000000E+00 0. -1.
        -24    2    1    2    0    0  0.15524973900E+04 -0.42322064603E+03 -0.35795560239E+03  0.16504332409E+04  0.80211022124E+02 0.  0.
    5000000    2    1    2    0    0 -0.15524973900E+04  0.42322064603E+03  0.92080797991E+03  0.19486304340E+04  0.59992447133E+03 0.  0.
        -24    2    4    4    0    0 -0.32861120180E+03 -0.14044789414E+03  0.16419897724E+03  0.40120990673E+03  0.79354597943E+02 0.  0.
         24    2    4    4    0    0 -0.12238861882E+04  0.56366854017E+03  0.75660900267E+03  0.15474205273E+04  0.80208980043E+02 0.  0.
         13    1    5    5    0    0 -0.17718084885E+03 -0.93397031665E+02  0.51912504597E+02  0.20690811211E+03  0.00000000000E+00 0. -1.
        -14    1    5    5    0    0 -0.15143035295E+03 -0.47050862480E+02  0.11228647265E+03  0.19430179462E+03  0.00000000000E+00 0.  1.
         15    1    3    3    0    0  0.70251168568E+03 -0.15220084435E+03 -0.14718764253E+03  0.73372687383E+03  0.17770000000E+01 0. -1.
        -16    1    3    3    0    0  0.84998570435E+03 -0.27101980168E+03 -0.21076795986E+03  0.91670636705E+03  0.00000000000E+00 0.  1.
          2    1    6    6  502    0 -0.10518564205E+04  0.49662340689E+03  0.62314750944E+03  0.13196020446E+04  0.00000000000E+00 0. -1.
         -1    1    6    6    0  502 -0.17202976776E+03  0.67045133282E+02  0.13346149323E+03  0.22781848272E+03  0.00000000000E+00 0.  1.
<mgrwt>
<rscale>  0 0.16588276E+04</rscale>
<asrwt>0</asrwt>
<pdfrwt beam="1">  1        1 0.23355471E+00 0.16588276E+04</pdfrwt>
<pdfrwt beam="2">  1       -2 0.32014739E+00 0.16588276E+04</pdfrwt>
<totfact> 0.12338536E-01</totfact>
</mgrwt>
</event>
<event>
12    3  0.1092576E-007  0.8216598E+03  0.7818608E-02  0.9529184E-01
         -2   -1    0    0    0  501 -0.00000000000E+00  0.00000000000E+00  0.37380643168E+03  0.37380643168E+03  0.00000000000E+00 0.  1.
          1   -1    0    0  501    0  0.00000000000E+00 -0.00000000000E+00 -0.23555217728E+04  0.23555217728E+04  0.00000000000E+00 0. -1.
        -24    2    1    2    0    0  0.72323537884E+03  0.37610484237E+02 -0.27157702021E+03  0.77762951448E+03  0.80433961440E+02 0.  0.
    5000000    2    1    2    0    0 -0.72323537884E+03 -0.37610484237E+02 -0.17101383209E+04  0.19516986900E+04  0.60005894561E+03 0.  0.
        -24    2    4    4    0    0 -0.68151504881E+03 -0.21447101605E+03 -0.11351339011E+04  0.13433251525E+04  0.74383554912E+02 0.  0.
         24    2    4    4    0    0 -0.41720330023E+02  0.17686053181E+03 -0.57500441981E+03  0.60837353758E+03  0.80424155429E+02 0.  0.
         11    1    5    5    0    0 -0.19323270412E+03 -0.96285565649E+02 -0.33380421716E+03  0.39753621657E+03  0.00000000000E+00 0. -1.
        -12    1    5    5    0    0 -0.48828234469E+03 -0.11818545040E+03 -0.80132968398E+03  0.94578893589E+03  0.00000000000E+00 0.  1.
         15    1    3    3    0    0  0.28249203409E+03 -0.14600563674E+02 -0.78039326602E+02  0.29344202154E+03  0.17770000000E+01 0. -1.
        -16    1    3    3    0    0  0.44074334475E+03  0.52211047911E+02 -0.19353769361E+03  0.48418749293E+03  0.00000000000E+00 0.  1.
          4    1    6    6  502    0  0.28197261079E+00  0.14654502710E+03 -0.40798227106E+03  0.43350323871E+03  0.00000000000E+00 0. -1.
         -3    1    6    6    0  502 -0.42002302634E+02  0.30315504713E+02 -0.16702214876E+03  0.17487029887E+03  0.00000000000E+00 0.  1.
<mgrwt>
<rscale>  0 0.82165983E+03</rscale>
<asrwt>0</asrwt>
<pdfrwt beam="1">  1        1 0.36238796E+00 0.82165983E+03</pdfrwt>
<pdfrwt beam="2">  1       -2 0.57508683E-01 0.82165983E+03</pdfrwt>
<totfact> 0.44065932E+00</totfact>
</mgrwt>
</event>
<event>
12    3  0.1092576E-007  0.7929894E+03  0.7818608E-02  0.9570221E-01
          1   -1    0    0  501    0  0.00000000000E+00  0.00000000000E+00  0.18969925464E+04  0.18969925464E+04  0.00000000000E+00 0. -1.
         -2   -1    0    0    0  501 -0.00000000000E+00 -0.00000000000E+00 -0.36642522739E+03  0.36642522739E+03  0.00000000000E+00 0.  1.
        -24    2    1    2    0    0  0.49852339113E+03 -0.47498124824E+03  0.96863136295E+03  0.11910985218E+04  0.79600337615E+02 0.  0.
    5000000    2    1    2    0    0 -0.49852339113E+03  0.47498124824E+03  0.56193595603E+03  0.10723192519E+04  0.59996983397E+03 0.  0.
        -24    2    4    4    0    0 -0.25233908121E+03 -0.88773452403E+02  0.91965268758E+02  0.29424774518E+03  0.81045586720E+02 0.  0.
         24    2    4    4    0    0 -0.24618430992E+03  0.56375470064E+03  0.46997068728E+03  0.77807150674E+03  0.78081660829E+02 0.  0.
         13    1    5    5    0    0 -0.11504049674E+03 -0.78906958901E+02  0.27234736798E+02  0.14213498845E+03  0.00000000000E+00 0. -1.
        -14    1    5    5    0    0 -0.13729858447E+03 -0.98664935021E+01  0.64730531960E+02  0.15211275673E+03  0.00000000000E+00 0.  1.
         15    1    3    3    0    0  0.32896946908E+03 -0.33239879640E+03  0.59592107615E+03  0.75751894904E+03  0.17770000000E+01 0. -1.
        -16    1    3    3    0    0  0.16955392206E+03 -0.14258245184E+03  0.37271028681E+03  0.43357957280E+03  0.00000000000E+00 0.  1.
          2    1    6    6  502    0 -0.15504508542E+03  0.43554373814E+03  0.36377960460E+03  0.58827963340E+03  0.00000000000E+00 0. -1.
         -1    1    6    6    0  502 -0.91139224501E+02  0.12821096251E+03  0.10619108268E+03  0.18979187335E+03  0.00000000000E+00 0.  1.
<mgrwt>
<rscale>  0 0.79298936E+03</rscale>
<asrwt>0</asrwt>
<pdfrwt beam="1">  1        1 0.29184500E+00 0.79298936E+03</pdfrwt>
<pdfrwt beam="2">  1       -2 0.56373113E-01 0.79298936E+03</pdfrwt>
<totfact> 0.93786999E+00</totfact>
</mgrwt>
</event>
<event>
12    3  0.1092576E-007  0.9448643E+03  0.7818608E-02  0.9371174E-01
          1   -1    0    0  501    0  0.00000000000E+00  0.00000000000E+00  0.18249253646E+04  0.18249253646E+04  0.00000000000E+00 0. -1.
         -2   -1    0    0    0  501 -0.00000000000E+00 -0.00000000000E+00 -0.59440841456E+03  0.59440841456E+03  0.00000000000E+00 0.  1.
        -24    2    1    2    0    0  0.80316211674E+03 -0.32091391668E+03  0.99244565694E+02  0.87405875470E+03  0.77936481684E+02 0.  0.
    5000000    2    1    2    0    0 -0.80316211674E+03  0.32091391668E+03  0.11312723844E+04  0.15452750245E+04  0.60003547058E+03 0.  0.
        -24    2    4    4    0    0 -0.63441983774E+03  0.46561521014E+03  0.10022582525E+04  0.12767723890E+04  0.79624582650E+02 0.  0.
         24    2    4    4    0    0 -0.16874227899E+03 -0.14470129346E+03  0.12901413191E+03  0.26850263551E+03  0.77695546817E+02 0.  0.
         11    1    5    5    0    0 -0.74544317989E+02  0.51287335971E+02  0.78044244555E+02  0.11949121425E+03  0.00000000000E+00 0. -1.
        -12    1    5    5    0    0 -0.55987551976E+03  0.41432787417E+03  0.92421400793E+03  0.11572811747E+04  0.00000000000E+00 0.  1.
         15    1    3    3    0    0  0.46549410255E+03 -0.22403851580E+03  0.44348476795E+02  0.51850550739E+03  0.17770000000E+01 0. -1.
        -16    1    3    3    0    0  0.33766801418E+03 -0.96875400881E+02  0.54896088899E+02  0.35555324731E+03  0.00000000000E+00 0.  1.
          4    1    6    6  502    0 -0.11793432172E+03 -0.51501042342E+02  0.60837764794E+02  0.14234498666E+03  0.00000000000E+00 0. -1.
         -3    1    6    6    0  502 -0.50807957272E+02 -0.93200251119E+02  0.68176367113E+02  0.12615764885E+03  0.00000000000E+00 0.  1.
<mgrwt>
<rscale>  0 0.94486434E+03</rscale>
<asrwt>0</asrwt>
<pdfrwt beam="1">  1        1 0.28075775E+00 0.94486434E+03</pdfrwt>
<pdfrwt beam="2">  1       -2 0.91447449E-01 0.94486434E+03</pdfrwt>
<totfact> 0.35424675E+00</totfact>
</mgrwt>
</event>
<event>
12    3  0.1092576E-007  0.1460193E+04  0.7818608E-02  0.8911364E-01
          1   -1    0    0  501    0  0.00000000000E+00  0.00000000000E+00  0.21999509347E+04  0.21999509347E+04  0.00000000000E+00 0. -1.
         -2   -1    0    0    0  501 -0.00000000000E+00 -0.00000000000E+00 -0.13869362314E+04  0.13869362314E+04  0.00000000000E+00 0.  1.
        -24    2    1    2    0    0  0.39125709219E+03  0.14003813935E+04 -0.49822148281E+03  0.15390551367E+04  0.79472690599E+02 0.  0.
    5000000    2    1    2    0    0 -0.39125709219E+03 -0.14003813935E+04  0.13112361861E+04  0.20478320294E+04  0.60010459547E+03 0.  0.
        -24    2    4    4    0    0 -0.15347217059E+03 -0.83867911042E+03  0.39123568782E+03  0.94110958575E+03  0.75402463912E+02 0.  0.
         24    2    4    4    0    0 -0.23778492160E+03 -0.56170228307E+03  0.92000049824E+03  0.11067224436E+04  0.79890717440E+02 0.  0.
         13    1    5    5    0    0  0.79096239771E+01 -0.62027379176E+02  0.33421121279E+02  0.70900841085E+02  0.00000000000E+00 0. -1.
        -14    1    5    5    0    0 -0.16138179457E+03 -0.77665173124E+03  0.35781456654E+03  0.87020874466E+03  0.00000000000E+00 0.  1.
         15    1    3    3    0    0  0.29092603248E+03  0.11048986109E+04 -0.36168262175E+03  0.11984391404E+04  0.17770000000E+01 0. -1.
        -16    1    3    3    0    0  0.10033105970E+03  0.29548278261E+03 -0.13653886106E+03  0.34061599630E+03  0.00000000000E+00 0.  1.
          2    1    6    6  502    0 -0.21401133972E+02 -0.56137436804E+02  0.14007793393E+03  0.15241800392E+03  0.00000000000E+00 0. -1.
         -1    1    6    6    0  502 -0.21638378762E+03 -0.50556484626E+03  0.77992256431E+03  0.95430443971E+03  0.00000000000E+00 0.  1.
<mgrwt>
<rscale>  0 0.14601931E+04</rscale>
<asrwt>0</asrwt>
<pdfrwt beam="1">  1        1 0.33845399E+00 0.14601931E+04</pdfrwt>
<pdfrwt beam="2">  1       -2 0.21337481E+00 0.14601931E+04</pdfrwt>
<totfact> 0.19669624E-01</totfact>
</mgrwt>
</event>
<event>
12    3  0.1092576E-007  0.1164517E+04  0.7818608E-02  0.9144495E-01
          1   -1    0    0  501    0  0.00000000000E+00  0.00000000000E+00  0.11222592322E+04  0.11222592322E+04  0.00000000000E+00 0. -1.
         -2   -1    0    0    0  501 -0.00000000000E+00 -0.00000000000E+00 -0.13082502332E+04  0.13082502332E+04  0.00000000000E+00 0.  1.
        -24    2    1    2    0    0 -0.10814885702E+04 -0.33724197010E+03 -0.16407436955E+03  0.11485603985E+04  0.94450602498E+02 0.  0.
    5000000    2    1    2    0    0  0.10814885702E+04  0.33724197010E+03 -0.21916631433E+02  0.12819490670E+04  0.59963605444E+03 0.  0.
        -24    2    4    4    0    0  0.49695801620E+03  0.34131745335E+03  0.21611177962E+03  0.64556368144E+03  0.81137486306E+02 0.  0.
         24    2    4    4    0    0  0.58453055400E+03 -0.40754832492E+01 -0.23802841105E+03  0.63638538556E+03  0.81463220928E+02 0.  0.
         13    1    5    5    0    0  0.21488129910E+03  0.19267064911E+03  0.85567443078E+02  0.30102780444E+03  0.00000000000E+00 0. -1.
        -14    1    5    5    0    0  0.28207671710E+03  0.14864680424E+03  0.13054433654E+03  0.34453587701E+03  0.00000000000E+00 0.  1.
         15    1    3    3    0    0 -0.12006514151E+03 -0.17392263756E+02  0.44322941284E+01  0.12141223993E+03  0.17770000000E+01 0. -1.
        -16    1    3    3    0    0 -0.96142342869E+03 -0.31984970635E+03 -0.16850666368E+03  0.10271481585E+04  0.00000000000E+00 0.  1.
          4    1    6    6  502    0  0.35272470371E+03  0.23856979559E+02 -0.17539166558E+03  0.39464681481E+03  0.00000000000E+00 0. -1.
         -3    1    6    6    0  502  0.23180585029E+03 -0.27932462808E+02 -0.62636745466E+02  0.24173857075E+03  0.00000000000E+00 0.  1.
<mgrwt>
<rscale>  0 0.11645167E+04</rscale>
<asrwt>0</asrwt>
<pdfrwt beam="1">  1        1 0.17265527E+00 0.11645167E+04</pdfrwt>
<pdfrwt beam="2">  1       -2 0.20126927E+00 0.11645167E+04</pdfrwt>
<totfact> 0.13655248E+00</totfact>
</mgrwt>
</event>
<event>
12    3  0.1092576E-007  0.3188118E+03  0.7818608E-02  0.1076197E+00
          1   -1    0    0  501    0  0.00000000000E+00  0.00000000000E+00  0.21128148214E+04  0.21128148214E+04  0.00000000000E+00 0. -1.
         -2   -1    0    0    0  501 -0.00000000000E+00 -0.00000000000E+00 -0.97854154546E+02  0.97854154546E+02  0.00000000000E+00 0.  1.
        -24    2    1    2    0    0  0.19031174825E+02 -0.23929844878E+03  0.43002868080E+03  0.49899344282E+03  0.80273634908E+02 0.  0.
    5000000    2    1    2    0    0 -0.19031174825E+02  0.23929844878E+03  0.15849319861E+04  0.17116755331E+04  0.60016480826E+03 0.  0.
        -24    2    4    4    0    0 -0.16302221964E+03  0.15930729632E+03  0.14840742832E+04  0.15036676611E+04  0.81147386842E+02 0.  0.
         24    2    4    4    0    0  0.14399104482E+03  0.79991152463E+02  0.10085770291E+03  0.20800787202E+03  0.77220419106E+02 0.  0.
         11    1    5    5    0    0 -0.15006542520E+03  0.15553367447E+03  0.12023393491E+04  0.12216097028E+04  0.00000000000E+00 0. -1.
        -12    1    5    5    0    0 -0.12956794447E+02  0.37736218520E+01  0.28173493410E+03  0.28205795829E+03  0.00000000000E+00 0.  1.
         15    1    3    3    0    0 -0.10196809452E+02 -0.85246706737E+02  0.22534990470E+03  0.24115703019E+03  0.17770000000E+01 0. -1.
        -16    1    3    3    0    0  0.29227984277E+02 -0.15405174205E+03  0.20467877610E+03  0.25783641263E+03  0.00000000000E+00 0.  1.
          4    1    6    6  502    0  0.80423953513E+01  0.86063734425E+01 -0.12478549788E+02  0.17159953136E+02  0.00000000000E+00 0. -1.
         -3    1    6    6    0  502  0.13594864947E+03  0.71384779020E+02  0.11333625270E+03  0.19084791889E+03  0.00000000000E+00 0.  1.
<mgrwt>
<rscale>  0 0.31881177E+03</rscale>
<asrwt>0</asrwt>
<pdfrwt beam="1">  1        1 0.32504840E+00 0.31881177E+03</pdfrwt>
<pdfrwt beam="2">  1       -2 0.15054487E-01 0.31881177E+03</pdfrwt>
<totfact> 0.84516702E+01</totfact>
</mgrwt>
</event>
<event>
12    3  0.1092576E-007  0.4251834E+03  0.7818608E-02  0.1035392E+00
         -2   -1    0    0    0  501 -0.00000000000E+00  0.00000000000E+00  0.17507574485E+03  0.17507574485E+03  0.00000000000E+00 0.  1.
          1   -1    0    0  501    0  0.00000000000E+00 -0.00000000000E+00 -0.17256301940E+04  0.17256301940E+04  0.00000000000E+00 0. -1.
        -24    2    1    2    0    0 -0.29733606108E+03  0.19082005163E+03 -0.79583638284E+03  0.87392018084E+03  0.74564796733E+02 0.  0.
    5000000    2    1    2    0    0  0.29733606108E+03 -0.19082005163E+03 -0.75471806629E+03  0.10267857580E+04  0.59989049659E+03 0.  0.
        -24    2    4    4    0    0  0.35823430460E+03 -0.18481389180E+03 -0.18609333531E+03  0.45094286449E+03  0.78935074580E+02 0.  0.
         24    2    4    4    0    0 -0.60898243513E+02 -0.60061598294E+01 -0.56862473098E+03  0.57584289350E+03  0.67203298206E+02 0.  0.
         11    1    5    5    0    0  0.67706689322E+02 -0.93422472017E+01 -0.11657718714E+02  0.69335241886E+02  0.00000000000E+00 0. -1.
        -12    1    5    5    0    0  0.29052761527E+03 -0.17547164460E+03 -0.17443561660E+03  0.38160762261E+03  0.00000000000E+00 0.  1.
         15    1    3    3    0    0 -0.96115925604E+02  0.42295697980E+02 -0.16828636648E+03  0.19836999796E+03  0.17770000000E+01 0. -1.
        -16    1    3    3    0    0 -0.20122013548E+03  0.14852435365E+03 -0.62755001637E+03  0.67555018288E+03  0.00000000000E+00 0.  1.
          2    1    6    6  502    0 -0.58080792255E+02  0.19926245391E+02 -0.46255151116E+03  0.46660940213E+03  0.00000000000E+00 0. -1.
         -1    1    6    6    0  502 -0.28174512580E+01 -0.25932405221E+02 -0.10607321982E+03  0.10923349136E+03  0.00000000000E+00 0.  1.
<mgrwt>
<rscale>  0 0.42518341E+03</rscale>
<asrwt>0</asrwt>
<pdfrwt beam="1">  1        1 0.26548157E+00 0.42518341E+03</pdfrwt>
<pdfrwt beam="2">  1       -2 0.26934730E-01 0.42518341E+03</pdfrwt>
<totfact> 0.54150774E+01</totfact>
</mgrwt>
</event>
<event>
12    3  0.1092576E-007  0.5832711E+03  0.7818608E-02  0.9940734E-01
         -2   -1    0    0    0  501 -0.00000000000E+00  0.00000000000E+00  0.31921340373E+03  0.31921340373E+03  0.00000000000E+00 0.  1.
          1   -1    0    0  501    0  0.00000000000E+00 -0.00000000000E+00 -0.13436778107E+04  0.13436778107E+04  0.00000000000E+00 0. -1.
        -24    2    1    2    0    0  0.25715264034E+03 -0.40046385100E+03 -0.16103820449E+03  0.50873057420E+03  0.79841827594E+02 0.  0.
    5000000    2    1    2    0    0 -0.25715264034E+03  0.40046385100E+03 -0.86342620248E+03  0.11541606402E+04  0.60006932928E+03 0.  0.
        -24    2    4    4    0    0 -0.22040136424E+03  0.51529381604E+03 -0.47435781416E+03  0.73897794641E+03  0.83478088235E+02 0.  0.
         24    2    4    4    0    0 -0.36751276101E+02 -0.11482996504E+03 -0.38906838831E+03  0.41518269382E+03  0.80410703848E+02 0.  0.
         11    1    5    5    0    0 -0.14813284291E+03  0.24854747018E+03 -0.22147412160E+03  0.36437613893E+03  0.00000000000E+00 0. -1.
        -12    1    5    5    0    0 -0.72268521334E+02  0.26674634586E+03 -0.25288369257E+03  0.37460180749E+03  0.00000000000E+00 0.  1.
         15    1    3    3    0    0  0.21825901447E+02 -0.15106645810E+02  0.60405430816E+01  0.27280517065E+02  0.17770000000E+01 0. -1.
        -16    1    3    3    0    0  0.23532673890E+03 -0.38535720519E+03 -0.16707874757E+03  0.48145005714E+03  0.00000000000E+00 0.  1.
          4    1    6    6  502    0  0.23894719611E+01 -0.19584084206E+02 -0.19033901640E+03  0.19135879153E+03  0.00000000000E+00 0. -1.
         -3    1    6    6    0  502 -0.39140748062E+02 -0.95245880838E+02 -0.19872937192E+03  0.22382390229E+03  0.00000000000E+00 0.  1.
<mgrwt>
<rscale>  0 0.58327108E+03</rscale>
<asrwt>0</asrwt>
<pdfrwt beam="1">  1        1 0.20671966E+00 0.58327108E+03</pdfrwt>
<pdfrwt beam="2">  1       -2 0.49109755E-01 0.58327108E+03</pdfrwt>
<totfact> 0.30396816E+01</totfact>
</mgrwt>
</event>
<event>
12    3  0.1092576E-007  0.9648238E+03  0.7818608E-02  0.9347990E-01
          1   -1    0    0  501    0  0.00000000000E+00  0.00000000000E+00  0.21770126662E+04  0.21770126662E+04  0.00000000000E+00 0. -1.
         -2   -1    0    0    0  501 -0.00000000000E+00 -0.00000000000E+00 -0.44741616328E+03  0.44741616328E+03  0.00000000000E+00 0.  1.
        -24    2    1    2    0    0 -0.56988409828E+03 -0.68800451100E+03  0.75088213899E+03  0.11697808208E+04  0.80281314118E+02 0.  0.
    5000000    2    1    2    0    0  0.56988409828E+03  0.68800451100E+03  0.97871436388E+03  0.14546480086E+04  0.60000077528E+03 0.  0.
        -24    2    4    4    0    0 -0.47256639120E+02  0.28189309656E+03  0.46336256607E+03  0.54831236284E+03  0.65151145676E+02 0.  0.
         24    2    4    4    0    0  0.61714073740E+03  0.40611141444E+03  0.51535179781E+03  0.90633564580E+03  0.10033771293E+03 0.  0.
         11    1    5    5    0    0 -0.14187316606E+02  0.20797986475E+03  0.29194755439E+03  0.35873427297E+03  0.00000000000E+00 0. -1.
        -12    1    5    5    0    0 -0.33069322515E+02  0.73913231811E+02  0.17141501168E+03  0.18957808987E+03  0.00000000000E+00 0.  1.
         15    1    3    3    0    0 -0.31251223730E+03 -0.33775235276E+03  0.42676098338E+03  0.62758955131E+03  0.17770000000E+01 0. -1.
        -16    1    3    3    0    0 -0.25737186099E+03 -0.35025215824E+03  0.32412115562E+03  0.54219126948E+03  0.00000000000E+00 0.  1.
          2    1    6    6  502    0  0.11986663011E+03  0.12916892954E+03  0.12959155801E+03  0.21873864149E+03  0.00000000000E+00 0. -1.
         -1    1    6    6    0  502  0.49727410729E+03  0.27694248490E+03  0.38576023981E+03  0.68759700431E+03  0.00000000000E+00 0.  1.
<mgrwt>
<rscale>  0 0.96482378E+03</rscale>
<asrwt>0</asrwt>
<pdfrwt beam="1">  1        1 0.33492502E+00 0.96482378E+03</pdfrwt>
<pdfrwt beam="2">  1       -2 0.68833257E-01 0.96482378E+03</pdfrwt>
<totfact> 0.38820603E+00</totfact>
</mgrwt>
</event>
<event>
12    3  0.1092576E-007  0.5099799E+03  0.7818608E-02  0.1011206E+00
         -2   -1    0    0    0  501 -0.00000000000E+00  0.00000000000E+00  0.14207834501E+04  0.14207834501E+04  0.00000000000E+00 0.  1.
          1   -1    0    0  501    0  0.00000000000E+00 -0.00000000000E+00 -0.23851907712E+03  0.23851907712E+03  0.00000000000E+00 0. -1.
        -24    2    1    2    0    0  0.35669027360E+03 -0.19741257460E+03  0.59642276428E+03  0.72696873836E+03  0.81017016142E+02 0.  0.
    5000000    2    1    2    0    0 -0.35669027360E+03  0.19741257460E+03  0.58584160867E+03  0.93233378885E+03  0.59986350738E+03 0.  0.
        -24    2    4    4    0    0 -0.37903420727E+03  0.30413988655E+03  0.21449308845E+03  0.53707779231E+03  0.79229218885E+02 0.  0.
         24    2    4    4    0    0  0.22343933672E+02 -0.10672731195E+03  0.37134852023E+03  0.39525599654E+03  0.80234710948E+02 0.  0.
         11    1    5    5    0    0 -0.11982832333E+03  0.98655387151E+02  0.29191206512E+02  0.15793618656E+03  0.00000000000E+00 0. -1.
        -12    1    5    5    0    0 -0.25920588394E+03  0.20548449940E+03  0.18530188194E+03  0.37914160575E+03  0.00000000000E+00 0.  1.
         15    1    3    3    0    0  0.13224451777E+03 -0.83094053711E+02  0.29802149088E+03  0.33647169420E+03  0.17770000000E+01 0. -1.
        -16    1    3    3    0    0  0.22444575583E+03 -0.11431852089E+03  0.29840127340E+03  0.39049704415E+03  0.00000000000E+00 0.  1.
          4    1    6    6  502    0  0.41799564067E+02 -0.46129772868E+02  0.25656229625E+03  0.26400638507E+03  0.00000000000E+00 0. -1.
         -3    1    6    6    0  502 -0.19455630395E+02 -0.60597539081E+02  0.11478622398E+03  0.13124961147E+03  0.00000000000E+00 0.  1.
<mgrwt>
<rscale>  0 0.50997991E+03</rscale>
<asrwt>0</asrwt>
<pdfrwt beam="1">  1        1 0.36695244E-01 0.50997991E+03</pdfrwt>
<pdfrwt beam="2">  1       -2 0.21858206E+00 0.50997991E+03</pdfrwt>
<totfact> 0.10967234E+01</totfact>
</mgrwt>
</event>
<event>
12    3  0.1092576E-007  0.9789907E+03  0.7818608E-02  0.9331892E-01
          1   -1    0    0  501    0  0.00000000000E+00  0.00000000000E+00  0.20174728302E+04  0.20174728302E+04  0.00000000000E+00 0. -1.
         -2   -1    0    0    0  501 -0.00000000000E+00 -0.00000000000E+00 -0.51482926405E+03  0.51482926405E+03  0.00000000000E+00 0.  1.
        -24    2    1    2    0    0 -0.86388894507E+03  0.33694649732E+03  0.61827362116E+03  0.11173058425E+04  0.79202421625E+02 0.  0.
    5000000    2    1    2    0    0  0.86388894507E+03 -0.33694649732E+03  0.88436994495E+03  0.14149962517E+04  0.60022257651E+03 0.  0.
        -24    2    4    4    0    0  0.42653876905E+03 -0.39045491234E+03  0.24168339811E+03  0.63172082596E+03  0.79183186051E+02 0.  0.
         24    2    4    4    0    0  0.43735017602E+03  0.53508415016E+02  0.64268654685E+03  0.78327542575E+03  0.79599423088E+02 0.  0.
         13    1    5    5    0    0  0.78191300435E+02 -0.50622928412E+02  0.66691347583E+02  0.11456132064E+03  0.00000000000E+00 0. -1.
        -14    1    5    5    0    0  0.34834746862E+03 -0.33983198393E+03  0.17499205053E+03  0.51715950532E+03  0.00000000000E+00 0.  1.
         15    1    3    3    0    0 -0.27157705888E+03  0.67912313027E+02  0.19546761486E+03  0.34143363537E+03  0.17770000000E+01 0. -1.
        -16    1    3    3    0    0 -0.59231188618E+03  0.26903418430E+03  0.42280600630E+03  0.77587220713E+03  0.00000000000E+00 0.  1.
          2    1    6    6  502    0  0.32985143438E+02 -0.17177104405E+02  0.49997442749E+02  0.62312253087E+02  0.00000000000E+00 0. -1.
         -1    1    6    6    0  502  0.40436503258E+03  0.70685519421E+02  0.59268910410E+03  0.72096317267E+03  0.00000000000E+00 0.  1.
<mgrwt>
<rscale>  0 0.97899066E+03</rscale>
<asrwt>0</asrwt>
<pdfrwt beam="1">  1        1 0.31038043E+00 0.97899066E+03</pdfrwt>
<pdfrwt beam="2">  1       -2 0.79204503E-01 0.97899066E+03</pdfrwt>
<totfact> 0.36360329E+00</totfact>
</mgrwt>
</event>
<event>
12    3  0.1092576E-007  0.9724086E+03  0.7818608E-02  0.9339335E-01
          1   -1    0    0  501    0  0.00000000000E+00  0.00000000000E+00  0.32852702484E+04  0.32852702484E+04  0.00000000000E+00 0. -1.
         -2   -1    0    0    0  501 -0.00000000000E+00 -0.00000000000E+00 -0.37126165329E+03  0.37126165329E+03  0.00000000000E+00 0.  1.
        -24    2    1    2    0    0  0.37488187003E+03 -0.79837652874E+03  0.22040533744E+04  0.23751430561E+04  0.74241240133E+02 0.  0.
    5000000    2    1    2    0    0 -0.37488187003E+03  0.79837652874E+03  0.70995522077E+03  0.12813888456E+04  0.59998288312E+03 0.  0.
        -24    2    4    4    0    0  0.50356956797E+02  0.56943013507E+03  0.39413545971E+03  0.69893520731E+03  0.79882173181E+02 0.  0.
         24    2    4    4    0    0 -0.42523882683E+03  0.22894639367E+03  0.31581976106E+03  0.58245363831E+03  0.79155595372E+02 0.  0.
         11    1    5    5    0    0  0.26821188682E+02  0.49524388947E+03  0.36512108214E+03  0.61587278787E+03  0.00000000000E+00 0. -1.
        -12    1    5    5    0    0  0.23535768116E+02  0.74186245597E+02  0.29014377574E+02  0.83062419437E+02  0.00000000000E+00 0.  1.
         15    1    3    3    0    0  0.17613150051E+03 -0.45864940273E+03  0.12503117801E+04  0.13433779384E+04  0.17770000000E+01 0. -1.
        -16    1    3    3    0    0  0.19875036952E+03 -0.33972712601E+03  0.95374159426E+03  0.10317651177E+04  0.00000000000E+00 0.  1.
          4    1    6    6  502    0 -0.30235331049E+03  0.19046869328E+03  0.26094727888E+03  0.44248088076E+03  0.00000000000E+00 0. -1.
         -3    1    6    6    0  502 -0.12288551634E+03  0.38477700395E+02  0.54872482177E+02  0.13997275754E+03  0.00000000000E+00 0.  1.
<mgrwt>
<rscale>  0 0.97240863E+03</rscale>
<asrwt>0</asrwt>
<pdfrwt beam="1">  1        1 0.50542617E+00 0.97240863E+03</pdfrwt>
<pdfrwt beam="2">  1       -2 0.57117179E-01 0.97240863E+03</pdfrwt>
<totfact> 0.95831682E-01</totfact>
</mgrwt>
</event>
<event>
12    3  0.1092576E-007  0.5213010E+03  0.7818608E-02  0.1008364E+00
         -2   -1    0    0    0  501 -0.00000000000E+00  0.00000000000E+00  0.39839964405E+03  0.39839964405E+03  0.00000000000E+00 0.  1.
          1   -1    0    0  501    0  0.00000000000E+00 -0.00000000000E+00 -0.26531543267E+04  0.26531543267E+04  0.00000000000E+00 0. -1.
        -24    2    1    2    0    0  0.42764466498E+03  0.25880558679E+03 -0.22121707262E+04  0.22694072669E+04  0.81545877105E+02 0.  0.
    5000000    2    1    2    0    0 -0.42764466498E+03 -0.25880558679E+03 -0.42583956527E+02  0.78214670391E+03  0.60006648118E+03 0.  0.
        -24    2    4    4    0    0 -0.26405267832E+03 -0.93074475079E+02 -0.30455268926E+03  0.42155387451E+03  0.81047231545E+02 0.  0.
         24    2    4    4    0    0 -0.16359198666E+03 -0.16573111171E+03  0.26196873273E+03  0.36059282940E+03  0.84678404533E+02 0.  0.
         11    1    5    5    0    0 -0.19762922853E+03 -0.30532350694E+02 -0.21734747942E+03  0.29534634452E+03  0.00000000000E+00 0. -1.
        -12    1    5    5    0    0 -0.66423449791E+02 -0.62542124385E+02 -0.87205209837E+02  0.12620752999E+03  0.00000000000E+00 0.  1.
         15    1    3    3    0    0  0.46423819300E+02  0.56462380215E+02 -0.39263512151E+03  0.39938536246E+03  0.17770000000E+01 0. -1.
        -16    1    3    3    0    0  0.38122084568E+03  0.20234320657E+03 -0.18195356047E+04  0.18700219044E+04  0.00000000000E+00 0.  1.
          2    1    6    6  502    0 -0.13751661062E+03 -0.84578621406E+02  0.18727876996E+03  0.24726038718E+03  0.00000000000E+00 0. -1.
         -1    1    6    6    0  502 -0.26075376046E+02 -0.81152490301E+02  0.74689962777E+02  0.11333244221E+03  0.00000000000E+00 0.  1.
<mgrwt>
<rscale>  0 0.52130104E+03</rscale>
<asrwt>0</asrwt>
<pdfrwt beam="1">  1        1 0.40817759E+00 0.52130104E+03</pdfrwt>
<pdfrwt beam="2">  1       -2 0.61292253E-01 0.52130104E+03</pdfrwt>
<totfact> 0.25703414E+00</totfact>
</mgrwt>
</event>
<event>
12    3  0.1092576E-007  0.9581543E+03  0.7818608E-02  0.9355670E-01
         -2   -1    0    0    0  501 -0.00000000000E+00  0.00000000000E+00  0.94629051373E+03  0.94629051373E+03  0.00000000000E+00 0.  1.
          1   -1    0    0  501    0  0.00000000000E+00 -0.00000000000E+00 -0.11725500553E+04  0.11725500553E+04  0.00000000000E+00 0. -1.
        -24    2    1    2    0    0  0.85023819283E+03  0.38508978226E+03 -0.35477366507E+03  0.10018091739E+04  0.80982359824E+02 0.  0.
    5000000    2    1    2    0    0 -0.85023819283E+03 -0.38508978226E+03  0.12851412354E+03  0.11170313951E+04  0.60003677610E+03 0.  0.
        -24    2    4    4    0    0 -0.13613803374E+03 -0.17192855643E+03 -0.19142169565E+03  0.30206649335E+03  0.80677804215E+02 0.  0.
         24    2    4    4    0    0 -0.71410015909E+03 -0.21316122584E+03  0.31993581919E+03  0.81496490172E+03  0.80200481427E+02 0.  0.
         11    1    5    5    0    0 -0.69519067640E+02 -0.14687405142E+03 -0.13295833922E+03  0.20995906200E+03  0.00000000000E+00 0. -1.
        -12    1    5    5    0    0 -0.66618966101E+02 -0.25054505007E+02 -0.58463356431E+02  0.92107431355E+02  0.00000000000E+00 0.  1.
         15    1    3    3    0    0  0.51721210137E+03  0.19115536525E+03 -0.21598746466E+03  0.59220137967E+03  0.17770000000E+01 0. -1.
        -16    1    3    3    0    0  0.33302609146E+03  0.19393441702E+03 -0.13878620041E+03  0.40960779426E+03  0.00000000000E+00 0.  1.
          2    1    6    6  502    0 -0.67968870266E+03 -0.20950749517E+03  0.32103633401E+03  0.78034252147E+03  0.00000000000E+00 0. -1.
         -1    1    6    6    0  502 -0.34411456423E+02 -0.36537306716E+01 -0.11005148238E+01  0.34622380245E+02  0.00000000000E+00 0.  1.
<mgrwt>
<rscale>  0 0.95815433E+03</rscale>
<asrwt>0</asrwt>
<pdfrwt beam="1">  1        1 0.18039232E+00 0.95815433E+03</pdfrwt>
<pdfrwt beam="2">  1       -2 0.14558316E+00 0.95815433E+03</pdfrwt>
<totfact> 0.31864194E+00</totfact>
</mgrwt>
</event>
<event>
12    3  0.1092576E-007  0.8882653E+03  0.7818608E-02  0.9440370E-01
          1   -1    0    0  501    0  0.00000000000E+00  0.00000000000E+00  0.47978561858E+03  0.47978561858E+03  0.00000000000E+00 0. -1.
         -2   -1    0    0    0  501 -0.00000000000E+00 -0.00000000000E+00 -0.19939931975E+04  0.19939931975E+04  0.00000000000E+00 0.  1.
        -24    2    1    2    0    0  0.48372195506E+03  0.64947011318E+03 -0.23855353849E+03  0.84805565418E+03  0.80574463305E+02 0.  0.
    5000000    2    1    2    0    0 -0.48372195506E+03 -0.64947011318E+03 -0.12756540405E+04  0.16257231619E+04  0.59990350106E+03 0.  0.
        -24    2    4    4    0    0 -0.17678017305E+03 -0.63190340656E+03 -0.65884491014E+03  0.93217038504E+03  0.65664802682E+02 0.  0.
         24    2    4    4    0    0 -0.30694178201E+03 -0.17566706617E+02 -0.61680913032E+03  0.69355277690E+03  0.77718108392E+02 0.  0.
         13    1    5    5    0    0 -0.14610602975E+03 -0.57680401952E+03 -0.57693220232E+03  0.82879467598E+03  0.00000000000E+00 0. -1.
        -14    1    5    5    0    0 -0.30674143304E+02 -0.55099387043E+02 -0.81912707822E+02  0.10337570906E+03  0.00000000000E+00 0.  1.
         15    1    3    3    0    0  0.25798896717E+03  0.37689432147E+03 -0.17133361496E+03  0.48781759099E+03  0.17770000000E+01 0. -1.
        -16    1    3    3    0    0  0.22573298789E+03  0.27257579170E+03 -0.67219923529E+02  0.36023806318E+03  0.00000000000E+00 0.  1.
          4    1    6    6  502    0 -0.20328439818E+03 -0.46428908661E+01 -0.48102489939E+03  0.52223659084E+03  0.00000000000E+00 0. -1.
         -1    1    6    6    0  502 -0.10365738383E+03 -0.12923815751E+02 -0.13578423093E+03  0.17131618606E+03  0.00000000000E+00 0.  1.
<mgrwt>
<rscale>  0 0.88826535E+03</rscale>
<asrwt>0</asrwt>
<pdfrwt beam="1">  1        1 0.73813173E-01 0.88826535E+03</pdfrwt>
<pdfrwt beam="2">  1       -2 0.30676818E+00 0.88826535E+03</pdfrwt>
<totfact> 0.12176749E+00</totfact>
</mgrwt>
</event>
<event>
12    3  0.1092576E-007  0.4920720E+03  0.7818608E-02  0.1015869E+00
         -2   -1    0    0    0  501 -0.00000000000E+00  0.00000000000E+00  0.18620278831E+03  0.18620278831E+03  0.00000000000E+00 0.  1.
          1   -1    0    0  501    0  0.00000000000E+00 -0.00000000000E+00 -0.15077745261E+04  0.15077745261E+04  0.00000000000E+00 0. -1.
        -24    2    1    2    0    0  0.11920705853E+03  0.30355019680E+03 -0.67593980835E+03  0.75438780340E+03  0.76506788089E+02 0.  0.
    5000000    2    1    2    0    0 -0.11920705853E+03 -0.30355019680E+03 -0.64563192941E+03  0.93958951098E+03  0.59969560286E+03 0.  0.
        -24    2    4    4    0    0 -0.33122368659E+03 -0.28065303163E+03 -0.51080084471E+03  0.67478745808E+03  0.77106134021E+02 0.  0.
         24    2    4    4    0    0  0.21201662806E+03 -0.22897165170E+02 -0.13483108470E+03  0.26480205290E+03  0.80407556047E+02 0.  0.
         13    1    5    5    0    0 -0.10144506077E+03 -0.52886569210E+02 -0.16963012106E+03  0.20460319530E+03  0.00000000000E+00 0. -1.
        -14    1    5    5    0    0 -0.22977862582E+03 -0.22776646242E+03 -0.34117072366E+03  0.47018426278E+03  0.00000000000E+00 0.  1.
         15    1    3    3    0    0  0.10660200513E+03  0.18660967055E+03 -0.47886788744E+03  0.52488548083E+03  0.17770000000E+01 0. -1.
        -16    1    3    3    0    0  0.12605053399E+02  0.11694052626E+03 -0.19707192091E+03  0.22950232257E+03  0.00000000000E+00 0.  1.
          4    1    6    6  502    0  0.16194335767E+03 -0.23174736979E+02 -0.58954373463E+02  0.17389174126E+03  0.00000000000E+00 0. -1.
         -3    1    6    6    0  502  0.50073270389E+02  0.27757180901E+00 -0.75876711236E+02  0.90910311635E+02  0.00000000000E+00 0.  1.
<mgrwt>
<rscale>  0 0.49207199E+03</rscale>
<asrwt>0</asrwt>
<pdfrwt beam="1">  1        1 0.23196531E+00 0.49207199E+03</pdfrwt>
<pdfrwt beam="2">  1       -2 0.28646582E-01 0.49207199E+03</pdfrwt>
<totfact> 0.66919360E+01</totfact>
</mgrwt>
</event>
<event>
12    3  0.1092576E-007  0.2921539E+04  0.7818608E-02  0.8266498E-01
         -2   -1    0    0    0  501 -0.00000000000E+00  0.00000000000E+00  0.23313075157E+04  0.23313075157E+04  0.00000000000E+00 0.  1.
          1   -1    0    0  501    0  0.00000000000E+00 -0.00000000000E+00 -0.38152082080E+04  0.38152082080E+04  0.00000000000E+00 0. -1.
        -24    2    1    2    0    0 -0.22132946275E+04 -0.19030396080E+04 -0.11857858873E+04  0.31516596048E+04  0.81469235344E+02 0.  0.
    5000000    2    1    2    0    0  0.22132946275E+04  0.19030396080E+04 -0.29811480494E+03  0.29948561189E+04  0.60004822981E+03 0.  0.
        -24    2    4    4    0    0  0.11831851595E+04  0.10858914700E+04  0.12101777592E+03  0.16124556270E+04  0.79249233005E+02 0.  0.
         24    2    4    4    0    0  0.10301094680E+04  0.81714813804E+03 -0.41913258086E+03  0.13824004918E+04  0.80637484362E+02 0.  0.
         13    1    5    5    0    0  0.85318567618E+03  0.80392518336E+03  0.56518909600E+02  0.11736336250E+04  0.00000000000E+00 0. -1.
        -14    1    5    5    0    0  0.32999948327E+03  0.28196628660E+03  0.64498866318E+02  0.43882200206E+03  0.00000000000E+00 0.  1.
         15    1    3    3    0    0 -0.12968250198E+04 -0.10805515894E+04 -0.71855342703E+03  0.18345759877E+04  0.17770000000E+01 0. -1.
        -16    1    3    3    0    0 -0.91646960766E+03 -0.82248801860E+03 -0.46723246027E+03  0.13170836171E+04  0.00000000000E+00 0.  1.
          4    1    6    6  502    0  0.88839864847E+03  0.73843091719E+03 -0.36635094321E+03  0.12119180631E+04  0.00000000000E+00 0. -1.
         -3    1    6    6    0  502  0.14171081957E+03  0.78717220848E+02 -0.52781637656E+02  0.17048242876E+03  0.00000000000E+00 0.  1.
<mgrwt>
<rscale>  0 0.29215393E+04</rscale>
<asrwt>0</asrwt>
<pdfrwt beam="1">  1        1 0.58695510E+00 0.29215393E+04</pdfrwt>
<pdfrwt beam="2">  1       -2 0.35866270E+00 0.29215393E+04</pdfrwt>
<totfact> 0.13308889E-03</totfact>
</mgrwt>
</event>
<event>
12    3  0.1092576E-007  0.5551625E+03  0.7818608E-02  0.1000306E+00
         -2   -1    0    0    0  501 -0.00000000000E+00  0.00000000000E+00  0.41359762179E+03  0.41359762179E+03  0.00000000000E+00 0.  1.
          1   -1    0    0  501    0  0.00000000000E+00 -0.00000000000E+00 -0.12454364662E+04  0.12454364662E+04  0.00000000000E+00 0. -1.
        -24    2    1    2    0    0 -0.42953844643E+03 -0.32567436750E+03 -0.69877208829E+02  0.54937909385E+03  0.79796577880E+02 0.  0.
    5000000    2    1    2    0    0  0.42953844643E+03  0.32567436750E+03 -0.76196163563E+03  0.11096549942E+04  0.60015131536E+03 0.  0.
        -24    2    4    4    0    0  0.15320216769E+03  0.19440051541E+03  0.25105670944E+02  0.26127935615E+03  0.79838228046E+02 0.  0.
         24    2    4    4    0    0  0.27633627874E+03  0.13127385208E+03 -0.78706730658E+03  0.84837563803E+03  0.81680566431E+02 0.  0.
         11    1    5    5    0    0  0.14760981530E+03  0.15017405923E+03  0.94609523816E+00  0.21057492902E+03  0.00000000000E+00 0. -1.
        -12    1    5    5    0    0  0.55923523975E+01  0.44226456183E+02  0.24159575706E+02  0.50704427126E+02  0.00000000000E+00 0.  1.
         15    1    3    3    0    0 -0.23701929443E+03 -0.17186409735E+03 -0.77442050240E+02  0.30284623618E+03  0.17770000000E+01 0. -1.
        -16    1    3    3    0    0 -0.19251915200E+03 -0.15381027014E+03  0.75648414115E+01  0.24653285768E+03  0.00000000000E+00 0.  1.
          2    1    6    6  502    0  0.52159578743E+02  0.62678639246E+02 -0.22805351771E+03  0.24219339465E+03  0.00000000000E+00 0. -1.
         -1    1    6    6    0  502  0.22417670000E+03  0.68595212837E+02 -0.55901378886E+03  0.60618224338E+03  0.00000000000E+00 0.  1.
<mgrwt>
<rscale>  0 0.55516246E+03</rscale>
<asrwt>0</asrwt>
<pdfrwt beam="1">  1        1 0.19160561E+00 0.55516246E+03</pdfrwt>
<pdfrwt beam="2">  1       -2 0.63630404E-01 0.55516246E+03</pdfrwt>
<totfact> 0.20910215E+01</totfact>
</mgrwt>
</event>
<event>
12    3  0.1092576E-007  0.3095038E+03  0.7818608E-02  0.1080584E+00
         -2   -1    0    0    0  501 -0.00000000000E+00  0.00000000000E+00  0.21119329410E+03  0.21119329410E+03  0.00000000000E+00 0.  1.
          1   -1    0    0  501    0  0.00000000000E+00 -0.00000000000E+00 -0.82702456648E+03  0.82702456648E+03  0.00000000000E+00 0. -1.
        -24    2    1    2    0    0  0.17247717471E+03  0.68275673072E+02 -0.11050582489E+03  0.23214946990E+03  0.85275410932E+02 0.  0.
    5000000    2    1    2    0    0 -0.17247717471E+03 -0.68275673072E+02 -0.50532544748E+03  0.80606839068E+03  0.59998541586E+03 0.  0.
        -24    2    4    4    0    0 -0.27720238432E+03 -0.58646536035E+02 -0.58280105654E+03  0.65309920854E+03  0.81246086894E+02 0.  0.
         24    2    4    4    0    0  0.10472520961E+03 -0.96291370379E+01  0.77475609054E+02  0.15296918213E+03  0.79605344518E+02 0.  0.
         11    1    5    5    0    0 -0.68277887954E+02 -0.18716576722E+02 -0.23479548273E+03  0.24523682215E+03  0.00000000000E+00 0. -1.
        -12    1    5    5    0    0 -0.20892449637E+03 -0.39929959313E+02 -0.34800557381E+03  0.40786238639E+03  0.00000000000E+00 0.  1.
         15    1    3    3    0    0  0.13452697636E+03  0.10964876901E+02 -0.80345490492E+02  0.15708689145E+03  0.17770000000E+01 0. -1.
        -16    1    3    3    0    0  0.37950198359E+02  0.57310796172E+02 -0.30160334400E+02  0.75062578456E+02  0.00000000000E+00 0.  1.
          2    1    6    6  502    0  0.97475766094E+02 -0.36398360637E+02  0.58530249993E+02  0.11938239316E+03  0.00000000000E+00 0. -1.
         -1    1    6    6    0  502  0.72494435156E+01  0.26769223599E+02  0.18945359062E+02  0.33586788971E+02  0.00000000000E+00 0.  1.
<mgrwt>
<rscale>  0 0.30950382E+03</rscale>
<asrwt>0</asrwt>
<pdfrwt beam="1">  1        1 0.12723455E+00 0.30950382E+03</pdfrwt>
<pdfrwt beam="2">  1       -2 0.32491276E-01 0.30950382E+03</pdfrwt>
<totfact> 0.17048194E+02</totfact>
</mgrwt>
</event>
<event>
12    3  0.1092576E-007  0.1201575E+04  0.7818608E-02  0.9111479E-01
          1   -1    0    0  501    0  0.00000000000E+00  0.00000000000E+00  0.10245372069E+04  0.10245372069E+04  0.00000000000E+00 0. -1.
         -2   -1    0    0    0  501 -0.00000000000E+00 -0.00000000000E+00 -0.15580269205E+04  0.15580269205E+04  0.00000000000E+00 0.  1.
        -24    2    1    2    0    0 -0.95861958508E+03  0.67741691763E+03 -0.45700604183E+03  0.12621163906E+04  0.78981466571E+02 0.  0.
    5000000    2    1    2    0    0  0.95861958508E+03 -0.67741691763E+03 -0.76483671694E+02  0.13204477368E+04  0.59990606293E+03 0.  0.
        -24    2    4    4    0    0  0.88644008282E+03 -0.67958401208E+03 -0.21983245681E+03  0.11412107475E+04  0.80157415301E+02 0.  0.
         24    2    4    4    0    0  0.72179502259E+02  0.21670944577E+01  0.14334878511E+03  0.17923698928E+03  0.79764950247E+02 0.  0.
         11    1    5    5    0    0  0.84713218636E+03 -0.62934218293E+03 -0.21670993038E+03  0.10773428973E+04  0.00000000000E+00 0. -1.
        -12    1    5    5    0    0  0.39307896463E+02 -0.50241829159E+02 -0.31225264311E+01  0.63867850230E+02  0.00000000000E+00 0.  1.
         15    1    3    3    0    0 -0.70185462353E+03  0.53770942233E+03 -0.34415329325E+03  0.94877604440E+03  0.17770000000E+01 0. -1.
        -16    1    3    3    0    0 -0.25676496155E+03  0.13970749530E+03 -0.11285274858E+03  0.31334034624E+03  0.00000000000E+00 0.  1.
          4    1    6    6  502    0  0.48773380314E+02  0.40000968755E+02  0.81999901664E+02  0.10345484040E+03  0.00000000000E+00 0. -1.
         -1    1    6    6    0  502  0.23406121945E+02 -0.37833874297E+02  0.61348883449E+02  0.75782148883E+02  0.00000000000E+00 0.  1.
<mgrwt>
<rscale>  0 0.12015753E+04</rscale>
<asrwt>0</asrwt>
<pdfrwt beam="1">  1        1 0.15762111E+00 0.12015753E+04</pdfrwt>
<pdfrwt beam="2">  1       -2 0.23969645E+00 0.12015753E+04</pdfrwt>
<totfact> 0.92196383E-01</totfact>
</mgrwt>
</event>
<event>
12    3  0.1092576E-007  0.8148574E+03  0.7818608E-02  0.9538757E-01
          1   -1    0    0  501    0  0.00000000000E+00  0.00000000000E+00  0.31026197578E+04  0.31026197578E+04  0.00000000000E+00 0. -1.
         -2   -1    0    0    0  501 -0.00000000000E+00 -0.00000000000E+00 -0.22357418049E+03  0.22357418049E+03  0.00000000000E+00 0.  1.
        -24    2    1    2    0    0 -0.66786181494E+03 -0.24196564284E+03  0.99419132275E+03  0.12244901120E+04  0.79830269054E+02 0.  0.
    5000000    2    1    2    0    0  0.66786181494E+03  0.24196564284E+03  0.18848542545E+04  0.21017038263E+04  0.59991385760E+03 0.  0.
        -24    2    4    4    0    0  0.11372576155E+03  0.33200947693E+03  0.80385174092E+03  0.88105037446E+03  0.83116179774E+02 0.  0.
         24    2    4    4    0    0  0.55413605340E+03 -0.90043834090E+02  0.10810025136E+04  0.12206534518E+04  0.79080701581E+02 0.  0.
         13    1    5    5    0    0 -0.75300425636E+01  0.50575966440E+02  0.16039116201E+03  0.16834474977E+03  0.00000000000E+00 0. -1.
        -14    1    5    5    0    0  0.12125580411E+03  0.28143351049E+03  0.64346057891E+03  0.71270562470E+03  0.00000000000E+00 0.  1.
         15    1    3    3    0    0 -0.58842427131E+03 -0.20819615255E+03  0.82457986572E+03  0.10341778733E+04  0.17770000000E+01 0. -1.
        -16    1    3    3    0    0 -0.79437543632E+02 -0.33769490289E+02  0.16961145703E+03  0.19031223862E+03  0.00000000000E+00 0.  1.
          4    1    6    6  502    0  0.35806810510E+03 -0.66172639651E+02  0.61828199051E+03  0.71754038626E+03  0.00000000000E+00 0. -1.
         -3    1    6    6    0  502  0.19606794830E+03 -0.23871194439E+02  0.46272052308E+03  0.50311306558E+03  0.00000000000E+00 0.  1.
<mgrwt>
<rscale>  0 0.81485735E+03</rscale>
<asrwt>0</asrwt>
<pdfrwt beam="1">  1        1 0.47732609E+00 0.81485735E+03</pdfrwt>
<pdfrwt beam="2">  1       -2 0.34396030E-01 0.81485735E+03</pdfrwt>
<totfact> 0.36932221E+00</totfact>
</mgrwt>
</event>
<event>
12    3  0.1092576E-007  0.1371677E+04  0.7818608E-02  0.8974580E-01
          1   -1    0    0  501    0  0.00000000000E+00  0.00000000000E+00  0.37341603858E+04  0.37341603858E+04  0.00000000000E+00 0. -1.
         -2   -1    0    0    0  501 -0.00000000000E+00 -0.00000000000E+00 -0.51422507360E+03  0.51422507360E+03  0.00000000000E+00 0.  1.
        -24    2    1    2    0    0  0.16828046697E+02  0.13104391519E+04  0.13004859864E+04  0.18480361006E+04  0.80247582595E+02 0.  0.
    5000000    2    1    2    0    0 -0.16828046697E+02 -0.13104391519E+04  0.19194493257E+04  0.24003493587E+04  0.59988113485E+03 0.  0.
        -24    2    4    4    0    0  0.26981937892E+03 -0.45757730772E+03  0.74369395762E+03  0.91747484451E+03  0.80621944445E+02 0.  0.
         24    2    4    4    0    0 -0.28664742562E+03 -0.85286184414E+03  0.11757553681E+04  0.14828745142E+04  0.83522855758E+02 0.  0.
         13    1    5    5    0    0  0.78183596896E+02 -0.15219706576E+03  0.18000774630E+03  0.24835339816E+03  0.00000000000E+00 0. -1.
        -14    1    5    5    0    0  0.19163578203E+03 -0.30538024196E+03  0.56368621132E+03  0.66912144635E+03  0.00000000000E+00 0.  1.
         15    1    3    3    0    0 -0.83996072709E+01  0.10970107739E+04  0.10594794130E+04  0.15251239215E+04  0.17770000000E+01 0. -1.
        -16    1    3    3    0    0  0.25227653968E+02  0.21342837794E+03  0.24100657339E+03  0.32291217916E+03  0.00000000000E+00 0.  1.
          4    1    6    6  502    0 -0.18911933475E+03 -0.55451129879E+03  0.69886056274E+03  0.91195119903E+03  0.00000000000E+00 0. -1.
         -3    1    6    6    0  502 -0.97528090873E+02 -0.29835054535E+03  0.47689480536E+03  0.57092331516E+03  0.00000000000E+00 0.  1.
<mgrwt>
<rscale>  0 0.13716765E+04</rscale>
<asrwt>0</asrwt>
<pdfrwt beam="1">  1        1 0.57448619E+00 0.13716765E+04</pdfrwt>
<pdfrwt beam="2">  1       -2 0.79111552E-01 0.13716765E+04</pdfrwt>
<totfact> 0.19801846E-01</totfact>
</mgrwt>
</event>
<event>
12    3  0.1092576E-007  0.7824637E+03  0.7818608E-02  0.9585753E-01
         -2   -1    0    0    0  501 -0.00000000000E+00  0.00000000000E+00  0.43802098782E+03  0.43802098782E+03  0.00000000000E+00 0.  1.
          1   -1    0    0  501    0  0.00000000000E+00 -0.00000000000E+00 -0.16508957809E+04  0.16508957809E+04  0.00000000000E+00 0. -1.
        -24    2    1    2    0    0  0.66440618821E+03  0.10354119612E+03 -0.14639330492E+03  0.69264283568E+03  0.78528567156E+02 0.  0.
    5000000    2    1    2    0    0 -0.66440618821E+03 -0.10354119612E+03 -0.10664814882E+04  0.13962739331E+04  0.60003480676E+03 0.  0.
        -24    2    4    4    0    0  0.74355024683E+02  0.74749988549E+02 -0.10924699495E+03  0.17101362341E+03  0.78705292094E+02 0.  0.
         24    2    4    4    0    0 -0.73876121290E+03 -0.17829118467E+03 -0.95723449324E+03  0.12252603097E+04  0.86075985013E+02 0.  0.
         11    1    5    5    0    0  0.68363430182E+02  0.18198196191E+02 -0.80909954639E+02  0.10747629362E+03  0.00000000000E+00 0. -1.
        -12    1    5    5    0    0  0.59915945011E+01  0.56551792358E+02 -0.28337040313E+02  0.63537329793E+02  0.00000000000E+00 0.  1.
         15    1    3    3    0    0  0.52126144296E+03  0.10020874638E+03 -0.88207545123E+02  0.53808829528E+03  0.17770000000E+01 0. -1.
        -16    1    3    3    0    0  0.14314474525E+03  0.33324497364E+01 -0.58185759802E+02  0.15455454040E+03  0.00000000000E+00 0.  1.
          2    1    6    6  502    0 -0.32542408876E+03 -0.11511714844E+03 -0.39478037428E+03  0.52440856146E+03  0.00000000000E+00 0. -1.
         -3    1    6    6    0  502 -0.41333712413E+03 -0.63174036228E+02 -0.56245411896E+03  0.70085174822E+03  0.00000000000E+00 0.  1.
<mgrwt>
<rscale>  0 0.78246368E+03</rscale>
<asrwt>0</asrwt>
<pdfrwt beam="1">  1        1 0.25398397E+00 0.78246368E+03</pdfrwt>
<pdfrwt beam="2">  1       -2 0.67387844E-01 0.78246368E+03</pdfrwt>
<totfact> 0.94050553E+00</totfact>
</mgrwt>
</event>
<event>
12    3  0.1350038E-007  0.8925534E+03  0.7818608E-02  0.9434938E-01
         -2   -1    0    0    0  501 -0.00000000000E+00  0.00000000000E+00  0.40090151967E+03  0.40090151967E+03  0.00000000000E+00 0.  1.
          1   -1    0    0  501    0  0.00000000000E+00 -0.00000000000E+00 -0.23563224208E+04  0.23563224208E+04  0.00000000000E+00 0. -1.
        -24    2    1    2    0    0  0.81544943378E+03 -0.31763431367E+03 -0.98071053996E+03  0.13164307427E+04  0.73125924447E+02 0.  0.
    5000000    2    1    2    0    0 -0.81544943378E+03  0.31763431367E+03 -0.97471036113E+03  0.14407931977E+04  0.59997951156E+03 0.  0.
        -24    2    4    4    0    0 -0.70796655459E+03  0.21805588491E+03 -0.40727766260E+03  0.84914530569E+03  0.80047763040E+02 0.  0.
         24    2    4    4    0    0 -0.10748287919E+03  0.99578428760E+02 -0.56743269853E+03  0.59164789205E+03  0.81233786122E+02 0.  0.
         13    1    5    5    0    0 -0.34524007033E+03  0.14005741294E+03 -0.23110824738E+03  0.43842651276E+03  0.00000000000E+00 0. -1.
        -14    1    5    5    0    0 -0.36272648426E+03  0.77998471969E+02 -0.17616941522E+03  0.41071879294E+03  0.00000000000E+00 0.  1.
         15    1    3    3    0    0  0.32171262030E+03 -0.12396344715E+03 -0.33358733853E+03  0.47973911290E+03  0.17770000000E+01 0. -1.
        -16    1    3    3    0    0  0.49373681348E+03 -0.19367086652E+03 -0.64712320143E+03  0.83669162979E+03  0.00000000000E+00 0.  1.
          2    1    6    6  502    0 -0.39226839906E+02  0.89068771247E+02 -0.36533796776E+03  0.37807912091E+03  0.00000000000E+00 0. -1.
         -1    1    6    6    0  502 -0.68256039284E+02  0.10509657513E+02 -0.20209473077E+03  0.21356877114E+03  0.00000000000E+00 0.  1.
<mgrwt>
<rscale>  0 0.89255341E+03</rscale>
<asrwt>0</asrwt>
<pdfrwt beam="1">  1        1 0.36251114E+00 0.89255341E+03</pdfrwt>
<pdfrwt beam="2">  1       -2 0.61677157E-01 0.89255341E+03</pdfrwt>
<totfact> 0.37561828E+00</totfact>
</mgrwt>
</event>
<event>
12    3  0.1092576E-007  0.5973466E+03  0.7818608E-02  0.9910926E-01
         -2   -1    0    0    0  501 -0.00000000000E+00  0.00000000000E+00  0.34782665878E+03  0.34782665878E+03  0.00000000000E+00 0.  1.
          1   -1    0    0  501    0  0.00000000000E+00 -0.00000000000E+00 -0.14369521565E+04  0.14369521565E+04  0.00000000000E+00 0. -1.
        -24    2    1    2    0    0  0.47967435007E+03  0.30694461869E+03 -0.56115434407E+03  0.80346617075E+03  0.79757185334E+02 0.  0.
    5000000    2    1    2    0    0 -0.47967435007E+03 -0.30694461869E+03 -0.52797115368E+03  0.98131264455E+03  0.59993206797E+03 0.  0.
        -24    2    4    4    0    0 -0.38351837276E+03 -0.34100761742E+03 -0.63086750381E+03  0.81692612836E+03  0.77472281776E+02 0.  0.
         24    2    4    4    0    0 -0.96155977310E+02  0.34062998731E+02  0.10289635013E+03  0.16438651619E+03  0.77646686865E+02 0.  0.
         13    1    5    5    0    0 -0.52763066962E+02 -0.69151189140E+02 -0.14726219336E+03  0.17103210748E+03  0.00000000000E+00 0. -1.
        -14    1    5    5    0    0 -0.33075530580E+03 -0.27185642828E+03 -0.48360531044E+03  0.64589402088E+03  0.00000000000E+00 0.  1.
         15    1    3    3    0    0  0.18442800133E+03  0.73251336212E+02 -0.19832398115E+03  0.28056194531E+03  0.17770000000E+01 0. -1.
        -16    1    3    3    0    0  0.29524634875E+03  0.23369328248E+03 -0.36283036292E+03  0.52290422544E+03  0.00000000000E+00 0.  1.
          2    1    6    6  502    0 -0.42424189632E+02  0.30369363495E+01  0.92047453911E+02  0.10139905631E+03  0.00000000000E+00 0. -1.
         -1    1    6    6    0  502 -0.53731787678E+02  0.31026062381E+02  0.10848896221E+02  0.62987459888E+02  0.00000000000E+00 0.  1.
<mgrwt>
<rscale>  0 0.59734662E+03</rscale>
<asrwt>0</asrwt>
<pdfrwt beam="1">  1        1 0.22106956E+00 0.59734662E+03</pdfrwt>
<pdfrwt beam="2">  1       -2 0.53511794E-01 0.59734662E+03</pdfrwt>
<totfact> 0.21953847E+01</totfact>
</mgrwt>
</event>
<event>
12    3  0.1092576E-007  0.7949806E+03  0.7818608E-02  0.9567311E-01
          1   -1    0    0  501    0  0.00000000000E+00  0.00000000000E+00  0.78474642038E+03  0.78474642038E+03  0.00000000000E+00 0. -1.
         -2   -1    0    0    0  501 -0.00000000000E+00 -0.00000000000E+00 -0.13224707365E+04  0.13224707365E+04  0.00000000000E+00 0.  1.
        -24    2    1    2    0    0  0.15012366804E+03 -0.71986141272E+03 -0.83076467633E+03  0.11135832841E+04  0.95709007282E+02 0.  0.
    5000000    2    1    2    0    0 -0.15012366804E+03  0.71986141272E+03  0.29304036021E+03  0.99363387273E+03  0.60058142754E+03 0.  0.
        -24    2    4    4    0    0  0.11349580543E+03  0.45720665225E+03  0.37144896380E+03  0.60507136886E+03  0.78853078517E+02 0.  0.
         24    2    4    4    0    0 -0.26361947347E+03  0.26265476047E+03 -0.78408603591E+02  0.38856250387E+03  0.79687893109E+02 0.  0.
         11    1    5    5    0    0  0.64277722967E+02  0.37591391720E+03  0.31418482461E+03  0.49412043353E+03  0.00000000000E+00 0. -1.
        -12    1    5    5    0    0  0.49218082466E+02  0.81292735047E+02  0.57264139191E+02  0.11095093533E+03  0.00000000000E+00 0.  1.
         15    1    3    3    0    0  0.36888523695E+02 -0.39148231679E+03 -0.41253564172E+03  0.56991927582E+03  0.17770000000E+01 0. -1.
        -16    1    3    3    0    0  0.11323514434E+03 -0.32837909594E+03 -0.41822903460E+03  0.54366400832E+03  0.00000000000E+00 0.  1.
          2    1    6    6  502    0 -0.14067490227E+03  0.12236883409E+03 -0.60367528002E+00  0.18645086246E+03  0.00000000000E+00 0. -1.
         -1    1    6    6    0  502 -0.12294457120E+03  0.14028592638E+03 -0.77804928311E+02  0.20211164141E+03  0.00000000000E+00 0.  1.
<mgrwt>
<rscale>  0 0.79498059E+03</rscale>
<asrwt>0</asrwt>
<pdfrwt beam="1">  1        1 0.12073022E+00 0.79498059E+03</pdfrwt>
<pdfrwt beam="2">  1       -2 0.20345703E+00 0.79498059E+03</pdfrwt>
<totfact> 0.25794521E+00</totfact>
</mgrwt>
</event>
<event>
12    3  0.1092576E-007  0.7111880E+03  0.7818608E-02  0.9698288E-01
         -2   -1    0    0    0  501 -0.00000000000E+00  0.00000000000E+00  0.35145224607E+03  0.35145224607E+03  0.00000000000E+00 0.  1.
          1   -1    0    0  501    0  0.00000000000E+00 -0.00000000000E+00 -0.18451581868E+04  0.18451581868E+04  0.00000000000E+00 0. -1.
        -24    2    1    2    0    0  0.14322859777E+03 -0.61643657315E+03 -0.10230566234E+04  0.12056956232E+04  0.80923427537E+02 0.  0.
    5000000    2    1    2    0    0 -0.14322859777E+03  0.61643657315E+03 -0.47064931730E+03  0.99091480967E+03  0.59991074353E+03 0.  0.
        -24    2    4    4    0    0  0.15556450628E+03  0.31915917895E+03 -0.42506288221E+03  0.55950557752E+03  0.79404913701E+02 0.  0.
         24    2    4    4    0    0 -0.29879310404E+03  0.29727739420E+03 -0.45586435087E+02  0.43140923215E+03  0.79903907236E+02 0.  0.
         11    1    5    5    0    0  0.80448961622E+01  0.38158446359E+02 -0.89533543893E+02  0.97657784456E+02  0.00000000000E+00 0. -1.
        -12    1    5    5    0    0  0.14751961011E+03  0.28100073259E+03 -0.33552933832E+03  0.46184779306E+03  0.00000000000E+00 0.  1.
         15    1    3    3    0    0  0.12261273340E+03 -0.35442057588E+03 -0.58861133289E+03  0.69793573195E+03  0.17770000000E+01 0. -1.
        -16    1    3    3    0    0  0.20615864371E+02 -0.26201599727E+03 -0.43444529053E+03  0.50775989124E+03  0.00000000000E+00 0.  1.
          4    1    6    6  502    0 -0.10702811237E+03  0.58742861128E+02 -0.81190831951E+00  0.12209176780E+03  0.00000000000E+00 0. -1.
         -3    1    6    6    0  502 -0.19176499168E+03  0.23853453307E+03 -0.44774526767E+02  0.30931746435E+03  0.00000000000E+00 0.  1.
<mgrwt>
<rscale>  0 0.71118802E+03</rscale>
<asrwt>0</asrwt>
<pdfrwt beam="1">  1        1 0.28387049E+00 0.71118802E+03</pdfrwt>
<pdfrwt beam="2">  1       -2 0.54069576E-01 0.71118802E+03</pdfrwt>
<totfact> 0.11207764E+01</totfact>
</mgrwt>
</event>
<event>
12    3  0.1092576E-007  0.8151965E+03  0.7818608E-02  0.9538278E-01
          1   -1    0    0  501    0  0.00000000000E+00  0.00000000000E+00  0.11323372160E+04  0.11323372160E+04  0.00000000000E+00 0. -1.
         -2   -1    0    0    0  501 -0.00000000000E+00 -0.00000000000E+00 -0.61846536344E+03  0.61846536344E+03  0.00000000000E+00 0.  1.
        -24    2    1    2    0    0 -0.70712220210E+03 -0.77394533762E+00  0.49378024386E+02  0.71355124125E+03  0.81821616366E+02 0.  0.
    5000000    2    1    2    0    0  0.70712220210E+03  0.77394533762E+00  0.46449382818E+03  0.10372513382E+04  0.60009450461E+03 0.  0.
        -24    2    4    4    0    0 -0.20123610418E+02 -0.16302710153E+03  0.88130073380E+02  0.19862227658E+03  0.68564592818E+02 0.  0.
         24    2    4    4    0    0  0.72724581252E+03  0.16380104687E+03  0.37636375480E+03  0.83862906161E+03  0.77017999657E+02 0.  0.
         13    1    5    5    0    0 -0.64588155109E+01 -0.15811936880E+03  0.64506223535E+02  0.17089325312E+03  0.00000000000E+00 0. -1.
        -14    1    5    5    0    0 -0.13664794907E+02 -0.49077327347E+01  0.23623849845E+02  0.27729023458E+02  0.00000000000E+00 0.  1.
         15    1    3    3    0    0 -0.42335277992E+03 -0.37820952936E+02  0.14891968134E+02  0.42530333785E+03  0.17770000000E+01 0. -1.
        -16    1    3    3    0    0 -0.28376942218E+03  0.37047007598E+02  0.34486056253E+02  0.28824790340E+03  0.00000000000E+00 0.  1.
          4    1    6    6  502    0  0.27428175526E+03  0.80414584703E+02  0.10784947722E+03  0.30549713000E+03  0.00000000000E+00 0. -1.
         -3    1    6    6    0  502  0.45296405725E+03  0.83386462167E+02  0.26851427757E+03  0.53313193160E+03  0.00000000000E+00 0.  1.
<mgrwt>
<rscale>  0 0.81519647E+03</rscale>
<asrwt>0</asrwt>
<pdfrwt beam="1">  1        1 0.17420572E+00 0.81519647E+03</pdfrwt>
<pdfrwt beam="2">  1       -2 0.95148518E-01 0.81519647E+03</pdfrwt>
<totfact> 0.99415840E+00</totfact>
</mgrwt>
</event>
<event>
12    3  0.1092576E-007  0.9899325E+03  0.7818608E-02  0.9319656E-01
         -2   -1    0    0    0  501 -0.00000000000E+00  0.00000000000E+00  0.97552035801E+03  0.97552035801E+03  0.00000000000E+00 0.  1.
          1   -1    0    0  501    0  0.00000000000E+00 -0.00000000000E+00 -0.11649270584E+04  0.11649270584E+04  0.00000000000E+00 0. -1.
        -24    2    1    2    0    0 -0.28093704602E+03 -0.87143658036E+03 -0.43765480633E+03  0.10179114898E+04  0.79213219811E+02 0.  0.
    5000000    2    1    2    0    0  0.28093704602E+03  0.87143658036E+03  0.24824810591E+03  0.11225359266E+04  0.60011036237E+03 0.  0.
        -24    2    4    4    0    0 -0.77190845531E+02  0.61689358056E+03  0.35974738340E+02  0.62833939604E+03  0.83666590986E+02 0.  0.
         24    2    4    4    0    0  0.35812789155E+03  0.25454299980E+03  0.21227336757E+03  0.49419653057E+03  0.78246423490E+02 0.  0.
         11    1    5    5    0    0 -0.52393477271E+02  0.50177499897E+03  0.60301116486E+02  0.50809393886E+03  0.00000000000E+00 0. -1.
        -12    1    5    5    0    0 -0.24797368260E+02  0.11511858159E+03 -0.24326378146E+02  0.12024545719E+03  0.00000000000E+00 0.  1.
         15    1    3    3    0    0 -0.18732776095E+03 -0.46878186092E+03 -0.26172833859E+03  0.56864136686E+03  0.17770000000E+01 0. -1.
        -16    1    3    3    0    0 -0.93609285074E+02 -0.40265471944E+03 -0.17592646774E+03  0.44927012297E+03  0.00000000000E+00 0.  1.
          4    1    6    6  502    0  0.16293107795E+03  0.11395803469E+03  0.13946850886E+03  0.24286711346E+03  0.00000000000E+00 0. -1.
         -3    1    6    6    0  502  0.19519681360E+03  0.14058496511E+03  0.72804858710E+02  0.25132941711E+03  0.00000000000E+00 0.  1.
<mgrwt>
<rscale>  0 0.98993253E+03</rscale>
<asrwt>0</asrwt>
<pdfrwt beam="1">  1        1 0.17921955E+00 0.98993253E+03</pdfrwt>
<pdfrwt beam="2">  1       -2 0.15008006E+00 0.98993253E+03</pdfrwt>
<totfact> 0.29675532E+00</totfact>
</mgrwt>
</event>
<event>
12    3  0.1092576E-007  0.7658208E+03  0.7818608E-02  0.9610852E-01
         -2   -1    0    0    0  501 -0.00000000000E+00  0.00000000000E+00  0.52596010669E+03  0.52596010669E+03  0.00000000000E+00 0.  1.
          1   -1    0    0  501    0  0.00000000000E+00 -0.00000000000E+00 -0.23090972825E+04  0.23090972825E+04  0.00000000000E+00 0. -1.
        -24    2    1    2    0    0  0.19141832818E+03  0.67067073283E+03 -0.17817839422E+04  0.19150971699E+04  0.80018406136E+02 0.  0.
    5000000    2    1    2    0    0 -0.19141832818E+03 -0.67067073283E+03 -0.13532335905E+01  0.91996021924E+03  0.59990396358E+03 0.  0.
        -24    2    4    4    0    0 -0.18844742907E+03 -0.71942424804E+03 -0.13440916049E+03  0.75999686478E+03  0.80285302858E+02 0.  0.
         24    2    4    4    0    0 -0.29708991022E+01  0.48753515217E+02  0.13305592690E+03  0.15996335446E+03  0.74152974323E+02 0.  0.
         13    1    5    5    0    0 -0.23070910336E+02 -0.18951064161E+03 -0.58749363279E+02  0.19974493203E+03  0.00000000000E+00 0. -1.
        -14    1    5    5    0    0 -0.16537651874E+03 -0.52991360644E+03 -0.75659797207E+02  0.56025193275E+03  0.00000000000E+00 0.  1.
         15    1    3    3    0    0  0.32876766371E+02  0.18586883946E+03 -0.40382867810E+03  0.44576772678E+03  0.17770000000E+01 0. -1.
        -16    1    3    3    0    0  0.15854156180E+03  0.48480189337E+03 -0.13779552641E+04  0.14693294432E+04  0.00000000000E+00 0.  1.
          2    1    6    6  502    0 -0.47319615688E+01 -0.18708549840E+02  0.45459752067E+02  0.49386135255E+02  0.00000000000E+00 0. -1.
         -1    1    6    6    0  502  0.17610624666E+01  0.67462065058E+02  0.87596174829E+02  0.11057721921E+03  0.00000000000E+00 0.  1.
<mgrwt>
<rscale>  0 0.76582080E+03</rscale>
<asrwt>0</asrwt>
<pdfrwt beam="1">  1        1 0.35524573E+00 0.76582080E+03</pdfrwt>
<pdfrwt beam="2">  1       -2 0.80916941E-01 0.76582080E+03</pdfrwt>
<totfact> 0.22760745E+00</totfact>
</mgrwt>
</event>
<event>
12    3  0.1092576E-007  0.8035457E+03  0.7818608E-02  0.9554899E-01
          1   -1    0    0  501    0  0.00000000000E+00  0.00000000000E+00  0.18261412118E+04  0.18261412118E+04  0.00000000000E+00 0. -1.
         -2   -1    0    0    0  501 -0.00000000000E+00 -0.00000000000E+00 -0.36354875370E+03  0.36354875370E+03  0.00000000000E+00 0.  1.
        -24    2    1    2    0    0 -0.63856047701E+02  0.69751013660E+03  0.69641648367E+03  0.99092924941E+03  0.79667265000E+02 0.  0.
    5000000    2    1    2    0    0  0.63856047701E+02 -0.69751013660E+03  0.76617597441E+03  0.11987607161E+04  0.59950283164E+03 0.  0.
        -24    2    4    4    0    0  0.22001214531E+03 -0.70928551403E+03  0.62256664650E+03  0.97232409722E+03  0.79584145426E+02 0.  0.
         24    2    4    4    0    0 -0.15615609761E+03  0.11775377429E+02  0.14360932791E+03  0.22643661885E+03  0.78272070114E+02 0.  0.
         13    1    5    5    0    0  0.50499071009E+02 -0.17937184149E+03  0.11338484388E+03  0.21812963237E+03  0.00000000000E+00 0. -1.
        -14    1    5    5    0    0  0.16951307430E+03 -0.52991367254E+03  0.50918180262E+03  0.75419446486E+03  0.00000000000E+00 0.  1.
         15    1    3    3    0    0 -0.22452300999E+02  0.72565729836E+02  0.10420380857E+03  0.12896310486E+03  0.17770000000E+01 0. -1.
        -16    1    3    3    0    0 -0.41403746702E+02  0.62494440677E+03  0.59221267510E+03  0.86196614455E+03  0.00000000000E+00 0.  1.
          2    1    6    6  502    0 -0.96574620633E+02 -0.13216249665E+02  0.42253729272E+02  0.10623890174E+03  0.00000000000E+00 0. -1.
         -1    1    6    6    0  502 -0.59581476978E+02  0.24991627094E+02  0.10135559864E+03  0.12019771711E+03  0.00000000000E+00 0.  1.
<mgrwt>
<rscale>  0 0.80354567E+03</rscale>
<asrwt>0</asrwt>
<pdfrwt beam="1">  1        1 0.28094480E+00 0.80354567E+03</pdfrwt>
<pdfrwt beam="2">  1       -2 0.55930579E-01 0.80354567E+03</pdfrwt>
<totfact> 0.10620404E+01</totfact>
</mgrwt>
</event>
<event>
12    3  0.1092576E-007  0.8264556E+03  0.7818608E-02  0.9522494E-01
         -2   -1    0    0    0  501 -0.00000000000E+00  0.00000000000E+00  0.23066556071E+03  0.23066556071E+03  0.00000000000E+00 0.  1.
          1   -1    0    0  501    0  0.00000000000E+00 -0.00000000000E+00 -0.31287751337E+04  0.31287751337E+04  0.00000000000E+00 0. -1.
        -24    2    1    2    0    0 -0.61101879821E+03 -0.41778513944E+03 -0.13468253507E+04  0.15388719546E+04  0.79372369860E+02 0.  0.
    5000000    2    1    2    0    0  0.61101879821E+03  0.41778513944E+03 -0.15512842223E+04  0.18205687398E+04  0.60008283034E+03 0.  0.
        -24    2    4    4    0    0  0.63305778824E+03  0.16047946662E+03 -0.90712121609E+03  0.11220921175E+04  0.98519018444E+02 0.  0.
         24    2    4    4    0    0 -0.22038990024E+02  0.25730567281E+03 -0.64416300622E+03  0.69847662227E+03  0.78941034468E+02 0.  0.
         13    1    5    5    0    0  0.67907408241E+02  0.30179605148E+02 -0.15882727529E+03  0.17535201179E+03  0.00000000000E+00 0. -1.
        -14    1    5    5    0    0  0.56515038000E+03  0.13029986148E+03 -0.74829394080E+03  0.94674010570E+03  0.00000000000E+00 0.  1.
         15    1    3    3    0    0 -0.40462239181E+03 -0.28242502439E+03 -0.81850540320E+03  0.95573920457E+03  0.17770000000E+01 0. -1.
        -16    1    3    3    0    0 -0.20639640641E+03 -0.13536011504E+03 -0.52831994746E+03  0.58313275007E+03  0.00000000000E+00 0.  1.
          2    1    6    6  502    0 -0.20455877030E+01  0.61085315472E+02 -0.25453933008E+03  0.26177446543E+03  0.00000000000E+00 0. -1.
         -1    1    6    6    0  502 -0.19993402321E+02  0.19622035734E+03 -0.38962367615E+03  0.43670215684E+03  0.00000000000E+00 0.  1.
<mgrwt>
<rscale>  0 0.82645556E+03</rscale>
<asrwt>0</asrwt>
<pdfrwt beam="1">  1        1 0.48135001E+00 0.82645556E+03</pdfrwt>
<pdfrwt beam="2">  1       -2 0.35487010E-01 0.82645556E+03</pdfrwt>
<totfact> 0.33236169E+00</totfact>
</mgrwt>
</event>
<event>
12    3  0.1092576E-007  0.2256732E+04  0.7818608E-02  0.8495179E-01
         -2   -1    0    0    0  501 -0.00000000000E+00  0.00000000000E+00  0.25382473633E+04  0.25382473633E+04  0.00000000000E+00 0.  1.
          1   -1    0    0  501    0  0.00000000000E+00 -0.00000000000E+00 -0.21825812697E+04  0.21825812697E+04  0.00000000000E+00 0. -1.
        -24    2    1    2    0    0 -0.37158721833E+03 -0.22064672928E+04  0.76944554183E+03  0.23675617301E+04  0.82019076030E+02 0.  0.
    5000000    2    1    2    0    0  0.37158721833E+03  0.22064672928E+04 -0.41377944821E+03  0.23532669029E+04  0.60006392121E+03 0.  0.
        -24    2    4    4    0    0  0.37341944990E+03  0.10773063981E+04  0.14739102660E+02  0.11430175069E+04  0.78997588678E+02 0.  0.
         24    2    4    4    0    0 -0.18322315700E+01  0.11291608947E+04 -0.42851855087E+03  0.12102493960E+04  0.77895884796E+02 0.  0.
         11    1    5    5    0    0  0.32504999614E+03  0.10014228867E+04  0.17181675932E+02  0.10529959677E+04  0.00000000000E+00 0. -1.
        -12    1    5    5    0    0  0.48369453759E+02  0.75883511410E+02 -0.24425732724E+01  0.90021539228E+02  0.00000000000E+00 0.  1.
         15    1    3    3    0    0 -0.22452477565E+02 -0.28348085357E+03  0.10940479363E+03  0.30469341097E+03  0.17770000000E+01 0. -1.
        -16    1    3    3    0    0 -0.34913474077E+03 -0.19229864392E+04  0.66004074820E+03  0.20628683191E+04  0.00000000000E+00 0.  1.
          4    1    6    6  502    0  0.37379788948E+02  0.64028836315E+03 -0.23885269055E+03  0.68440999729E+03  0.00000000000E+00 0. -1.
         -3    1    6    6    0  502 -0.39212020518E+02  0.48887253159E+03 -0.18966586033E+03  0.52583939874E+03  0.00000000000E+00 0.  1.
<mgrwt>
<rscale>  0 0.22567316E+04</rscale>
<asrwt>0</asrwt>
<pdfrwt beam="1">  1        1 0.33578173E+00 0.22567316E+04</pdfrwt>
<pdfrwt beam="2">  1       -2 0.39049960E+00 0.22567316E+04</pdfrwt>
<totfact> 0.14492186E-02</totfact>
</mgrwt>
</event>
<event>
12    3  0.1092576E-007  0.6037750E+03  0.7818608E-02  0.9897605E-01
          1   -1    0    0  501    0  0.00000000000E+00  0.00000000000E+00  0.54071543095E+03  0.54071543095E+03  0.00000000000E+00 0. -1.
         -2   -1    0    0    0  501 -0.00000000000E+00 -0.00000000000E+00 -0.81536630284E+03  0.81536630284E+03  0.00000000000E+00 0.  1.
        -24    2    1    2    0    0 -0.35473073800E+03 -0.30147894811E+03 -0.35689707891E+03  0.59215926686E+03  0.80954430095E+02 0.  0.
    5000000    2    1    2    0    0  0.35473073800E+03  0.30147894811E+03  0.82246207029E+02  0.76392246693E+03  0.60007469890E+03 0.  0.
        -24    2    4    4    0    0  0.42663331419E+03  0.40873859814E+03  0.11991047259E+03  0.60778617990E+03  0.77086267625E+02 0.  0.
         24    2    4    4    0    0 -0.71902576188E+02 -0.10725965003E+03 -0.37664265557E+02  0.15613628702E+03  0.79280074668E+02 0.  0.
         13    1    5    5    0    0  0.20437981760E+01  0.92280049176E+01  0.11346730685E+02  0.14767582164E+02  0.00000000000E+00 0. -1.
        -14    1    5    5    0    0  0.42458951601E+03  0.39951059322E+03  0.10856374190E+03  0.59301859774E+03  0.00000000000E+00 0.  1.
         15    1    3    3    0    0 -0.42234985747E+02 -0.38486668884E+02 -0.13967380969E+02  0.58849495859E+02  0.17770000000E+01 0. -1.
        -16    1    3    3    0    0 -0.31249575226E+03 -0.26299227923E+03 -0.34292969795E+03  0.53330977100E+03  0.00000000000E+00 0.  1.
          2    1    6    6  502    0 -0.59011917830E+02 -0.21546341518E+02 -0.28471270802E+02  0.68972926137E+02  0.00000000000E+00 0. -1.
         -1    1    6    6    0  502 -0.12890658357E+02 -0.85713308511E+02 -0.91929947547E+01  0.87163360888E+02  0.00000000000E+00 0.  1.
<mgrwt>
<rscale>  0 0.60377499E+03</rscale>
<asrwt>0</asrwt>
<pdfrwt beam="1">  1        1 0.83186989E-01 0.60377499E+03</pdfrwt>
<pdfrwt beam="2">  1       -2 0.12544097E+00 0.60377499E+03</pdfrwt>
<totfact> 0.17087724E+01</totfact>
</mgrwt>
</event>
<event>
12    3  0.1092576E-007  0.7942416E+03  0.7818608E-02  0.9568390E-01
          1   -1    0    0  501    0  0.00000000000E+00  0.00000000000E+00  0.56934312389E+03  0.56934312389E+03  0.00000000000E+00 0. -1.
         -2   -1    0    0    0  501 -0.00000000000E+00 -0.00000000000E+00 -0.11288665931E+04  0.11288665931E+04  0.00000000000E+00 0.  1.
        -24    2    1    2    0    0  0.68471618685E+03 -0.42149719429E+02 -0.20845773018E+03  0.72155206585E+03  0.81054938706E+02 0.  0.
    5000000    2    1    2    0    0 -0.68471618685E+03  0.42149719429E+02 -0.35106573903E+03  0.97665765113E+03  0.60000013251E+03 0.  0.
        -24    2    4    4    0    0 -0.77594448676E+02 -0.21916346114E+03 -0.93081602418E+02  0.26258381634E+03  0.78946530832E+02 0.  0.
         24    2    4    4    0    0 -0.60712173817E+03  0.26131318056E+03 -0.25798413661E+03  0.71407383479E+03  0.80400519291E+02 0.  0.
         11    1    5    5    0    0 -0.67269912474E+02 -0.15258004509E+03 -0.10066342416E+03  0.19477945540E+03  0.00000000000E+00 0. -1.
        -12    1    5    5    0    0 -0.10324536202E+02 -0.66583416048E+02  0.75818217450E+01  0.67804360932E+02  0.00000000000E+00 0.  1.
         15    1    3    3    0    0  0.31732237560E+03 -0.55339959807E+02 -0.11708948131E+03  0.34273766290E+03  0.17770000000E+01 0. -1.
        -16    1    3    3    0    0  0.36739381125E+03  0.13190240378E+02 -0.91368248868E+02  0.37881440296E+03  0.00000000000E+00 0.  1.
          4    1    6    6  502    0 -0.26201686220E+03  0.75605003609E+02 -0.12733936565E+03  0.30097220252E+03  0.00000000000E+00 0. -1.
         -3    1    6    6    0  502 -0.34510487597E+03  0.18570817696E+03 -0.13064477096E+03  0.41310163227E+03  0.00000000000E+00 0.  1.
<mgrwt>
<rscale>  0 0.79424159E+03</rscale>
<asrwt>0</asrwt>
<pdfrwt beam="1">  1        1 0.87591250E-01 0.79424159E+03</pdfrwt>
<pdfrwt beam="2">  1       -2 0.17367178E+00 0.79424159E+03</pdfrwt>
<totfact> 0.66030849E+00</totfact>
</mgrwt>
</event>
<event>
12    3  0.1092576E-007  0.9933777E+03  0.7818608E-02  0.9315838E-01
          3   -1    0    0  501    0  0.00000000000E+00  0.00000000000E+00  0.24397393836E+04  0.24397393836E+04  0.00000000000E+00 0. -1.
         -4   -1    0    0    0  501 -0.00000000000E+00 -0.00000000000E+00 -0.43879864421E+03  0.43879864421E+03  0.00000000000E+00 0.  1.
        -24    2    1    2    0    0 -0.78969544938E+03 -0.44449123038E+03  0.12946424233E+04  0.15823195064E+04  0.80278636807E+02 0.  0.
    5000000    2    1    2    0    0  0.78969544938E+03  0.44449123038E+03  0.70629831612E+03  0.12962185214E+04  0.60011147899E+03 0.  0.
        -24    2    4    4    0    0  0.54061266535E+03 -0.24302006082E+02  0.30883181960E+03  0.62820128626E+03  0.80044499021E+02 0.  0.
         24    2    4    4    0    0  0.24908278403E+03  0.46879323647E+03  0.39746649652E+03  0.66801723514E+03  0.80362172274E+02 0.  0.
         11    1    5    5    0    0  0.40224007580E+03  0.11335047478E+01  0.26145806251E+03  0.47974856109E+03  0.00000000000E+00 0. -1.
        -12    1    5    5    0    0  0.13837258955E+03 -0.25435510829E+02  0.47373757083E+02  0.14845272517E+03  0.00000000000E+00 0.  1.
         15    1    3    3    0    0 -0.54717712348E+03 -0.28354520363E+03  0.93172816886E+03  0.11171039456E+04  0.17770000000E+01 0. -1.
        -16    1    3    3    0    0 -0.24251832590E+03 -0.16094602675E+03  0.36291425439E+03  0.46521556075E+03  0.00000000000E+00 0.  1.
          4    1    6    6  502    0  0.16120824250E+03  0.22090117064E+03  0.18924537506E+03  0.33256463525E+03  0.00000000000E+00 0. -1.
         -3    1    6    6    0  502  0.87874541530E+02  0.24789206583E+03  0.20822112146E+03  0.33545259989E+03  0.00000000000E+00 0.  1.
<mgrwt>
<rscale>  0 0.99337774E+03</rscale>
<asrwt>0</asrwt>
<pdfrwt beam="1">  1        3 0.37534451E+00 0.99337774E+03</pdfrwt>
<pdfrwt beam="2">  1       -4 0.67507485E-01 0.99337774E+03</pdfrwt>
<totfact> 0.69256718E-02</totfact>
</mgrwt>
</event>
<event>
12    3  0.1092576E-007  0.9131848E+03  0.7818608E-02  0.9409248E-01
          1   -1    0    0  501    0  0.00000000000E+00  0.00000000000E+00  0.29168898328E+04  0.29168898328E+04  0.00000000000E+00 0. -1.
         -2   -1    0    0    0  501 -0.00000000000E+00 -0.00000000000E+00 -0.40673454782E+03  0.40673454782E+03  0.00000000000E+00 0.  1.
        -24    2    1    2    0    0 -0.73112490514E+03 -0.47891095884E+03  0.40473183484E+03  0.96634209832E+03  0.78165589820E+02 0.  0.
    5000000    2    1    2    0    0  0.73112490514E+03  0.47891095884E+03  0.21054234502E+04  0.23572822823E+04  0.60006043081E+03 0.  0.
        -24    2    4    4    0    0  0.47633697276E+03  0.89331360391E+02  0.57959920768E+03  0.76002810614E+03  0.82646700002E+02 0.  0.
         24    2    4    4    0    0  0.25478793238E+03  0.38957959845E+03  0.15258242425E+04  0.15972541762E+04  0.79950799480E+02 0.  0.
         11    1    5    5    0    0  0.28487946788E+03  0.63579918953E+02  0.40785318467E+03  0.50154056422E+03  0.00000000000E+00 0. -1.
        -12    1    5    5    0    0  0.19145750487E+03  0.25751441438E+02  0.17174602301E+03  0.25848754192E+03  0.00000000000E+00 0.  1.
         15    1    3    3    0    0 -0.18910544917E+03 -0.10897625798E+03  0.67079210384E+02  0.22834069700E+03  0.17770000000E+01 0. -1.
        -16    1    3    3    0    0 -0.54201945597E+03 -0.36993470086E+03  0.33765262446E+03  0.73800140132E+03  0.00000000000E+00 0.  1.
          2    1    6    6  502    0  0.15077304290E+03  0.19873428916E+03  0.93551327761E+03  0.96820086798E+03  0.00000000000E+00 0. -1.
         -1    1    6    6    0  502  0.10401488948E+03  0.19084530929E+03  0.59031096487E+03  0.62905330820E+03  0.00000000000E+00 0.  1.
<mgrwt>
<rscale>  0 0.91318480E+03</rscale>
<asrwt>0</asrwt>
<pdfrwt beam="1">  1        1 0.44875227E+00 0.91318480E+03</pdfrwt>
<pdfrwt beam="2">  1       -2 0.62574548E-01 0.91318480E+03</pdfrwt>
<totfact> 0.14822522E+00</totfact>
</mgrwt>
</event>
<event>
12    3  0.1092576E-007  0.8152065E+03  0.7818608E-02  0.9538263E-01
         -2   -1    0    0    0  501 -0.00000000000E+00  0.00000000000E+00  0.98452130369E+03  0.98452130369E+03  0.00000000000E+00 0.  1.
          1   -1    0    0  501    0  0.00000000000E+00 -0.00000000000E+00 -0.10479408020E+04  0.10479408020E+04  0.00000000000E+00 0. -1.
        -24    2    1    2    0    0 -0.38177346838E+03 -0.67770295200E+03  0.47258565062E+03  0.91335559015E+03  0.76478523609E+02 0.  0.
    5000000    2    1    2    0    0  0.38177346838E+03  0.67770295200E+03 -0.53600514892E+03  0.11191065155E+04  0.60005466512E+03 0.  0.
        -24    2    4    4    0    0 -0.20077270555E+02  0.25811963446E+03  0.63171831910E+02  0.28097782314E+03  0.89045012559E+02 0.  0.
         24    2    4    4    0    0  0.40185073894E+03  0.41958331753E+03 -0.59917698083E+03  0.83812869239E+03  0.76892612882E+02 0.  0.
         13    1    5    5    0    0 -0.39630110516E+02  0.12066439770E+03  0.63816840570E+02  0.14213736902E+03  0.00000000000E+00 0. -1.
        -14    1    5    5    0    0  0.19552839961E+02  0.13745523676E+03 -0.64500865932E+00  0.13884045412E+03  0.00000000000E+00 0.  1.
         15    1    3    3    0    0 -0.15484928378E+03 -0.20389783704E+03  0.16475612221E+03  0.30446734829E+03  0.17770000000E+01 0. -1.
        -16    1    3    3    0    0 -0.22692418461E+03 -0.47380511496E+03  0.30782952840E+03  0.60888824186E+03  0.00000000000E+00 0.  1.
          2    1    6    6  502    0  0.38402603000E+03  0.38237481365E+03 -0.57576709966E+03  0.79069225548E+03  0.00000000000E+00 0. -1.
         -1    1    6    6    0  502  0.17824708943E+02  0.37208503885E+02 -0.23409881164E+02  0.47436436906E+02  0.00000000000E+00 0.  1.
<mgrwt>
<rscale>  0 0.81520649E+03</rscale>
<asrwt>0</asrwt>
<pdfrwt beam="1">  1        1 0.16122166E+00 0.81520649E+03</pdfrwt>
<pdfrwt beam="2">  1       -2 0.15146482E+00 0.81520649E+03</pdfrwt>
<totfact> 0.36190539E+00</totfact>
</mgrwt>
</event>
<event>
12    3  0.1092576E-007  0.5300570E+03  0.7818608E-02  0.1006218E+00
          1   -1    0    0  501    0  0.00000000000E+00  0.00000000000E+00  0.12175461293E+04  0.12175461293E+04  0.00000000000E+00 0. -1.
         -2   -1    0    0    0  501 -0.00000000000E+00 -0.00000000000E+00 -0.40865092931E+03  0.40865092931E+03  0.00000000000E+00 0.  1.
        -24    2    1    2    0    0 -0.52784417513E+02  0.50816659848E+03  0.63283021335E+03  0.81864274352E+03  0.93179268314E+02 0.  0.
    5000000    2    1    2    0    0  0.52784417513E+02 -0.50816659848E+03  0.17606498663E+03  0.80755431507E+03  0.60010466231E+03 0.  0.
        -24    2    4    4    0    0 -0.50157087759E+02 -0.26638848093E+03  0.37426915092E+03  0.46907119280E+03  0.80447687081E+02 0.  0.
         24    2    4    4    0    0  0.10294150527E+03 -0.24177811755E+03 -0.19820416429E+03  0.33848312228E+03  0.78945054877E+02 0.  0.
         13    1    5    5    0    0 -0.44561914846E+02 -0.24244985755E+03  0.28665054586E+03  0.37806908512E+03  0.00000000000E+00 0. -1.
        -14    1    5    5    0    0 -0.55951729130E+01 -0.23938623382E+02  0.87618605062E+02  0.91002107681E+02  0.00000000000E+00 0.  1.
         15    1    3    3    0    0 -0.14485812244E+01  0.38718678368E+03  0.45336771659E+03  0.59620562562E+03  0.17770000000E+01 0. -1.
        -16    1    3    3    0    0 -0.51335836289E+02  0.12097981480E+03  0.17946249675E+03  0.22243711790E+03  0.00000000000E+00 0.  1.
          4    1    6    6  502    0 -0.31720892824E+01 -0.58786114981E+02 -0.20902824421E+02  0.62472374164E+02  0.00000000000E+00 0. -1.
         -3    1    6    6    0  502  0.10611359455E+03 -0.18299200257E+03 -0.17730133987E+03  0.27601074811E+03  0.00000000000E+00 0.  1.
<mgrwt>
<rscale>  0 0.53005699E+03</rscale>
<asrwt>0</asrwt>
<pdfrwt beam="1">  1        1 0.18731479E+00 0.53005699E+03</pdfrwt>
<pdfrwt beam="2">  1       -2 0.62869374E-01 0.53005699E+03</pdfrwt>
<totfact> 0.22542819E+01</totfact>
</mgrwt>
</event>
<event>
12    3  0.1092576E-007  0.7419153E+03  0.7818608E-02  0.9648120E-01
         -2   -1    0    0    0  501 -0.00000000000E+00  0.00000000000E+00  0.11917358115E+04  0.11917358115E+04  0.00000000000E+00 0.  1.
          1   -1    0    0  501    0  0.00000000000E+00 -0.00000000000E+00 -0.52757136274E+03  0.52757136274E+03  0.00000000000E+00 0. -1.
        -24    2    1    2    0    0  0.18342567650E+03  0.59312792108E+03 -0.62961862671E+01  0.62609454285E+03  0.80678529113E+02 0.  0.
    5000000    2    1    2    0    0 -0.18342567650E+03 -0.59312792108E+03  0.67046063503E+03  0.10932126314E+04  0.60012555750E+03 0.  0.
        -24    2    4    4    0    0 -0.36925012110E+02 -0.66889390278E+03  0.56937889147E+03  0.88369707916E+03  0.89138633395E+02 0.  0.
         24    2    4    4    0    0 -0.14650066439E+03  0.75765981706E+02  0.10108174355E+03  0.20951555224E+03  0.80475580760E+02 0.  0.
         11    1    5    5    0    0 -0.59631338090E+02 -0.59888411009E+03  0.51622523536E+03  0.79291018875E+03  0.00000000000E+00 0. -1.
        -12    1    5    5    0    0  0.22706325980E+02 -0.70009792695E+02  0.53153656114E+02  0.90786890414E+02  0.00000000000E+00 0.  1.
         15    1    3    3    0    0  0.41402299157E+02  0.53324726078E+02  0.58650764323E+01  0.67788152633E+02  0.17770000000E+01 0. -1.
        -16    1    3    3    0    0  0.14202337734E+03  0.53980319500E+03 -0.12161262699E+02  0.55830639022E+03  0.00000000000E+00 0.  1.
          4    1    6    6  502    0 -0.10466782909E+03  0.10550972043E+02  0.48232037013E+02  0.11572815929E+03  0.00000000000E+00 0. -1.
         -3    1    6    6    0  502 -0.41832835296E+02  0.65215009663E+02  0.52849706541E+02  0.93787392947E+02  0.00000000000E+00 0.  1.
<mgrwt>
<rscale>  0 0.74191528E+03</rscale>
<asrwt>0</asrwt>
<pdfrwt beam="1">  1        1 0.81164825E-01 0.74191528E+03</pdfrwt>
<pdfrwt beam="2">  1       -2 0.18334397E+00 0.74191528E+03</pdfrwt>
<totfact> 0.63396088E+00</totfact>
</mgrwt>
</event>
<event>
12    3  0.1092576E-007  0.8782808E+03  0.7818608E-02  0.9453146E-01
          1   -1    0    0  501    0  0.00000000000E+00  0.00000000000E+00  0.88515759993E+03  0.88515759993E+03  0.00000000000E+00 0. -1.
         -4   -1    0    0    0  501 -0.00000000000E+00 -0.00000000000E+00 -0.10540426024E+04  0.10540426024E+04  0.00000000000E+00 0.  1.
        -24    2    1    2    0    0  0.86426061604E+03  0.10331258872E+03 -0.10252184320E+03  0.87994955130E+03  0.78616671728E+02 0.  0.
    5000000    2    1    2    0    0 -0.86426061604E+03 -0.10331258872E+03 -0.66363159262E+02  0.10592506510E+04  0.59998997437E+03 0.  0.
        -24    2    4    4    0    0 -0.61666869846E+03 -0.15103400931E+02  0.22273508236E+03  0.66068004672E+03  0.79867457887E+02 0.  0.
         24    2    4    4    0    0 -0.24759191757E+03 -0.88209187788E+02 -0.28909824162E+03  0.39857060430E+03  0.78728107094E+02 0.  0.
         11    1    5    5    0    0 -0.50003810666E+03  0.91539652684E+01  0.20382694002E+03  0.54006233406E+03  0.00000000000E+00 0. -1.
        -12    1    5    5    0    0 -0.11663059181E+03 -0.24257366199E+02  0.18908142339E+02  0.12061771266E+03  0.00000000000E+00 0.  1.
         15    1    3    3    0    0  0.69556350276E+03  0.51972965527E+02 -0.76077214478E+02  0.70164141541E+03  0.17770000000E+01 0. -1.
        -16    1    3    3    0    0  0.16869711328E+03  0.51339623191E+02 -0.26444628727E+02  0.17830813589E+03  0.00000000000E+00 0.  1.
          4    1    6    6  502    0 -0.23541555164E+02 -0.28545517953E+01 -0.69535286350E+02  0.73467743488E+02  0.00000000000E+00 0. -1.
         -3    1    6    6    0  502 -0.22405036241E+03 -0.85354635993E+02 -0.21956295527E+03  0.32510286081E+03  0.00000000000E+00 0.  1.
<mgrwt>
<rscale>  0 0.87828078E+03</rscale>
<asrwt>0</asrwt>
<pdfrwt beam="1">  1        1 0.13617809E+00 0.87828078E+03</pdfrwt>
<pdfrwt beam="2">  1       -4 0.16216040E+00 0.87828078E+03</pdfrwt>
<totfact> 0.21592967E+00</totfact>
</mgrwt>
</event>
<event>
12    3  0.1092576E-007  0.7276975E+03  0.7818608E-02  0.9671004E-01
         -2   -1    0    0    0  501 -0.00000000000E+00  0.00000000000E+00  0.54433304052E+03  0.54433304052E+03  0.00000000000E+00 0.  1.
          1   -1    0    0  501    0  0.00000000000E+00 -0.00000000000E+00 -0.13232320555E+04  0.13232320555E+04  0.00000000000E+00 0. -1.
        -24    2    1    2    0    0  0.43986549665E+03 -0.46704083537E+03 -0.74800631453E+03  0.98863134903E+03  0.79181441463E+02 0.  0.
    5000000    2    1    2    0    0 -0.43986549665E+03  0.46704083537E+03 -0.30892700502E+02  0.87893374703E+03  0.59996781221E+03 0.  0.
        -24    2    4    4    0    0  0.63467430072E+02  0.24819125622E+03 -0.15598177731E+03  0.31052429554E+03  0.80423932535E+02 0.  0.
         24    2    4    4    0    0 -0.50333292672E+03  0.21884957915E+03  0.12508907681E+03  0.56840945149E+03  0.78758199508E+02 0.  0.
         11    1    5    5    0    0  0.46570930248E+01  0.15063832045E+03 -0.62454468881E+02  0.16313844668E+03  0.00000000000E+00 0. -1.
        -12    1    5    5    0    0  0.58810337048E+02  0.97552935768E+02 -0.93527308434E+02  0.14738584886E+03  0.00000000000E+00 0.  1.
         15    1    3    3    0    0  0.12389092807E+03 -0.11828318360E+03 -0.15027305541E+03  0.22787062666E+03  0.17770000000E+01 0. -1.
        -16    1    3    3    0    0  0.31597456858E+03 -0.34875765176E+03 -0.59773325912E+03  0.76076072237E+03  0.00000000000E+00 0.  1.
          4    1    6    6  502    0 -0.17278459867E+03  0.77383420872E+02  0.51766121873E+01  0.18939247260E+03  0.00000000000E+00 0. -1.
         -3    1    6    6    0  502 -0.33054832805E+03  0.14146615828E+03  0.11991246463E+03  0.37901697889E+03  0.00000000000E+00 0.  1.
<mgrwt>
<rscale>  0 0.72769752E+03</rscale>
<asrwt>0</asrwt>
<pdfrwt beam="1">  1        1 0.20357416E+00 0.72769752E+03</pdfrwt>
<pdfrwt beam="2">  1       -2 0.83743546E-01 0.72769752E+03</pdfrwt>
<totfact> 0.98265395E+00</totfact>
</mgrwt>
</event>
<event>
12    3  0.1092576E-007  0.4734789E+03  0.7818608E-02  0.1020943E+00
         -4   -1    0    0    0  501 -0.00000000000E+00  0.00000000000E+00  0.14593031742E+04  0.14593031742E+04  0.00000000000E+00 0.  1.
          3   -1    0    0  501    0  0.00000000000E+00 -0.00000000000E+00 -0.26076528599E+03  0.26076528599E+03  0.00000000000E+00 0. -1.
        -24    2    1    2    0    0  0.46629250884E+03 -0.23568609912E+01  0.42379577880E+03  0.63485474987E+03  0.77481821767E+02 0.  0.
    5000000    2    1    2    0    0 -0.46629250884E+03  0.23568609912E+01  0.77474210938E+03  0.10852137103E+04  0.60002433481E+03 0.  0.
        -24    2    4    4    0    0 -0.43953244551E+03 -0.60147137406E+01  0.17536458439E+03  0.47988124329E+03  0.79424950523E+02 0.  0.
         24    2    4    4    0    0 -0.26760063336E+02  0.83715747318E+01  0.59937752499E+03  0.60533246701E+03  0.79923675444E+02 0.  0.
         13    1    5    5    0    0 -0.47653370378E+02 -0.92986799818E+01  0.46808337939E+02  0.67441305284E+02  0.00000000000E+00 0. -1.
        -14    1    5    5    0    0 -0.39187907513E+03  0.32839662412E+01  0.12855624645E+03  0.41243993800E+03  0.00000000000E+00 0.  1.
         15    1    3    3    0    0  0.35729406878E+03 -0.12736520810E+02  0.28000550305E+03  0.45412279178E+03  0.17770000000E+01 0. -1.
        -16    1    3    3    0    0  0.10899844006E+03  0.10379659819E+02  0.14379027574E+03  0.18073195808E+03  0.00000000000E+00 0.  1.
          4    1    6    6  502    0 -0.66351563898E-01  0.12486739875E+02  0.11947814427E+02  0.17282168407E+02  0.00000000000E+00 0. -1.
         -3    1    6    6    0  502 -0.26693711772E+02 -0.41151651436E+01  0.58742971056E+03  0.58805029860E+03  0.00000000000E+00 0.  1.
<mgrwt>
<rscale>  0 0.47347895E+03</rscale>
<asrwt>0</asrwt>
<pdfrwt beam="1">  1        3 0.40117737E-01 0.47347895E+03</pdfrwt>
<pdfrwt beam="2">  1       -4 0.22450817E+00 0.47347895E+03</pdfrwt>
<totfact> 0.13066951E+00</totfact>
</mgrwt>
</event>
<event>
12    3  0.1092576E-007  0.8477461E+03  0.7818608E-02  0.9493367E-01
         -4   -1    0    0    0  501 -0.00000000000E+00  0.00000000000E+00  0.70317958011E+03  0.70317958011E+03  0.00000000000E+00 0.  1.
          3   -1    0    0  501    0  0.00000000000E+00 -0.00000000000E+00 -0.14060213403E+04  0.14060213403E+04  0.00000000000E+00 0. -1.
        -24    2    1    2    0    0 -0.61672581861E+03 -0.43139058112E+03 -0.84700981712E+03  0.11359163572E+04  0.80198325984E+02 0.  0.
    5000000    2    1    2    0    0  0.61672581861E+03  0.43139058112E+03  0.14416805694E+03  0.97328456318E+03  0.60004153479E+03 0.  0.
        -24    2    4    4    0    0  0.48753869986E+03  0.13491644475E+02  0.16969996772E+03  0.52256763973E+03  0.80017814978E+02 0.  0.
         24    2    4    4    0    0  0.12918711875E+03  0.41789893665E+03 -0.25531910780E+02  0.45071692346E+03  0.10566472317E+03 0.  0.
         11    1    5    5    0    0  0.19148427228E+03  0.26591730454E+02  0.10203492479E+03  0.21859659773E+03  0.00000000000E+00 0. -1.
        -12    1    5    5    0    0  0.29605442758E+03 -0.13100085979E+02  0.67665042928E+02  0.30397104200E+03  0.00000000000E+00 0.  1.
         15    1    3    3    0    0 -0.16628281307E+03 -0.15515908799E+03 -0.28285400302E+03  0.36295159631E+03  0.17770000000E+01 0. -1.
        -16    1    3    3    0    0 -0.45044300553E+03 -0.27623149313E+03 -0.56415581410E+03  0.77296476091E+03  0.00000000000E+00 0.  1.
          4    1    6    6  502    0 -0.13335666619E+02  0.10884911175E+03 -0.63861268635E+01  0.10984876763E+03  0.00000000000E+00 0. -1.
         -3    1    6    6    0  502  0.14252278537E+03  0.30904982490E+03 -0.19145783916E+02  0.34086815583E+03  0.00000000000E+00 0.  1.
<mgrwt>
<rscale>  0 0.84774607E+03</rscale>
<asrwt>0</asrwt>
<pdfrwt beam="1">  1        3 0.21631097E+00 0.84774607E+03</pdfrwt>
<pdfrwt beam="2">  1       -4 0.10818147E+00 0.84774607E+03</pdfrwt>
<totfact> 0.17875694E-01</totfact>
</mgrwt>
</event>
<event>
12    3  0.1092576E-007  0.7289530E+03  0.7818608E-02  0.9668961E-01
          1   -1    0    0  501    0  0.00000000000E+00  0.00000000000E+00  0.21121865366E+04  0.21121865366E+04  0.00000000000E+00 0. -1.
         -4   -1    0    0    0  501 -0.00000000000E+00 -0.00000000000E+00 -0.56625975177E+03  0.56625975177E+03  0.00000000000E+00 0.  1.
        -24    2    1    2    0    0  0.53747502317E+03  0.30862481863E+03 -0.26000189967E+03  0.67703428742E+03  0.81521526601E+02 0.  0.
    5000000    2    1    2    0    0 -0.53747502317E+03 -0.30862481863E+03  0.18059286844E+04  0.20014120009E+04  0.60011907556E+03 0.  0.
        -24    2    4    4    0    0 -0.24458224398E+03 -0.44485202437E+03  0.89998703283E+03  0.10364032797E+04  0.80257717345E+02 0.  0.
         24    2    4    4    0    0 -0.29289277919E+03  0.13622720574E+03  0.90594165162E+03  0.96500872124E+03  0.78533586662E+02 0.  0.
         13    1    5    5    0    0 -0.12826358689E+03 -0.26646822473E+03  0.59478670140E+03  0.66425001518E+03  0.00000000000E+00 0. -1.
        -14    1    5    5    0    0 -0.11631865709E+03 -0.17838379964E+03  0.30520033143E+03  0.37215326449E+03  0.00000000000E+00 0.  1.
         15    1    3    3    0    0  0.35217951650E+03  0.15675307114E+03 -0.16426581563E+03  0.41903263962E+03  0.17770000000E+01 0. -1.
        -16    1    3    3    0    0  0.18529550667E+03  0.15187174749E+03 -0.95736084040E+02  0.25800164780E+03  0.00000000000E+00 0.  1.
          4    1    6    6  502    0 -0.26182804746E+03  0.11213424732E+03  0.85136431389E+03  0.89774674092E+03  0.00000000000E+00 0. -1.
         -3    1    6    6    0  502 -0.31064731729E+02  0.24092958418E+02  0.54577337728E+02  0.67261980317E+02  0.00000000000E+00 0.  1.
<mgrwt>
<rscale>  0 0.72895300E+03</rscale>
<asrwt>0</asrwt>
<pdfrwt beam="1">  1        1 0.32495177E+00 0.72895300E+03</pdfrwt>
<pdfrwt beam="2">  1       -4 0.87116886E-01 0.72895300E+03</pdfrwt>
<totfact> 0.14265605E+00</totfact>
</mgrwt>
</event>
<event>
12    3  0.1092576E-007  0.1112495E+04  0.7818608E-02  0.9193098E-01
         -2   -1    0    0    0  501 -0.00000000000E+00  0.00000000000E+00  0.15707343035E+04  0.15707343035E+04  0.00000000000E+00 0.  1.
          1   -1    0    0  501    0  0.00000000000E+00 -0.00000000000E+00 -0.83112914581E+03  0.83112914581E+03  0.00000000000E+00 0. -1.
        -24    2    1    2    0    0 -0.92391706524E+02 -0.10582780803E+04  0.35786785861E+03  0.11235319350E+04  0.75933405783E+02 0.  0.
    5000000    2    1    2    0    0  0.92391706524E+02  0.10582780803E+04  0.38173729908E+03  0.12783315143E+04  0.59993280663E+03 0.  0.
        -24    2    4    4    0    0  0.25884290719E+03  0.41932620516E+03 -0.21909381372E+02  0.49982811449E+03  0.80709392882E+02 0.  0.
         24    2    4    4    0    0 -0.16645120067E+03  0.63895187509E+03  0.40364668045E+03  0.77850339985E+03  0.84684119290E+02 0.  0.
         11    1    5    5    0    0  0.13156031317E+03  0.26133935115E+03 -0.43499362893E+02  0.29580156699E+03  0.00000000000E+00 0. -1.
        -12    1    5    5    0    0  0.12728259402E+03  0.15798685402E+03  0.21589981521E+02  0.20402654750E+03  0.00000000000E+00 0.  1.
         15    1    3    3    0    0 -0.55811653700E+02 -0.90322795121E+03  0.28902348236E+03  0.94998600180E+03  0.17770000000E+01 0. -1.
        -16    1    3    3    0    0 -0.36580052823E+02 -0.15505012904E+03  0.68844376258E+02  0.17354593318E+03  0.00000000000E+00 0.  1.
          4    1    6    6  502    0 -0.12404187005E+02  0.19408242069E+03  0.10551170402E+03  0.22125679551E+03  0.00000000000E+00 0. -1.
         -3    1    6    6    0  502 -0.15404701366E+03  0.44486945440E+03  0.29813497643E+03  0.55724660434E+03  0.00000000000E+00 0.  1.
<mgrwt>
<rscale>  0 0.11124950E+04</rscale>
<asrwt>0</asrwt>
<pdfrwt beam="1">  1        1 0.12786602E+00 0.11124950E+04</pdfrwt>
<pdfrwt beam="2">  1       -2 0.24165143E+00 0.11124950E+04</pdfrwt>
<totfact> 0.13012326E+00</totfact>
</mgrwt>
</event>
<event>
12    3  0.1092576E-007  0.8928154E+03  0.7818608E-02  0.9434607E-01
         -2   -1    0    0    0  501 -0.00000000000E+00  0.00000000000E+00  0.18115049488E+04  0.18115049488E+04  0.00000000000E+00 0.  1.
          1   -1    0    0  501    0  0.00000000000E+00 -0.00000000000E+00 -0.63342766530E+03  0.63342766530E+03  0.00000000000E+00 0. -1.
        -24    2    1    2    0    0  0.27472706659E+03 -0.77447275630E+03  0.11646462790E+04  0.14273659318E+04  0.75429017424E+02 0.  0.
    5000000    2    1    2    0    0 -0.27472706659E+03  0.77447275630E+03  0.13431004510E+02  0.10175666823E+04  0.59998212448E+03 0.  0.
        -24    2    4    4    0    0 -0.37678484366E+03  0.34658616379E+03 -0.15176566145E+03  0.54005119878E+03  0.80831268550E+02 0.  0.
         24    2    4    4    0    0  0.10205777706E+03  0.42788659251E+03  0.16519666596E+03  0.47751548353E+03  0.85019836818E+02 0.  0.
         11    1    5    5    0    0 -0.28859887531E+03  0.24670040976E+03 -0.14570415222E+03  0.40666952551E+03  0.00000000000E+00 0. -1.
        -12    1    5    5    0    0 -0.88185968344E+02  0.99885754028E+02 -0.60615092295E+01  0.13338167327E+03  0.00000000000E+00 0.  1.
         15    1    3    3    0    0  0.25703794724E+03 -0.65001530707E+03  0.96859190201E+03  0.11944713626E+04  0.17770000000E+01 0. -1.
        -16    1    3    3    0    0  0.17689119359E+02 -0.12445744923E+03  0.19605437696E+03  0.23289456915E+03  0.00000000000E+00 0.  1.
          4    1    6    6  502    0  0.85530514729E+02  0.17698225586E+03  0.74494221124E+02  0.21020841282E+03  0.00000000000E+00 0. -1.
         -3    1    6    6    0  502  0.16527262333E+02  0.25090433665E+03  0.90702444835E+02  0.26730707070E+03  0.00000000000E+00 0.  1.
<mgrwt>
<rscale>  0 0.89281543E+03</rscale>
<asrwt>0</asrwt>
<pdfrwt beam="1">  1        1 0.97450411E-01 0.89281543E+03</pdfrwt>
<pdfrwt beam="2">  1       -2 0.27869307E+00 0.89281543E+03</pdfrwt>
<totfact> 0.12132523E+00</totfact>
</mgrwt>
</event>
<event>
12    3  0.1092576E-007  0.1025686E+04  0.7818608E-02  0.9280813E-01
          1   -1    0    0  501    0  0.00000000000E+00  0.00000000000E+00  0.17384500176E+04  0.17384500176E+04  0.00000000000E+00 0. -1.
         -2   -1    0    0    0  501 -0.00000000000E+00 -0.00000000000E+00 -0.85182272333E+03  0.85182272333E+03  0.00000000000E+00 0.  1.
        -24    2    1    2    0    0 -0.36744189023E+02  0.10222214122E+04 -0.12386853709E+03  0.10322355964E+04  0.62290937678E+02 0.  0.
    5000000    2    1    2    0    0  0.36744189023E+02 -0.10222214122E+04  0.10104958313E+04  0.15580371445E+04  0.60007596816E+03 0.  0.
        -24    2    4    4    0    0 -0.81218476603E+01 -0.39185449654E+03  0.78910329419E+03  0.88452854821E+03  0.78043787902E+02 0.  0.
         24    2    4    4    0    0  0.44866036684E+02 -0.63036691568E+03  0.22139253714E+03  0.67350859632E+03  0.72275612624E+02 0.  0.
         11    1    5    5    0    0  0.11975705393E+02 -0.33473282051E+02  0.12090579092E+03  0.12602415803E+03  0.00000000000E+00 0. -1.
        -12    1    5    5    0    0 -0.20097553053E+02 -0.35838121449E+03  0.66819750328E+03  0.75850439018E+03  0.00000000000E+00 0.  1.
         15    1    3    3    0    0 -0.53289488273E+02  0.77016732734E+03 -0.85236136573E+02  0.77670189801E+03  0.17770000000E+01 0. -1.
        -16    1    3    3    0    0  0.16545299249E+02  0.25205408488E+03 -0.38632400514E+02  0.25553369837E+03  0.00000000000E+00 0.  1.
          2    1    6    6  502    0  0.43271760421E+02 -0.49378614415E+03  0.14242581405E+03  0.51573473212E+03  0.00000000000E+00 0. -1.
         -3    1    6    6    0  502  0.15942762628E+01 -0.13658077153E+03  0.78966723095E+02  0.15777386420E+03  0.00000000000E+00 0.  1.
<mgrwt>
<rscale>  0 0.10256856E+04</rscale>
<asrwt>0</asrwt>
<pdfrwt beam="1">  1        1 0.26745385E+00 0.10256856E+04</pdfrwt>
<pdfrwt beam="2">  1       -2 0.13104965E+00 0.10256856E+04</pdfrwt>
<totfact> 0.16713959E+00</totfact>
</mgrwt>
</event>
<event>
12    3  0.1092576E-007  0.1351094E+04  0.7818608E-02  0.8990000E-01
          1   -1    0    0  501    0  0.00000000000E+00  0.00000000000E+00  0.53195933346E+03  0.53195933346E+03  0.00000000000E+00 0. -1.
         -2   -1    0    0    0  501 -0.00000000000E+00 -0.00000000000E+00 -0.35801740192E+04  0.35801740192E+04  0.00000000000E+00 0.  1.
        -24    2    1    2    0    0  0.26378719262E+03  0.12820678461E+04 -0.12919397465E+04  0.18410060448E+04  0.83146277734E+02 0.  0.
    5000000    2    1    2    0    0 -0.26378719262E+03 -0.12820678461E+04 -0.17562749392E+04  0.22711273078E+04  0.60019658544E+03 0.  0.
        -24    2    4    4    0    0 -0.11133777726E+03 -0.11928404249E+04 -0.16747839071E+04  0.20607253404E+04  0.80146198702E+02 0.  0.
         24    2    4    4    0    0 -0.15244941536E+03 -0.89227421157E+02 -0.81491032053E+02  0.21040196734E+03  0.80161353686E+02 0.  0.
         13    1    5    5    0    0  0.30630793072E+01 -0.20642377645E+03 -0.25417511310E+03  0.32745250962E+03  0.00000000000E+00 0. -1.
        -14    1    5    5    0    0 -0.11440085657E+03 -0.98641664849E+03 -0.14206087940E+04  0.17332728308E+04  0.00000000000E+00 0.  1.
         15    1    3    3    0    0  0.21867673952E+03  0.10693307065E+04 -0.11190252091E+04  0.15631724961E+04  0.17770000000E+01 0. -1.
        -16    1    3    3    0    0  0.45110453096E+02  0.21273713961E+03 -0.17291453737E+03  0.27783354870E+03  0.00000000000E+00 0.  1.
          4    1    6    6  502    0 -0.11177422652E+00  0.11277636805E+02 -0.25892159833E+01  0.11571586961E+02  0.00000000000E+00 0. -1.
         -3    1    6    6    0  502 -0.15233764113E+03 -0.10050505796E+03 -0.78901816069E+02  0.19883038038E+03  0.00000000000E+00 0.  1.
<mgrwt>
<rscale>  0 0.13510940E+04</rscale>
<asrwt>0</asrwt>
<pdfrwt beam="1">  1        1 0.81839897E-01 0.13510940E+04</pdfrwt>
<pdfrwt beam="2">  1       -2 0.55079601E+00 0.13510940E+04</pdfrwt>
<totfact> 0.28732015E-02</totfact>
</mgrwt>
</event>
<event>
12    3  0.1092576E-007  0.6275772E+03  0.7818608E-02  0.9849788E-01
          1   -1    0    0  501    0  0.00000000000E+00  0.00000000000E+00  0.24806533741E+04  0.24806533741E+04  0.00000000000E+00 0. -1.
         -2   -1    0    0    0  501 -0.00000000000E+00 -0.00000000000E+00 -0.20953468182E+03  0.20953468182E+03  0.00000000000E+00 0.  1.
        -24    2    1    2    0    0  0.82751137644E+02 -0.52977009280E+03  0.47005812669E+03  0.71756510857E+03  0.80255470562E+02 0.  0.
    5000000    2    1    2    0    0 -0.82751137644E+02  0.52977009280E+03  0.18010605656E+04  0.19726229474E+04  0.59993168734E+03 0.  0.
        -24    2    4    4    0    0 -0.17480550027E+03  0.57254071839E+03  0.17121741685E+04  0.18155229202E+04  0.78887599495E+02 0.  0.
         24    2    4    4    0    0  0.92054362622E+02 -0.42770625583E+02  0.88886397159E+02  0.15710002721E+03  0.80475430164E+02 0.  0.
         13    1    5    5    0    0 -0.26189699641E+02  0.16107294357E+03  0.55150275777E+03  0.57513970941E+03  0.00000000000E+00 0. -1.
        -14    1    5    5    0    0 -0.14861580062E+03  0.41146777482E+03  0.11606714107E+04  0.12403832107E+04  0.00000000000E+00 0.  1.
         15    1    3    3    0    0  0.76834197673E+02 -0.25147279295E+03  0.20826314358E+03  0.33543815261E+03  0.17770000000E+01 0. -1.
        -16    1    3    3    0    0  0.59169399703E+01 -0.27829729986E+03  0.26179498312E+03  0.38212695596E+03  0.00000000000E+00 0.  1.
          2    1    6    6  502    0  0.53701516095E+02 -0.50867746165E+02  0.91683937023E+02  0.11780205745E+03  0.00000000000E+00 0. -1.
         -1    1    6    6    0  502  0.38352846527E+02  0.80971205826E+01 -0.27975398642E+01  0.39297969766E+02  0.00000000000E+00 0.  1.
<mgrwt>
<rscale>  0 0.62757720E+03</rscale>
<asrwt>0</asrwt>
<pdfrwt beam="1">  1        1 0.38163896E+00 0.62757720E+03</pdfrwt>
<pdfrwt beam="2">  1       -2 0.32236107E-01 0.62757720E+03</pdfrwt>
<totfact> 0.11774407E+01</totfact>
</mgrwt>
</event>
<event>
12    3  0.1092576E-007  0.7687491E+03  0.7818608E-02  0.9606387E-01
         -2   -1    0    0    0  501 -0.00000000000E+00  0.00000000000E+00  0.36539935035E+03  0.36539935035E+03  0.00000000000E+00 0.  1.
          1   -1    0    0  501    0  0.00000000000E+00 -0.00000000000E+00 -0.17956324990E+04  0.17956324990E+04  0.00000000000E+00 0. -1.
        -24    2    1    2    0    0  0.36658260595E+03 -0.54825616298E+03 -0.91751691307E+03  0.11325485187E+04  0.76558698353E+02 0.  0.
    5000000    2    1    2    0    0 -0.36658260595E+03  0.54825616298E+03 -0.51271623556E+03  0.10284833306E+04  0.59994366058E+03 0.  0.
        -24    2    4    4    0    0 -0.24686147179E+02  0.51617859684E+03 -0.20715274946E+03  0.56215026603E+03  0.77787597318E+02 0.  0.
         24    2    4    4    0    0 -0.34189645877E+03  0.32077566142E+02 -0.30556348611E+03  0.46633306456E+03  0.78583231616E+02 0.  0.
         13    1    5    5    0    0 -0.49874151437E+02  0.23278762119E+03 -0.96255272540E+02  0.25679288358E+03  0.00000000000E+00 0. -1.
        -14    1    5    5    0    0  0.25188004258E+02  0.28339097565E+03 -0.11089747691E+03  0.30535738246E+03  0.00000000000E+00 0.  1.
         15    1    3    3    0    0  0.11612619571E+03 -0.11460205229E+03 -0.22694715842E+03  0.27951224331E+03  0.17770000000E+01 0. -1.
        -16    1    3    3    0    0  0.25045641024E+03 -0.43365411069E+03 -0.69056975465E+03  0.85303627543E+03  0.00000000000E+00 0.  1.
          4    1    6    6  502    0 -0.20771993457E+03  0.54940605127E+02 -0.16729342601E+03  0.27231072637E+03  0.00000000000E+00 0. -1.
         -3    1    6    6    0  502 -0.13417652420E+03 -0.22863038985E+02 -0.13827006010E+03  0.19402233819E+03  0.00000000000E+00 0.  1.
<mgrwt>
<rscale>  0 0.76874913E+03</rscale>
<asrwt>0</asrwt>
<pdfrwt beam="1">  1        1 0.27625115E+00 0.76874913E+03</pdfrwt>
<pdfrwt beam="2">  1       -2 0.56215285E-01 0.76874913E+03</pdfrwt>
<totfact> 0.11067064E+01</totfact>
</mgrwt>
</event>
<event>
12    3  0.1092576E-007  0.3781226E+03  0.7818608E-02  0.1051630E+00
         -2   -1    0    0    0  501 -0.00000000000E+00  0.00000000000E+00  0.91639473151E+02  0.91639473151E+02  0.00000000000E+00 0.  1.
          1   -1    0    0  501    0  0.00000000000E+00 -0.00000000000E+00 -0.43357052879E+04  0.43357052879E+04  0.00000000000E+00 0. -1.
        -24    2    1    2    0    0 -0.13763039389E+02 -0.28378215198E+03 -0.30248768032E+04  0.30391285355E+04  0.75503975192E+02 0.  0.
    5000000    2    1    2    0    0  0.13763039389E+02  0.28378215198E+03 -0.12191890116E+04  0.13882162255E+04  0.60000059310E+03 0.  0.
        -24    2    4    4    0    0 -0.47470095375E+02 -0.64818637810E+02 -0.89317661359E+03  0.90026147286E+03  0.79065736509E+02 0.  0.
         24    2    4    4    0    0  0.61233134764E+02  0.34860078979E+03 -0.32601239799E+03  0.48795475263E+03  0.80893445560E+02 0.  0.
         11    1    5    5    0    0 -0.16816349259E+02 -0.76549810092E+02 -0.55712278407E+03  0.56260862023E+03  0.00000000000E+00 0. -1.
        -12    1    5    5    0    0 -0.30653746116E+02  0.11731172281E+02 -0.33605382951E+03  0.33765285262E+03  0.00000000000E+00 0.  1.
         15    1    3    3    0    0 -0.25712225000E+02 -0.55693057966E+02 -0.87619487350E+03  0.87834130570E+03  0.17770000000E+01 0. -1.
        -16    1    3    3    0    0  0.11949185611E+02 -0.22808909402E+03 -0.21486819297E+04  0.21607872298E+04  0.00000000000E+00 0.  1.
          2    1    6    6  502    0  0.61799073077E+02  0.28271616172E+03 -0.30080556404E+03  0.41741051842E+03  0.00000000000E+00 0. -1.
         -1    1    6    6    0  502 -0.56593831277E+00  0.65884628069E+02 -0.25206833947E+02  0.70544234205E+02  0.00000000000E+00 0.  1.
<mgrwt>
<rscale>  0 0.37812265E+03</rscale>
<asrwt>0</asrwt>
<pdfrwt beam="1">  1        1 0.66703160E+00 0.37812265E+03</pdfrwt>
<pdfrwt beam="2">  1       -2 0.14098380E-01 0.37812265E+03</pdfrwt>
<totfact> 0.20056537E+00</totfact>
</mgrwt>
</event>
<event>
12    3  0.1092576E-007  0.6187549E+03  0.7818608E-02  0.9867242E-01
          1   -1    0    0  501    0  0.00000000000E+00  0.00000000000E+00  0.82238841435E+03  0.82238841435E+03  0.00000000000E+00 0. -1.
         -2   -1    0    0    0  501 -0.00000000000E+00 -0.00000000000E+00 -0.68668376811E+03  0.68668376811E+03  0.00000000000E+00 0.  1.
        -24    2    1    2    0    0  0.33203304013E+02  0.56952012083E+03 -0.20951423894E+03  0.61199437622E+03  0.72008838186E+02 0.  0.
    5000000    2    1    2    0    0 -0.33203304013E+02 -0.56952012083E+03  0.34521888518E+03  0.89707780624E+03  0.60009739571E+03 0.  0.
        -24    2    4    4    0    0 -0.76129392532E+02 -0.18582466582E+02  0.31871710995E+03  0.33777391866E+03  0.79809971080E+02 0.  0.
         24    2    4    4    0    0  0.42926088520E+02 -0.55093765425E+03  0.26501775237E+02  0.55930388758E+03  0.82119100244E+02 0.  0.
         13    1    5    5    0    0 -0.46785494669E+02 -0.47918512003E+02  0.15439459653E+03  0.16829366519E+03  0.00000000000E+00 0. -1.
        -14    1    5    5    0    0 -0.29343897863E+02  0.29336045422E+02  0.16432251341E+03  0.16948025347E+03  0.00000000000E+00 0.  1.
         15    1    3    3    0    0  0.53011841287E+02  0.34286916162E+03 -0.11339113568E+03  0.36500715703E+03  0.17770000000E+01 0. -1.
        -16    1    3    3    0    0 -0.19808537275E+02  0.22665095921E+03 -0.96123103264E+02  0.24698721919E+03  0.00000000000E+00 0.  1.
          2    1    6    6  502    0  0.52626018842E+02 -0.49722717239E+03  0.33457357801E+01  0.50001555252E+03  0.00000000000E+00 0. -1.
         -1    1    6    6    0  502 -0.96999303227E+01 -0.53710481868E+02  0.23156039457E+02  0.59288335059E+02  0.00000000000E+00 0.  1.
<mgrwt>
<rscale>  0 0.61875495E+03</rscale>
<asrwt>0</asrwt>
<pdfrwt beam="1">  1        1 0.12652129E+00 0.61875495E+03</pdfrwt>
<pdfrwt beam="2">  1       -2 0.10564366E+00 0.61875495E+03</pdfrwt>
<totfact> 0.13922174E+01</totfact>
</mgrwt>
</event>
<event>
12    3  0.1092576E-007  0.9733524E+03  0.7818608E-02  0.9338264E-01
         -2   -1    0    0    0  501 -0.00000000000E+00  0.00000000000E+00  0.57089478992E+03  0.57089478992E+03  0.00000000000E+00 0.  1.
          1   -1    0    0  501    0  0.00000000000E+00 -0.00000000000E+00 -0.20350288988E+04  0.20350288988E+04  0.00000000000E+00 0. -1.
        -24    2    1    2    0    0  0.75950837898E+03 -0.58996798420E+03 -0.37910170702E+03  0.10367917368E+04  0.79396480713E+02 0.  0.
    5000000    2    1    2    0    0 -0.75950837898E+03  0.58996798420E+03 -0.10850324019E+04  0.15691319519E+04  0.59997047369E+03 0.  0.
        -24    2    4    4    0    0 -0.64324840071E+03  0.42688406762E+03 -0.11069773263E+04  0.13519757446E+04  0.80256467700E+02 0.  0.
         24    2    4    4    0    0 -0.11625997827E+03  0.16308391657E+03  0.21944924483E+02  0.21715620736E+03  0.81009211151E+02 0.  0.
         13    1    5    5    0    0 -0.50338947999E+03  0.32856731840E+03 -0.91625970261E+03  0.10958509451E+04  0.00000000000E+00 0. -1.
        -14    1    5    5    0    0 -0.13985892072E+03  0.98316749224E+02 -0.19071762373E+03  0.25612479943E+03  0.00000000000E+00 0.  1.
         15    1    3    3    0    0  0.18226383600E+03 -0.17711234959E+03 -0.12254423157E+03  0.28215091123E+03  0.17770000000E+01 0. -1.
        -16    1    3    3    0    0  0.57724454298E+03 -0.41285563461E+03 -0.25655747545E+03  0.75464082559E+03  0.00000000000E+00 0.  1.
          2    1    6    6  502    0 -0.36974943422E+02  0.10821225158E+03  0.35611334228E+02  0.11977146972E+03  0.00000000000E+00 0. -1.
         -1    1    6    6    0  502 -0.79285034849E+02  0.54871664998E+02 -0.13666409745E+02  0.97384737644E+02  0.00000000000E+00 0.  1.
<mgrwt>
<rscale>  0 0.97335235E+03</rscale>
<asrwt>0</asrwt>
<pdfrwt beam="1">  1        1 0.31308137E+00 0.97335235E+03</pdfrwt>
<pdfrwt beam="2">  1       -2 0.87829967E-01 0.97335235E+03</pdfrwt>
<totfact> 0.27983306E+00</totfact>
</mgrwt>
</event>
<event>
12    3  0.1092576E-007  0.5389012E+03  0.7818608E-02  0.1004096E+00
         -2   -1    0    0    0  501 -0.00000000000E+00  0.00000000000E+00  0.59100411335E+03  0.59100411335E+03  0.00000000000E+00 0.  1.
          1   -1    0    0  501    0  0.00000000000E+00 -0.00000000000E+00 -0.55572367322E+03  0.55572367322E+03  0.00000000000E+00 0. -1.
        -24    2    1    2    0    0 -0.22547197398E+03  0.33951479146E+03 -0.40840938154E+02  0.41731357296E+03  0.79841914275E+02 0.  0.
    5000000    2    1    2    0    0  0.22547197398E+03 -0.33951479146E+03  0.76121378287E+02  0.72941421361E+03  0.60011892664E+03 0.  0.
        -24    2    4    4    0    0 -0.77516106465E+02 -0.35505079326E+03  0.16007531988E+03  0.40468077938E+03  0.77926969741E+02 0.  0.
         24    2    4    4    0    0  0.30298808044E+03  0.15536001796E+02 -0.83953941595E+02  0.32473343423E+03  0.79752083074E+02 0.  0.
         13    1    5    5    0    0  0.13977268195E-01 -0.37723232461E+01 -0.70699304564E+01  0.80133972007E+01  0.00000000000E+00 0. -1.
        -14    1    5    5    0    0 -0.77530083733E+02 -0.35127847001E+03  0.16714525034E+03  0.39666738218E+03  0.00000000000E+00 0.  1.
         15    1    3    3    0    0 -0.17162905600E+03  0.23446116367E+03  0.51658190818E+01  0.29061729741E+03  0.17770000000E+01 0. -1.
        -16    1    3    3    0    0 -0.53842917975E+02  0.10505362779E+03 -0.46006757236E+02  0.12669627555E+03  0.00000000000E+00 0.  1.
          4    1    6    6  502    0  0.16993861821E+01  0.37979814807E+01 -0.14818542466E+02  0.15391613870E+02  0.00000000000E+00 0. -1.
         -3    1    6    6    0  502  0.30128869426E+03  0.11738020316E+02 -0.69135399130E+02  0.30934182036E+03  0.00000000000E+00 0.  1.
<mgrwt>
<rscale>  0 0.53890116E+03</rscale>
<asrwt>0</asrwt>
<pdfrwt beam="1">  1        1 0.85495949E-01 0.53890116E+03</pdfrwt>
<pdfrwt beam="2">  1       -2 0.90923710E-01 0.53890116E+03</pdfrwt>
<totfact> 0.35827775E+01</totfact>
</mgrwt>
</event>
<event>
12    3  0.1092576E-007  0.1432985E+04  0.7818608E-02  0.8930282E-01
          1   -1    0    0  501    0  0.00000000000E+00  0.00000000000E+00  0.30837795213E+04  0.30837795213E+04  0.00000000000E+00 0. -1.
         -2   -1    0    0    0  501 -0.00000000000E+00 -0.00000000000E+00 -0.81012883474E+03  0.81012883474E+03  0.00000000000E+00 0.  1.
        -24    2    1    2    0    0  0.54219622848E+03 -0.12685887811E+04  0.30322438437E+03  0.14148103793E+04  0.80306514806E+02 0.  0.
    5000000    2    1    2    0    0 -0.54219622848E+03  0.12685887811E+04  0.19704263022E+04  0.24790979768E+04  0.60004393214E+03 0.  0.
        -24    2    4    4    0    0 -0.59328152993E+03  0.12531515134E+04  0.19190589179E+04  0.23688352650E+04  0.78877710225E+02 0.  0.
         24    2    4    4    0    0  0.51085301454E+02  0.15437267671E+02  0.51367384280E+02  0.11026271175E+03  0.81677660206E+02 0.  0.
         13    1    5    5    0    0 -0.38066797172E+03  0.81202538540E+03  0.13044358562E+04  0.15829864921E+04  0.00000000000E+00 0. -1.
        -14    1    5    5    0    0 -0.21261355821E+03  0.44112612801E+03  0.61462306172E+03  0.78584877295E+03  0.00000000000E+00 0.  1.
         15    1    3    3    0    0  0.20398690359E+03 -0.38310505128E+03  0.99436511051E+02  0.44527622282E+03  0.17770000000E+01 0. -1.
        -16    1    3    3    0    0  0.33820932489E+03 -0.88548372980E+03  0.20378787332E+03  0.96953415643E+03  0.00000000000E+00 0.  1.
          2    1    6    6  502    0  0.62089827835E+02  0.37753481113E+02  0.39179653352E+02  0.82556146310E+02  0.00000000000E+00 0. -1.
         -1    1    6    6    0  502 -0.11004526382E+02 -0.22316213442E+02  0.12187730928E+02  0.27706565439E+02  0.00000000000E+00 0.  1.
<mgrwt>
<rscale>  0 0.14329849E+04</rscale>
<asrwt>0</asrwt>
<pdfrwt beam="1">  1        1 0.47442761E+00 0.14329849E+04</pdfrwt>
<pdfrwt beam="2">  1       -2 0.12463521E+00 0.14329849E+04</pdfrwt>
<totfact> 0.21125131E-01</totfact>
</mgrwt>
</event>
<event>
12    3  0.1092576E-007  0.9925887E+03  0.7818608E-02  0.9316711E-01
         -4   -1    0    0    0  501 -0.00000000000E+00  0.00000000000E+00  0.55201997557E+03  0.55201997557E+03  0.00000000000E+00 0.  1.
          1   -1    0    0  501    0  0.00000000000E+00 -0.00000000000E+00 -0.23331661213E+04  0.23331661213E+04  0.00000000000E+00 0. -1.
        -24    2    1    2    0    0 -0.72217644253E+03  0.65594879431E+03 -0.32271562605E+03  0.10307928859E+04  0.81123137477E+02 0.  0.
    5000000    2    1    2    0    0  0.72217644253E+03 -0.65594879431E+03 -0.14584305197E+04  0.18543932110E+04  0.59995580278E+03 0.  0.
        -24    2    4    4    0    0  0.21281074115E+03 -0.79889177248E+02 -0.48667842318E+02  0.24654938327E+03  0.82142238369E+02 0.  0.
         24    2    4    4    0    0  0.50936570137E+03 -0.57605961706E+03 -0.14097626774E+04  0.16078438277E+04  0.80205159776E+02 0.  0.
         13    1    5    5    0    0  0.17426093798E+03 -0.32398263850E+02 -0.53624513659E+02  0.18518129082E+03  0.00000000000E+00 0. -1.
        -14    1    5    5    0    0  0.38549803178E+02 -0.47490913398E+02  0.49566713407E+01  0.61368092452E+02  0.00000000000E+00 0.  1.
         15    1    3    3    0    0 -0.44083623753E+03  0.44124992145E+03 -0.17988015041E+03  0.64915183720E+03  0.17770000000E+01 0. -1.
        -16    1    3    3    0    0 -0.28134020499E+03  0.21469887287E+03 -0.14283547564E+03  0.38164104871E+03  0.00000000000E+00 0.  1.
          4    1    6    6  502    0  0.25607787486E+03 -0.27747313038E+03 -0.61052124863E+03  0.71784637012E+03  0.00000000000E+00 0. -1.
         -3    1    6    6    0  502  0.25328782651E+03 -0.29858648668E+03 -0.79924142876E+03  0.88999745760E+03  0.00000000000E+00 0.  1.
<mgrwt>
<rscale>  0 0.99258868E+03</rscale>
<asrwt>0</asrwt>
<pdfrwt beam="1">  1        1 0.35894864E+00 0.99258868E+03</pdfrwt>
<pdfrwt beam="2">  1       -4 0.84926150E-01 0.99258868E+03</pdfrwt>
<totfact> 0.10415141E+00</totfact>
</mgrwt>
</event>
<event>
12    3  0.1092576E-007  0.9134277E+03  0.7818608E-02  0.9408950E-01
         -2   -1    0    0    0  501 -0.00000000000E+00  0.00000000000E+00  0.39701886298E+03  0.39701886298E+03  0.00000000000E+00 0.  1.
          1   -1    0    0  501    0  0.00000000000E+00 -0.00000000000E+00 -0.24301960768E+04  0.24301960768E+04  0.00000000000E+00 0. -1.
        -24    2    1    2    0    0  0.81650848074E+03  0.22047480171E+03 -0.53216589236E+03  0.10028088865E+04  0.84438667593E+02 0.  0.
    5000000    2    1    2    0    0 -0.81650848074E+03 -0.22047480171E+03 -0.15010113214E+04  0.18244060532E+04  0.60010600955E+03 0.  0.
        -24    2    4    4    0    0 -0.17369691976E+02 -0.15769774679E+03 -0.55606725143E+03  0.58255857742E+03  0.70664152700E+02 0.  0.
         24    2    4    4    0    0 -0.79913878876E+03 -0.62777054920E+02 -0.94494407001E+03  0.12418474758E+04  0.81866326501E+02 0.  0.
         11    1    5    5    0    0  0.99519151968E+01 -0.14000597667E+03 -0.42840248383E+03  0.45080971847E+03  0.00000000000E+00 0. -1.
        -12    1    5    5    0    0 -0.27321607173E+02 -0.17691770120E+02 -0.12766476760E+03  0.13174885895E+03  0.00000000000E+00 0.  1.
         15    1    3    3    0    0  0.74709972626E+03  0.18180423659E+03 -0.49948175763E+03  0.91689474061E+03  0.17770000000E+01 0. -1.
        -16    1    3    3    0    0  0.69408754475E+02  0.38670565121E+02 -0.32684134738E+02  0.85914145914E+02  0.00000000000E+00 0.  1.
          2    1    6    6  502    0 -0.73151858912E+03 -0.34612698063E+02 -0.85124965623E+03  0.11229173889E+04  0.00000000000E+00 0. -1.
         -1    1    6    6    0  502 -0.67620199646E+02 -0.28164356858E+02 -0.93694413779E+02  0.11893008690E+03  0.00000000000E+00 0.  1.
<mgrwt>
<rscale>  0 0.91342775E+03</rscale>
<asrwt>0</asrwt>
<pdfrwt beam="1">  1        1 0.37387632E+00 0.91342775E+03</pdfrwt>
<pdfrwt beam="2">  1       -2 0.61079825E-01 0.91342775E+03</pdfrwt>
<totfact> 0.34053024E+00</totfact>
</mgrwt>
</event>
<event>
12    3  0.1092576E-007  0.7460253E+03  0.7818608E-02  0.9641607E-01
          1   -1    0    0  501    0  0.00000000000E+00  0.00000000000E+00  0.75439552860E+03  0.75439552860E+03  0.00000000000E+00 0. -1.
         -2   -1    0    0    0  501 -0.00000000000E+00 -0.00000000000E+00 -0.83840387375E+03  0.83840387375E+03  0.00000000000E+00 0.  1.
        -24    2    1    2    0    0  0.65381316338E+03 -0.29538227160E+02 -0.22072752645E+03  0.69439203392E+03  0.71522698221E+02 0.  0.
    5000000    2    1    2    0    0 -0.65381316338E+03  0.29538227160E+02  0.13671918130E+03  0.89840736844E+03  0.60008291565E+03 0.  0.
        -24    2    4    4    0    0 -0.72521687836E+03  0.17222047177E+02  0.65456507934E+01  0.72973867713E+03  0.78990960105E+02 0.  0.
         24    2    4    4    0    0  0.71403714982E+02  0.12316179982E+02  0.13017353050E+03  0.16866869131E+03  0.79080974843E+02 0.  0.
         11    1    5    5    0    0 -0.27305624814E+03  0.41694574929E+02 -0.12637144500E+02  0.27651012576E+03  0.00000000000E+00 0. -1.
        -12    1    5    5    0    0 -0.45216063022E+03 -0.24472527752E+02  0.19182795294E+02  0.45322855137E+03  0.00000000000E+00 0.  1.
         15    1    3    3    0    0  0.33843104412E+03  0.16913310352E+02 -0.13010571763E+03  0.36297697885E+03  0.17770000000E+01 0. -1.
        -16    1    3    3    0    0  0.31538211926E+03 -0.46451537512E+02 -0.90621808823E+02  0.33141505506E+03  0.00000000000E+00 0.  1.
          4    1    6    6  502    0 -0.98096104627E+01  0.21501148713E+02  0.17195447068E+02  0.29226892638E+02  0.00000000000E+00 0. -1.
         -3    1    6    6    0  502  0.81213325445E+02 -0.91849687304E+01  0.11297808344E+03  0.13944179867E+03  0.00000000000E+00 0.  1.
<mgrwt>
<rscale>  0 0.74602528E+03</rscale>
<asrwt>0</asrwt>
<pdfrwt beam="1">  1        1 0.11606085E+00 0.74602528E+03</pdfrwt>
<pdfrwt beam="2">  1       -2 0.12898521E+00 0.74602528E+03</pdfrwt>
<totfact> 0.96245667E+00</totfact>
</mgrwt>
</event>
<event>
12    3  0.1092576E-007  0.9789858E+03  0.7818608E-02  0.9331898E-01
          3   -1    0    0  501    0  0.00000000000E+00  0.00000000000E+00  0.11015285643E+04  0.11015285643E+04  0.00000000000E+00 0. -1.
         -2   -1    0    0    0  501 -0.00000000000E+00 -0.00000000000E+00 -0.10003873202E+04  0.10003873202E+04  0.00000000000E+00 0.  1.
        -24    2    1    2    0    0  0.91260496025E+03 -0.28237329463E+03 -0.69854457551E+02  0.96102487303E+03  0.78145187683E+02 0.  0.
    5000000    2    1    2    0    0 -0.91260496025E+03  0.28237329463E+03  0.17099570163E+03  0.11408910114E+04  0.59984187831E+03 0.  0.
        -24    2    4    4    0    0 -0.10445630829E+03 -0.58772649118E+02  0.21710484924E+03  0.25880087507E+03  0.74013733505E+02 0.  0.
         24    2    4    4    0    0 -0.80814865195E+03  0.34114594375E+03 -0.46109147616E+02  0.88209013635E+03  0.80449714483E+02 0.  0.
         11    1    5    5    0    0 -0.38969399136E+02 -0.36095500402E+02  0.16130765606E+03  0.16982832250E+03  0.00000000000E+00 0. -1.
        -12    1    5    5    0    0 -0.65486909158E+02 -0.22677148716E+02  0.55797193181E+02  0.88972552576E+02  0.00000000000E+00 0.  1.
         15    1    3    3    0    0  0.59588621924E+03 -0.19474542749E+03 -0.81628526611E+02  0.63219660066E+03  0.17770000000E+01 0. -1.
        -16    1    3    3    0    0  0.31671874101E+03 -0.87627867148E+02  0.11774069061E+02  0.32882827237E+03  0.00000000000E+00 0.  1.
          2    1    6    6  502    0 -0.52814191510E+03  0.18615291951E+03 -0.10642030014E+02  0.56008931853E+03  0.00000000000E+00 0. -1.
         -1    1    6    6    0  502 -0.28000673685E+03  0.15499302424E+03 -0.35467117602E+02  0.32200081782E+03  0.00000000000E+00 0.  1.
<mgrwt>
<rscale>  0 0.97898585E+03</rscale>
<asrwt>0</asrwt>
<pdfrwt beam="1">  1        3 0.16946593E+00 0.97898585E+03</pdfrwt>
<pdfrwt beam="2">  1       -2 0.15390574E+00 0.97898585E+03</pdfrwt>
<totfact> 0.26690816E-01</totfact>
</mgrwt>
</event>
<event>
12    3  0.1092576E-007  0.5609778E+03  0.7818608E-02  0.9989845E-01
         -2   -1    0    0    0  501 -0.00000000000E+00  0.00000000000E+00  0.20209611067E+03  0.20209611067E+03  0.00000000000E+00 0.  1.
          1   -1    0    0  501    0  0.00000000000E+00 -0.00000000000E+00 -0.24400419344E+04  0.24400419344E+04  0.00000000000E+00 0. -1.
        -24    2    1    2    0    0  0.40920722577E+03 -0.31381067324E+03 -0.13784728730E+04  0.14739300614E+04  0.79716197654E+02 0.  0.
    5000000    2    1    2    0    0 -0.40920722577E+03  0.31381067324E+03 -0.85947295075E+03  0.11682079837E+04  0.60007370192E+03 0.  0.
        -24    2    4    4    0    0 -0.29137903022E+02 -0.39462430053E+02  0.58104854957E+02  0.11106866221E+03  0.80955375227E+02 0.  0.
         24    2    4    4    0    0 -0.38006932275E+03  0.35327310329E+03 -0.91757780571E+03  0.10571393214E+04  0.79623738913E+02 0.  0.
         13    1    5    5    0    0 -0.28471304540E+02 -0.57156576359E+02  0.65864166842E+02  0.91736458822E+02  0.00000000000E+00 0. -1.
        -14    1    5    5    0    0 -0.66659848237E+00  0.17694146307E+02 -0.77593118850E+01  0.19332203392E+02  0.00000000000E+00 0.  1.
         15    1    3    3    0    0  0.35430448917E+03 -0.28908930632E+03 -0.11480338627E+04  0.12357545086E+04  0.17770000000E+01 0. -1.
        -16    1    3    3    0    0  0.54902736600E+02 -0.24721366918E+02 -0.23043901030E+03  0.23817555277E+03  0.00000000000E+00 0.  1.
          2    1    6    6  502    0 -0.19499828839E+03  0.13734682145E+03 -0.46559107782E+03  0.52312860137E+03  0.00000000000E+00 0. -1.
         -1    1    6    6    0  502 -0.18507103437E+03  0.21592628184E+03 -0.45198672789E+03  0.53401072006E+03  0.00000000000E+00 0.  1.
<mgrwt>
<rscale>  0 0.56097776E+03</rscale>
<asrwt>0</asrwt>
<pdfrwt beam="1">  1        1 0.37539108E+00 0.56097776E+03</pdfrwt>
<pdfrwt beam="2">  1       -2 0.31091708E-01 0.56097776E+03</pdfrwt>
<totfact> 0.13593077E+01</totfact>
</mgrwt>
</event>
<event>
12    3  0.1092576E-007  0.9012240E+03  0.7818608E-02  0.9424053E-01
         -2   -1    0    0    0  501 -0.00000000000E+00  0.00000000000E+00  0.14333334062E+04  0.14333334062E+04  0.00000000000E+00 0.  1.
          1   -1    0    0  501    0  0.00000000000E+00 -0.00000000000E+00 -0.14199500884E+04  0.14199500884E+04  0.00000000000E+00 0. -1.
        -24    2    1    2    0    0 -0.51745315619E+03  0.62843716097E+03  0.10988108954E+04  0.13698137097E+04  0.79455530521E+02 0.  0.
    5000000    2    1    2    0    0  0.51745315619E+03 -0.62843716097E+03 -0.10854275775E+04  0.14834697849E+04  0.59986543696E+03 0.  0.
        -24    2    4    4    0    0 -0.11292000880E+03 -0.17479822019E+03 -0.32006707040E+03  0.39023311467E+03  0.80830737129E+02 0.  0.
         24    2    4    4    0    0  0.63037316499E+03 -0.45363894078E+03 -0.76536050713E+03  0.10932366702E+04  0.78937288272E+02 0.  0.
         13    1    5    5    0    0 -0.87101303542E+02 -0.11321423893E+03 -0.27433999247E+03  0.30930006861E+03  0.00000000000E+00 0. -1.
        -14    1    5    5    0    0 -0.25818705257E+02 -0.61583981256E+02 -0.45727077930E+02  0.80933046060E+02  0.00000000000E+00 0.  1.
         15    1    3    3    0    0 -0.28119372398E+03  0.34708092759E+03  0.66834587743E+03  0.80388086823E+03  0.17770000000E+01 0. -1.
        -16    1    3    3    0    0 -0.23625943221E+03  0.28135623338E+03  0.43046501793E+03  0.56593284145E+03  0.00000000000E+00 0.  1.
          4    1    6    6  502    0  0.55609615238E+03 -0.42158137126E+03 -0.70772636494E+03  0.99390663088E+03  0.00000000000E+00 0. -1.
         -3    1    6    6    0  502  0.74277012610E+02 -0.32057569525E+02 -0.57634142185E+02  0.99330039321E+02  0.00000000000E+00 0.  1.
<mgrwt>
<rscale>  0 0.90122398E+03</rscale>
<asrwt>0</asrwt>
<pdfrwt beam="1">  1        1 0.21845386E+00 0.90122398E+03</pdfrwt>
<pdfrwt beam="2">  1       -2 0.22051283E+00 0.90122398E+03</pdfrwt>
<totfact> 0.64993620E-01</totfact>
</mgrwt>
</event>
<event>
12    3  0.1256791E-007  0.7153979E+03  0.7818608E-02  0.9691256E-01
          1   -1    0    0  501    0  0.00000000000E+00  0.00000000000E+00  0.19164855685E+04  0.19164855685E+04  0.00000000000E+00 0. -1.
         -2   -1    0    0    0  501 -0.00000000000E+00 -0.00000000000E+00 -0.27684537196E+03  0.27684537196E+03  0.00000000000E+00 0.  1.
        -24    2    1    2    0    0  0.30795521454E+03 -0.51445154675E+03  0.60339502315E+03  0.85426008672E+03  0.78599832589E+02 0.  0.
    5000000    2    1    2    0    0 -0.30795521454E+03  0.51445154675E+03  0.10362451733E+04  0.13390708537E+04  0.59984154893E+03 0.  0.
        -24    2    4    4    0    0 -0.46185675254E+03  0.27478591570E+03  0.76420016984E+03  0.93762940057E+03  0.79548940231E+02 0.  0.
         24    2    4    4    0    0  0.15390153800E+03  0.23966563105E+03  0.27204500350E+03  0.40144145313E+03  0.77598055730E+02 0.  0.
         13    1    5    5    0    0 -0.24361309029E+03  0.11543044431E+03  0.32876061093E+03  0.42515298956E+03  0.00000000000E+00 0. -1.
        -14    1    5    5    0    0 -0.21824366225E+03  0.15935547139E+03  0.43543955891E+03  0.51247641101E+03  0.00000000000E+00 0.  1.
         15    1    3    3    0    0  0.18626958519E+03 -0.23554418122E+03  0.30794525886E+03  0.43012888749E+03  0.17770000000E+01 0. -1.
        -16    1    3    3    0    0  0.12168562935E+03 -0.27890736553E+03  0.29544976429E+03  0.42413119923E+03  0.00000000000E+00 0.  1.
          4    1    6    6  502    0  0.88770904327E+02  0.16457339188E+03  0.12868116157E+03  0.22698792063E+03  0.00000000000E+00 0. -1.
         -3    1    6    6    0  502  0.65130633672E+02  0.75092239167E+02  0.14336384193E+03  0.17445353249E+03  0.00000000000E+00 0.  1.
<mgrwt>
<rscale>  0 0.71539786E+03</rscale>
<asrwt>0</asrwt>
<pdfrwt beam="1">  1        1 0.29484393E+00 0.71539786E+03</pdfrwt>
<pdfrwt beam="2">  1       -2 0.42591597E-01 0.71539786E+03</pdfrwt>
<totfact> 0.16245643E+01</totfact>
</mgrwt>
</event>
<event>
12    3  0.1092576E-007  0.3728082E+03  0.7818608E-02  0.1053624E+00
          1   -1    0    0  501    0  0.00000000000E+00  0.00000000000E+00  0.14125180021E+04  0.14125180021E+04  0.00000000000E+00 0. -1.
         -2   -1    0    0    0  501 -0.00000000000E+00 -0.00000000000E+00 -0.14385302045E+03  0.14385302045E+03  0.00000000000E+00 0.  1.
        -24    2    1    2    0    0 -0.98807305821E+02 -0.11011897220E+03  0.22115206046E+02  0.16534602958E+03  0.70435470009E+02 0.  0.
    5000000    2    1    2    0    0  0.98807305821E+02  0.11011897220E+03  0.12465497756E+04  0.13910249930E+04  0.59931220269E+03 0.  0.
        -24    2    4    4    0    0 -0.11108498204E+03 -0.19060521017E+03  0.38011753400E+03  0.44666969052E+03  0.79713571007E+02 0.  0.
         24    2    4    4    0    0  0.20989228786E+03  0.30072418237E+03  0.86643224164E+03  0.94435530248E+03  0.81316059895E+02 0.  0.
         11    1    5    5    0    0 -0.11006082536E+03 -0.18185945364E+03  0.38245498672E+03  0.43755921088E+03  0.00000000000E+00 0. -1.
        -12    1    5    5    0    0 -0.10241566814E+01 -0.87457565268E+01 -0.23374527235E+01  0.91104796454E+01  0.00000000000E+00 0.  1.
         15    1    3    3    0    0 -0.84725935441E+02 -0.56024053832E+02  0.35948872490E+02  0.10776204298E+03  0.17770000000E+01 0. -1.
        -16    1    3    3    0    0 -0.14081370379E+02 -0.54094918372E+02 -0.13833666444E+02  0.57583986599E+02  0.00000000000E+00 0.  1.
          2    1    6    6  502    0  0.13426426681E+03  0.18874961126E+03  0.64053432730E+03  0.68112960113E+03  0.00000000000E+00 0. -1.
         -1    1    6    6    0  502  0.75628021052E+02  0.11197457112E+03  0.22589791434E+03  0.26322570135E+03  0.00000000000E+00 0.  1.
<mgrwt>
<rscale>  0 0.37280821E+03</rscale>
<asrwt>0</asrwt>
<pdfrwt beam="1">  1        1 0.21731045E+00 0.37280821E+03</pdfrwt>
<pdfrwt beam="2">  1       -2 0.22131235E-01 0.37280821E+03</pdfrwt>
<totfact> 0.12549068E+02</totfact>
</mgrwt>
</event>
<event>
12    3  0.1092576E-007  0.6276176E+03  0.7818608E-02  0.9849709E-01
         -4   -1    0    0    0  501 -0.00000000000E+00  0.00000000000E+00  0.13235337635E+04  0.13235337635E+04  0.00000000000E+00 0.  1.
          1   -1    0    0  501    0  0.00000000000E+00 -0.00000000000E+00 -0.32524241756E+03  0.32524241756E+03  0.00000000000E+00 0. -1.
        -24    2    1    2    0    0 -0.19150893127E+03 -0.47536053689E+03  0.32082542753E+03  0.60914544033E+03  0.74066873402E+02 0.  0.
    5000000    2    1    2    0    0  0.19150893127E+03  0.47536053689E+03  0.67746591840E+03  0.10396307407E+04  0.59935690172E+03 0.  0.
        -24    2    4    4    0    0  0.10999423587E+03 -0.90607332656E+02  0.20173350246E+02  0.16511750968E+03  0.80922229861E+02 0.  0.
         24    2    4    4    0    0  0.81514695401E+02  0.56596786955E+03  0.65729256816E+03  0.87451323103E+03  0.75997343172E+02 0.  0.
         13    1    5    5    0    0 -0.10696949950E+02 -0.23258389410E+02  0.49030204459E+01  0.26065629202E+02  0.00000000000E+00 0. -1.
        -14    1    5    5    0    0  0.12069118582E+03 -0.67348943246E+02  0.15270329800E+02  0.13905188048E+03  0.00000000000E+00 0.  1.
         15    1    3    3    0    0 -0.81636041793E+02 -0.27020735624E+03  0.14411949414E+03  0.31693855083E+03  0.17770000000E+01 0. -1.
        -16    1    3    3    0    0 -0.10987288948E+03 -0.20515318066E+03  0.17670593338E+03  0.29220688950E+03  0.00000000000E+00 0.  1.
          2    1    6    6  502    0  0.75451065127E+01  0.30721008414E+03  0.33392551089E+03  0.45380746055E+03  0.00000000000E+00 0. -1.
         -1    1    6    6    0  502  0.73969588888E+02  0.25875778540E+03  0.32336705727E+03  0.42070577048E+03  0.00000000000E+00 0.  1.
<mgrwt>
<rscale>  0 0.62761764E+03</rscale>
<asrwt>0</asrwt>
<pdfrwt beam="1">  1        1 0.50037296E-01 0.62761764E+03</pdfrwt>
<pdfrwt beam="2">  1       -4 0.20362058E+00 0.62761764E+03</pdfrwt>
<totfact> 0.47643224E+00</totfact>
</mgrwt>
</event>
<event>
12    3  0.1092576E-007  0.6135082E+03  0.7818608E-02  0.9877770E-01
         -2   -1    0    0    0  501 -0.00000000000E+00  0.00000000000E+00  0.82320002653E+03  0.82320002653E+03  0.00000000000E+00 0.  1.
          1   -1    0    0  501    0  0.00000000000E+00 -0.00000000000E+00 -0.18917862188E+04  0.18917862188E+04  0.00000000000E+00 0. -1.
        -24    2    1    2    0    0 -0.17808947831E+03 -0.55378209530E+03 -0.16137450889E+04  0.17173041171E+04  0.81053977112E+02 0.  0.
    5000000    2    1    2    0    0  0.17808947831E+03  0.55378209530E+03  0.54515889659E+03  0.99768212828E+03  0.59981741822E+03 0.  0.
        -24    2    4    4    0    0  0.23269688427E+03  0.33473209623E+03  0.15944427107E+02  0.41652639807E+03  0.83944025054E+02 0.  0.
         24    2    4    4    0    0 -0.54607405953E+02  0.21904999907E+03  0.52921446949E+03  0.58115573021E+03  0.81909444892E+02 0.  0.
         13    1    5    5    0    0  0.10279645166E+03  0.18745526851E+03  0.43654195785E+02  0.21820237619E+03  0.00000000000E+00 0. -1.
        -14    1    5    5    0    0  0.12990043261E+03  0.14727682772E+03 -0.27709768678E+02  0.19832402188E+03  0.00000000000E+00 0.  1.
         15    1    3    3    0    0 -0.91022830201E+01 -0.11615552991E+03 -0.37589655130E+03  0.39354330599E+03  0.17770000000E+01 0. -1.
        -16    1    3    3    0    0 -0.16898719529E+03 -0.43762656539E+03 -0.12378485376E+04  0.13237608111E+04  0.00000000000E+00 0.  1.
          4    1    6    6  502    0 -0.63464357736E+02  0.20494310623E+03  0.42998249614E+03  0.48053548098E+03  0.00000000000E+00 0. -1.
         -3    1    6    6    0  502  0.88569517826E+01  0.14106892841E+02  0.99231973348E+02  0.10062024923E+03  0.00000000000E+00 0.  1.
<mgrwt>
<rscale>  0 0.61350822E+03</rscale>
<asrwt>0</asrwt>
<pdfrwt beam="1">  1        1 0.29104403E+00 0.61350822E+03</pdfrwt>
<pdfrwt beam="2">  1       -2 0.12664616E+00 0.61350822E+03</pdfrwt>
<totfact> 0.15403055E+00</totfact>
</mgrwt>
</event>
<event>
12    3  0.1092576E-007  0.9869390E+03  0.7818608E-02  0.9322987E-01
         -2   -1    0    0    0  501 -0.00000000000E+00  0.00000000000E+00  0.19764444476E+04  0.19764444476E+04  0.00000000000E+00 0.  1.
          1   -1    0    0  501    0  0.00000000000E+00 -0.00000000000E+00 -0.73020604782E+03  0.73020604782E+03  0.00000000000E+00 0. -1.
        -24    2    1    2    0    0 -0.29636616426E+03 -0.89622079380E+03  0.12743764273E+04  0.15877928236E+04  0.77499403694E+02 0.  0.
    5000000    2    1    2    0    0  0.29636616426E+03  0.89622079380E+03 -0.28138027539E+02  0.11188576718E+04  0.60000510552E+03 0.  0.
        -24    2    4    4    0    0  0.38132483196E+03  0.63760203815E+03  0.17851295356E+03  0.76813069242E+03  0.78821948200E+02 0.  0.
         24    2    4    4    0    0 -0.84958667698E+02  0.25861875564E+03 -0.20665098110E+03  0.35072697940E+03  0.78760079387E+02 0.  0.
         13    1    5    5    0    0  0.17720862779E+03  0.32313152354E+03  0.50533384220E+02  0.37198185734E+03  0.00000000000E+00 0. -1.
        -14    1    5    5    0    0  0.20411620416E+03  0.31447051462E+03  0.12797956934E+03  0.39614883508E+03  0.00000000000E+00 0.  1.
         15    1    3    3    0    0 -0.13403635292E+03 -0.52665301659E+03  0.72445642270E+03  0.90563204995E+03  0.17770000000E+01 0. -1.
        -16    1    3    3    0    0 -0.16232981134E+03 -0.36956777720E+03  0.54992000458E+03  0.68216077360E+03  0.00000000000E+00 0.  1.
          4    1    6    6  502    0 -0.28651160626E+02  0.20008205646E+03 -0.14489022283E+03  0.24869035968E+03  0.00000000000E+00 0. -1.
         -3    1    6    6    0  502 -0.56307507072E+02  0.58536699178E+02 -0.61760758267E+02  0.10203661973E+03  0.00000000000E+00 0.  1.
<mgrwt>
<rscale>  0 0.98693902E+03</rscale>
<asrwt>0</asrwt>
<pdfrwt beam="1">  1        1 0.11233939E+00 0.98693902E+03</pdfrwt>
<pdfrwt beam="2">  1       -2 0.30406837E+00 0.98693902E+03</pdfrwt>
<totfact> 0.67904292E-01</totfact>
</mgrwt>
</event>
<event>
12    3  0.1092576E-007  0.6774410E+03  0.7818608E-02  0.9756608E-01
         -4   -1    0    0    0  501 -0.00000000000E+00  0.00000000000E+00  0.16340333593E+04  0.16340333593E+04  0.00000000000E+00 0.  1.
          3   -1    0    0  501    0  0.00000000000E+00 -0.00000000000E+00 -0.87749650495E+03  0.87749650495E+03  0.00000000000E+00 0. -1.
        -24    2    1    2    0    0  0.54495973541E+03  0.13993958488E+03  0.13702950676E+04  0.14852118805E+04  0.10761764341E+03 0.  0.
    5000000    2    1    2    0    0 -0.54495973541E+03 -0.13993958488E+03 -0.61375821324E+03  0.10263179837E+04  0.60005437984E+03 0.  0.
        -24    2    4    4    0    0 -0.63687112252E+03 -0.21280887821E+03 -0.45846542582E+03  0.81711125013E+03  0.81165282486E+02 0.  0.
         24    2    4    4    0    0  0.91911387108E+02  0.72869293331E+02 -0.15529278742E+03  0.20920673360E+03  0.76772199171E+02 0.  0.
         11    1    5    5    0    0 -0.21441784121E+03 -0.66430599069E+02 -0.10841196728E+03  0.24928134662E+03  0.00000000000E+00 0. -1.
        -12    1    5    5    0    0 -0.42245328130E+03 -0.14637827914E+03 -0.35005345854E+03  0.56782990351E+03  0.00000000000E+00 0.  1.
         15    1    3    3    0    0  0.39592966588E+03  0.11763320372E+03  0.11112112104E+04  0.11854920425E+04  0.17770000000E+01 0. -1.
        -16    1    3    3    0    0  0.14903006952E+03  0.22306381156E+02  0.25908385721E+03  0.29971983807E+03  0.00000000000E+00 0.  1.
          4    1    6    6  502    0  0.49695059669E+02  0.24570026427E+02 -0.19052693959E+02  0.58619879744E+02  0.00000000000E+00 0. -1.
         -3    1    6    6    0  502  0.42216327439E+02  0.48299266905E+02 -0.13624009346E+03  0.15058685385E+03  0.00000000000E+00 0.  1.
<mgrwt>
<rscale>  0 0.67744096E+03</rscale>
<asrwt>0</asrwt>
<pdfrwt beam="1">  1        3 0.13499946E+00 0.67744096E+03</pdfrwt>
<pdfrwt beam="2">  1       -4 0.25138975E+00 0.67744096E+03</pdfrwt>
<totfact> 0.60062950E-02</totfact>
</mgrwt>
</event>
<event>
12    3  0.1092576E-007  0.8386240E+03  0.7818608E-02  0.9505734E-01
          1   -1    0    0  501    0  0.00000000000E+00  0.00000000000E+00  0.80615064544E+03  0.80615064544E+03  0.00000000000E+00 0. -1.
         -2   -1    0    0    0  501 -0.00000000000E+00 -0.00000000000E+00 -0.18374828797E+04  0.18374828797E+04  0.00000000000E+00 0.  1.
        -24    2    1    2    0    0  0.54252107373E+03  0.52934294462E+03  0.44211118055E+03  0.88124288210E+03  0.81201310474E+02 0.  0.
    5000000    2    1    2    0    0 -0.54252107373E+03 -0.52934294462E+03 -0.14734434148E+04  0.17623906430E+04  0.60037672633E+03 0.  0.
        -24    2    4    4    0    0 -0.85182427045E+02 -0.43543912163E+03 -0.97577981856E+03  0.10749848821E+04  0.81135490773E+02 0.  0.
         24    2    4    4    0    0 -0.45733864668E+03 -0.93903822997E+02 -0.49766359621E+03  0.68740576091E+03  0.82952151418E+02 0.  0.
         13    1    5    5    0    0 -0.93685107798E+02 -0.29874903559E+03 -0.64503191453E+03  0.71700352611E+03  0.00000000000E+00 0. -1.
        -14    1    5    5    0    0  0.85026807526E+01 -0.13669008604E+03 -0.33074790403E+03  0.35798135597E+03  0.00000000000E+00 0.  1.
         15    1    3    3    0    0  0.23644119173E+03  0.27136039150E+03  0.24197472314E+03  0.43370015401E+03  0.17770000000E+01 0. -1.
        -16    1    3    3    0    0  0.30607988200E+03  0.25798255313E+03  0.20013645741E+03  0.44754272809E+03  0.00000000000E+00 0.  1.
          2    1    6    6  502    0 -0.25678615453E+03 -0.47876168715E+02 -0.33679810412E+03  0.42622085781E+03  0.00000000000E+00 0. -1.
         -1    1    6    6    0  502 -0.20055249215E+03 -0.46027654282E+02 -0.16086549208E+03  0.26118490310E+03  0.00000000000E+00 0.  1.
<mgrwt>
<rscale>  0 0.83862400E+03</rscale>
<asrwt>0</asrwt>
<pdfrwt beam="1">  1        1 0.12402318E+00 0.83862400E+03</pdfrwt>
<pdfrwt beam="2">  1       -2 0.28268967E+00 0.83862400E+03</pdfrwt>
<totfact> 0.79985554E-01</totfact>
</mgrwt>
</event>
<event>
12    3  0.1092576E-007  0.5001156E+03  0.7818608E-02  0.1013749E+00
         -2   -1    0    0    0  501 -0.00000000000E+00  0.00000000000E+00  0.37851587283E+03  0.37851587283E+03  0.00000000000E+00 0.  1.
          1   -1    0    0  501    0  0.00000000000E+00 -0.00000000000E+00 -0.72497695696E+03  0.72497695696E+03  0.00000000000E+00 0. -1.
        -24    2    1    2    0    0 -0.16929458362E+02 -0.33255324222E+03 -0.21612047931E+03  0.40493902617E+03  0.79933021144E+02 0.  0.
    5000000    2    1    2    0    0  0.16929458362E+02  0.33255324222E+03 -0.13034060483E+03  0.69855380362E+03  0.60009205778E+03 0.  0.
        -24    2    4    4    0    0  0.13992942205E+03 -0.12170714375E+03  0.95046565585E+01  0.20197300310E+03  0.79434775078E+02 0.  0.
         24    2    4    4    0    0 -0.12299996369E+03  0.45426038597E+03 -0.13984526139E+03  0.49658080051E+03  0.74527209656E+02 0.  0.
         13    1    5    5    0    0  0.28107056192E+02 -0.13168672685E+02 -0.27872973663E+02  0.41717181220E+02  0.00000000000E+00 0. -1.
        -14    1    5    5    0    0  0.11182236586E+03 -0.10853847106E+03  0.37377630222E+02  0.16025582188E+03  0.00000000000E+00 0.  1.
         15    1    3    3    0    0  0.28332480249E+02 -0.62792240499E+02 -0.43773442323E+02  0.81638635987E+02  0.17770000000E+01 0. -1.
        -16    1    3    3    0    0 -0.45261938611E+02 -0.26976100172E+03 -0.17234703699E+03  0.32330039019E+03  0.00000000000E+00 0.  1.
          4    1    6    6  502    0 -0.56393413178E+02  0.17709748581E+03 -0.92558455333E+02  0.20763141425E+03  0.00000000000E+00 0. -1.
         -3    1    6    6    0  502 -0.66606550513E+02  0.27716290016E+03 -0.47286806053E+02  0.28894938626E+03  0.00000000000E+00 0.  1.
<mgrwt>
<rscale>  0 0.50011563E+03</rscale>
<asrwt>0</asrwt>
<pdfrwt beam="1">  1        1 0.11153492E+00 0.50011563E+03</pdfrwt>
<pdfrwt beam="2">  1       -2 0.58233212E-01 0.50011563E+03</pdfrwt>
<totfact> 0.64947415E+01</totfact>
</mgrwt>
</event>
<event>
12    3  0.1092576E-007  0.5286451E+03  0.7818608E-02  0.1006561E+00
          1   -1    0    0  501    0  0.00000000000E+00  0.00000000000E+00  0.60381424711E+03  0.60381424711E+03  0.00000000000E+00 0. -1.
         -2   -1    0    0    0  501 -0.00000000000E+00 -0.00000000000E+00 -0.47735299257E+03  0.47735299257E+03  0.00000000000E+00 0.  1.
        -24    2    1    2    0    0  0.84096487534E+02 -0.35344561497E+03  0.25980781172E+02  0.37260954781E+03  0.78529307704E+02 0.  0.
    5000000    2    1    2    0    0 -0.84096487534E+02  0.35344561497E+03  0.10048047336E+03  0.70855769187E+03  0.59996804517E+03 0.  0.
        -24    2    4    4    0    0 -0.48328355954E+01  0.49735212280E+03  0.90439785090E+01  0.50468720036E+03  0.85116897880E+02 0.  0.
         24    2    4    4    0    0 -0.79263651939E+02 -0.14390650783E+03  0.91436494852E+02  0.20387049152E+03  0.78808217889E+02 0.  0.
         13    1    5    5    0    0 -0.39421117200E+02  0.38299824243E+03  0.11465467477E+02  0.38519233525E+03  0.00000000000E+00 0. -1.
        -14    1    5    5    0    0  0.34588281604E+02  0.11435388036E+03 -0.24214889680E+01  0.11949486511E+03  0.00000000000E+00 0.  1.
         15    1    3    3    0    0  0.68041714878E+01 -0.18803222463E+03 -0.18316279935E+00  0.18816377315E+03  0.17770000000E+01 0. -1.
        -16    1    3    3    0    0  0.77292316047E+02 -0.16541339034E+03  0.26163943971E+02  0.18444577465E+03  0.00000000000E+00 0.  1.
          2    1    6    6  502    0 -0.91678067590E+02 -0.96734681401E+02  0.70703909523E+02  0.15086918004E+03  0.00000000000E+00 0. -1.
         -1    1    6    6    0  502  0.12414415651E+02 -0.47171826426E+02  0.20732585328E+02  0.53001311481E+02  0.00000000000E+00 0.  1.
<mgrwt>
<rscale>  0 0.52864514E+03</rscale>
<asrwt>0</asrwt>
<pdfrwt beam="1">  1        1 0.92894499E-01 0.52864514E+03</pdfrwt>
<pdfrwt beam="2">  1       -2 0.73438922E-01 0.52864514E+03</pdfrwt>
<totfact> 0.51556314E+01</totfact>
</mgrwt>
</event>
<event>
12    3  0.1092576E-007  0.1126663E+04  0.7818608E-02  0.9179587E-01
         -2   -1    0    0    0  501 -0.00000000000E+00  0.00000000000E+00  0.42217534242E+03  0.42217534242E+03  0.00000000000E+00 0.  1.
          1   -1    0    0  501    0  0.00000000000E+00 -0.00000000000E+00 -0.31224769625E+04  0.31224769625E+04  0.00000000000E+00 0. -1.
        -24    2    1    2    0    0 -0.59027425142E+02 -0.10600932785E+04 -0.10711372860E+04  0.15095897936E+04  0.65148011887E+02 0.  0.
    5000000    2    1    2    0    0  0.59027425142E+02  0.10600932785E+04 -0.16291643341E+04  0.20350625113E+04  0.60001750102E+03 0.  0.
        -24    2    4    4    0    0  0.15388234455E+03  0.10557239717E+04 -0.15625788925E+04  0.18937333354E+04  0.79625811670E+02 0.  0.
         24    2    4    4    0    0 -0.94854919406E+02  0.43693067967E+01 -0.66585441631E+02  0.14132917598E+03  0.80769848140E+02 0.  0.
         13    1    5    5    0    0  0.12319657736E+03  0.91125511769E+03 -0.13893578519E+04  0.16660967940E+04  0.00000000000E+00 0. -1.
        -14    1    5    5    0    0  0.30685767186E+02  0.14446885402E+03 -0.17322104054E+03  0.22763654139E+03  0.00000000000E+00 0.  1.
         15    1    3    3    0    0 -0.65047195707E+01 -0.64475645626E+03 -0.63200246285E+03  0.90287511321E+03  0.17770000000E+01 0. -1.
        -16    1    3    3    0    0 -0.52522705571E+02 -0.41533682224E+03 -0.43913482318E+03  0.60671468042E+03  0.00000000000E+00 0.  1.
          4    1    6    6  502    0 -0.10871539214E+03  0.38595597401E+01 -0.66420623524E+02  0.12745835367E+03  0.00000000000E+00 0. -1.
         -3    1    6    6    0  502  0.13860472738E+02  0.50974705655E+00 -0.16481810691E+00  0.13870822312E+02  0.00000000000E+00 0.  1.
<mgrwt>
<rscale>  0 0.11266635E+04</rscale>
<asrwt>0</asrwt>
<pdfrwt beam="1">  1        1 0.48038106E+00 0.11266635E+04</pdfrwt>
<pdfrwt beam="2">  1       -2 0.64950054E-01 0.11266635E+04</pdfrwt>
<totfact> 0.94086252E-01</totfact>
</mgrwt>
</event>
<event>
12    3  0.1092576E-007  0.2964345E+03  0.7818608E-02  0.1087037E+00
         -2   -1    0    0    0  501 -0.00000000000E+00  0.00000000000E+00  0.10306864710E+03  0.10306864710E+03  0.00000000000E+00 0.  1.
          1   -1    0    0  501    0  0.00000000000E+00 -0.00000000000E+00 -0.15805077688E+04  0.15805077688E+04  0.00000000000E+00 0. -1.
        -24    2    1    2    0    0  0.11719234449E+03 -0.11932789672E+03 -0.33974717454E+03  0.38656115541E+03  0.77641430435E+02 0.  0.
    5000000    2    1    2    0    0 -0.11719234449E+03  0.11932789672E+03 -0.11376919472E+04  0.12970152605E+04  0.59994368634E+03 0.  0.
        -24    2    4    4    0    0  0.97158480399E+02 -0.61650880099E+02 -0.92811298703E+03  0.93830222778E+03  0.76004951376E+02 0.  0.
         24    2    4    4    0    0 -0.21435082489E+03  0.18097877681E+03 -0.20957896018E+03  0.35871303276E+03  0.77795279613E+02 0.  0.
         11    1    5    5    0    0  0.84540063118E+02 -0.30797999328E+02 -0.44297027273E+03  0.45201570941E+03  0.00000000000E+00 0. -1.
        -12    1    5    5    0    0  0.12618417281E+02 -0.30852880772E+02 -0.48514271430E+03  0.48628651836E+03  0.00000000000E+00 0.  1.
         15    1    3    3    0    0  0.65310663215E+02 -0.19931287554E+02 -0.16910158382E+03  0.18237664964E+03  0.17770000000E+01 0. -1.
        -16    1    3    3    0    0  0.51881681280E+02 -0.99396609161E+02 -0.17064559072E+03  0.20418450577E+03  0.00000000000E+00 0.  1.
          4    1    6    6  502    0 -0.26527612782E+02  0.60307281572E+02 -0.30917461017E+02  0.72777550427E+02  0.00000000000E+00 0. -1.
         -3    1    6    6    0  502 -0.18782321211E+03  0.12067149524E+03 -0.17866149917E+03  0.28593548233E+03  0.00000000000E+00 0.  1.
<mgrwt>
<rscale>  0 0.29643454E+03</rscale>
<asrwt>0</asrwt>
<pdfrwt beam="1">  1        1 0.24315504E+00 0.29643454E+03</pdfrwt>
<pdfrwt beam="2">  1       -2 0.15856715E-01 0.29643454E+03</pdfrwt>
<totfact> 0.17365845E+02</totfact>
</mgrwt>
</event>
<event>
12    3  0.1092576E-007  0.4793732E+03  0.7818608E-02  0.1019308E+00
          1   -1    0    0  501    0  0.00000000000E+00  0.00000000000E+00  0.48337843357E+03  0.48337843357E+03  0.00000000000E+00 0. -1.
         -2   -1    0    0    0  501 -0.00000000000E+00 -0.00000000000E+00 -0.78312748458E+03  0.78312748458E+03  0.00000000000E+00 0.  1.
        -24    2    1    2    0    0  0.25109911665E+03  0.36770377779E+03  0.21540060206E+02  0.45314247537E+03  0.81346752894E+02 0.  0.
    5000000    2    1    2    0    0 -0.25109911665E+03 -0.36770377779E+03 -0.32128911121E+03  0.81336344278E+03  0.60006379868E+03 0.  0.
        -24    2    4    4    0    0 -0.19077856453E+03 -0.36840660613E+03 -0.47074872195E+03  0.63138363663E+03  0.70150190720E+02 0.  0.
         24    2    4    4    0    0 -0.60320552116E+02  0.70282834563E+00  0.14945961074E+03  0.18197980615E+03  0.84495039084E+02 0.  0.
         13    1    5    5    0    0 -0.97024040131E+02 -0.22139605073E+03 -0.31897497100E+03  0.40021857499E+03  0.00000000000E+00 0. -1.
        -14    1    5    5    0    0 -0.93754524398E+02 -0.14701055540E+03 -0.15177375095E+03  0.23116506164E+03  0.00000000000E+00 0.  1.
         15    1    3    3    0    0  0.98071058795E+02  0.84080438214E+02  0.20882401318E+02  0.13086896147E+03  0.17770000000E+01 0. -1.
        -16    1    3    3    0    0  0.15302805785E+03  0.28362333957E+03  0.65765888856E+00  0.32227351389E+03  0.00000000000E+00 0.  1.
          4    1    6    6  502    0 -0.68127984179E+02  0.19482495360E+02  0.68686138761E+02  0.98685234517E+02  0.00000000000E+00 0. -1.
         -3    1    6    6    0  502  0.78074320632E+01 -0.18779667015E+02  0.80773471977E+02  0.83294571635E+02  0.00000000000E+00 0.  1.
<mgrwt>
<rscale>  0 0.47937317E+03</rscale>
<asrwt>0</asrwt>
<pdfrwt beam="1">  1        1 0.74365914E-01 0.47937317E+03</pdfrwt>
<pdfrwt beam="2">  1       -2 0.12048115E+00 0.47937317E+03</pdfrwt>
<totfact> 0.22356431E+01</totfact>
</mgrwt>
</event>
<event>
12    3  0.1092576E-007  0.8313093E+03  0.7818608E-02  0.9515772E-01
          1   -1    0    0  501    0  0.00000000000E+00  0.00000000000E+00  0.48836099260E+03  0.48836099260E+03  0.00000000000E+00 0. -1.
         -2   -1    0    0    0  501 -0.00000000000E+00 -0.00000000000E+00 -0.14602545669E+04  0.14602545669E+04  0.00000000000E+00 0.  1.
        -24    2    1    2    0    0  0.73021455877E+03  0.57872088556E+02 -0.34909662353E+03  0.81514103491E+03  0.77614262672E+02 0.  0.
    5000000    2    1    2    0    0 -0.73021455877E+03 -0.57872088556E+02 -0.62279695076E+03  0.11334745246E+04  0.60027158480E+03 0.  0.
        -24    2    4    4    0    0 -0.73951206164E+03 -0.20954212430E+03 -0.54223305419E+03  0.94399121675E+03  0.79477928243E+02 0.  0.
         24    2    4    4    0    0  0.92975028712E+01  0.15167003574E+03 -0.80563896571E+02  0.18948330783E+03  0.79518169072E+02 0.  0.
         13    1    5    5    0    0 -0.58194101874E+03 -0.13935746645E+03 -0.39306788647E+03  0.71594567959E+03  0.00000000000E+00 0. -1.
        -14    1    5    5    0    0 -0.15757104290E+03 -0.70184657850E+02 -0.14916516772E+03  0.22804553716E+03  0.00000000000E+00 0.  1.
         15    1    3    3    0    0  0.45805654866E+03  0.13741137792E+02 -0.18434173109E+03  0.49395308703E+03  0.17770000000E+01 0. -1.
        -16    1    3    3    0    0  0.27215801010E+03  0.44130950763E+02 -0.16475489244E+03  0.32118794788E+03  0.00000000000E+00 0.  1.
          2    1    6    6  502    0 -0.14719689432E+02  0.95981330746E+02 -0.11834404636E+02  0.97821972183E+02  0.00000000000E+00 0. -1.
         -1    1    6    6    0  502  0.24017192303E+02  0.55688704996E+02 -0.68729491935E+02  0.91661335643E+02  0.00000000000E+00 0.  1.
<mgrwt>
<rscale>  0 0.83130933E+03</rscale>
<asrwt>0</asrwt>
<pdfrwt beam="1">  1        1 0.75132461E-01 0.83130933E+03</pdfrwt>
<pdfrwt beam="2">  1       -2 0.22465455E+00 0.83130933E+03</pdfrwt>
<totfact> 0.37711861E+00</totfact>
</mgrwt>
</event>
<event>
12    3  0.1092576E-007  0.8808513E+03  0.7818608E-02  0.9449840E-01
          1   -1    0    0  501    0  0.00000000000E+00  0.00000000000E+00  0.29606676833E+03  0.29606676833E+03  0.00000000000E+00 0. -1.
         -2   -1    0    0    0  501 -0.00000000000E+00 -0.00000000000E+00 -0.26738098524E+04  0.26738098524E+04  0.00000000000E+00 0.  1.
        -24    2    1    2    0    0  0.76223282817E+03  0.16052714256E+03 -0.86043514733E+03  0.11617927375E+04  0.51438062167E+02 0.  0.
    5000000    2    1    2    0    0 -0.76223282817E+03 -0.16052714256E+03 -0.15173079367E+04  0.18080838832E+04  0.60014673716E+03 0.  0.
        -24    2    4    4    0    0  0.86522589943E+02 -0.24404302402E+02 -0.18753631095E+03  0.22271931384E+03  0.79701294136E+02 0.  0.
         24    2    4    4    0    0 -0.84875541811E+03 -0.13612284016E+03 -0.13297716257E+04  0.15853645694E+04  0.78568783748E+02 0.  0.
         13    1    5    5    0    0  0.88488216633E+02  0.59175243795E+01 -0.15183339989E+03  0.17583675071E+03  0.00000000000E+00 0. -1.
        -14    1    5    5    0    0 -0.19656266905E+01 -0.30321826781E+02 -0.35702911053E+02  0.46882563126E+02  0.00000000000E+00 0.  1.
         15    1    3    3    0    0  0.22661367110E+03  0.34834265957E+02 -0.22432418823E+03  0.32076733183E+03  0.17770000000E+01 0. -1.
        -16    1    3    3    0    0  0.53561915707E+03  0.12569287660E+03 -0.63611095910E+03  0.84102540564E+03  0.00000000000E+00 0.  1.
          2    1    6    6  502    0 -0.51757953186E+03 -0.44092865916E+02 -0.79747357157E+03  0.95173360242E+03  0.00000000000E+00 0. -1.
         -1    1    6    6    0  502 -0.33117588625E+03 -0.92029974240E+02 -0.53229805418E+03  0.63363096695E+03  0.00000000000E+00 0.  1.
<mgrwt>
<rscale>  0 0.88085130E+03</rscale>
<asrwt>0</asrwt>
<pdfrwt beam="1">  1        1 0.45548731E-01 0.88085130E+03</pdfrwt>
<pdfrwt beam="2">  1       -2 0.41135539E+00 0.88085130E+03</pdfrwt>
<totfact> 0.50884052E-01</totfact>
</mgrwt>
</event>
<event>
12    3  0.1092576E-007  0.3917930E+03  0.7818608E-02  0.1046659E+00
         -2   -1    0    0    0  501 -0.00000000000E+00  0.00000000000E+00  0.30352984747E+03  0.30352984747E+03  0.00000000000E+00 0.  1.
          1   -1    0    0  501    0  0.00000000000E+00 -0.00000000000E+00 -0.80732634711E+03  0.80732634711E+03  0.00000000000E+00 0. -1.
        -24    2    1    2    0    0 -0.13639979267E+03  0.24312470267E+03 -0.18795873174E+02  0.29050090964E+03  0.79517099814E+02 0.  0.
    5000000    2    1    2    0    0  0.13639979267E+03 -0.24312470267E+03 -0.48500062646E+03  0.82035528495E+03  0.60003555010E+03 0.  0.
        -24    2    4    4    0    0 -0.57541449896E+02  0.81063282706E+02  0.69620101339E+02  0.14450748065E+03  0.78442202889E+02 0.  0.
         24    2    4    4    0    0  0.19394124257E+03 -0.32418798537E+03 -0.55462072780E+03  0.67584780430E+03  0.80343309868E+02 0.  0.
         13    1    5    5    0    0 -0.14216202595E+02 -0.12941312809E+02  0.25631832445E+02  0.32040112795E+02  0.00000000000E+00 0. -1.
        -14    1    5    5    0    0 -0.43325247301E+02  0.94004595516E+02  0.43988268894E+02  0.11246736785E+03  0.00000000000E+00 0.  1.
         15    1    3    3    0    0 -0.10281247638E+03  0.21786742291E+03  0.73150285947E+01  0.24102548960E+03  0.17770000000E+01 0. -1.
        -16    1    3    3    0    0 -0.33587316297E+02  0.25257279759E+02 -0.26110901769E+02  0.49475420039E+02  0.00000000000E+00 0.  1.
          4    1    6    6  502    0  0.45708808949E+02 -0.68044284098E+02 -0.68951825220E+02  0.10711523708E+03  0.00000000000E+00 0. -1.
         -3    1    6    6    0  502  0.14823243362E+03 -0.25614370128E+03 -0.48566890258E+03  0.56873256722E+03  0.00000000000E+00 0.  1.
<mgrwt>
<rscale>  0 0.39179304E+03</rscale>
<asrwt>0</asrwt>
<pdfrwt beam="1">  1        1 0.12420405E+00 0.39179304E+03</pdfrwt>
<pdfrwt beam="2">  1       -2 0.46696900E-01 0.39179304E+03</pdfrwt>
<totfact> 0.87379197E+01</totfact>
</mgrwt>
</event>
<event>
12    3  0.1092576E-007  0.5382216E+03  0.7818608E-02  0.1004258E+00
         -2   -1    0    0    0  501 -0.00000000000E+00  0.00000000000E+00  0.28347359996E+03  0.28347359996E+03  0.00000000000E+00 0.  1.
          1   -1    0    0  501    0  0.00000000000E+00 -0.00000000000E+00 -0.12618753115E+04  0.12618753115E+04  0.00000000000E+00 0. -1.
        -24    2    1    2    0    0 -0.20628368134E+03 -0.38943445263E+03 -0.31753647904E+03  0.54949566461E+03  0.83089829805E+02 0.  0.
    5000000    2    1    2    0    0  0.20628368134E+03  0.38943445263E+03 -0.66086523248E+03  0.99585324683E+03  0.60064022813E+03 0.  0.
        -24    2    4    4    0    0 -0.11033020634E+03  0.24936603457E+03 -0.55753666618E+03  0.62577423883E+03  0.79938039933E+02 0.  0.
         24    2    4    4    0    0  0.31661388767E+03  0.14006841806E+03 -0.10332856630E+03  0.37007900800E+03  0.80113444199E+02 0.  0.
         11    1    5    5    0    0 -0.40180171309E+02  0.29002948115E+02 -0.13941202393E+03  0.14795718834E+03  0.00000000000E+00 0. -1.
        -12    1    5    5    0    0 -0.70150035026E+02  0.22036308646E+03 -0.41812464225E+03  0.47781705050E+03  0.00000000000E+00 0.  1.
         15    1    3    3    0    0 -0.16406857421E+03 -0.30126364057E+03 -0.20180592018E+03  0.39800385089E+03  0.17770000000E+01 0. -1.
        -16    1    3    3    0    0 -0.42215107127E+02 -0.88170812059E+02 -0.11573055886E+03  0.15149181372E+03  0.00000000000E+00 0.  1.
          4    1    6    6  502    0  0.29464530524E+03  0.10374465661E+03 -0.97449313942E+02  0.32722343813E+03  0.00000000000E+00 0. -1.
         -3    1    6    6    0  502  0.21968582431E+02  0.36323761453E+02 -0.58792523558E+01  0.42855569864E+02  0.00000000000E+00 0.  1.
<mgrwt>
<rscale>  0 0.53822159E+03</rscale>
<asrwt>0</asrwt>
<pdfrwt beam="1">  1        1 0.19413466E+00 0.53822159E+03</pdfrwt>
<pdfrwt beam="2">  1       -2 0.43611323E-01 0.53822159E+03</pdfrwt>
<totfact> 0.44240864E+01</totfact>
</mgrwt>
</event>
<event>
12    3  0.1092576E-007  0.1175997E+04  0.7818608E-02  0.9134130E-01
         -2   -1    0    0    0  501 -0.00000000000E+00  0.00000000000E+00  0.13603512967E+04  0.13603512967E+04  0.00000000000E+00 0.  1.
          1   -1    0    0  501    0  0.00000000000E+00 -0.00000000000E+00 -0.13241256133E+04  0.13241256133E+04  0.00000000000E+00 0. -1.
        -24    2    1    2    0    0 -0.57832745910E+03 -0.10201215465E+04 -0.48016506591E+03  0.12696269696E+04  0.79268730869E+02 0.  0.
    5000000    2    1    2    0    0  0.57832745910E+03  0.10201215465E+04  0.51639074931E+03  0.14148499404E+04  0.60002527304E+03 0.  0.
        -24    2    4    4    0    0  0.16359551930E+03  0.36323759152E+03  0.48587004531E+03  0.63346795240E+03  0.80665382652E+02 0.  0.
         24    2    4    4    0    0  0.41473193979E+03  0.65688395503E+03  0.30520703999E+02  0.78138198803E+03  0.78276341187E+02 0.  0.
         13    1    5    5    0    0  0.49352481958E+02  0.11540173087E+03  0.21504988455E+03  0.24899734900E+03  0.00000000000E+00 0. -1.
        -14    1    5    5    0    0  0.11424303735E+03  0.24783586065E+03  0.27082016076E+03  0.38447060340E+03  0.00000000000E+00 0.  1.
         15    1    3    3    0    0 -0.45738992182E+03 -0.77843104933E+03 -0.33631448508E+03  0.96346822976E+03  0.17770000000E+01 0. -1.
        -16    1    3    3    0    0 -0.12093753728E+03 -0.24169049721E+03 -0.14385058082E+03  0.30615873982E+03  0.00000000000E+00 0.  1.
          2    1    6    6  502    0  0.74207945335E+02  0.70422955202E+02 -0.36250869709E+01  0.10236871117E+03  0.00000000000E+00 0. -1.
         -1    1    6    6    0  502  0.34052399446E+03  0.58646099982E+03  0.34145790970E+02  0.67901327686E+03  0.00000000000E+00 0.  1.
<mgrwt>
<rscale>  0 0.11759968E+04</rscale>
<asrwt>0</asrwt>
<pdfrwt beam="1">  1        1 0.20371163E+00 0.11759968E+04</pdfrwt>
<pdfrwt beam="2">  1       -2 0.20928482E+00 0.11759968E+04</pdfrwt>
<totfact> 0.86186425E-01</totfact>
</mgrwt>
</event>
<event>
12    3  0.1092576E-007  0.8768104E+03  0.7818608E-02  0.9455043E-01
         -2   -1    0    0    0  501 -0.00000000000E+00  0.00000000000E+00  0.28589240670E+03  0.28589240670E+03  0.00000000000E+00 0.  1.
          1   -1    0    0  501    0  0.00000000000E+00 -0.00000000000E+00 -0.28498486034E+04  0.28498486034E+04  0.00000000000E+00 0. -1.
        -24    2    1    2    0    0 -0.78584878601E+03  0.15152598219E+03 -0.10974319324E+04  0.13606081046E+04  0.79869457864E+02 0.  0.
    5000000    2    1    2    0    0  0.78584878601E+03 -0.15152598219E+03 -0.14665242643E+04  0.17751329055E+04  0.59990413958E+03 0.  0.
        -24    2    4    4    0    0  0.84981417566E+03 -0.12055616409E+03 -0.14144763199E+04  0.16566528938E+04  0.83890579348E+02 0.  0.
         24    2    4    4    0    0 -0.63965389648E+02 -0.30969818100E+02 -0.52047944467E+02  0.11848001171E+03  0.79232720170E+02 0.  0.
         13    1    5    5    0    0  0.85893339001E+02  0.96337362114E+01 -0.16785790226E+03  0.18880346901E+03  0.00000000000E+00 0. -1.
        -14    1    5    5    0    0  0.76392083666E+03 -0.13018990030E+03 -0.12466184176E+04  0.14678494248E+04  0.00000000000E+00 0.  1.
         15    1    3    3    0    0 -0.36037152056E+03  0.10965573752E+03 -0.50462666081E+03  0.62971679200E+03  0.17770000000E+01 0. -1.
        -16    1    3    3    0    0 -0.42547726546E+03  0.41870244665E+02 -0.59280527155E+03  0.73089131257E+03  0.00000000000E+00 0.  1.
          4    1    6    6  502    0 -0.28122624724E+02 -0.41985808143E+02 -0.61706871729E+02  0.79758561455E+02  0.00000000000E+00 0. -1.
         -3    1    6    6    0  502 -0.35842764924E+02  0.11015990043E+02  0.96589272615E+01  0.38721450255E+02  0.00000000000E+00 0.  1.
<mgrwt>
<rscale>  0 0.87681037E+03</rscale>
<asrwt>0</asrwt>
<pdfrwt beam="1">  1        1 0.43843824E+00 0.87681037E+03</pdfrwt>
<pdfrwt beam="2">  1       -2 0.43983448E-01 0.87681037E+03</pdfrwt>
<totfact> 0.34406054E+00</totfact>
</mgrwt>
</event>
<event>
12    3  0.1092576E-007  0.5602435E+03  0.7818608E-02  0.9991504E-01
          1   -1    0    0  501    0  0.00000000000E+00  0.00000000000E+00  0.69653360728E+03  0.69653360728E+03  0.00000000000E+00 0. -1.
         -2   -1    0    0    0  501 -0.00000000000E+00 -0.00000000000E+00 -0.54332775286E+03  0.54332775286E+03  0.00000000000E+00 0.  1.
        -24    2    1    2    0    0  0.27586631083E+03  0.30308199714E+03  0.27916065085E+03  0.50245060497E+03  0.81024829585E+02 0.  0.
    5000000    2    1    2    0    0 -0.27586631083E+03 -0.30308199714E+03 -0.12595479643E+03  0.73741075517E+03  0.59995757571E+03 0.  0.
        -24    2    4    4    0    0  0.74101734404E+02 -0.33254079192E+03  0.13047169237E+02  0.35114811857E+03  0.84025753299E+02 0.  0.
         24    2    4    4    0    0 -0.34996804524E+03  0.29458794787E+02 -0.13900196567E+03  0.38626263660E+03  0.80819704860E+02 0.  0.
         11    1    5    5    0    0  0.17286152202E+02 -0.23807631270E+03 -0.83834514813E+01  0.23885021245E+03  0.00000000000E+00 0. -1.
        -12    1    5    5    0    0  0.56815582202E+02 -0.94464479218E+02  0.21430620719E+02  0.11229790612E+03  0.00000000000E+00 0.  1.
         15    1    3    3    0    0  0.37444349734E+02  0.81724335339E+01  0.21663993813E+02  0.44060802918E+02  0.17770000000E+01 0. -1.
        -16    1    3    3    0    0  0.23842196110E+03  0.29490956360E+03  0.25749665704E+03  0.45838980205E+03  0.00000000000E+00 0.  1.
          2    1    6    6  502    0 -0.30772892248E+03  0.40264279015E+02 -0.95598019669E+02  0.32474187174E+03  0.00000000000E+00 0. -1.
         -1    1    6    6    0  502 -0.42239122760E+02 -0.10805484227E+02 -0.43403945997E+02  0.61520764861E+02  0.00000000000E+00 0.  1.
<mgrwt>
<rscale>  0 0.56024351E+03</rscale>
<asrwt>0</asrwt>
<pdfrwt beam="1">  1        1 0.10715902E+00 0.56024351E+03</pdfrwt>
<pdfrwt beam="2">  1       -2 0.83588884E-01 0.56024351E+03</pdfrwt>
<totfact> 0.31258109E+01</totfact>
</mgrwt>
</event>
<event>
12    3  0.1092576E-007  0.1051739E+04  0.7818608E-02  0.9253550E-01
          1   -1    0    0  501    0  0.00000000000E+00  0.00000000000E+00  0.14266923484E+04  0.14266923484E+04  0.00000000000E+00 0. -1.
         -2   -1    0    0    0  501 -0.00000000000E+00 -0.00000000000E+00 -0.17347706965E+04  0.17347706965E+04  0.00000000000E+00 0.  1.
        -24    2    1    2    0    0  0.18282406135E+03 -0.95051537015E+03 -0.13194832590E+04  0.16383734486E+04  0.79544828558E+02 0.  0.
    5000000    2    1    2    0    0 -0.18282406135E+03  0.95051537015E+03  0.10114049109E+04  0.15230895964E+04  0.59996493108E+03 0.  0.
        -24    2    4    4    0    0 -0.37762672003E+03  0.76714342307E+03  0.72214838397E+03  0.11215760040E+04  0.72962133539E+02 0.  0.
         24    2    4    4    0    0  0.19480265869E+03  0.18337194708E+03  0.28925652694E+03  0.40151359244E+03  0.77268879427E+02 0.  0.
         13    1    5    5    0    0 -0.32900782624E+02  0.11976891559E+03  0.11857114829E+03  0.17171538034E+03  0.00000000000E+00 0. -1.
        -14    1    5    5    0    0 -0.34472593741E+03  0.64737450748E+03  0.60357723568E+03  0.94986062362E+03  0.00000000000E+00 0.  1.
         15    1    3    3    0    0  0.53813068636E+02 -0.48537420695E+03 -0.67791562858E+03  0.83549789009E+03  0.17770000000E+01 0. -1.
        -16    1    3    3    0    0  0.12901099271E+03 -0.46514116320E+03 -0.64156763046E+03  0.80287555848E+03  0.00000000000E+00 0.  1.
          4    1    6    6  502    0  0.16120948668E+02  0.47935001794E+02  0.30195914628E+02  0.58901974867E+02  0.00000000000E+00 0. -1.
         -3    1    6    6    0  502  0.17868171002E+03  0.13543694529E+03  0.25906061232E+03  0.34261161758E+03  0.00000000000E+00 0.  1.
<mgrwt>
<rscale>  0 0.10517393E+04</rscale>
<asrwt>0</asrwt>
<pdfrwt beam="1">  1        1 0.21949113E+00 0.10517393E+04</pdfrwt>
<pdfrwt beam="2">  1       -2 0.26688780E+00 0.10517393E+04</pdfrwt>
<totfact> 0.32594914E-01</totfact>
</mgrwt>
</event>
<event>
12    3  0.1092576E-007  0.5504455E+03  0.7818608E-02  0.1001391E+00
          3   -1    0    0  501    0  0.00000000000E+00  0.00000000000E+00  0.25583276711E+04  0.25583276711E+04  0.00000000000E+00 0. -1.
         -4   -1    0    0    0  501 -0.00000000000E+00 -0.00000000000E+00 -0.13887507962E+03  0.13887507962E+03  0.00000000000E+00 0.  1.
        -24    2    1    2    0    0 -0.37758434348E+03  0.13178369277E+03  0.13263804353E+04  0.13876885295E+04  0.80358680973E+02 0.  0.
    5000000    2    1    2    0    0  0.37758434348E+03 -0.13178369277E+03  0.10930721562E+04  0.13095142212E+04  0.60006989501E+03 0.  0.
        -24    2    4    4    0    0  0.36178952008E+03 -0.32718815075E+03  0.62728087249E+03  0.79847735631E+03  0.78364869162E+02 0.  0.
         24    2    4    4    0    0  0.15794823404E+02  0.19540445798E+03  0.46579128370E+03  0.51103686494E+03  0.75926139841E+02 0.  0.
         11    1    5    5    0    0  0.24716448550E+03 -0.26793139584E+03  0.47861281642E+03  0.60162093033E+03  0.00000000000E+00 0. -1.
        -12    1    5    5    0    0  0.11462503458E+03 -0.59256754914E+02  0.14866805606E+03  0.19685642598E+03  0.00000000000E+00 0.  1.
         15    1    3    3    0    0 -0.15662615814E+03  0.28199372502E+02  0.62981106289E+03  0.64960918304E+03  0.17770000000E+01 0. -1.
        -16    1    3    3    0    0 -0.22095818534E+03  0.10358432027E+03  0.69656937243E+03  0.73807934647E+03  0.00000000000E+00 0.  1.
          2    1    6    6  502    0 -0.19707113359E+02  0.10836692003E+03  0.18940019354E+03  0.21909859193E+03  0.00000000000E+00 0. -1.
         -3    1    6    6    0  502  0.35501936763E+02  0.87037537950E+02  0.27639109017E+03  0.29193827301E+03  0.00000000000E+00 0.  1.
<mgrwt>
<rscale>  0 0.55044553E+03</rscale>
<asrwt>0</asrwt>
<pdfrwt beam="1">  1        3 0.39358884E+00 0.55044553E+03</pdfrwt>
<pdfrwt beam="2">  1       -4 0.21365399E-01 0.55044553E+03</pdfrwt>
<totfact> 0.59240607E-01</totfact>
</mgrwt>
</event>
<event>
12    3  0.1092576E-007  0.4949071E+03  0.7818608E-02  0.1015117E+00
         -2   -1    0    0    0  501 -0.00000000000E+00  0.00000000000E+00  0.99918037558E+02  0.99918037558E+02  0.00000000000E+00 0.  1.
          1   -1    0    0  501    0  0.00000000000E+00 -0.00000000000E+00 -0.25664363896E+04  0.25664363896E+04  0.00000000000E+00 0. -1.
        -24    2    1    2    0    0  0.18701568777E+03  0.26119041180E+03 -0.85273220530E+03  0.91492134957E+03  0.82058291794E+02 0.  0.
    5000000    2    1    2    0    0 -0.18701568777E+03 -0.26119041180E+03 -0.16137861468E+04  0.17514330776E+04  0.60001399916E+03 0.  0.
        -24    2    4    4    0    0 -0.32427421865E+03  0.35907910647E+02 -0.93996608845E+03  0.99799564686E+03  0.77562341317E+02 0.  0.
         24    2    4    4    0    0  0.13725853089E+03 -0.29709832244E+03 -0.67382005833E+03  0.75343743077E+03  0.80790925069E+02 0.  0.
         13    1    5    5    0    0 -0.11931672109E+03  0.26063133482E+02 -0.25122612767E+03  0.27933910232E+03  0.00000000000E+00 0. -1.
        -14    1    5    5    0    0 -0.20495749756E+03  0.98447771645E+01 -0.68873996078E+03  0.71865654454E+03  0.00000000000E+00 0.  1.
         15    1    3    3    0    0  0.11985362925E+03  0.12299740013E+03 -0.36155718298E+03  0.40027491450E+03  0.17770000000E+01 0. -1.
        -16    1    3    3    0    0  0.67162058516E+02  0.13819301167E+03 -0.49117502232E+03  0.51464643507E+03  0.00000000000E+00 0.  1.
          4    1    6    6  502    0  0.13711349730E+03 -0.21501695714E+03 -0.50890362032E+03  0.56922341640E+03  0.00000000000E+00 0. -1.
         -3    1    6    6    0  502  0.14503358968E+00 -0.82081365304E+02 -0.16491643800E+03  0.18421401437E+03  0.00000000000E+00 0.  1.
<mgrwt>
<rscale>  0 0.49490712E+03</rscale>
<asrwt>0</asrwt>
<pdfrwt beam="1">  1        1 0.39483636E+00 0.49490712E+03</pdfrwt>
<pdfrwt beam="2">  1       -2 0.15372006E-01 0.49490712E+03</pdfrwt>
<totfact> 0.39166937E+01</totfact>
</mgrwt>
</event>
<event>
12    3  0.1092576E-007  0.1710152E+04  0.7818608E-02  0.8755596E-01
         -2   -1    0    0    0  501 -0.00000000000E+00  0.00000000000E+00  0.21108007385E+04  0.21108007385E+04  0.00000000000E+00 0.  1.
          1   -1    0    0  501    0  0.00000000000E+00 -0.00000000000E+00 -0.17199729559E+04  0.17199729559E+04  0.00000000000E+00 0. -1.
        -24    2    1    2    0    0 -0.75073342048E+03 -0.15332580286E+04 -0.54475572852E+03  0.17936466994E+04  0.76998879576E+02 0.  0.
    5000000    2    1    2    0    0  0.75073342048E+03  0.15332580286E+04  0.93558351109E+03  0.20371269950E+04  0.60007419231E+03 0.  0.
        -24    2    4    4    0    0  0.15061510763E+03  0.31226468294E+03  0.48589042378E+03  0.60219982577E+03  0.79755773343E+02 0.  0.
         24    2    4    4    0    0  0.60011831285E+03  0.12209933457E+04  0.44969308731E+03  0.14349271692E+04  0.76324100907E+02 0.  0.
         13    1    5    5    0    0  0.21332258925E+01  0.36220878255E+02  0.91443873922E+02  0.98379290260E+02  0.00000000000E+00 0. -1.
        -14    1    5    5    0    0  0.14848188174E+03  0.27604380468E+03  0.39444654986E+03  0.50382053551E+03  0.00000000000E+00 0.  1.
         15    1    3    3    0    0 -0.19686279636E+03 -0.48255546195E+03 -0.16503340314E+03  0.54667532991E+03  0.17770000000E+01 0. -1.
        -16    1    3    3    0    0 -0.55387062413E+03 -0.10507025667E+04 -0.37972232538E+03  0.12469713695E+04  0.00000000000E+00 0.  1.
          2    1    6    6  502    0  0.41476137313E+02  0.56417669271E+02  0.11333734069E+02  0.70934313984E+02  0.00000000000E+00 0. -1.
         -1    1    6    6    0  502  0.55864217554E+03  0.11645756764E+04  0.43835935324E+03  0.13639928552E+04  0.00000000000E+00 0.  1.
<mgrwt>
<rscale>  0 0.17101517E+04</rscale>
<asrwt>0</asrwt>
<pdfrwt beam="1">  1        1 0.26461122E+00 0.17101517E+04</pdfrwt>
<pdfrwt beam="2">  1       -2 0.32473858E+00 0.17101517E+04</pdfrwt>
<totfact> 0.83340980E-02</totfact>
</mgrwt>
</event>
<event>
12    3  0.1092576E-007  0.6202130E+03  0.7818608E-02  0.9864336E-01
          1   -1    0    0  501    0  0.00000000000E+00  0.00000000000E+00  0.28207632871E+04  0.28207632871E+04  0.00000000000E+00 0. -1.
         -2   -1    0    0    0  501 -0.00000000000E+00 -0.00000000000E+00 -0.20229144940E+03  0.20229144940E+03  0.00000000000E+00 0.  1.
        -24    2    1    2    0    0  0.52851886979E+03 -0.19944889531E+02  0.18038233616E+04  0.18814271126E+04  0.79115521942E+02 0.  0.
    5000000    2    1    2    0    0 -0.52851886979E+03  0.19944889531E+02  0.81464847610E+03  0.11416276239E+04  0.59994291204E+03 0.  0.
        -24    2    4    4    0    0 -0.56565889029E+03 -0.10458265344E+03  0.80082127121E+03  0.98850241115E+03  0.70105612190E+02 0.  0.
         24    2    4    4    0    0  0.37140020499E+02  0.12452754297E+03  0.13827204892E+02  0.15312521275E+03  0.79810081469E+02 0.  0.
         11    1    5    5    0    0 -0.34975772524E+03 -0.38890191767E+02  0.52652590844E+03  0.63330280723E+03  0.00000000000E+00 0. -1.
        -12    1    5    5    0    0 -0.21590116505E+03 -0.65692461676E+02  0.27429536277E+03  0.35519960393E+03  0.00000000000E+00 0.  1.
         15    1    3    3    0    0  0.46148572596E+02 -0.19046455916E+02  0.12303700599E+03  0.13279202088E+03  0.17770000000E+01 0. -1.
        -16    1    3    3    0    0  0.48237029720E+03 -0.89843361562E+00  0.16807863556E+04  0.17486350917E+04  0.00000000000E+00 0.  1.
          2    1    6    6  502    0  0.28560278053E+02  0.75152860620E+02 -0.30727374995E+02  0.86068655827E+02  0.00000000000E+00 0. -1.
         -1    1    6    6    0  502  0.85797424463E+01  0.49374682354E+02  0.44554579887E+02  0.67056556927E+02  0.00000000000E+00 0.  1.
<mgrwt>
<rscale>  0 0.62021299E+03</rscale>
<asrwt>0</asrwt>
<pdfrwt beam="1">  1        1 0.43396356E+00 0.62021299E+03</pdfrwt>
<pdfrwt beam="2">  1       -2 0.31121763E-01 0.62021299E+03</pdfrwt>
<totfact> 0.73440028E+00</totfact>
</mgrwt>
</event>
<event>
12    3  0.1092576E-007  0.5803053E+03  0.7818608E-02  0.9947130E-01
         -2   -1    0    0    0  501 -0.00000000000E+00  0.00000000000E+00  0.53271698718E+03  0.53271698718E+03  0.00000000000E+00 0.  1.
          1   -1    0    0  501    0  0.00000000000E+00 -0.00000000000E+00 -0.99746948377E+03  0.99746948377E+03  0.00000000000E+00 0. -1.
        -24    2    1    2    0    0 -0.40264713345E+03  0.34969132520E+03 -0.48844795230E+03  0.72729821210E+03  0.77282276215E+02 0.  0.
    5000000    2    1    2    0    0  0.40264713345E+03 -0.34969132520E+03  0.23695455710E+02  0.80288825885E+03  0.59971605330E+03 0.  0.
        -24    2    4    4    0    0  0.43388420010E+03 -0.38008086065E+03  0.19195745610E+03  0.61173483801E+03  0.68226734975E+02 0.  0.
         24    2    4    4    0    0 -0.31237066652E+02  0.30389535443E+02 -0.16826200039E+03  0.19115342084E+03  0.79550306897E+02 0.  0.
         13    1    5    5    0    0  0.22185850926E+03 -0.15680311787E+03  0.69977152456E+02  0.28054450230E+03  0.00000000000E+00 0. -1.
        -14    1    5    5    0    0  0.21202569084E+03 -0.22327774278E+03  0.12198030364E+03  0.33119033572E+03  0.00000000000E+00 0.  1.
         15    1    3    3    0    0 -0.32649702075E+03  0.28293665929E+03 -0.43373922986E+03  0.61219795407E+03  0.17770000000E+01 0. -1.
        -16    1    3    3    0    0 -0.76150112698E+02  0.66754665917E+02 -0.54708722445E+02  0.11510025802E+03  0.00000000000E+00 0.  1.
          4    1    6    6  502    0 -0.13715677344E+02  0.26399490831E+02 -0.17047168605E+03  0.17304811084E+03  0.00000000000E+00 0. -1.
         -3    1    6    6    0  502 -0.17521389308E+02  0.39900446119E+01  0.22096856668E+01  0.18105309995E+02  0.00000000000E+00 0.  1.
<mgrwt>
<rscale>  0 0.58030526E+03</rscale>
<asrwt>0</asrwt>
<pdfrwt beam="1">  1        1 0.15345684E+00 0.58030526E+03</pdfrwt>
<pdfrwt beam="2">  1       -2 0.81956460E-01 0.58030526E+03</pdfrwt>
<totfact> 0.18226457E+01</totfact>
</mgrwt>
</event>
<event>
12    3  0.1092576E-007  0.7009282E+03  0.7818608E-02  0.9715646E-01
          1   -1    0    0  501    0  0.00000000000E+00  0.00000000000E+00  0.26162974121E+04  0.26162974121E+04  0.00000000000E+00 0. -1.
         -2   -1    0    0    0  501 -0.00000000000E+00 -0.00000000000E+00 -0.19907332919E+03  0.19907332919E+03  0.00000000000E+00 0.  1.
        -24    2    1    2    0    0 -0.25377728261E+02 -0.59303065009E+03  0.98529099660E+03  0.11532062136E+04  0.82200011932E+02 0.  0.
    5000000    2    1    2    0    0  0.25377728261E+02  0.59303065009E+03  0.14319330863E+04  0.16621645277E+04  0.60002430994E+03 0.  0.
        -24    2    4    4    0    0 -0.18276233867E+03  0.32380641964E+02  0.60920510677E+03  0.64258458012E+03  0.85635869100E+02 0.  0.
         24    2    4    4    0    0  0.20814006693E+03  0.56065000812E+03  0.82272797951E+03  0.10195799476E+04  0.70789986393E+02 0.  0.
         13    1    5    5    0    0 -0.44406299312E+02  0.46173877782E+02  0.15983243701E+03  0.17219278245E+03  0.00000000000E+00 0. -1.
        -14    1    5    5    0    0 -0.13835603936E+03 -0.13793235818E+02  0.44937266976E+03  0.47039179767E+03  0.00000000000E+00 0.  1.
         15    1    3    3    0    0 -0.28128434079E+02 -0.10599171873E+03  0.22470740483E+03  0.25004405363E+03  0.17770000000E+01 0. -1.
        -16    1    3    3    0    0  0.27507058175E+01 -0.48703893136E+03  0.76058359177E+03  0.90316215992E+03  0.00000000000E+00 0.  1.
          2    1    6    6  502    0  0.11447418307E+03  0.40011361914E+03  0.58025747505E+03  0.71406861307E+03  0.00000000000E+00 0. -1.
         -1    1    6    6    0  502  0.93665883854E+02  0.16053638899E+03  0.24247050446E+03  0.30551133452E+03  0.00000000000E+00 0.  1.
<mgrwt>
<rscale>  0 0.70092823E+03</rscale>
<asrwt>0</asrwt>
<pdfrwt beam="1">  1        1 0.40250727E+00 0.70092823E+03</pdfrwt>
<pdfrwt beam="2">  1       -2 0.30626668E-01 0.70092823E+03</pdfrwt>
<totfact> 0.10330696E+01</totfact>
</mgrwt>
</event>
<event>
12    3  0.1092576E-007  0.1246426E+04  0.7818608E-02  0.9073163E-01
         -2   -1    0    0    0  501 -0.00000000000E+00  0.00000000000E+00  0.63546822854E+03  0.63546822854E+03  0.00000000000E+00 0.  1.
          1   -1    0    0  501    0  0.00000000000E+00 -0.00000000000E+00 -0.25325591282E+04  0.25325591282E+04  0.00000000000E+00 0. -1.
        -24    2    1    2    0    0 -0.97375730142E+01  0.11822430011E+04 -0.66918334357E+03  0.13608700886E+04  0.79797973849E+02 0.  0.
    5000000    2    1    2    0    0  0.97375730142E+01 -0.11822430011E+04 -0.12279075561E+04  0.18071572682E+04  0.60022253510E+03 0.  0.
        -24    2    4    4    0    0 -0.16440113478E+03 -0.10818071588E+04 -0.11127835827E+04  0.15625183819E+04  0.76432519201E+02 0.  0.
         24    2    4    4    0    0  0.17413870779E+03 -0.10043584235E+03 -0.11512397340E+03  0.24463888629E+03  0.78632101931E+02 0.  0.
         13    1    5    5    0    0 -0.10004827301E+03 -0.81793189763E+03 -0.80397911620E+03  0.11512622053E+04  0.00000000000E+00 0. -1.
        -14    1    5    5    0    0 -0.64352861764E+02 -0.26387526113E+03 -0.30880446647E+03  0.41125617657E+03  0.00000000000E+00 0.  1.
         15    1    3    3    0    0 -0.11773389142E+02  0.20561869130E+03 -0.15018957163E+03  0.25490728522E+03  0.17770000000E+01 0. -1.
        -16    1    3    3    0    0  0.20358161277E+01  0.97662430981E+03 -0.51899377193E+03  0.11059628033E+04  0.00000000000E+00 0.  1.
          4    1    6    6  502    0  0.80350005992E+02 -0.89379456594E+02 -0.51425664287E+02  0.13072646890E+03  0.00000000000E+00 0. -1.
         -3    1    6    6    0  502  0.93788701799E+02 -0.11056385752E+02 -0.63698309117E+02  0.11391241739E+03  0.00000000000E+00 0.  1.
<mgrwt>
<rscale>  0 0.12464257E+04</rscale>
<asrwt>0</asrwt>
<pdfrwt beam="1">  1        1 0.38962447E+00 0.12464257E+04</pdfrwt>
<pdfrwt beam="2">  1       -2 0.97764345E-01 0.12464257E+04</pdfrwt>
<totfact> 0.96542519E-01</totfact>
</mgrwt>
</event>
<event>
12    3  0.1092576E-007  0.1452046E+04  0.7818608E-02  0.8916984E-01
          1   -1    0    0  501    0  0.00000000000E+00  0.00000000000E+00  0.16692815585E+04  0.16692815585E+04  0.00000000000E+00 0. -1.
         -2   -1    0    0    0  501 -0.00000000000E+00 -0.00000000000E+00 -0.15922481688E+04  0.15922481688E+04  0.00000000000E+00 0.  1.
        -24    2    1    2    0    0  0.12569899769E+04  0.66501803174E+03  0.71218754035E+03  0.15924617846E+04  0.80315989546E+02 0.  0.
    5000000    2    1    2    0    0 -0.12569899769E+04 -0.66501803174E+03 -0.63515415069E+03  0.16690679428E+04  0.60007850981E+03 0.  0.
        -24    2    4    4    0    0 -0.11551393639E+04 -0.72030341955E+03 -0.67684772147E+03  0.15221502859E+04  0.75064561795E+02 0.  0.
         24    2    4    4    0    0 -0.10185061295E+03  0.55285387808E+02  0.41693570775E+02  0.14691765689E+03  0.80102575485E+02 0.  0.
         13    1    5    5    0    0 -0.41722269250E+03 -0.29771747646E+03 -0.27415328295E+03  0.58126628449E+03  0.00000000000E+00 0. -1.
        -14    1    5    5    0    0 -0.73791667140E+03 -0.42258594309E+03 -0.40269443851E+03  0.94088400137E+03  0.00000000000E+00 0.  1.
         15    1    3    3    0    0  0.66734340889E+03  0.39784366428E+03  0.39471479303E+03  0.87145265629E+03  0.17770000000E+01 0. -1.
        -16    1    3    3    0    0  0.58964656796E+03  0.26717436746E+03  0.31747274732E+03  0.72100912826E+03  0.00000000000E+00 0.  1.
          2    1    6    6  502    0 -0.83487754392E+02  0.38189930898E+02  0.65147047032E+02  0.11257359234E+03  0.00000000000E+00 0. -1.
         -1    1    6    6    0  502 -0.18362858561E+02  0.17095456910E+02 -0.23453476258E+02  0.34344064554E+02  0.00000000000E+00 0.  1.
<mgrwt>
<rscale>  0 0.14520455E+04</rscale>
<asrwt>0</asrwt>
<pdfrwt beam="1">  1        1 0.25681255E+00 0.14520455E+04</pdfrwt>
<pdfrwt beam="2">  1       -2 0.24496126E+00 0.14520455E+04</pdfrwt>
<totfact> 0.28647572E-01</totfact>
</mgrwt>
</event>
<event>
12    3  0.1092576E-007  0.3360870E+03  0.7818608E-02  0.1068475E+00
          1   -1    0    0  501    0  0.00000000000E+00  0.00000000000E+00  0.31308064742E+04  0.31308064742E+04  0.00000000000E+00 0. -1.
         -2   -1    0    0    0  501 -0.00000000000E+00 -0.00000000000E+00 -0.82190659681E+02  0.82190659681E+02  0.00000000000E+00 0.  1.
        -24    2    1    2    0    0  0.20057088791E+03  0.24205864514E+03  0.75410969010E+03  0.82061158488E+03  0.76817184078E+02 0.  0.
    5000000    2    1    2    0    0 -0.20057088791E+03 -0.24205864514E+03  0.22945061244E+04  0.23923855490E+04  0.59994098986E+03 0.  0.
        -24    2    4    4    0    0 -0.11908152289E+03 -0.98988731883E+02  0.12060374432E+03  0.21073658857E+03  0.76716807058E+02 0.  0.
         24    2    4    4    0    0 -0.81489365024E+02 -0.14306991326E+03  0.21739023801E+04  0.21816489605E+04  0.81431637986E+02 0.  0.
         13    1    5    5    0    0 -0.12715275431E+03 -0.97397108404E+02  0.12324384363E+03  0.20209667154E+03  0.00000000000E+00 0. -1.
        -14    1    5    5    0    0  0.80712314228E+01 -0.15916234787E+01 -0.26400993076E+01  0.86399170327E+01  0.00000000000E+00 0.  1.
         15    1    3    3    0    0  0.12152404026E+03  0.99440955060E+02  0.43040763890E+03  0.45815989486E+03  0.17770000000E+01 0. -1.
        -16    1    3    3    0    0  0.79046847658E+02  0.14261769008E+03  0.32370205120E+03  0.36245169002E+03  0.00000000000E+00 0.  1.
          4    1    6    6  502    0 -0.35193977709E+02 -0.20420173553E+01  0.41466913522E+03  0.41616496441E+03  0.00000000000E+00 0. -1.
         -3    1    6    6    0  502 -0.46295387314E+02 -0.14102789590E+03  0.17592332449E+04  0.17654839960E+04  0.00000000000E+00 0.  1.
<mgrwt>
<rscale>  0 0.33608698E+03</rscale>
<asrwt>0</asrwt>
<pdfrwt beam="1">  1        1 0.48166244E+00 0.33608698E+03</pdfrwt>
<pdfrwt beam="2">  1       -2 0.12644719E-01 0.33608698E+03</pdfrwt>
<totfact> 0.22847015E+01</totfact>
</mgrwt>
</event>
<event>
12    3  0.1092576E-007  0.7130038E+03  0.7818608E-02  0.9695249E-01
          1   -1    0    0  501    0  0.00000000000E+00  0.00000000000E+00  0.54933330453E+03  0.54933330453E+03  0.00000000000E+00 0. -1.
         -2   -1    0    0    0  501 -0.00000000000E+00 -0.00000000000E+00 -0.11110502919E+04  0.11110502919E+04  0.00000000000E+00 0.  1.
        -24    2    1    2    0    0 -0.31852593015E+03  0.50691444639E+03  0.62989448747E+02  0.60742496028E+03  0.81094929438E+02 0.  0.
    5000000    2    1    2    0    0  0.31852593015E+03 -0.50691444639E+03 -0.62470643609E+03  0.10529586361E+04  0.60003561058E+03 0.  0.
        -24    2    4    4    0    0  0.38410750944E+03 -0.85582575382E+02 -0.21144135817E+03  0.45390913829E+03  0.80393419231E+02 0.  0.
         24    2    4    4    0    0 -0.65581579295E+02 -0.42133187100E+03 -0.41326507792E+03  0.59904949784E+03  0.79061919794E+02 0.  0.
         11    1    5    5    0    0  0.26388126989E+03 -0.75767472164E+02 -0.18309617091E+03  0.32999733671E+03  0.00000000000E+00 0. -1.
        -12    1    5    5    0    0  0.12022623955E+03 -0.98151032186E+01 -0.28345187262E+02  0.12391180157E+03  0.00000000000E+00 0.  1.
         15    1    3    3    0    0 -0.23154165868E+02  0.90109468527E+02  0.15949866182E+02  0.94410739196E+02  0.17770000000E+01 0. -1.
        -16    1    3    3    0    0 -0.29537176428E+03  0.41680497786E+03  0.47039582565E+02  0.51301422108E+03  0.00000000000E+00 0.  1.
          2    1    6    6  502    0 -0.40482448345E+02 -0.31937616735E+03 -0.26283370492E+03  0.41559778794E+03  0.00000000000E+00 0. -1.
         -1    1    6    6    0  502 -0.25099130950E+02 -0.10195570365E+03 -0.15043137300E+03  0.18345170990E+03  0.00000000000E+00 0.  1.
<mgrwt>
<rscale>  0 0.71300380E+03</rscale>
<asrwt>0</asrwt>
<pdfrwt beam="1">  1        1 0.84512817E-01 0.71300380E+03</pdfrwt>
<pdfrwt beam="2">  1       -2 0.17093081E+00 0.71300380E+03</pdfrwt>
<totfact> 0.73266966E+00</totfact>
</mgrwt>
</event>
<event>
12    3  0.1092576E-007  0.1056398E+04  0.7818608E-02  0.9248764E-01
         -2   -1    0    0    0  501 -0.00000000000E+00  0.00000000000E+00  0.31654101353E+03  0.31654101353E+03  0.00000000000E+00 0.  1.
          1   -1    0    0  501    0  0.00000000000E+00 -0.00000000000E+00 -0.38550347906E+04  0.38550347906E+04  0.00000000000E+00 0. -1.
        -24    2    1    2    0    0 -0.96179292885E+03 -0.33980796152E+03 -0.17434249655E+04  0.20214933820E+04  0.79936189891E+02 0.  0.
    5000000    2    1    2    0    0  0.96179292885E+03  0.33980796152E+03 -0.17950688116E+04  0.21500824221E+04  0.60005607654E+03 0.  0.
        -24    2    4    4    0    0  0.58590574719E+03  0.12254996982E+02 -0.55334061347E+03  0.80974601110E+03  0.77891196089E+02 0.  0.
         24    2    4    4    0    0  0.37588718166E+03  0.32755296454E+03 -0.12417281981E+04  0.13403364110E+04  0.77657316981E+02 0.  0.
         13    1    5    5    0    0  0.15940271588E+03  0.17407740892E+02 -0.10946737881E+03  0.19415293533E+03  0.00000000000E+00 0. -1.
        -14    1    5    5    0    0  0.42650303131E+03 -0.51527439100E+01 -0.44387323466E+03  0.61559307577E+03  0.00000000000E+00 0.  1.
         15    1    3    3    0    0 -0.50089163234E+03 -0.13815955074E+03 -0.91741859540E+03  0.10543436469E+04  0.17770000000E+01 0. -1.
        -16    1    3    3    0    0 -0.46090129650E+03 -0.20164841078E+03 -0.82600637006E+03  0.96714973508E+03  0.00000000000E+00 0.  1.
          2    1    6    6  502    0  0.15029055789E+03  0.17607538645E+03 -0.62055677576E+03  0.66232960484E+03  0.00000000000E+00 0. -1.
         -1    1    6    6    0  502  0.22559662377E+03  0.15147757809E+03 -0.62117142235E+03  0.67800680621E+03  0.00000000000E+00 0.  1.
<mgrwt>
<rscale>  0 0.10563976E+04</rscale>
<asrwt>0</asrwt>
<pdfrwt beam="1">  1        1 0.59308226E+00 0.10563976E+04</pdfrwt>
<pdfrwt beam="2">  1       -2 0.48698619E-01 0.10563976E+04</pdfrwt>
<totfact> 0.46590229E-01</totfact>
</mgrwt>
</event>
<event>
12    3  0.1092576E-007  0.5389744E+03  0.7818608E-02  0.1004079E+00
         -2   -1    0    0    0  501 -0.00000000000E+00  0.00000000000E+00  0.15678192605E+03  0.15678192605E+03  0.00000000000E+00 0.  1.
          1   -1    0    0  501    0  0.00000000000E+00 -0.00000000000E+00 -0.27459716073E+04  0.27459716073E+04  0.00000000000E+00 0. -1.
        -24    2    1    2    0    0 -0.22794745726E+03 -0.33416938894E+03 -0.17345545408E+04  0.17829052202E+04  0.80264222397E+02 0.  0.
    5000000    2    1    2    0    0  0.22794745726E+03  0.33416938894E+03 -0.85463514043E+03  0.11198483131E+04  0.60002483067E+03 0.  0.
        -24    2    4    4    0    0  0.22608413237E+03 -0.77381158292E+02 -0.13190932184E+03  0.28459457550E+03  0.80573721843E+02 0.  0.
         24    2    4    4    0    0  0.18633248986E+01  0.41155054724E+03 -0.72272581859E+03  0.83525373764E+03  0.77064080372E+02 0.  0.
         11    1    5    5    0    0  0.54840442774E+02 -0.57504336802E+02 -0.48373818030E+02  0.93028217147E+02  0.00000000000E+00 0. -1.
        -12    1    5    5    0    0  0.17124368959E+03 -0.19876821490E+02 -0.83535503813E+02  0.19156635836E+03  0.00000000000E+00 0.  1.
         15    1    3    3    0    0 -0.17501412252E+03 -0.21212489626E+03 -0.10413421765E+04  0.10770439178E+04  0.17770000000E+01 0. -1.
        -16    1    3    3    0    0 -0.52933334740E+02 -0.12204449269E+03 -0.69321236433E+03  0.70586130237E+03  0.00000000000E+00 0.  1.
          2    1    6    6  502    0 -0.26958020008E+02  0.33777946029E+03 -0.60339490596E+03  0.69203114899E+03  0.00000000000E+00 0. -1.
         -1    1    6    6    0  502  0.28821344907E+02  0.73771086943E+02 -0.11933091263E+03  0.14322258865E+03  0.00000000000E+00 0.  1.
<mgrwt>
<rscale>  0 0.53897441E+03</rscale>
<asrwt>0</asrwt>
<pdfrwt beam="1">  1        1 0.42245715E+00 0.53897441E+03</pdfrwt>
<pdfrwt beam="2">  1       -2 0.24120298E-01 0.53897441E+03</pdfrwt>
<totfact> 0.13401159E+01</totfact>
</mgrwt>
</event>
<event>
12    3  0.1092576E-007  0.1252072E+04  0.7818608E-02  0.9068460E-01
          1   -1    0    0  501    0  0.00000000000E+00  0.00000000000E+00  0.74826646883E+03  0.74826646883E+03  0.00000000000E+00 0. -1.
         -2   -1    0    0    0  501 -0.00000000000E+00 -0.00000000000E+00 -0.22024026886E+04  0.22024026886E+04  0.00000000000E+00 0.  1.
        -24    2    1    2    0    0 -0.67318550202E+03  0.96988768832E+03 -0.10042987589E+04  0.15519773991E+04  0.78466566166E+02 0.  0.
    5000000    2    1    2    0    0  0.67318550202E+03 -0.96988768832E+03 -0.44983746089E+03  0.13986917584E+04  0.60010336247E+03 0.  0.
        -24    2    4    4    0    0  0.26721517829E+03 -0.84782495491E+03 -0.27983772336E+03  0.93506108497E+03  0.76282209893E+02 0.  0.
         24    2    4    4    0    0  0.40597032373E+03 -0.12206273341E+03 -0.16999973753E+03  0.46363067340E+03  0.79638407316E+02 0.  0.
         13    1    5    5    0    0  0.13359070734E+03 -0.35542659026E+03 -0.15265360657E+03  0.40924034717E+03  0.00000000000E+00 0. -1.
        -14    1    5    5    0    0  0.13362447096E+03 -0.49239836465E+03 -0.12718411679E+03  0.52582073781E+03  0.00000000000E+00 0.  1.
         15    1    3    3    0    0 -0.86582163608E+02  0.84112102799E+02 -0.96590827398E+02  0.15461003382E+03  0.17770000000E+01 0. -1.
        -16    1    3    3    0    0 -0.58660333841E+03  0.88577558552E+03 -0.90770793148E+03  0.13973673652E+04  0.00000000000E+00 0.  1.
          2    1    6    6  502    0  0.27852955845E+03 -0.12095523406E+03 -0.12668100402E+03  0.32902425496E+03  0.00000000000E+00 0. -1.
         -1    1    6    6    0  502  0.12744076528E+03 -0.11074993443E+01 -0.43318733514E+02  0.13460641843E+03  0.00000000000E+00 0.  1.
<mgrwt>
<rscale>  0 0.12520720E+04</rscale>
<asrwt>0</asrwt>
<pdfrwt beam="1">  1        1 0.11511792E+00 0.12520720E+04</pdfrwt>
<pdfrwt beam="2">  1       -2 0.33883118E+00 0.12520720E+04</pdfrwt>
<totfact> 0.38643533E-01</totfact>
</mgrwt>
</event>
<event>
12    3  0.1092576E-007  0.9271227E+03  0.7818608E-02  0.9392298E-01
          1   -1    0    0  501    0  0.00000000000E+00  0.00000000000E+00  0.89070999860E+03  0.89070999860E+03  0.00000000000E+00 0. -1.
         -2   -1    0    0    0  501 -0.00000000000E+00 -0.00000000000E+00 -0.10208240123E+04  0.10208240123E+04  0.00000000000E+00 0.  1.
        -24    2    1    2    0    0  0.26015846536E+03  0.80113614279E+03 -0.21706689932E+03  0.87357512238E+03  0.80708793096E+02 0.  0.
    5000000    2    1    2    0    0 -0.26015846536E+03 -0.80113614279E+03  0.86952885674E+02  0.10379588885E+04  0.60024686876E+03 0.  0.
        -24    2    4    4    0    0 -0.68200394872E+02 -0.80384989425E+03 -0.71873516149E+01  0.81085726351E+03  0.81313574607E+02 0.  0.
         24    2    4    4    0    0 -0.19195807049E+03  0.27137514611E+01  0.94140237289E+02  0.22710162497E+03  0.76534296326E+02 0.  0.
         11    1    5    5    0    0 -0.58846560626E+02 -0.30103475579E+03  0.18586218664E+02  0.30729511778E+03  0.00000000000E+00 0. -1.
        -12    1    5    5    0    0 -0.93538342452E+01 -0.50281513846E+03 -0.25773570279E+02  0.50356214573E+03  0.00000000000E+00 0.  1.
         15    1    3    3    0    0  0.23830577710E+03  0.62993662054E+03 -0.16792278180E+03  0.69412607477E+03  0.17770000000E+01 0. -1.
        -16    1    3    3    0    0  0.21852688256E+02  0.17119952225E+03 -0.49144117520E+02  0.17944904761E+03  0.00000000000E+00 0.  1.
          4    1    6    6  502    0 -0.19114507551E+03  0.97860506572E+01  0.73083596817E+02  0.20487415357E+03  0.00000000000E+00 0. -1.
         -3    1    6    6    0  502 -0.81299498140E+00 -0.70722991961E+01  0.21056640472E+02  0.22227471397E+02  0.00000000000E+00 0.  1.
<mgrwt>
<rscale>  0 0.92712274E+03</rscale>
<asrwt>0</asrwt>
<pdfrwt beam="1">  1        1 0.13703231E+00 0.92712274E+03</pdfrwt>
<pdfrwt beam="2">  1       -2 0.15704985E+00 0.92712274E+03</pdfrwt>
<totfact> 0.43153821E+00</totfact>
</mgrwt>
</event>
<event>
12    3  0.1092576E-007  0.8474382E+03  0.7818608E-02  0.9493782E-01
          1   -1    0    0  501    0  0.00000000000E+00  0.00000000000E+00  0.30410546215E+04  0.30410546215E+04  0.00000000000E+00 0. -1.
         -2   -1    0    0    0  501 -0.00000000000E+00 -0.00000000000E+00 -0.51749473674E+03  0.51749473674E+03  0.00000000000E+00 0.  1.
        -24    2    1    2    0    0 -0.74523530937E+03 -0.33800872659E+03  0.23991171254E+04  0.25361485530E+04  0.81614557355E+02 0.  0.
    5000000    2    1    2    0    0  0.74523530937E+03  0.33800872659E+03  0.12444275934E+03  0.10224008052E+04  0.60015984582E+03 0.  0.
        -24    2    4    4    0    0  0.54626673210E+03  0.36343640316E+03  0.31682246021E+03  0.73291791436E+03  0.79365207436E+02 0.  0.
         24    2    4    4    0    0  0.19896857727E+03 -0.25427676572E+02 -0.19237970087E+03  0.28948289084E+03  0.80965012850E+02 0.  0.
         13    1    5    5    0    0  0.33839770256E+03  0.26717022427E+03  0.22252243579E+03  0.48518982704E+03  0.00000000000E+00 0. -1.
        -14    1    5    5    0    0  0.20786902954E+03  0.96266178897E+02  0.94300024422E+02  0.24772808732E+03  0.00000000000E+00 0.  1.
         15    1    3    3    0    0 -0.43336587292E+03 -0.20697375890E+03  0.15260974187E+04  0.15998814349E+04  0.17770000000E+01 0. -1.
        -16    1    3    3    0    0 -0.31186943646E+03 -0.13103496769E+03  0.87301970678E+03  0.93626711817E+03  0.00000000000E+00 0.  1.
          2    1    6    6  502    0  0.21288354524E+01 -0.19047090557E+02 -0.20772250868E+02  0.28263227084E+02  0.00000000000E+00 0. -1.
         -3    1    6    6    0  502  0.19683974182E+03 -0.63805860148E+01 -0.17160745000E+03  0.26121966376E+03  0.00000000000E+00 0.  1.
<mgrwt>
<rscale>  0 0.84743817E+03</rscale>
<asrwt>0</asrwt>
<pdfrwt beam="1">  1        1 0.46785454E+00 0.84743817E+03</pdfrwt>
<pdfrwt beam="2">  1       -2 0.79614577E-01 0.84743817E+03</pdfrwt>
<totfact> 0.72026132E-01</totfact>
</mgrwt>
</event>
<event>
12    3  0.1092576E-007  0.6747994E+03  0.7818608E-02  0.9761326E-01
          1   -1    0    0  501    0  0.00000000000E+00  0.00000000000E+00  0.44697617485E+03  0.44697617485E+03  0.00000000000E+00 0. -1.
         -2   -1    0    0    0  501 -0.00000000000E+00 -0.00000000000E+00 -0.11156905892E+04  0.11156905892E+04  0.00000000000E+00 0.  1.
        -24    2    1    2    0    0 -0.17173297797E+03 -0.54888688940E+03 -0.24986508153E+03  0.63200599749E+03  0.78930278183E+02 0.  0.
    5000000    2    1    2    0    0  0.17173297797E+03  0.54888688940E+03 -0.41884933286E+03  0.93066076660E+03  0.59993805161E+03 0.  0.
        -24    2    4    4    0    0  0.48658885240E+02 -0.84361730327E+02  0.43504371024E+02  0.13303163531E+03  0.79499666903E+02 0.  0.
         24    2    4    4    0    0  0.12307409273E+03  0.63324861973E+03 -0.46235370388E+03  0.79762913129E+03  0.79311013747E+02 0.  0.
         13    1    5    5    0    0 -0.20487291187E+02 -0.98673126921E+01  0.15780352402E+02  0.27678737000E+02  0.00000000000E+00 0. -1.
        -14    1    5    5    0    0  0.69146176427E+02 -0.74494417635E+02  0.27724018621E+02  0.10535289831E+03  0.00000000000E+00 0.  1.
         15    1    3    3    0    0 -0.70216919792E+02 -0.19025551054E+03 -0.12819957763E+03  0.23992887394E+03  0.17770000000E+01 0. -1.
        -16    1    3    3    0    0 -0.10151605817E+03 -0.35863137886E+03 -0.12166550390E+03  0.39207712355E+03  0.00000000000E+00 0.  1.
          4    1    6    6  502    0  0.11790755407E+03  0.41617650131E+03 -0.29702788858E+03  0.52471958049E+03  0.00000000000E+00 0. -1.
         -3    1    6    6    0  502  0.51665386602E+01  0.21707211841E+03 -0.16532581530E+03  0.27290955080E+03  0.00000000000E+00 0.  1.
<mgrwt>
<rscale>  0 0.67479942E+03</rscale>
<asrwt>0</asrwt>
<pdfrwt beam="1">  1        1 0.68765566E-01 0.67479942E+03</pdfrwt>
<pdfrwt beam="2">  1       -2 0.17164470E+00 0.67479942E+03</pdfrwt>
<totfact> 0.96506081E+00</totfact>
</mgrwt>
</event>
<event>
12    3  0.1092576E-007  0.8934371E+03  0.7818608E-02  0.9433823E-01
          1   -1    0    0  501    0  0.00000000000E+00  0.00000000000E+00  0.87110965350E+03  0.87110965350E+03  0.00000000000E+00 0. -1.
         -2   -1    0    0    0  501 -0.00000000000E+00 -0.00000000000E+00 -0.10892091699E+04  0.10892091699E+04  0.00000000000E+00 0.  1.
        -24    2    1    2    0    0  0.54325446887E+03 -0.58750695083E+03  0.26841578181E+03  0.84801106544E+03  0.82376574155E+02 0.  0.
    5000000    2    1    2    0    0 -0.54325446887E+03  0.58750695083E+03 -0.48651529818E+03  0.11123077579E+04  0.60020128105E+03 0.  0.
        -24    2    4    4    0    0  0.10106002311E+03  0.19718948293E+03 -0.17450149345E+03  0.29336732169E+03  0.80726660845E+02 0.  0.
         24    2    4    4    0    0 -0.64431449198E+03  0.39031746790E+03 -0.31201380473E+03  0.81894043624E+03  0.76301595294E+02 0.  0.
         13    1    5    5    0    0 -0.80999047049E+01  0.22198479681E+02 -0.42104603379E+02  0.48282280208E+02  0.00000000000E+00 0. -1.
        -14    1    5    5    0    0  0.10915992782E+03  0.17499100324E+03 -0.13239689007E+03  0.24508504148E+03  0.00000000000E+00 0.  1.
         15    1    3    3    0    0  0.42109088340E+03 -0.49821842855E+03  0.23212277759E+03  0.69240398340E+03  0.17770000000E+01 0. -1.
        -16    1    3    3    0    0  0.12216358546E+03 -0.89288522279E+02  0.36293004223E+02  0.15560708203E+03  0.00000000000E+00 0.  1.
          2    1    6    6  502    0 -0.37450122143E+03  0.22317425785E+03 -0.22092320985E+03  0.48873814959E+03  0.00000000000E+00 0. -1.
         -1    1    6    6    0  502 -0.26981327055E+03  0.16714321005E+03 -0.91090594886E+02  0.33020228665E+03  0.00000000000E+00 0.  1.
<mgrwt>
<rscale>  0 0.89343709E+03</rscale>
<asrwt>0</asrwt>
<pdfrwt beam="1">  1        1 0.13401687E+00 0.89343709E+03</pdfrwt>
<pdfrwt beam="2">  1       -2 0.16757064E+00 0.89343709E+03</pdfrwt>
<totfact> 0.37655979E+00</totfact>
</mgrwt>
</event>
<event>
12    3  0.1092576E-007  0.1024714E+04  0.7818608E-02  0.9281846E-01
         -2   -1    0    0    0  501 -0.00000000000E+00  0.00000000000E+00  0.89114203301E+03  0.89114203301E+03  0.00000000000E+00 0.  1.
          1   -1    0    0  501    0  0.00000000000E+00 -0.00000000000E+00 -0.12288024084E+04  0.12288024084E+04  0.00000000000E+00 0. -1.
        -24    2    1    2    0    0 -0.63849033103E+03 -0.68903868188E+03 -0.34869013359E+03  0.10051904955E+04  0.79868109738E+02 0.  0.
    5000000    2    1    2    0    0  0.63849033103E+03  0.68903868188E+03  0.11029758253E+02  0.11147539459E+04  0.60009207329E+03 0.  0.
        -24    2    4    4    0    0  0.49566314337E+03  0.77650172308E+03 -0.26904701978E+02  0.92483536367E+03  0.77199153308E+02 0.  0.
         24    2    4    4    0    0  0.14282718766E+03 -0.87463041204E+02  0.37934460231E+02  0.18991858224E+03  0.81121239485E+02 0.  0.
         11    1    5    5    0    0  0.39522186293E+03  0.62721388799E+03  0.87753815839E+01  0.74140042457E+03  0.00000000000E+00 0. -1.
        -12    1    5    5    0    0  0.10044128044E+03  0.14928783508E+03 -0.35680083562E+02  0.18343493910E+03  0.00000000000E+00 0.  1.
         15    1    3    3    0    0 -0.69387482465E+02 -0.11333067135E+03 -0.58939961331E+02  0.14538067465E+03  0.17770000000E+01 0. -1.
        -16    1    3    3    0    0 -0.56910284856E+03 -0.57570801053E+03 -0.28975017226E+03  0.85980982080E+03  0.00000000000E+00 0.  1.
          4    1    6    6  502    0  0.43779370958E+02 -0.73717590871E+02  0.23378266063E+02  0.88867653561E+02  0.00000000000E+00 0. -1.
         -3    1    6    6    0  502  0.99047816700E+02 -0.13745450333E+02  0.14556194168E+02  0.10105092868E+03  0.00000000000E+00 0.  1.
<mgrwt>
<rscale>  0 0.10247142E+04</rscale>
<asrwt>0</asrwt>
<pdfrwt beam="1">  1        1 0.18904652E+00 0.10247142E+04</pdfrwt>
<pdfrwt beam="2">  1       -2 0.13709878E+00 0.10247142E+04</pdfrwt>
<totfact> 0.33663301E+00</totfact>
</mgrwt>
</event>
<event>
12    3  0.1092576E-007  0.5911670E+03  0.7818608E-02  0.9923903E-01
          3   -1    0    0  501    0  0.00000000000E+00  0.00000000000E+00  0.36921108354E+03  0.36921108354E+03  0.00000000000E+00 0. -1.
         -4   -1    0    0    0  501 -0.00000000000E+00 -0.00000000000E+00 -0.96764563439E+03  0.96764563439E+03  0.00000000000E+00 0.  1.
        -24    2    1    2    0    0  0.19202759867E+03  0.39826388009E+03 -0.20498293997E+03  0.49387435588E+03  0.80032223995E+02 0.  0.
    5000000    2    1    2    0    0 -0.19202759867E+03 -0.39826388009E+03 -0.39345161088E+03  0.84298236205E+03  0.60027191820E+03 0.  0.
        -24    2    4    4    0    0 -0.22328038876E+03  0.84169944969E+02 -0.17349455891E+03  0.30576216058E+03  0.80320764625E+02 0.  0.
         24    2    4    4    0    0  0.31252790089E+02 -0.48243382506E+03 -0.21995705197E+03  0.53722020147E+03  0.80655487736E+02 0.  0.
         13    1    5    5    0    0 -0.61798277790E+02 -0.13166297434E+02 -0.41213168838E+02  0.75438079320E+02  0.00000000000E+00 0. -1.
        -14    1    5    5    0    0 -0.16148211097E+03  0.97336242402E+02 -0.13228139007E+03  0.23032408126E+03  0.00000000000E+00 0.  1.
         15    1    3    3    0    0  0.19124744516E+03  0.35099176192E+03 -0.16688697773E+03  0.43315727315E+03  0.17770000000E+01 0. -1.
        -16    1    3    3    0    0  0.78015350821E+00  0.47272118172E+02 -0.38095962245E+02  0.60717082731E+02  0.00000000000E+00 0.  1.
          4    1    6    6  502    0  0.86817985051E+01 -0.22965372760E+03 -0.14829846613E+03  0.27351168765E+03  0.00000000000E+00 0. -1.
         -3    1    6    6    0  502  0.22570991584E+02 -0.25278009747E+03 -0.71658585838E+02  0.26370851382E+03  0.00000000000E+00 0.  1.
<mgrwt>
<rscale>  0 0.59116699E+03</rscale>
<asrwt>0</asrwt>
<pdfrwt beam="1">  1        3 0.56801704E-01 0.59116699E+03</pdfrwt>
<pdfrwt beam="2">  1       -4 0.14886856E+00 0.59116699E+03</pdfrwt>
<totfact> 0.21019231E+00</totfact>
</mgrwt>
</event>
<event>
12    3  0.1092576E-007  0.8369004E+03  0.7818608E-02  0.9508089E-01
         -2   -1    0    0    0  501 -0.00000000000E+00  0.00000000000E+00  0.54105807596E+03  0.54105807596E+03  0.00000000000E+00 0.  1.
          1   -1    0    0  501    0  0.00000000000E+00 -0.00000000000E+00 -0.25777157237E+04  0.25777157237E+04  0.00000000000E+00 0. -1.
        -24    2    1    2    0    0  0.69282215447E+03 -0.38383135012E+03 -0.19668225315E+04  0.21226502966E+04  0.99621122002E+02 0.  0.
    5000000    2    1    2    0    0 -0.69282215447E+03  0.38383135012E+03 -0.69835116242E+02  0.99612350311E+03  0.60004670395E+03 0.  0.
        -24    2    4    4    0    0 -0.52505576458E+03  0.87805489617E+02 -0.26060910555E+03  0.59796848690E+03  0.79093903151E+02 0.  0.
         24    2    4    4    0    0 -0.16776638990E+03  0.29602586051E+03  0.19077398930E+03  0.39815501621E+03  0.79723461226E+02 0.  0.
         11    1    5    5    0    0 -0.14368660090E+03  0.40196644470E+02 -0.10917703186E+03  0.18488167511E+03  0.00000000000E+00 0. -1.
        -12    1    5    5    0    0 -0.38136916367E+03  0.47608845147E+02 -0.15143207368E+03  0.41308681179E+03  0.00000000000E+00 0.  1.
         15    1    3    3    0    0  0.47603007304E+03 -0.28722011039E+03 -0.12651094087E+04  0.13818845813E+04  0.17770000000E+01 0. -1.
        -16    1    3    3    0    0  0.21679208143E+03 -0.96611239730E+02 -0.70171312280E+03  0.74076571528E+03  0.00000000000E+00 0.  1.
          2    1    6    6  502    0 -0.11882531404E+03  0.14103568543E+03  0.12514342085E+03  0.22287080474E+03  0.00000000000E+00 0. -1.
         -1    1    6    6    0  502 -0.48941075858E+02  0.15499017507E+03  0.65630568449E+02  0.17528421147E+03  0.00000000000E+00 0.  1.
<mgrwt>
<rscale>  0 0.83690044E+03</rscale>
<asrwt>0</asrwt>
<pdfrwt beam="1">  1        1 0.39657165E+00 0.83690044E+03</pdfrwt>
<pdfrwt beam="2">  1       -2 0.83239704E-01 0.83690044E+03</pdfrwt>
<totfact> 0.13832478E+00</totfact>
</mgrwt>
</event>
<event>
12    3  0.1092576E-007  0.4005584E+03  0.7818608E-02  0.1043586E+00
          1   -1    0    0  501    0  0.00000000000E+00  0.00000000000E+00  0.11268621854E+04  0.11268621854E+04  0.00000000000E+00 0. -1.
         -2   -1    0    0    0  501 -0.00000000000E+00 -0.00000000000E+00 -0.19569310524E+03  0.19569310524E+03  0.00000000000E+00 0.  1.
        -24    2    1    2    0    0  0.18619298781E+03 -0.50551650781E+02  0.13569267704E+02  0.20927388549E+03  0.79925815710E+02 0.  0.
    5000000    2    1    2    0    0 -0.18619298781E+03  0.50551650781E+02  0.91759981250E+03  0.11132814052E+04  0.60015229162E+03 0.  0.
        -24    2    4    4    0    0 -0.22900149993E+03 -0.22609337197E+03  0.39991526044E+03  0.51927972027E+03  0.78481287777E+02 0.  0.
         24    2    4    4    0    0  0.42808512116E+02  0.27664502276E+03  0.51768455207E+03  0.59400168492E+03  0.80471541050E+02 0.  0.
         11    1    5    5    0    0 -0.16913842695E+03 -0.15524004083E+03  0.22588504015E+03  0.32207348402E+03  0.00000000000E+00 0. -1.
        -12    1    5    5    0    0 -0.59863072982E+02 -0.70853331144E+02  0.17403022029E+03  0.19720623624E+03  0.00000000000E+00 0.  1.
         15    1    3    3    0    0  0.25556276192E+02 -0.20871724374E+02 -0.24989439102E+02  0.41429239998E+02  0.17770000000E+01 0. -1.
        -16    1    3    3    0    0  0.16063671162E+03 -0.29679926407E+02  0.38558706805E+02  0.16784464550E+03  0.00000000000E+00 0.  1.
          2    1    6    6  502    0  0.10559775220E+02  0.18362652068E+03  0.26285742187E+03  0.32081806711E+03  0.00000000000E+00 0. -1.
         -1    1    6    6    0  502  0.32248736896E+02  0.93018502076E+02  0.25482713019E+03  0.27318361782E+03  0.00000000000E+00 0.  1.
<mgrwt>
<rscale>  0 0.40055844E+03</rscale>
<asrwt>0</asrwt>
<pdfrwt beam="1">  1        1 0.17336341E+00 0.40055844E+03</pdfrwt>
<pdfrwt beam="2">  1       -2 0.30106632E-01 0.40055844E+03</pdfrwt>
<totfact> 0.11399121E+02</totfact>
</mgrwt>
</event>
<event>
12    3  0.1092576E-007  0.5888372E+03  0.7818608E-02  0.9928840E-01
         -2   -1    0    0    0  501 -0.00000000000E+00  0.00000000000E+00  0.94911761462E+03  0.94911761462E+03  0.00000000000E+00 0.  1.
          1   -1    0    0  501    0  0.00000000000E+00 -0.00000000000E+00 -0.41696374914E+03  0.41696374914E+03  0.00000000000E+00 0. -1.
        -24    2    1    2    0    0  0.42077581185E+03 -0.16125499379E+03  0.20875914228E+02  0.45802798607E+03  0.79362304464E+02 0.  0.
    5000000    2    1    2    0    0 -0.42077581185E+03  0.16125499379E+03  0.51127795125E+03  0.90805337769E+03  0.60008360787E+03 0.  0.
        -24    2    4    4    0    0  0.30129007757E+02 -0.15815486857E+03  0.20004874371E+03  0.26858205133E+03  0.78715302682E+02 0.  0.
         24    2    4    4    0    0 -0.45090481961E+03  0.31940986236E+03  0.31122920754E+03  0.63947132636E+03  0.81988664404E+02 0.  0.
         11    1    5    5    0    0  0.20289199277E+02 -0.17257018709E+02  0.39703635722E+01  0.26929910675E+02  0.00000000000E+00 0. -1.
        -12    1    5    5    0    0  0.98398084797E+01 -0.14089784986E+03  0.19607838014E+03  0.24165214065E+03  0.00000000000E+00 0.  1.
         15    1    3    3    0    0  0.23998797413E+03 -0.12486066262E+03  0.36359328406E+02  0.27296441396E+03  0.17770000000E+01 0. -1.
        -16    1    3    3    0    0  0.18078783772E+03 -0.36394331175E+02 -0.15483414178E+02  0.18506357212E+03  0.00000000000E+00 0.  1.
          2    1    6    6  502    0 -0.65990976249E+02  0.69970451456E+02  0.27093733654E+02  0.99923688015E+02  0.00000000000E+00 0. -1.
         -1    1    6    6    0  502 -0.38491384336E+03  0.24943941090E+03  0.28413547389E+03  0.53954763834E+03  0.00000000000E+00 0.  1.
<mgrwt>
<rscale>  0 0.58883718E+03</rscale>
<asrwt>0</asrwt>
<pdfrwt beam="1">  1        1 0.64148269E-01 0.58883718E+03</pdfrwt>
<pdfrwt beam="2">  1       -2 0.14601809E+00 0.58883718E+03</pdfrwt>
<totfact> 0.16516527E+01</totfact>
</mgrwt>
</event>
<event>
12    3  0.1092576E-007  0.5853809E+03  0.7818608E-02  0.9936209E-01
         -2   -1    0    0    0  501 -0.00000000000E+00  0.00000000000E+00  0.15714700851E+04  0.15714700851E+04  0.00000000000E+00 0.  1.
          1   -1    0    0  501    0  0.00000000000E+00 -0.00000000000E+00 -0.33091570345E+03  0.33091570345E+03  0.00000000000E+00 0. -1.
        -24    2    1    2    0    0 -0.30655517622E+03  0.41015561985E+03  0.11572801368E+03  0.52856080912E+03  0.61480462148E+02 0.  0.
    5000000    2    1    2    0    0  0.30655517622E+03 -0.41015561985E+03  0.11248263680E+04  0.13738249794E+04  0.59996417182E+03 0.  0.
        -24    2    4    4    0    0 -0.64508822482E+02  0.19114077447E+02  0.55688444221E+03  0.56714007205E+03  0.83671041668E+02 0.  0.
         24    2    4    4    0    0  0.37106399870E+03 -0.42926969730E+03  0.56794192577E+03  0.80668490740E+03  0.78876768560E+02 0.  0.
         11    1    5    5    0    0 -0.65124428636E+01 -0.16834458462E+02  0.32303982140E+03  0.32354371747E+03  0.00000000000E+00 0. -1.
        -12    1    5    5    0    0 -0.57996379618E+02  0.35948535909E+02  0.23384462081E+03  0.24359635458E+03  0.00000000000E+00 0.  1.
         15    1    3    3    0    0 -0.23690638341E+03  0.31479144816E+03  0.11516786457E+03  0.41046934732E+03  0.17770000000E+01 0. -1.
        -16    1    3    3    0    0 -0.69648792816E+02  0.95364171688E+02  0.56014911139E+00  0.11809146180E+03  0.00000000000E+00 0.  1.
          4    1    6    6  502    0  0.24239793961E+03 -0.33218187748E+03  0.39317127881E+03  0.56893340149E+03  0.00000000000E+00 0. -1.
         -3    1    6    6    0  502  0.12866605909E+03 -0.97087819820E+02  0.17477064696E+03  0.23775150590E+03  0.00000000000E+00 0.  1.
<mgrwt>
<rscale>  0 0.58538086E+03</rscale>
<asrwt>0</asrwt>
<pdfrwt beam="1">  1        1 0.50910109E-01 0.58538086E+03</pdfrwt>
<pdfrwt beam="2">  1       -2 0.24176462E+00 0.58538086E+03</pdfrwt>
<totfact> 0.51309748E+00</totfact>
</mgrwt>
</event>
<event>
12    3  0.1092576E-007  0.1760318E+04  0.7818608E-02  0.8727691E-01
         -2   -1    0    0    0  501 -0.00000000000E+00  0.00000000000E+00  0.12783610542E+04  0.12783610542E+04  0.00000000000E+00 0.  1.
          1   -1    0    0  501    0  0.00000000000E+00 -0.00000000000E+00 -0.27086586804E+04  0.27086586804E+04  0.00000000000E+00 0. -1.
        -24    2    1    2    0    0  0.14105604576E+04  0.99890148441E+03 -0.12779140403E+04  0.21510629261E+04  0.80761609539E+02 0.  0.
    5000000    2    1    2    0    0 -0.14105604576E+04 -0.99890148441E+03 -0.15238358591E+03  0.18359568085E+04  0.60002638725E+03 0.  0.
        -24    2    4    4    0    0 -0.19630611572E+03 -0.37263612488E+03  0.10044525454E+03  0.44422829653E+03  0.99276168531E+02 0.  0.
         24    2    4    4    0    0 -0.12142543419E+04 -0.62626535953E+03 -0.25282884044E+03  0.13917285120E+04  0.79774188980E+02 0.  0.
         11    1    5    5    0    0 -0.15343510217E+03 -0.32639209349E+03  0.51316568323E+02  0.36429043283E+03  0.00000000000E+00 0. -1.
        -12    1    5    5    0    0 -0.42871013554E+02 -0.46244031392E+02  0.49128686212E+02  0.79937863691E+02  0.00000000000E+00 0.  1.
         15    1    3    3    0    0  0.63090389263E+03  0.40026191278E+03 -0.53629967623E+03  0.91971181411E+03  0.17770000000E+01 0. -1.
        -16    1    3    3    0    0  0.77965656495E+03  0.59863957163E+03 -0.74161436410E+03  0.12313511120E+04  0.00000000000E+00 0.  1.
          4    1    6    6  502    0 -0.28115506074E+03 -0.16342183329E+03 -0.90613356509E+02  0.33758797987E+03  0.00000000000E+00 0. -1.
         -3    1    6    6    0  502 -0.93309928112E+03 -0.46284352624E+03 -0.16221548394E+03  0.10541405321E+04  0.00000000000E+00 0.  1.
<mgrwt>
<rscale>  0 0.17603180E+04</rscale>
<asrwt>0</asrwt>
<pdfrwt beam="1">  1        1 0.41671672E+00 0.17603180E+04</pdfrwt>
<pdfrwt beam="2">  1       -2 0.19667093E+00 0.17603180E+04</pdfrwt>
<totfact> 0.10873854E-01</totfact>
</mgrwt>
</event>
<event>
12    3  0.1092576E-007  0.1140435E+04  0.7818608E-02  0.9166653E-01
         -2   -1    0    0    0  501 -0.00000000000E+00  0.00000000000E+00  0.49304622441E+03  0.49304622441E+03  0.00000000000E+00 0.  1.
          1   -1    0    0  501    0  0.00000000000E+00 -0.00000000000E+00 -0.29664640636E+04  0.29664640636E+04  0.00000000000E+00 0. -1.
        -24    2    1    2    0    0  0.62765862532E+03 -0.86235646516E+03 -0.61322645569E+03  0.12328733002E+04  0.79472420228E+02 0.  0.
    5000000    2    1    2    0    0 -0.62765862532E+03  0.86235646516E+03 -0.18601913835E+04  0.22266369877E+04  0.59998855746E+03 0.  0.
        -24    2    4    4    0    0 -0.62252484551E+03  0.38442639275E+03 -0.10382729264E+04  0.12724774188E+04  0.76598153470E+02 0.  0.
         24    2    4    4    0    0 -0.51337798102E+01  0.47793007241E+03 -0.82191845711E+03  0.95415956890E+03  0.80168715719E+02 0.  0.
         11    1    5    5    0    0 -0.27476669444E+02  0.38574816423E+02 -0.70119652349E+02  0.84615302820E+02  0.00000000000E+00 0. -1.
        -12    1    5    5    0    0 -0.59504817606E+03  0.34585157632E+03 -0.96815327402E+03  0.11878621160E+04  0.00000000000E+00 0.  1.
         15    1    3    3    0    0  0.30994736425E+03 -0.45487708473E+03 -0.35756799378E+03  0.65638293604E+03  0.17770000000E+01 0. -1.
        -16    1    3    3    0    0  0.31771126106E+03 -0.40747938043E+03 -0.25565846191E+03  0.57649036421E+03  0.00000000000E+00 0.  1.
          2    1    6    6  502    0 -0.80177099100E+01  0.18897527751E+03 -0.25112899563E+03  0.31439101709E+03  0.00000000000E+00 0. -1.
         -1    1    6    6    0  502  0.28839300999E+01  0.28895479490E+03 -0.57078946148E+03  0.63976855181E+03  0.00000000000E+00 0.  1.
<mgrwt>
<rscale>  0 0.11404353E+04</rscale>
<asrwt>0</asrwt>
<pdfrwt beam="1">  1        1 0.45637907E+00 0.11404353E+04</pdfrwt>
<pdfrwt beam="2">  1       -2 0.75853268E-01 0.11404353E+04</pdfrwt>
<totfact> 0.86724921E-01</totfact>
</mgrwt>
</event>
<event>
12    3  0.1092576E-007  0.5473782E+03  0.7818608E-02  0.1002103E+00
         -2   -1    0    0    0  501 -0.00000000000E+00  0.00000000000E+00  0.11043139726E+03  0.11043139726E+03  0.00000000000E+00 0.  1.
          1   -1    0    0  501    0  0.00000000000E+00 -0.00000000000E+00 -0.33949805076E+04  0.33949805076E+04  0.00000000000E+00 0. -1.
        -24    2    1    2    0    0 -0.31785161692E+03 -0.26438936183E+03 -0.18394390922E+04  0.18869773736E+04  0.78841927770E+02 0.  0.
    5000000    2    1    2    0    0  0.31785161692E+03  0.26438936183E+03 -0.14451100182E+04  0.16184345313E+04  0.60004665020E+03 0.  0.
        -24    2    4    4    0    0  0.38869419780E+03  0.36654034622E+03 -0.13150746314E+04  0.14217165909E+04  0.80135971526E+02 0.  0.
         24    2    4    4    0    0 -0.70842580878E+02 -0.10215098440E+03 -0.13003538683E+03  0.19671794042E+03  0.79594292366E+02 0.  0.
         13    1    5    5    0    0  0.14363840192E+03  0.15459301857E+03 -0.61773635146E+03  0.65278571661E+03  0.00000000000E+00 0. -1.
        -14    1    5    5    0    0  0.24505579588E+03  0.21194732765E+03 -0.69733827990E+03  0.76893087427E+03  0.00000000000E+00 0.  1.
         15    1    3    3    0    0 -0.17082657792E+03 -0.10061018655E+03 -0.76899976311E+03  0.79414603364E+03  0.17770000000E+01 0. -1.
        -16    1    3    3    0    0 -0.14702503901E+03 -0.16377917528E+03 -0.10704393291E+04  0.10928313399E+04  0.00000000000E+00 0.  1.
          2    1    6    6  502    0 -0.73277023154E+02 -0.48938857000E+02 -0.52254796284E+02  0.10244558351E+03  0.00000000000E+00 0. -1.
         -1    1    6    6    0  502  0.24344422762E+01 -0.53212127397E+02 -0.77780590549E+02  0.94272356910E+02  0.00000000000E+00 0.  1.
<mgrwt>
<rscale>  0 0.54737824E+03</rscale>
<asrwt>0</asrwt>
<pdfrwt beam="1">  1        1 0.52230472E+00 0.54737824E+03</pdfrwt>
<pdfrwt beam="2">  1       -2 0.16989445E-01 0.54737824E+03</pdfrwt>
<totfact> 0.84027176E+00</totfact>
</mgrwt>
</event>
<event>
12    3  0.1092576E-007  0.9045077E+03  0.7818608E-02  0.9419964E-01
          1   -1    0    0  501    0  0.00000000000E+00  0.00000000000E+00  0.16650714294E+04  0.16650714294E+04  0.00000000000E+00 0. -1.
         -2   -1    0    0    0  501 -0.00000000000E+00 -0.00000000000E+00 -0.62194277901E+03  0.62194277901E+03  0.00000000000E+00 0.  1.
        -24    2    1    2    0    0 -0.46444915460E+03 -0.72379535540E+03  0.87068961570E+02  0.86797834270E+03  0.78820464502E+02 0.  0.
    5000000    2    1    2    0    0  0.46444915460E+03  0.72379535540E+03  0.95605968885E+03  0.14190358657E+04  0.60001660469E+03 0.  0.
        -24    2    4    4    0    0  0.72865600823E+02  0.46823312261E+03  0.18648561724E+03  0.51509576557E+03  0.77428091684E+02 0.  0.
         24    2    4    4    0    0  0.39158355378E+03  0.25556223279E+03  0.76957407161E+03  0.90394010017E+03  0.78827143701E+02 0.  0.
         13    1    5    5    0    0  0.44171425001E+02  0.36838308836E+03  0.11302162485E+03  0.38785448594E+03  0.00000000000E+00 0. -1.
        -14    1    5    5    0    0  0.28694175823E+02  0.99850034244E+02  0.73463992391E+02  0.12724127963E+03  0.00000000000E+00 0.  1.
         15    1    3    3    0    0 -0.14096079476E+03 -0.16858069715E+03  0.17734793152E+01  0.21976282685E+03  0.17770000000E+01 0. -1.
        -16    1    3    3    0    0 -0.32348835984E+03 -0.55521465825E+03  0.85295482255E+02  0.64821551585E+03  0.00000000000E+00 0.  1.
          2    1    6    6  502    0  0.28051247172E+03  0.14804684002E+03  0.55897980054E+03  0.64270018752E+03  0.00000000000E+00 0. -1.
         -1    1    6    6    0  502  0.11107108206E+03  0.10751539278E+03  0.21059427107E+03  0.26123991265E+03  0.00000000000E+00 0.  1.
<mgrwt>
<rscale>  0 0.90450773E+03</rscale>
<asrwt>0</asrwt>
<pdfrwt beam="1">  1        1 0.25616483E+00 0.90450773E+03</pdfrwt>
<pdfrwt beam="2">  1       -2 0.95683505E-01 0.90450773E+03</pdfrwt>
<totfact> 0.41074108E+00</totfact>
</mgrwt>
</event>
<event>
12    3  0.1092576E-007  0.7497669E+03  0.7818608E-02  0.9635716E-01
          1   -1    0    0  501    0  0.00000000000E+00  0.00000000000E+00  0.95434368801E+03  0.95434368801E+03  0.00000000000E+00 0. -1.
         -2   -1    0    0    0  501 -0.00000000000E+00 -0.00000000000E+00 -0.66741020051E+03  0.66741020051E+03  0.00000000000E+00 0.  1.
        -24    2    1    2    0    0  0.16651514148E+03 -0.65336950788E+03  0.23255598951E+03  0.71785580498E+03  0.81336721784E+02 0.  0.
    5000000    2    1    2    0    0 -0.16651514148E+03  0.65336950788E+03  0.54377497980E+02  0.90389808354E+03  0.59954635098E+03 0.  0.
        -24    2    4    4    0    0 -0.22040700674E+03  0.71783876557E+02  0.17665274611E+03  0.30170615749E+03  0.78027169664E+02 0.  0.
         24    2    4    4    0    0  0.53891865255E+02  0.58158563133E+03 -0.12227524813E+03  0.60219192605E+03  0.80856043636E+02 0.  0.
         13    1    5    5    0    0 -0.11292988133E+02  0.19589862777E+02  0.41632935873E+02  0.47377163845E+02  0.00000000000E+00 0. -1.
        -14    1    5    5    0    0 -0.20911401860E+03  0.52194013780E+02  0.13501981024E+03  0.25432899364E+03  0.00000000000E+00 0.  1.
         15    1    3    3    0    0  0.14351593076E+03 -0.44464478865E+03  0.18515247990E+03  0.50258373332E+03  0.17770000000E+01 0. -1.
        -16    1    3    3    0    0  0.22999210722E+02 -0.20872471924E+03  0.47403509608E+02  0.21527207166E+03  0.00000000000E+00 0.  1.
          4    1    6    6  502    0  0.59278608748E+01  0.36595554427E+02 -0.29295763414E+02  0.47250564995E+02  0.00000000000E+00 0. -1.
         -3    1    6    6    0  502  0.47964004380E+02  0.54499007690E+03 -0.92979484717E+02  0.55494136106E+03  0.00000000000E+00 0.  1.
<mgrwt>
<rscale>  0 0.74976690E+03</rscale>
<asrwt>0</asrwt>
<pdfrwt beam="1">  1        1 0.14682211E+00 0.74976690E+03</pdfrwt>
<pdfrwt beam="2">  1       -2 0.10267849E+00 0.74976690E+03</pdfrwt>
<totfact> 0.11440277E+01</totfact>
</mgrwt>
</event>
<event>
12    3  0.1092576E-007  0.8335008E+03  0.7818608E-02  0.9512753E-01
          1   -1    0    0  501    0  0.00000000000E+00  0.00000000000E+00  0.14017383526E+04  0.14017383526E+04  0.00000000000E+00 0. -1.
         -2   -1    0    0    0  501 -0.00000000000E+00 -0.00000000000E+00 -0.12422627448E+04  0.12422627448E+04  0.00000000000E+00 0.  1.
        -24    2    1    2    0    0  0.75216053570E+03 -0.30419545723E+03 -0.87687322979E+03  0.11975107377E+04  0.82734262553E+02 0.  0.
    5000000    2    1    2    0    0 -0.75216053570E+03  0.30419545723E+03  0.10363488376E+04  0.14464903596E+04  0.60002924896E+03 0.  0.
        -24    2    4    4    0    0 -0.27230876417E+03  0.11064449970E+02  0.22989498124E+02  0.28465826566E+03  0.78913408779E+02 0.  0.
         24    2    4    4    0    0 -0.47985177153E+03  0.29313100726E+03  0.10133593395E+04  0.11618320940E+04  0.82299171237E+02 0.  0.
         11    1    5    5    0    0 -0.20106610608E+03 -0.27058355577E+02  0.18812769936E+02  0.20374899738E+03  0.00000000000E+00 0. -1.
        -12    1    5    5    0    0 -0.71242658091E+02  0.38122805547E+02  0.41767281877E+01  0.80909268276E+02  0.00000000000E+00 0.  1.
         15    1    3    3    0    0  0.53637053085E+03 -0.17733195914E+03 -0.59238727122E+03  0.81857547418E+03  0.17770000000E+01 0. -1.
        -16    1    3    3    0    0  0.21579000485E+03 -0.12686349809E+03 -0.28448595857E+03  0.37893526355E+03  0.00000000000E+00 0.  1.
          4    1    6    6  502    0 -0.39668871307E+03  0.20362860255E+03  0.80841581620E+03  0.92323489684E+03  0.00000000000E+00 0. -1.
         -3    1    6    6    0  502 -0.83163058465E+02  0.89502404710E+02  0.20494352331E+03  0.23859719715E+03  0.00000000000E+00 0.  1.
<mgrwt>
<rscale>  0 0.83350079E+03</rscale>
<asrwt>0</asrwt>
<pdfrwt beam="1">  1        1 0.21565205E+00 0.83350079E+03</pdfrwt>
<pdfrwt beam="2">  1       -2 0.19111735E+00 0.83350079E+03</pdfrwt>
<totfact> 0.10472627E+00</totfact>
</mgrwt>
</event>
<event>
12    3  0.1092576E-007  0.1158318E+04  0.7818608E-02  0.9150144E-01
         -2   -1    0    0    0  501 -0.00000000000E+00  0.00000000000E+00  0.39942301924E+03  0.39942301924E+03  0.00000000000E+00 0.  1.
          1   -1    0    0  501    0  0.00000000000E+00 -0.00000000000E+00 -0.37082516689E+04  0.37082516689E+04  0.00000000000E+00 0. -1.
        -24    2    1    2    0    0 -0.32533465742E+03  0.10517154266E+04 -0.10461542091E+04  0.15207860675E+04  0.80022846918E+02 0.  0.
    5000000    2    1    2    0    0  0.32533465742E+03 -0.10517154266E+04 -0.22626744406E+04  0.25868886206E+04  0.60029087416E+03 0.  0.
        -24    2    4    4    0    0  0.39833763277E+03 -0.10682463904E+04 -0.21018182981E+04  0.23924844354E+04  0.80736579178E+02 0.  0.
         24    2    4    4    0    0 -0.73002975343E+02  0.16530963822E+02 -0.16085614251E+03  0.19440418522E+03  0.79470632782E+02 0.  0.
         13    1    5    5    0    0  0.21474613858E+03 -0.57224881697E+03 -0.10421815478E+04  0.12081916202E+04  0.00000000000E+00 0. -1.
        -14    1    5    5    0    0  0.18359149418E+03 -0.49599757348E+03 -0.10596367503E+04  0.11842928152E+04  0.00000000000E+00 0.  1.
         15    1    3    3    0    0 -0.69109466810E+02  0.17080980103E+03 -0.14120073661E+03  0.23214847033E+03  0.17770000000E+01 0. -1.
        -16    1    3    3    0    0 -0.25622519061E+03  0.88090562559E+03 -0.90495347251E+03  0.12886375972E+04  0.00000000000E+00 0.  1.
          2    1    6    6  502    0 -0.32400649008E+02  0.70325497695E+01 -0.55735046961E+01  0.33620273155E+02  0.00000000000E+00 0. -1.
         -1    1    6    6    0  502 -0.40602326335E+02  0.94984140527E+01 -0.15528263781E+03  0.16078391207E+03  0.00000000000E+00 0.  1.
<mgrwt>
<rscale>  0 0.11583183E+04</rscale>
<asrwt>0</asrwt>
<pdfrwt beam="1">  1        1 0.57050026E+00 0.11583183E+04</pdfrwt>
<pdfrwt beam="2">  1       -2 0.61449695E-01 0.11583183E+04</pdfrwt>
<totfact> 0.37320627E-01</totfact>
</mgrwt>
</event>
<event>
12    3  0.1092576E-007  0.5095545E+03  0.7818608E-02  0.1011315E+00
         -2   -1    0    0    0  501 -0.00000000000E+00  0.00000000000E+00  0.38158499146E+03  0.38158499146E+03  0.00000000000E+00 0.  1.
          1   -1    0    0  501    0  0.00000000000E+00 -0.00000000000E+00 -0.89949679793E+03  0.89949679793E+03  0.00000000000E+00 0. -1.
        -24    2    1    2    0    0  0.38654241386E+03 -0.15203594358E+03 -0.81246590469E+02  0.43066477026E+03  0.79631463808E+02 0.  0.
    5000000    2    1    2    0    0 -0.38654241386E+03  0.15203594358E+03 -0.43666521599E+03  0.85041701913E+03  0.60000219142E+03 0.  0.
        -24    2    4    4    0    0  0.20171383684E+02 -0.74494754340E+02  0.76840862730E+02  0.15266861264E+03  0.10698987782E+03 0.  0.
         24    2    4    4    0    0 -0.40671379755E+03  0.22653069792E+03 -0.51350607872E+03  0.69774840649E+03  0.80200222269E+02 0.  0.
         11    1    5    5    0    0  0.60059735775E+02 -0.68710889244E+02  0.48052483965E+02  0.10313776892E+03  0.00000000000E+00 0. -1.
        -12    1    5    5    0    0 -0.39888352090E+02 -0.57838650961E+01  0.28788378766E+02  0.49530843723E+02  0.00000000000E+00 0.  1.
         15    1    3    3    0    0  0.30326563081E+03 -0.14670168016E+03 -0.83883073630E+02  0.34717568112E+03  0.17770000000E+01 0. -1.
        -16    1    3    3    0    0  0.83276783054E+02 -0.53342634165E+01  0.26364831612E+01  0.83489089141E+02  0.00000000000E+00 0.  1.
          2    1    6    6  502    0 -0.17036343118E+03  0.72848218892E+02 -0.25531908146E+03  0.31546536266E+03  0.00000000000E+00 0. -1.
         -1    1    6    6    0  502 -0.23635036637E+03  0.15368247903E+03 -0.25818699726E+03  0.38228304383E+03  0.00000000000E+00 0.  1.
<mgrwt>
<rscale>  0 0.50955453E+03</rscale>
<asrwt>0</asrwt>
<pdfrwt beam="1">  1        1 0.13838412E+00 0.50955453E+03</pdfrwt>
<pdfrwt beam="2">  1       -2 0.58705383E-01 0.50955453E+03</pdfrwt>
<totfact> 0.45315173E+01</totfact>
</mgrwt>
</event>
<event>
12    3  0.1092576E-007  0.5725206E+03  0.7818608E-02  0.9964116E-01
         -2   -1    0    0    0  501 -0.00000000000E+00  0.00000000000E+00  0.43840092818E+03  0.43840092818E+03  0.00000000000E+00 0.  1.
          1   -1    0    0  501    0  0.00000000000E+00 -0.00000000000E+00 -0.84818985235E+03  0.84818985235E+03  0.00000000000E+00 0. -1.
        -24    2    1    2    0    0  0.13344862485E+03  0.42982668676E+03 -0.67244927487E+02  0.46220503695E+03  0.80945041785E+02 0.  0.
    5000000    2    1    2    0    0 -0.13344862485E+03 -0.42982668676E+03 -0.34254399668E+03  0.82438574358E+03  0.59976324364E+03 0.  0.
        -24    2    4    4    0    0  0.52396421542E+02  0.99792059938E+02  0.37551918990E+02  0.14200981132E+03  0.77799740829E+02 0.  0.
         24    2    4    4    0    0 -0.18584504639E+03 -0.52961874669E+03 -0.38009591567E+03  0.68237593226E+03  0.78291823971E+02 0.  0.
         13    1    5    5    0    0  0.69890964457E+02  0.80430579388E+02  0.15164892208E+02  0.10762805847E+03  0.00000000000E+00 0. -1.
        -14    1    5    5    0    0 -0.17494542915E+02  0.19361480550E+02  0.22387026782E+02  0.34381752850E+02  0.00000000000E+00 0.  1.
         15    1    3    3    0    0  0.11974503146E+03  0.34523749154E+03 -0.83858031195E+02  0.37491749125E+03  0.17770000000E+01 0. -1.
        -16    1    3    3    0    0  0.13703593392E+02  0.84589195220E+02  0.16613103708E+02  0.87287545701E+02  0.00000000000E+00 0.  1.
          2    1    6    6  502    0 -0.46854307206E+02 -0.13562300651E+03 -0.57703877394E+02  0.15465659852E+03  0.00000000000E+00 0. -1.
         -1    1    6    6    0  502 -0.13899073919E+03 -0.39399574018E+03 -0.32239203828E+03  0.52771933374E+03  0.00000000000E+00 0.  1.
<mgrwt>
<rscale>  0 0.57252064E+03</rscale>
<asrwt>0</asrwt>
<pdfrwt beam="1">  1        1 0.13049075E+00 0.57252064E+03</pdfrwt>
<pdfrwt beam="2">  1       -2 0.67446297E-01 0.57252064E+03</pdfrwt>
<totfact> 0.36891561E+01</totfact>
</mgrwt>
</event>
<event>
12    3  0.1092576E-007  0.4469399E+03  0.7818608E-02  0.1028639E+00
          3   -1    0    0  501    0  0.00000000000E+00  0.00000000000E+00  0.12027498497E+04  0.12027498497E+04  0.00000000000E+00 0. -1.
         -4   -1    0    0    0  501 -0.00000000000E+00 -0.00000000000E+00 -0.19814189040E+03  0.19814189040E+03  0.00000000000E+00 0.  1.
        -24    2    1    2    0    0 -0.21789318913E+03 -0.18174831544E+03  0.19190450363E+03  0.35160455004E+03  0.79300246289E+02 0.  0.
    5000000    2    1    2    0    0  0.21789318913E+03  0.18174831544E+03  0.81270345569E+03  0.10492871901E+04  0.60000567357E+03 0.  0.
        -24    2    4    4    0    0 -0.16541930936E+03 -0.27442655327E+02  0.41118764657E+03  0.45107801200E+03  0.79242949091E+02 0.  0.
         24    2    4    4    0    0  0.38331249849E+03  0.20919097077E+03  0.40151580912E+03  0.59820917807E+03  0.77135867168E+02 0.  0.
         13    1    5    5    0    0 -0.40681499895E+01  0.51308325333E+01  0.89339233731E+02  0.89578870112E+02  0.00000000000E+00 0. -1.
        -14    1    5    5    0    0 -0.16135115937E+03 -0.32573487860E+02  0.32184841284E+03  0.36149914189E+03  0.00000000000E+00 0.  1.
         15    1    3    3    0    0 -0.87942011111E+02 -0.83632210808E+02  0.12878936753E+03  0.17696893208E+03  0.17770000000E+01 0. -1.
        -16    1    3    3    0    0 -0.12995117802E+03 -0.98116104635E+02  0.63115136103E+02  0.17463561797E+03  0.00000000000E+00 0.  1.
          2    1    6    6  502    0  0.11939203093E+02  0.15822843677E+02  0.41588006778E+02  0.46070264382E+02  0.00000000000E+00 0. -1.
         -1    1    6    6    0  502  0.37137329539E+03  0.19336812709E+03  0.35992780235E+03  0.55213891369E+03  0.00000000000E+00 0.  1.
<mgrwt>
<rscale>  0 0.44693985E+03</rscale>
<asrwt>0</asrwt>
<pdfrwt beam="1">  1        3 0.18503843E+00 0.44693985E+03</pdfrwt>
<pdfrwt beam="2">  1       -4 0.30483369E-01 0.44693985E+03</pdfrwt>
<totfact> 0.43747856E+00</totfact>
</mgrwt>
</event>
<event>
12    3  0.1092576E-007  0.8167801E+03  0.7818608E-02  0.9536041E-01
          1   -1    0    0  501    0  0.00000000000E+00  0.00000000000E+00  0.28577967758E+04  0.28577967758E+04  0.00000000000E+00 0. -1.
         -2   -1    0    0    0  501 -0.00000000000E+00 -0.00000000000E+00 -0.28434981033E+03  0.28434981033E+03  0.00000000000E+00 0.  1.
        -24    2    1    2    0    0  0.31791305128E+03  0.64317047953E+03  0.53305209145E+03  0.89760980691E+03  0.82594547936E+02 0.  0.
    5000000    2    1    2    0    0 -0.31791305128E+03 -0.64317047953E+03  0.20403948740E+04  0.22445367792E+04  0.59999761451E+03 0.  0.
        -24    2    4    4    0    0 -0.24552158451E+03 -0.74433397841E+03  0.16817561373E+04  0.18570746493E+04  0.78157710049E+02 0.  0.
         24    2    4    4    0    0 -0.72391466771E+02  0.10116349888E+03  0.35863873664E+03  0.38746212990E+03  0.77656813742E+02 0.  0.
         13    1    5    5    0    0 -0.16058180186E+03 -0.36333127115E+03  0.83520347331E+03  0.92485726981E+03  0.00000000000E+00 0. -1.
        -14    1    5    5    0    0 -0.84939782649E+02 -0.38100270726E+03  0.84655266404E+03  0.93221737948E+03  0.00000000000E+00 0.  1.
         15    1    3    3    0    0  0.56091463918E+02  0.10892412161E+03  0.54625291258E+02  0.13415586743E+03  0.17770000000E+01 0. -1.
        -16    1    3    3    0    0  0.26182158736E+03  0.53424635793E+03  0.47842680020E+03  0.76345393948E+03  0.00000000000E+00 0.  1.
          2    1    6    6  502    0 -0.69056992693E+02  0.74385683926E+02  0.17871854664E+03  0.20552960159E+03  0.00000000000E+00 0. -1.
         -1    1    6    6    0  502 -0.33344740781E+01  0.26777814955E+02  0.17992018999E+03  0.18193252831E+03  0.00000000000E+00 0.  1.
<mgrwt>
<rscale>  0 0.81678009E+03</rscale>
<asrwt>0</asrwt>
<pdfrwt beam="1">  1        1 0.43966102E+00 0.81678009E+03</pdfrwt>
<pdfrwt beam="2">  1       -2 0.43746127E-01 0.81678009E+03</pdfrwt>
<totfact> 0.34668147E+00</totfact>
</mgrwt>
</event>
<event>
12    3  0.1092576E-007  0.7689094E+03  0.7818608E-02  0.9606143E-01
         -2   -1    0    0    0  501 -0.00000000000E+00  0.00000000000E+00  0.21407999797E+03  0.21407999797E+03  0.00000000000E+00 0.  1.
          1   -1    0    0  501    0  0.00000000000E+00 -0.00000000000E+00 -0.33963200753E+04  0.33963200753E+04  0.00000000000E+00 0. -1.
        -24    2    1    2    0    0  0.26114865584E+03  0.65459471144E+03 -0.88770868937E+03  0.11362356809E+04  0.79447773658E+02 0.  0.
    5000000    2    1    2    0    0 -0.26114865584E+03 -0.65459471144E+03 -0.22945313879E+04  0.24741643923E+04  0.59993524097E+03 0.  0.
        -24    2    4    4    0    0 -0.28179368075E+03 -0.15620255986E+03 -0.14742681923E+04  0.15107912740E+04  0.72226397599E+02 0.  0.
         24    2    4    4    0    0  0.20645024909E+02 -0.49839215158E+03 -0.82026319559E+03  0.96337311830E+03  0.80219082576E+02 0.  0.
         11    1    5    5    0    0 -0.12067506764E+03 -0.43264557165E+02 -0.71751198126E+03  0.72887429445E+03  0.00000000000E+00 0. -1.
        -12    1    5    5    0    0 -0.16111861311E+03 -0.11293800269E+03 -0.75675621109E+03  0.78191697958E+03  0.00000000000E+00 0.  1.
         15    1    3    3    0    0  0.10039829551E+03  0.33751035251E+03 -0.47980674049E+03  0.59515604823E+03  0.17770000000E+01 0. -1.
        -16    1    3    3    0    0  0.16075036033E+03  0.31708435892E+03 -0.40790194888E+03  0.54107963270E+03  0.00000000000E+00 0.  1.
          2    1    6    6  502    0  0.47199813316E+02 -0.19316478102E+03 -0.32213245527E+03  0.37856277385E+03  0.00000000000E+00 0. -1.
         -1    1    6    6    0  502 -0.26554788406E+02 -0.30522737056E+03 -0.49813074032E+03  0.58481034445E+03  0.00000000000E+00 0.  1.
<mgrwt>
<rscale>  0 0.76890938E+03</rscale>
<asrwt>0</asrwt>
<pdfrwt beam="1">  1        1 0.52251081E+00 0.76890938E+03</pdfrwt>
<pdfrwt beam="2">  1       -2 0.32935382E-01 0.76890938E+03</pdfrwt>
<totfact> 0.24456747E+00</totfact>
</mgrwt>
</event>
<event>
12    3  0.1092576E-007  0.6965775E+03  0.7818608E-02  0.9723103E-01
         -2   -1    0    0    0  501 -0.00000000000E+00  0.00000000000E+00  0.44112841299E+03  0.44112841299E+03  0.00000000000E+00 0.  1.
          1   -1    0    0  501    0  0.00000000000E+00 -0.00000000000E+00 -0.13740205548E+04  0.13740205548E+04  0.00000000000E+00 0. -1.
        -24    2    1    2    0    0  0.14532087487E+03 -0.64332515305E+03 -0.43201107701E+03  0.79245885101E+03  0.79825125528E+02 0.  0.
    5000000    2    1    2    0    0 -0.14532087487E+03  0.64332515305E+03 -0.50088106485E+03  0.10226901168E+04  0.60002318683E+03 0.  0.
        -24    2    4    4    0    0 -0.15252740644E+03  0.66062205955E+03 -0.58948960291E+03  0.90200758274E+03  0.80209551227E+02 0.  0.
         24    2    4    4    0    0  0.72065315687E+01 -0.17296906499E+02  0.88608538061E+02  0.12068253409E+03  0.79760165161E+02 0.  0.
         11    1    5    5    0    0 -0.20842130953E+02  0.25760954856E+03 -0.23621966268E+03  0.35013826264E+03  0.00000000000E+00 0. -1.
        -12    1    5    5    0    0 -0.13168527549E+03  0.40301251099E+03 -0.35326994023E+03  0.55186932010E+03  0.00000000000E+00 0.  1.
         15    1    3    3    0    0  0.19428648016E+02 -0.24689615513E+03 -0.14322949875E+03  0.28609968686E+03  0.17770000000E+01 0. -1.
        -16    1    3    3    0    0  0.12589222686E+03 -0.39642899792E+03 -0.28878157825E+03  0.50635916414E+03  0.00000000000E+00 0.  1.
          4    1    6    6  502    0 -0.79502839307E+01 -0.27645151834E+02 -0.14217261871E+01  0.28800742002E+02  0.00000000000E+00 0. -1.
         -3    1    6    6    0  502  0.15156815499E+02  0.10348245335E+02  0.90030264248E+02  0.91881792093E+02  0.00000000000E+00 0.  1.
<mgrwt>
<rscale>  0 0.69657747E+03</rscale>
<asrwt>0</asrwt>
<pdfrwt beam="1">  1        1 0.21138777E+00 0.69657747E+03</pdfrwt>
<pdfrwt beam="2">  1       -2 0.67865911E-01 0.69657747E+03</pdfrwt>
<totfact> 0.14493052E+01</totfact>
</mgrwt>
</event>
<event>
12    3  0.1092576E-007  0.7424516E+03  0.7818608E-02  0.9647268E-01
         -2   -1    0    0    0  501 -0.00000000000E+00  0.00000000000E+00  0.59123413286E+03  0.59123413286E+03  0.00000000000E+00 0.  1.
          1   -1    0    0  501    0  0.00000000000E+00 -0.00000000000E+00 -0.22644199486E+04  0.22644199486E+04  0.00000000000E+00 0. -1.
        -24    2    1    2    0    0  0.65185224015E+03  0.24162833540E+03 -0.17975269324E+04  0.19289600612E+04  0.80549671051E+02 0.  0.
    5000000    2    1    2    0    0 -0.65185224015E+03 -0.24162833540E+03  0.12434111673E+03  0.92669402020E+03  0.60000458190E+03 0.  0.
        -24    2    4    4    0    0 -0.63073279254E+03 -0.28520639843E+03 -0.80099229049E+02  0.70164486537E+03  0.81994422419E+02 0.  0.
         24    2    4    4    0    0 -0.21119447605E+02  0.43578063028E+02  0.20444034578E+03  0.22504915483E+03  0.80660947561E+02 0.  0.
         11    1    5    5    0    0 -0.13631986875E+01 -0.25174592217E+01 -0.73388460985E+01  0.78774725421E+01  0.00000000000E+00 0. -1.
        -12    1    5    5    0    0 -0.62936959386E+03 -0.28268893921E+03 -0.72760382951E+02  0.69376739283E+03  0.00000000000E+00 0.  1.
         15    1    3    3    0    0  0.29533498981E+03  0.14993648217E+03 -0.81479757957E+03  0.87954645034E+03  0.17770000000E+01 0. -1.
        -16    1    3    3    0    0  0.35651725034E+03  0.91691853236E+02 -0.98272935285E+03  0.10494136109E+04  0.00000000000E+00 0.  1.
          4    1    6    6  502    0 -0.51306643907E+02  0.23004928666E+02  0.10493980547E+03  0.11905444647E+03  0.00000000000E+00 0. -1.
         -3    1    6    6    0  502  0.30187196302E+02  0.20573134362E+02  0.99500540310E+02  0.10599470836E+03  0.00000000000E+00 0.  1.
<mgrwt>
<rscale>  0 0.74245158E+03</rscale>
<asrwt>0</asrwt>
<pdfrwt beam="1">  1        1 0.34837230E+00 0.74245158E+03</pdfrwt>
<pdfrwt beam="2">  1       -2 0.90959098E-01 0.74245158E+03</pdfrwt>
<totfact> 0.18756483E+00</totfact>
</mgrwt>
</event>
<event>
12    3  0.1092576E-007  0.8222758E+03  0.7818608E-02  0.9528322E-01
          1   -1    0    0  501    0  0.00000000000E+00  0.00000000000E+00  0.12723251194E+04  0.12723251194E+04  0.00000000000E+00 0. -1.
         -2   -1    0    0    0  501 -0.00000000000E+00 -0.00000000000E+00 -0.58162836964E+03  0.58162836964E+03  0.00000000000E+00 0.  1.
        -24    2    1    2    0    0 -0.71675762288E+03 -0.48573068298E+02  0.60166060806E+02  0.72535377303E+03  0.80108103573E+02 0.  0.
    5000000    2    1    2    0    0  0.71675762288E+03  0.48573068298E+02  0.63053068899E+03  0.11285997160E+04  0.60005627767E+03 0.  0.
        -24    2    4    4    0    0  0.52477724492E+03 -0.23205024465E+03  0.32550254301E+03  0.66466595785E+03  0.81181630898E+02 0.  0.
         24    2    4    4    0    0  0.19198037796E+03  0.28062331294E+03  0.30502814598E+03  0.46393375819E+03  0.81156964333E+02 0.  0.
         11    1    5    5    0    0  0.31125197384E+02 -0.32117095005E+02  0.41791653440E+02  0.61211338828E+02  0.00000000000E+00 0. -1.
        -12    1    5    5    0    0  0.49365204754E+03 -0.19993314964E+03  0.28371088957E+03  0.60345461903E+03  0.00000000000E+00 0.  1.
         15    1    3    3    0    0 -0.28926885971E+03 -0.47183109646E+02 -0.36873284665E+01  0.29312023669E+03  0.17770000000E+01 0. -1.
        -16    1    3    3    0    0 -0.42748876316E+03 -0.13899586519E+01  0.63853389273E+02  0.43223353634E+03  0.00000000000E+00 0.  1.
          4    1    6    6  502    0  0.66743258023E+02  0.47225921724E+02  0.98792709892E+02  0.12823786376E+03  0.00000000000E+00 0. -1.
         -3    1    6    6    0  502  0.12523711993E+03  0.23339739122E+03  0.20623543609E+03  0.33569589443E+03  0.00000000000E+00 0.  1.
<mgrwt>
<rscale>  0 0.82227584E+03</rscale>
<asrwt>0</asrwt>
<pdfrwt beam="1">  1        1 0.19574233E+00 0.82227584E+03</pdfrwt>
<pdfrwt beam="2">  1       -2 0.89481288E-01 0.82227584E+03</pdfrwt>
<totfact> 0.90671053E+00</totfact>
</mgrwt>
</event>
<event>
12    3  0.1092576E-007  0.4489906E+03  0.7818608E-02  0.1028023E+00
          1   -1    0    0  501    0  0.00000000000E+00  0.00000000000E+00  0.32696579891E+03  0.32696579891E+03  0.00000000000E+00 0. -1.
         -2   -1    0    0    0  501 -0.00000000000E+00 -0.00000000000E+00 -0.65530288165E+03  0.65530288165E+03  0.00000000000E+00 0.  1.
        -24    2    1    2    0    0  0.21504994140E+03 -0.12748823007E+03 -0.17446265990E+03  0.31477658942E+03  0.78405072834E+02 0.  0.
    5000000    2    1    2    0    0 -0.21504994140E+03  0.12748823007E+03 -0.15387442283E+03  0.66749209114E+03  0.59947362546E+03 0.  0.
        -24    2    4    4    0    0 -0.40538227105E+03  0.13472938449E+02 -0.10560686191E+03  0.42689668287E+03  0.81065793100E+02 0.  0.
         24    2    4    4    0    0  0.19033232965E+03  0.11401529162E+03 -0.48267560920E+02  0.24059540826E+03  0.79564505954E+02 0.  0.
         13    1    5    5    0    0 -0.18761378799E+03  0.88409576524E+00 -0.90334265587E+02  0.20823062841E+03  0.00000000000E+00 0. -1.
        -14    1    5    5    0    0 -0.21776848307E+03  0.12588842684E+02 -0.15272596326E+02  0.21866605447E+03  0.00000000000E+00 0.  1.
         15    1    3    3    0    0  0.16198897247E+03 -0.13166602069E+03 -0.14070878230E+03  0.25175084380E+03  0.17770000000E+01 0. -1.
        -16    1    3    3    0    0  0.53060968929E+02  0.41777906284E+01 -0.33753877603E+02  0.63025745624E+02  0.00000000000E+00 0.  1.
          4    1    6    6  502    0  0.87791937383E+02  0.17676577754E+02 -0.44132140726E+02  0.99837525588E+02  0.00000000000E+00 0. -1.
         -3    1    6    6    0  502  0.10254039227E+03  0.96338713862E+02 -0.41354201944E+01  0.14075788267E+03  0.00000000000E+00 0.  1.
<mgrwt>
<rscale>  0 0.44899057E+03</rscale>
<asrwt>0</asrwt>
<pdfrwt beam="1">  1        1 0.50302431E-01 0.44899057E+03</pdfrwt>
<pdfrwt beam="2">  1       -2 0.10081583E+00 0.44899057E+03</pdfrwt>
<totfact> 0.57511093E+01</totfact>
</mgrwt>
</event>
<event>
12    3  0.1092576E-007  0.1166631E+04  0.7818608E-02  0.9142576E-01
         -2   -1    0    0    0  501 -0.00000000000E+00  0.00000000000E+00  0.21026572447E+04  0.21026572447E+04  0.00000000000E+00 0.  1.
          1   -1    0    0  501    0  0.00000000000E+00 -0.00000000000E+00 -0.80880282324E+03  0.80880282324E+03  0.00000000000E+00 0. -1.
        -24    2    1    2    0    0  0.10322255880E+04  0.51139527533E+03  0.11064645833E+04  0.15992094979E+04  0.78691498922E+02 0.  0.
    5000000    2    1    2    0    0 -0.10322255880E+04 -0.51139527533E+03  0.18738983822E+03  0.13122505701E+04  0.59989316978E+03 0.  0.
        -24    2    4    4    0    0 -0.55347159688E+03 -0.13393971900E+03 -0.17188698680E+03  0.60025653868E+03  0.80573687544E+02 0.  0.
         24    2    4    4    0    0 -0.47875399108E+03 -0.37745555632E+03  0.35927682501E+03  0.71199403140E+03  0.78597600346E+02 0.  0.
         11    1    5    5    0    0 -0.48782648326E+03 -0.10336207641E+03 -0.12533260351E+03  0.51416598303E+03  0.00000000000E+00 0. -1.
        -12    1    5    5    0    0 -0.65645113622E+02 -0.30577642595E+02 -0.46554383284E+02  0.86090555650E+02  0.00000000000E+00 0.  1.
         15    1    3    3    0    0  0.28491092920E+03  0.15515274730E+03  0.35830581018E+03  0.48335579433E+03  0.17770000000E+01 0. -1.
        -16    1    3    3    0    0  0.74731465875E+03  0.35624252802E+03  0.74815877307E+03  0.11158537035E+04  0.00000000000E+00 0.  1.
          4    1    6    6  502    0 -0.40231662963E+03 -0.32484762541E+03  0.27048406656E+03  0.58356343312E+03  0.00000000000E+00 0. -1.
         -3    1    6    6    0  502 -0.76437361447E+02 -0.52607930913E+02  0.88792758451E+02  0.12843059828E+03  0.00000000000E+00 0.  1.
<mgrwt>
<rscale>  0 0.11666309E+04</rscale>
<asrwt>0</asrwt>
<pdfrwt beam="1">  1        1 0.12443120E+00 0.11666309E+04</pdfrwt>
<pdfrwt beam="2">  1       -2 0.32348573E+00 0.11666309E+04</pdfrwt>
<totfact> 0.42911758E-01</totfact>
</mgrwt>
</event>
<event>
12    3  0.1092576E-007  0.4919679E+03  0.7818608E-02  0.1015897E+00
         -2   -1    0    0    0  501 -0.00000000000E+00  0.00000000000E+00  0.64628029763E+03  0.64628029763E+03  0.00000000000E+00 0.  1.
          1   -1    0    0  501    0  0.00000000000E+00 -0.00000000000E+00 -0.77634467931E+03  0.77634467931E+03  0.00000000000E+00 0. -1.
        -24    2    1    2    0    0 -0.15630976973E+03 -0.27075036673E+03  0.43490116010E+03  0.54117668415E+03  0.77425313762E+02 0.  0.
    5000000    2    1    2    0    0  0.15630976973E+03  0.27075036673E+03 -0.56496554177E+03  0.88144829280E+03  0.60002210317E+03 0.  0.
        -24    2    4    4    0    0  0.21327958241E+03 -0.12651706699E+03 -0.27942592606E+03  0.38184881481E+03  0.78961514065E+02 0.  0.
         24    2    4    4    0    0 -0.56969812682E+02  0.39726743373E+03 -0.28553961571E+03  0.49959947799E+03  0.83664764429E+02 0.  0.
         13    1    5    5    0    0  0.18960294494E+03 -0.76918292454E+02 -0.20857522770E+03  0.29218029716E+03  0.00000000000E+00 0. -1.
        -14    1    5    5    0    0  0.23676637471E+02 -0.49598774541E+02 -0.70850698367E+02  0.89668517646E+02  0.00000000000E+00 0.  1.
         15    1    3    3    0    0 -0.59437164873E+02 -0.17574781421E+03  0.27052680211E+03  0.32803655155E+03  0.17770000000E+01 0. -1.
        -16    1    3    3    0    0 -0.96872604852E+02 -0.95002552526E+02  0.16437435799E+03  0.21314013259E+03  0.00000000000E+00 0.  1.
          2    1    6    6  502    0  0.13143285045E+01  0.11093297750E+03 -0.12136876454E+03  0.16443305617E+03  0.00000000000E+00 0. -1.
         -3    1    6    6    0  502 -0.58284141186E+02  0.28633445623E+03 -0.16417085117E+03  0.33516642181E+03  0.00000000000E+00 0.  1.
<mgrwt>
<rscale>  0 0.49196794E+03</rscale>
<asrwt>0</asrwt>
<pdfrwt beam="1">  1        1 0.11943764E+00 0.49196794E+03</pdfrwt>
<pdfrwt beam="2">  1       -2 0.99427738E-01 0.49196794E+03</pdfrwt>
<totfact> 0.17928489E+01</totfact>
</mgrwt>
</event>
<event>
12    3  0.1092576E-007  0.7182797E+03  0.7818608E-02  0.9686472E-01
          1   -1    0    0  501    0  0.00000000000E+00  0.00000000000E+00  0.14486435730E+04  0.14486435730E+04  0.00000000000E+00 0. -1.
         -2   -1    0    0    0  501 -0.00000000000E+00 -0.00000000000E+00 -0.39593554218E+03  0.39593554218E+03  0.00000000000E+00 0.  1.
        -24    2    1    2    0    0  0.24969338687E+03 -0.55294799708E+03  0.21491791952E+03  0.64875314335E+03  0.81195159699E+02 0.  0.
    5000000    2    1    2    0    0 -0.24969338687E+03  0.55294799708E+03  0.83779011135E+03  0.11958259719E+04  0.60000767446E+03 0.  0.
        -24    2    4    4    0    0 -0.35298924040E+03  0.61176118183E+03  0.70126013951E+03  0.99843019001E+03  0.79018438510E+02 0.  0.
         24    2    4    4    0    0  0.10329585353E+03 -0.58813184750E+02  0.13652997184E+03  0.19739578187E+03  0.78712371524E+02 0.  0.
         11    1    5    5    0    0 -0.14977555788E+03  0.26087545132E+03  0.35420225815E+03  0.46470201046E+03  0.00000000000E+00 0. -1.
        -12    1    5    5    0    0 -0.20321368251E+03  0.35088573051E+03  0.34705788135E+03  0.53372817955E+03  0.00000000000E+00 0.  1.
         15    1    3    3    0    0  0.18149620375E+03 -0.34999510338E+03  0.10460161658E+03  0.40789962035E+03  0.17770000000E+01 0. -1.
        -16    1    3    3    0    0  0.68197183121E+02 -0.20295289370E+03  0.11031630294E+03  0.24085352300E+03  0.00000000000E+00 0.  1.
          4    1    6    6  502    0  0.65449929644E+02 -0.51663317048E+02  0.38055264625E+02  0.91656940733E+02  0.00000000000E+00 0. -1.
         -3    1    6    6    0  502  0.37845923884E+02 -0.71498677015E+01  0.98474707216E+02  0.10573884113E+03  0.00000000000E+00 0.  1.
<mgrwt>
<rscale>  0 0.71827971E+03</rscale>
<asrwt>0</asrwt>
<pdfrwt beam="1">  1        1 0.22286824E+00 0.71827971E+03</pdfrwt>
<pdfrwt beam="2">  1       -2 0.60913161E-01 0.71827971E+03</pdfrwt>
<totfact> 0.16172887E+01</totfact>
</mgrwt>
</event>
<event>
12    3  0.1092576E-007  0.4196502E+03  0.7818608E-02  0.1037180E+00
          1   -1    0    0  501    0  0.00000000000E+00  0.00000000000E+00  0.74151535000E+03  0.74151535000E+03  0.00000000000E+00 0. -1.
         -2   -1    0    0    0  501 -0.00000000000E+00 -0.00000000000E+00 -0.35270116915E+03  0.35270116915E+03  0.00000000000E+00 0.  1.
        -24    2    1    2    0    0 -0.43639238902E+02 -0.30467369638E+03  0.25189423380E+03  0.40606971029E+03  0.81923501850E+02 0.  0.
    5000000    2    1    2    0    0  0.43639238902E+02  0.30467369638E+03  0.13691994705E+03  0.68814680886E+03  0.60005709245E+03 0.  0.
        -24    2    4    4    0    0  0.20220468392E+03  0.44704735037E+02 -0.14597539694E+03  0.26488187654E+03  0.77255061171E+02 0.  0.
         24    2    4    4    0    0 -0.15856544502E+03  0.25996896134E+03  0.28289534399E+03  0.42326493231E+03  0.79978534993E+02 0.  0.
         13    1    5    5    0    0  0.13691216848E+03  0.66461632939E+02 -0.10196669772E+03  0.18319197028E+03  0.00000000000E+00 0. -1.
        -14    1    5    5    0    0  0.65292515436E+02 -0.21756897902E+02 -0.44008699218E+02  0.81689906262E+02  0.00000000000E+00 0.  1.
         15    1    3    3    0    0 -0.15563248145E+02 -0.26057924156E+03  0.23469346355E+03  0.35103836740E+03  0.17770000000E+01 0. -1.
        -16    1    3    3    0    0 -0.28075990757E+02 -0.44094454818E+02  0.17200770244E+02  0.55031342884E+02  0.00000000000E+00 0.  1.
          2    1    6    6  502    0 -0.10834536368E+03  0.16232263461E+03  0.12797357531E+03  0.23337650163E+03  0.00000000000E+00 0. -1.
         -3    1    6    6    0  502 -0.50220081333E+02  0.97646326737E+02  0.15492176868E+03  0.18988843068E+03  0.00000000000E+00 0.  1.
<mgrwt>
<rscale>  0 0.41965016E+03</rscale>
<asrwt>0</asrwt>
<pdfrwt beam="1">  1        1 0.11407928E+00 0.41965016E+03</pdfrwt>
<pdfrwt beam="2">  1       -2 0.54261719E-01 0.41965016E+03</pdfrwt>
<totfact> 0.73319657E+01</totfact>
</mgrwt>
</event>
<event>
12    3  0.1092576E-007  0.4746079E+03  0.7818608E-02  0.1020628E+00
         -2   -1    0    0    0  501 -0.00000000000E+00  0.00000000000E+00  0.90473691787E+03  0.90473691787E+03  0.00000000000E+00 0.  1.
          1   -1    0    0  501    0  0.00000000000E+00 -0.00000000000E+00 -0.45395258512E+03  0.45395258512E+03  0.00000000000E+00 0. -1.
        -24    2    1    2    0    0  0.10602075424E+03 -0.40525211443E+03 -0.10562748260E+03  0.43944593737E+03  0.80535024737E+02 0.  0.
    5000000    2    1    2    0    0 -0.10602075424E+03  0.40525211443E+03  0.55641181534E+03  0.91924356562E+03  0.59995412166E+03 0.  0.
        -24    2    4    4    0    0 -0.20948614183E+03  0.18669751065E+03  0.59340008372E+03  0.66090080361E+03  0.76979274848E+02 0.  0.
         24    2    4    4    0    0  0.10346538759E+03  0.21855460379E+03 -0.36988268379E+02  0.25834276201E+03  0.83076166358E+02 0.  0.
         11    1    5    5    0    0 -0.10005708211E+03  0.71366338311E+02  0.17973838068E+03  0.21773943009E+03  0.00000000000E+00 0. -1.
        -12    1    5    5    0    0 -0.10942905971E+03  0.11533117233E+03  0.41366170304E+03  0.44316137353E+03  0.00000000000E+00 0.  1.
         15    1    3    3    0    0  0.11702069122E+03 -0.36876545075E+03 -0.85022594512E+02  0.39612346453E+03  0.17770000000E+01 0. -1.
        -16    1    3    3    0    0 -0.10999936984E+02 -0.36486663682E+02 -0.20604888085E+02  0.43322472844E+02  0.00000000000E+00 0.  1.
          2    1    6    6  502    0  0.79174988190E+02  0.18158412928E+03  0.38586855409E+01  0.19813218874E+03  0.00000000000E+00 0. -1.
         -1    1    6    6    0  502  0.24290399400E+02  0.36970474512E+02 -0.40846953920E+02  0.60210573268E+02  0.00000000000E+00 0.  1.
<mgrwt>
<rscale>  0 0.47460793E+03</rscale>
<asrwt>0</asrwt>
<pdfrwt beam="1">  1        1 0.69838859E-01 0.47460793E+03</pdfrwt>
<pdfrwt beam="2">  1       -2 0.13919030E+00 0.47460793E+03</pdfrwt>
<totfact> 0.16939511E+01</totfact>
</mgrwt>
</event>
<event>
12    3  0.1092576E-007  0.1187342E+04  0.7818608E-02  0.9124009E-01
         -2   -1    0    0    0  501 -0.00000000000E+00  0.00000000000E+00  0.98576291217E+03  0.98576291217E+03  0.00000000000E+00 0.  1.
          1   -1    0    0  501    0  0.00000000000E+00 -0.00000000000E+00 -0.27079009131E+04  0.27079009131E+04  0.00000000000E+00 0. -1.
        -24    2    1    2    0    0  0.67018125674E+03  0.91178676933E+03 -0.20753014754E+04  0.23650388475E+04  0.77682088624E+02 0.  0.
    5000000    2    1    2    0    0 -0.67018125674E+03 -0.91178676933E+03  0.35316347446E+03  0.13286249778E+04  0.60001821827E+03 0.  0.
        -24    2    4    4    0    0 -0.40378706107E+02  0.60275537869E+02  0.90676998329E+02  0.13826964848E+03  0.75050631535E+02 0.  0.
         24    2    4    4    0    0 -0.62980255063E+03 -0.97206230720E+03  0.26248647613E+03  0.11903553293E+04  0.80562261311E+02 0.  0.
         11    1    5    5    0    0 -0.19430906893E+02  0.59781648593E+02  0.22210678465E+02  0.66668732469E+02  0.00000000000E+00 0. -1.
        -12    1    5    5    0    0 -0.20947799214E+02  0.49388927649E+00  0.68466319864E+02  0.71600916015E+02  0.00000000000E+00 0.  1.
         15    1    3    3    0    0  0.47422027733E+03  0.62713724088E+03 -0.13687380265E+04  0.15784907137E+04  0.17770000000E+01 0. -1.
        -16    1    3    3    0    0  0.19596097941E+03  0.28464952845E+03 -0.70656344889E+03  0.78654813382E+03  0.00000000000E+00 0.  1.
          2    1    6    6  502    0 -0.44364548932E+03 -0.64812363549E+03  0.14494006687E+03  0.79868215835E+03  0.00000000000E+00 0. -1.
         -1    1    6    6    0  502 -0.18615706131E+03 -0.32393867171E+03  0.11754640926E+03  0.39167317094E+03  0.00000000000E+00 0.  1.
<mgrwt>
<rscale>  0 0.11873418E+04</rscale>
<asrwt>0</asrwt>
<pdfrwt beam="1">  1        1 0.41660014E+00 0.11873418E+04</pdfrwt>
<pdfrwt beam="2">  1       -2 0.15165583E+00 0.11873418E+04</pdfrwt>
<totfact> 0.24369649E-01</totfact>
</mgrwt>
</event>
<event>
12    3  0.1092576E-007  0.5645758E+03  0.7818608E-02  0.9981754E-01
         -2   -1    0    0    0  501 -0.00000000000E+00  0.00000000000E+00  0.11624502387E+04  0.11624502387E+04  0.00000000000E+00 0.  1.
          1   -1    0    0  501    0  0.00000000000E+00 -0.00000000000E+00 -0.44036836558E+03  0.44036836558E+03  0.00000000000E+00 0. -1.
        -24    2    1    2    0    0  0.23810777572E+03  0.45588905127E+03 -0.16902360785E+02  0.52084022812E+03  0.80366121602E+02 0.  0.
    5000000    2    1    2    0    0 -0.23810777572E+03 -0.45588905127E+03  0.73898423389E+03  0.10819783762E+04  0.60004113909E+03 0.  0.
        -24    2    4    4    0    0  0.52244420470E+02 -0.39696489517E+02 -0.70163225836E+02  0.12353550859E+03  0.77671441811E+02 0.  0.
         24    2    4    4    0    0 -0.29035219619E+03 -0.41619256176E+03  0.80914745972E+03  0.95844286756E+03  0.79827767777E+02 0.  0.
         11    1    5    5    0    0 -0.19362408541E+02 -0.13398411597E+02 -0.27237219147E+02  0.36003977623E+02  0.00000000000E+00 0. -1.
        -12    1    5    5    0    0  0.71606829011E+02 -0.26298077920E+02 -0.42926006689E+02  0.87531530968E+02  0.00000000000E+00 0.  1.
         15    1    3    3    0    0  0.17412948515E+03  0.28447483509E+03  0.20194751604E+02  0.33415265242E+03  0.17770000000E+01 0. -1.
        -16    1    3    3    0    0  0.63978290570E+02  0.17141421619E+03 -0.37097112389E+02  0.18668757571E+03  0.00000000000E+00 0.  1.
          2    1    6    6  502    0 -0.14337868620E+03 -0.26890658475E+03  0.45289068504E+03  0.54587376890E+03  0.00000000000E+00 0. -1.
         -1    1    6    6    0  502 -0.14697350999E+03 -0.14728597701E+03  0.35625677469E+03  0.41256909866E+03  0.00000000000E+00 0.  1.
<mgrwt>
<rscale>  0 0.56457583E+03</rscale>
<asrwt>0</asrwt>
<pdfrwt beam="1">  1        1 0.67748980E-01 0.56457583E+03</pdfrwt>
<pdfrwt beam="2">  1       -2 0.17883850E+00 0.56457583E+03</pdfrwt>
<totfact> 0.88987595E+00</totfact>
</mgrwt>
</event>
<event>
12    3  0.1092576E-007  0.6648688E+03  0.7818608E-02  0.9779272E-01
          1   -1    0    0  501    0  0.00000000000E+00  0.00000000000E+00  0.13247536866E+04  0.13247536866E+04  0.00000000000E+00 0. -1.
         -2   -1    0    0    0  501 -0.00000000000E+00 -0.00000000000E+00 -0.35438143136E+03  0.35438143136E+03  0.00000000000E+00 0.  1.
        -24    2    1    2    0    0  0.42716279516E+01 -0.52903187706E+03  0.57987914489E+03  0.78897397776E+03  0.79543328848E+02 0.  0.
    5000000    2    1    2    0    0 -0.42716279516E+01  0.52903187706E+03  0.39049311036E+03  0.89016114020E+03  0.60000751040E+03 0.  0.
        -24    2    4    4    0    0 -0.19173323895E+03  0.55668456277E+03  0.28750159996E+03  0.66028890615E+03  0.81639036331E+02 0.  0.
         24    2    4    4    0    0  0.18746161100E+03 -0.27652685711E+02  0.10299151041E+03  0.22987223406E+03  0.79545371637E+02 0.  0.
         13    1    5    5    0    0 -0.18507605315E+03  0.43754830203E+03  0.23116234949E+03  0.52833483122E+03  0.00000000000E+00 0. -1.
        -14    1    5    5    0    0 -0.66571858058E+01  0.11913626074E+03  0.56339250471E+02  0.13195407493E+03  0.00000000000E+00 0.  1.
         15    1    3    3    0    0  0.14874038311E+02 -0.44877960224E+03  0.52666071496E+03  0.69209756163E+03  0.17770000000E+01 0. -1.
        -16    1    3    3    0    0 -0.10602410360E+02 -0.80252274822E+02  0.53218429925E+02  0.96876416135E+02  0.00000000000E+00 0.  1.
          4    1    6    6  502    0  0.80991551059E+02 -0.51855009619E+02  0.52667695270E+02  0.10964697666E+03  0.00000000000E+00 0. -1.
         -3    1    6    6    0  502  0.10647005994E+03  0.24202323908E+02  0.50323815136E+02  0.12022525740E+03  0.00000000000E+00 0.  1.
<mgrwt>
<rscale>  0 0.66486883E+03</rscale>
<asrwt>0</asrwt>
<pdfrwt beam="1">  1        1 0.20380826E+00 0.66486883E+03</pdfrwt>
<pdfrwt beam="2">  1       -2 0.54520221E-01 0.66486883E+03</pdfrwt>
<totfact> 0.25035535E+01</totfact>
</mgrwt>
</event>
<event>
12    3  0.1092576E-007  0.5298907E+03  0.7818608E-02  0.1006259E+00
          1   -1    0    0  501    0  0.00000000000E+00  0.00000000000E+00  0.28933887453E+04  0.28933887453E+04  0.00000000000E+00 0. -1.
         -2   -1    0    0    0  501 -0.00000000000E+00 -0.00000000000E+00 -0.11385900258E+03  0.11385900258E+03  0.00000000000E+00 0.  1.
        -24    2    1    2    0    0 -0.35583088300E+03 -0.16996288179E+03  0.69955930820E+03  0.80688146348E+03  0.78558716455E+02 0.  0.
    5000000    2    1    2    0    0  0.35583088300E+03  0.16996288179E+03  0.20799704346E+04  0.22003662844E+04  0.59985979910E+03 0.  0.
        -24    2    4    4    0    0  0.22940040305E+03 -0.17641620441E+03  0.12950122180E+04  0.13292847932E+04  0.78703205694E+02 0.  0.
         24    2    4    4    0    0  0.12643047994E+03  0.34637908620E+03  0.78495821659E+03  0.87108149126E+03  0.81611426960E+02 0.  0.
         13    1    5    5    0    0  0.18804844055E+03 -0.12960199882E+03  0.11299556335E+04  0.11528046789E+04  0.00000000000E+00 0. -1.
        -14    1    5    5    0    0  0.41351962505E+02 -0.46814205591E+02  0.16505658450E+03  0.17648011428E+03  0.00000000000E+00 0.  1.
         15    1    3    3    0    0 -0.17310248487E+03 -0.88605356517E+02  0.42308240140E+03  0.46563639847E+03  0.17770000000E+01 0. -1.
        -16    1    3    3    0    0 -0.18272839813E+03 -0.81357525275E+02  0.27647690680E+03  0.34124506501E+03  0.00000000000E+00 0.  1.
          2    1    6    6  502    0  0.12102952572E+03  0.24840160095E+03  0.62606259491E+03  0.68432877639E+03  0.00000000000E+00 0. -1.
         -1    1    6    6    0  502  0.54009542229E+01  0.97977485253E+02  0.15889562168E+03  0.18675271487E+03  0.00000000000E+00 0.  1.
<mgrwt>
<rscale>  0 0.52989065E+03</rscale>
<asrwt>0</asrwt>
<pdfrwt beam="1">  1        1 0.44513667E+00 0.52989065E+03</pdfrwt>
<pdfrwt beam="2">  1       -2 0.17516772E-01 0.52989065E+03</pdfrwt>
<totfact> 0.18530303E+01</totfact>
</mgrwt>
</event>
<event>
12    3  0.1092576E-007  0.6178264E+03  0.7818608E-02  0.9869097E-01
          1   -1    0    0  501    0  0.00000000000E+00  0.00000000000E+00  0.17412742016E+04  0.17412742016E+04  0.00000000000E+00 0. -1.
         -2   -1    0    0    0  501 -0.00000000000E+00 -0.00000000000E+00 -0.33620284056E+03  0.33620284056E+03  0.00000000000E+00 0.  1.
        -24    2    1    2    0    0 -0.50329660564E+03  0.32288398708E+03  0.26704769108E+03  0.65878000820E+03  0.71519840061E+02 0.  0.
    5000000    2    1    2    0    0  0.50329660564E+03 -0.32288398708E+03  0.11380236699E+04  0.14186970339E+04  0.60003488101E+03 0.  0.
        -24    2    4    4    0    0  0.40408369379E+03 -0.15800989818E+03  0.24753260469E+03  0.50619798234E+03  0.81934409316E+02 0.  0.
         24    2    4    4    0    0  0.99212911849E+02 -0.16487408890E+03  0.89049106524E+03  0.91249905160E+03  0.51512278434E+02 0.  0.
         13    1    5    5    0    0  0.57098096237E+02  0.58446384982E+01  0.39840826902E+02  0.69868761842E+02  0.00000000000E+00 0. -1.
        -14    1    5    5    0    0  0.34698559755E+03 -0.16385453668E+03  0.20769177779E+03  0.43632922050E+03  0.00000000000E+00 0.  1.
         15    1    3    3    0    0 -0.33163485263E+03  0.24252876333E+03  0.20630444182E+03  0.45974618755E+03  0.17770000000E+01 0. -1.
        -16    1    3    3    0    0 -0.17166175301E+03  0.80355223758E+02  0.60743249261E+02  0.19903382065E+03  0.00000000000E+00 0.  1.
          2    1    6    6  502    0  0.31475919271E+02 -0.76962683448E+02  0.48587850102E+03  0.49294209182E+03  0.00000000000E+00 0. -1.
         -1    1    6    6    0  502  0.67736992578E+02 -0.87911405456E+02  0.40461256422E+03  0.41955695978E+03  0.00000000000E+00 0.  1.
<mgrwt>
<rscale>  0 0.61782640E+03</rscale>
<asrwt>0</asrwt>
<pdfrwt beam="1">  1        1 0.26788833E+00 0.61782640E+03</pdfrwt>
<pdfrwt beam="2">  1       -2 0.51723515E-01 0.61782640E+03</pdfrwt>
<totfact> 0.14617180E+01</totfact>
</mgrwt>
</event>
<event>
12    3  0.1092576E-007  0.1228509E+04  0.7818608E-02  0.9088262E-01
         -2   -1    0    0    0  501 -0.00000000000E+00  0.00000000000E+00  0.25051140209E+04  0.25051140209E+04  0.00000000000E+00 0.  1.
          1   -1    0    0  501    0  0.00000000000E+00 -0.00000000000E+00 -0.13115841971E+04  0.13115841971E+04  0.00000000000E+00 0. -1.
        -24    2    1    2    0    0 -0.86744395847E+03  0.79616368126E+03 -0.79933073537E+03  0.14254970648E+04  0.82320282629E+02 0.  0.
    5000000    2    1    2    0    0  0.86744395847E+03 -0.79616368126E+03  0.19928605592E+04  0.23912011531E+04  0.60001176468E+03 0.  0.
        -24    2    4    4    0    0  0.83497178545E+03 -0.83590763625E+03  0.19600944623E+04  0.22899153252E+04  0.76304893522E+02 0.  0.
         24    2    4    4    0    0  0.32472173018E+02  0.39743954983E+02  0.32766096859E+02  0.10128582784E+03  0.80939346667E+02 0.  0.
         13    1    5    5    0    0  0.46334601623E+03 -0.44762282404E+03  0.99821397140E+03  0.11880601231E+04  0.00000000000E+00 0. -1.
        -14    1    5    5    0    0  0.37162576921E+03 -0.38828481220E+03  0.96188049090E+03  0.11018552022E+04  0.00000000000E+00 0.  1.
         15    1    3    3    0    0 -0.42460428996E+03  0.34285674699E+03 -0.34312930941E+03  0.64465528208E+03  0.17770000000E+01 0. -1.
        -16    1    3    3    0    0 -0.44283966851E+03  0.45330693428E+03 -0.45620142596E+03  0.78084178277E+03  0.00000000000E+00 0.  1.
          4    1    6    6  502    0  0.53791202304E+02  0.36444002743E+01  0.18549918563E+02  0.57016441290E+02  0.00000000000E+00 0. -1.
         -3    1    6    6    0  502 -0.21319029286E+02  0.36099554708E+02  0.14216178296E+02  0.44269386546E+02  0.00000000000E+00 0.  1.
<mgrwt>
<rscale>  0 0.12285093E+04</rscale>
<asrwt>0</asrwt>
<pdfrwt beam="1">  1        1 0.20178218E+00 0.12285093E+04</pdfrwt>
<pdfrwt beam="2">  1       -2 0.38540216E+00 0.12285093E+04</pdfrwt>
<totfact> 0.70630862E-02</totfact>
</mgrwt>
</event>
<event>
12    3  0.1092576E-007  0.5938374E+03  0.7818608E-02  0.9918275E-01
          1   -1    0    0  501    0  0.00000000000E+00  0.00000000000E+00  0.13330538752E+04  0.13330538752E+04  0.00000000000E+00 0. -1.
         -2   -1    0    0    0  501 -0.00000000000E+00 -0.00000000000E+00 -0.82130213146E+03  0.82130213146E+03  0.00000000000E+00 0.  1.
        -24    2    1    2    0    0 -0.55629855726E+03  0.18233998541E+03  0.10165860194E+04  0.11758380911E+04  0.80200539066E+02 0.  0.
    5000000    2    1    2    0    0  0.55629855726E+03 -0.18233998541E+03 -0.50483427566E+03  0.97851791560E+03  0.59993642178E+03 0.  0.
        -24    2    4    4    0    0  0.19036992664E+03 -0.11875770906E+03 -0.54697105749E+03  0.59660010857E+03  0.80064033059E+02 0.  0.
         24    2    4    4    0    0  0.36592863062E+03 -0.63582276352E+02  0.42136781830E+02  0.38191780703E+03  0.78353266471E+02 0.  0.
         13    1    5    5    0    0  0.31586404474E+02 -0.21637198846E+02 -0.19209946904E+03  0.19587770503E+03  0.00000000000E+00 0. -1.
        -14    1    5    5    0    0  0.15878352217E+03 -0.97120510209E+02 -0.35487158845E+03  0.40072240355E+03  0.00000000000E+00 0.  1.
         15    1    3    3    0    0 -0.45692824157E+03  0.12109996629E+03  0.84667537010E+03  0.96969632352E+03  0.17770000000E+01 0. -1.
        -16    1    3    3    0    0 -0.99370315693E+02  0.61240019113E+02  0.16991064931E+03  0.20614176756E+03  0.00000000000E+00 0.  1.
          4    1    6    6  502    0  0.22618211731E+03 -0.18281702625E+02  0.57840471730E+02  0.23417534245E+03  0.00000000000E+00 0. -1.
         -3    1    6    6    0  502  0.13974651331E+03 -0.45300573727E+02 -0.15703689901E+02  0.14774246458E+03  0.00000000000E+00 0.  1.
<mgrwt>
<rscale>  0 0.59383736E+03</rscale>
<asrwt>0</asrwt>
<pdfrwt beam="1">  1        1 0.20508521E+00 0.59383736E+03</pdfrwt>
<pdfrwt beam="2">  1       -2 0.12635417E+00 0.59383736E+03</pdfrwt>
<totfact> 0.37110463E+00</totfact>
</mgrwt>
</event>
<event>
12    3  0.1092576E-007  0.7805129E+03  0.7818608E-02  0.9588660E-01
         -2   -1    0    0    0  501 -0.00000000000E+00  0.00000000000E+00  0.70542795371E+03  0.70542795371E+03  0.00000000000E+00 0.  1.
          1   -1    0    0  501    0  0.00000000000E+00 -0.00000000000E+00 -0.88611506608E+03  0.88611506608E+03  0.00000000000E+00 0. -1.
        -24    2    1    2    0    0 -0.64858128941E+03 -0.18377438306E+03 -0.75013157119E+02  0.68311226195E+03  0.81146015604E+02 0.  0.
    5000000    2    1    2    0    0  0.64858128941E+03  0.18377438306E+03 -0.10567395525E+03  0.90843075785E+03  0.59970721535E+03 0.  0.
        -24    2    4    4    0    0  0.69823890007E+03  0.27448812295E+03 -0.15284946305E+03  0.76982408636E+03  0.79905408938E+02 0.  0.
         24    2    4    4    0    0 -0.49657610661E+02 -0.90713739890E+02  0.47175507798E+02  0.13860667148E+03  0.79318471635E+02 0.  0.
         13    1    5    5    0    0  0.40361044853E+03  0.19288721285E+03 -0.67359094345E+02  0.45237608097E+03  0.00000000000E+00 0. -1.
        -14    1    5    5    0    0  0.29462845154E+03  0.81600910102E+02 -0.85490368705E+02  0.31744800539E+03  0.00000000000E+00 0.  1.
         15    1    3    3    0    0 -0.50483711281E+03 -0.10733493047E+03 -0.53414035539E+02  0.51888102171E+03  0.17770000000E+01 0. -1.
        -16    1    3    3    0    0 -0.14374417660E+03 -0.76439452591E+02 -0.21599121580E+02  0.16423124024E+03  0.00000000000E+00 0.  1.
          4    1    6    6  502    0 -0.37875041512E+02 -0.10435651728E+03  0.33441839620E+02  0.11594463379E+03  0.00000000000E+00 0. -1.
         -3    1    6    6    0  502 -0.11782569148E+02  0.13642777390E+02  0.13733668178E+02  0.22662037690E+02  0.00000000000E+00 0.  1.
<mgrwt>
<rscale>  0 0.78051286E+03</rscale>
<asrwt>0</asrwt>
<pdfrwt beam="1">  1        1 0.13632539E+00 0.78051286E+03</pdfrwt>
<pdfrwt beam="2">  1       -2 0.10852738E+00 0.78051286E+03</pdfrwt>
<totfact> 0.11327353E+01</totfact>
</mgrwt>
</event>
<event>
12    3  0.1092576E-007  0.1417172E+04  0.7818608E-02  0.8941481E-01
         -2   -1    0    0    0  501 -0.00000000000E+00  0.00000000000E+00  0.11130647235E+04  0.11130647235E+04  0.00000000000E+00 0.  1.
          1   -1    0    0  501    0  0.00000000000E+00 -0.00000000000E+00 -0.19549888034E+04  0.19549888034E+04  0.00000000000E+00 0. -1.
        -24    2    1    2    0    0 -0.12288803144E+04  0.64761876205E+03 -0.67169330443E+03  0.15453931726E+04  0.86667610936E+02 0.  0.
    5000000    2    1    2    0    0  0.12288803144E+04 -0.64761876205E+03 -0.17023077549E+03  0.15226603542E+04  0.59996595689E+03 0.  0.
        -24    2    4    4    0    0  0.50795197679E+03 -0.71607270327E+02  0.15429072713E+03  0.54109548582E+03  0.76392960460E+02 0.  0.
         24    2    4    4    0    0  0.72092833756E+03 -0.57601149173E+03 -0.32452150262E+03  0.98156486840E+03  0.81415469741E+02 0.  0.
         13    1    5    5    0    0  0.21126821984E+03  0.76721016917E+01  0.68880449908E+02  0.22234576281E+03  0.00000000000E+00 0. -1.
        -14    1    5    5    0    0  0.29668375695E+03 -0.79279372018E+02  0.85410277223E+02  0.31874972301E+03  0.00000000000E+00 0.  1.
         15    1    3    3    0    0 -0.89938345151E+03  0.51348398144E+03 -0.51578773003E+03  0.11569773257E+04  0.17770000000E+01 0. -1.
        -16    1    3    3    0    0 -0.32949686284E+03  0.13413478061E+03 -0.15590557440E+03  0.38841584689E+03  0.00000000000E+00 0.  1.
          4    1    6    6  502    0  0.35478222774E+03 -0.31892810158E+03 -0.19901959674E+03  0.51690846674E+03  0.00000000000E+00 0. -1.
         -3    1    6    6    0  502  0.36614610982E+03 -0.25708339015E+03 -0.12550190588E+03  0.46465640166E+03  0.00000000000E+00 0.  1.
<mgrwt>
<rscale>  0 0.14171724E+04</rscale>
<asrwt>0</asrwt>
<pdfrwt beam="1">  1        1 0.30076751E+00 0.14171724E+04</pdfrwt>
<pdfrwt beam="2">  1       -2 0.17124073E+00 0.14171724E+04</pdfrwt>
<totfact> 0.55771608E-01</totfact>
</mgrwt>
</event>
<event>
12    3  0.1092576E-007  0.8561761E+03  0.7818608E-02  0.9482085E-01
          1   -1    0    0  501    0  0.00000000000E+00  0.00000000000E+00  0.29070891166E+04  0.29070891166E+04  0.00000000000E+00 0. -1.
         -2   -1    0    0    0  501 -0.00000000000E+00 -0.00000000000E+00 -0.40792647842E+03  0.40792647842E+03  0.00000000000E+00 0.  1.
        -24    2    1    2    0    0  0.87025840067E+02 -0.79119797719E+03  0.20892739920E+04  0.22371983434E+04  0.80142859511E+02 0.  0.
    5000000    2    1    2    0    0 -0.87025840067E+02  0.79119797719E+03  0.40988864619E+03  0.10778172517E+04  0.60009465066E+03 0.  0.
        -24    2    4    4    0    0  0.12235923191E+03  0.67946741871E+02  0.26032699823E+03  0.30602596505E+03  0.79329716458E+02 0.  0.
         24    2    4    4    0    0 -0.20938507198E+03  0.72325123532E+03  0.14956164796E+03  0.77179128661E+03  0.79741117320E+02 0.  0.
         11    1    5    5    0    0  0.77628363937E+02  0.83007614834E+02  0.18657723118E+03  0.21846622211E+03  0.00000000000E+00 0. -1.
        -12    1    5    5    0    0  0.44730867974E+02 -0.15060872963E+02  0.73749767049E+02  0.87559742941E+02  0.00000000000E+00 0.  1.
         15    1    3    3    0    0  0.67732020943E+02 -0.38296879149E+03  0.11053289720E+04  0.11717542473E+04  0.17770000000E+01 0. -1.
        -16    1    3    3    0    0  0.19293819123E+02 -0.40822918570E+03  0.98394502000E+03  0.10654440961E+04  0.00000000000E+00 0.  1.
          2    1    6    6  502    0 -0.13067515497E+03  0.38347279275E+03  0.11598825305E+03  0.42140319618E+03  0.00000000000E+00 0. -1.
         -1    1    6    6    0  502 -0.78709917003E+02  0.33977844257E+03  0.33573394912E+02  0.35038809043E+03  0.00000000000E+00 0.  1.
<mgrwt>
<rscale>  0 0.85617611E+03</rscale>
<asrwt>0</asrwt>
<pdfrwt beam="1">  1        1 0.44724447E+00 0.85617611E+03</pdfrwt>
<pdfrwt beam="2">  1       -2 0.62757921E-01 0.85617611E+03</pdfrwt>
<totfact> 0.15112367E+00</totfact>
</mgrwt>
</event>
<event>
12    3  0.1092576E-007  0.1577895E+04  0.7818608E-02  0.8834244E-01
         -4   -1    0    0    0  501 -0.00000000000E+00  0.00000000000E+00  0.19680794968E+04  0.19680794968E+04  0.00000000000E+00 0.  1.
          1   -1    0    0  501    0  0.00000000000E+00 -0.00000000000E+00 -0.23526237066E+04  0.23526237066E+04  0.00000000000E+00 0. -1.
        -24    2    1    2    0    0  0.99761298982E+03 -0.12153351204E+04  0.12227929675E+04  0.19935077659E+04  0.81113742483E+02 0.  0.
    5000000    2    1    2    0    0 -0.99761298982E+03  0.12153351204E+04 -0.16073371773E+04  0.23271954375E+04  0.60002889129E+03 0.  0.
        -24    2    4    4    0    0 -0.21084487952E+03  0.24597925143E+03 -0.71980930937E+03  0.79336952956E+03  0.79676930312E+02 0.  0.
         24    2    4    4    0    0 -0.78676811030E+03  0.96935586893E+03 -0.88752786792E+03  0.15338259079E+04  0.79128625585E+02 0.  0.
         11    1    5    5    0    0 -0.73366417014E+02  0.14281130977E+03 -0.31422577923E+03  0.35286759794E+03  0.00000000000E+00 0. -1.
        -12    1    5    5    0    0 -0.13747846251E+03  0.10316794166E+03 -0.40558353014E+03  0.44050193162E+03  0.00000000000E+00 0.  1.
         15    1    3    3    0    0  0.48322991567E+03 -0.57042891678E+03  0.53228691072E+03  0.91773243026E+03  0.17770000000E+01 0. -1.
        -16    1    3    3    0    0  0.51438307416E+03 -0.64490620357E+03  0.69050605678E+03  0.10757753357E+04  0.00000000000E+00 0.  1.
          2    1    6    6  502    0 -0.69394553774E+03  0.81192408395E+03 -0.76570572481E+03  0.13141865866E+04  0.00000000000E+00 0. -1.
         -1    1    6    6    0  502 -0.92822572563E+02  0.15743178498E+03 -0.12182214311E+03  0.21963932128E+03  0.00000000000E+00 0.  1.
<mgrwt>
<rscale>  0 0.15778947E+04</rscale>
<asrwt>0</asrwt>
<pdfrwt beam="1">  1        1 0.36194211E+00 0.15778947E+04</pdfrwt>
<pdfrwt beam="2">  1       -4 0.30278146E+00 0.15778947E+04</pdfrwt>
<totfact> 0.22516291E-02</totfact>
</mgrwt>
</event>
<event>
12    3  0.1092576E-007  0.1565124E+04  0.7818608E-02  0.8842265E-01
          1   -1    0    0  501    0  0.00000000000E+00  0.00000000000E+00  0.19433159399E+04  0.19433159399E+04  0.00000000000E+00 0. -1.
         -2   -1    0    0    0  501 -0.00000000000E+00 -0.00000000000E+00 -0.13273741067E+04  0.13273741067E+04  0.00000000000E+00 0.  1.
        -24    2    1    2    0    0 -0.14393937043E+04  0.50079457907E+03  0.57941778911E+03  0.16323932997E+04  0.79583064288E+02 0.  0.
    5000000    2    1    2    0    0  0.14393937043E+04 -0.50079457907E+03  0.36524044115E+02  0.16382967469E+04  0.60002731505E+03 0.  0.
        -24    2    4    4    0    0  0.25954502867E+03 -0.31505949079E+03  0.13475740785E+03  0.43729028133E+03  0.80231705289E+02 0.  0.
         24    2    4    4    0    0  0.11798486756E+04 -0.18573508828E+03 -0.98233363733E+02  0.12010064656E+04  0.78907010176E+02 0.  0.
         11    1    5    5    0    0  0.20111613750E+03 -0.22429472451E+03  0.13305440263E+03  0.32933159318E+03  0.00000000000E+00 0. -1.
        -12    1    5    5    0    0  0.58428891169E+02 -0.90764766277E+02  0.17030052171E+01  0.10795868815E+03  0.00000000000E+00 0.  1.
         15    1    3    3    0    0 -0.42390279873E+03  0.15577422283E+03  0.20993071451E+03  0.49802937052E+03  0.17770000000E+01 0. -1.
        -16    1    3    3    0    0 -0.10154909056E+04  0.34502035625E+03  0.36948707460E+03  0.11343639292E+04  0.00000000000E+00 0.  1.
          4    1    6    6  502    0  0.10289686896E+04 -0.18811522182E+03 -0.89859782552E+02  0.10498755552E+04  0.00000000000E+00 0. -1.
         -3    1    6    6    0  502  0.15087998609E+03  0.23801335371E+01 -0.83735811808E+01  0.15113091047E+03  0.00000000000E+00 0.  1.
<mgrwt>
<rscale>  0 0.15651240E+04</rscale>
<asrwt>0</asrwt>
<pdfrwt beam="1">  1        1 0.29897168E+00 0.15651240E+04</pdfrwt>
<pdfrwt beam="2">  1       -2 0.20421140E+00 0.15651240E+04</pdfrwt>
<totfact> 0.33339540E-01</totfact>
</mgrwt>
</event>
<event>
12    3  0.1092576E-007  0.5497059E+03  0.7818608E-02  0.1001562E+00
         -2   -1    0    0    0  501 -0.00000000000E+00  0.00000000000E+00  0.67494061991E+03  0.67494061991E+03  0.00000000000E+00 0.  1.
          1   -1    0    0  501    0  0.00000000000E+00 -0.00000000000E+00 -0.11541178522E+04  0.11541178522E+04  0.00000000000E+00 0. -1.
        -24    2    1    2    0    0  0.38082392241E+03  0.24292327286E+03  0.44442781468E+03  0.63866823425E+03  0.79639529129E+02 0.  0.
    5000000    2    1    2    0    0 -0.38082392241E+03 -0.24292327286E+03 -0.92360504693E+03  0.11903902378E+04  0.59995338085E+03 0.  0.
        -24    2    4    4    0    0  0.10150016474E+03 -0.49755937247E+02 -0.86705967088E+01  0.13696257949E+03  0.76848111224E+02 0.  0.
         24    2    4    4    0    0 -0.48232408715E+03 -0.19316733561E+03 -0.91493445022E+03  0.10534276583E+04  0.51523184380E+02 0.  0.
         13    1    5    5    0    0  0.40056397735E+02  0.10364588301E+02 -0.26546644813E+02  0.49159577307E+02  0.00000000000E+00 0. -1.
        -14    1    5    5    0    0  0.61443767008E+02 -0.60120525548E+02  0.17876048105E+02  0.87803002182E+02  0.00000000000E+00 0.  1.
         15    1    3    3    0    0  0.16120664981E+03  0.10721902811E+03  0.24603302149E+03  0.31307971720E+03  0.17770000000E+01 0. -1.
        -16    1    3    3    0    0  0.21961727260E+03  0.13570424475E+03  0.19839479320E+03  0.32558851705E+03  0.00000000000E+00 0.  1.
          4    1    6    6  502    0 -0.21093710562E+03 -0.99224148778E+02 -0.45395188666E+03  0.51030599608E+03  0.00000000000E+00 0. -1.
         -3    1    6    6    0  502 -0.27138698153E+03 -0.93943186831E+02 -0.46098256356E+03  0.54312166225E+03  0.00000000000E+00 0.  1.
<mgrwt>
<rscale>  0 0.54970591E+03</rscale>
<asrwt>0</asrwt>
<pdfrwt beam="1">  1        1 0.17755659E+00 0.54970591E+03</pdfrwt>
<pdfrwt beam="2">  1       -2 0.10383702E+00 0.54970591E+03</pdfrwt>
<totfact> 0.80922079E+00</totfact>
</mgrwt>
</event>
<event>
12    3  0.1092576E-007  0.2607464E+03  0.7818608E-02  0.1106696E+00
         -2   -1    0    0    0  501 -0.00000000000E+00  0.00000000000E+00  0.93874710956E+02  0.93874710956E+02  0.00000000000E+00 0.  1.
          1   -1    0    0  501    0  0.00000000000E+00 -0.00000000000E+00 -0.26428382451E+04  0.26428382451E+04  0.00000000000E+00 0. -1.
        -24    2    1    2    0    0 -0.19660443556E+02  0.49696623209E+01 -0.16729261041E+04  0.16747825605E+04  0.76181655861E+02 0.  0.
    5000000    2    1    2    0    0  0.19660443556E+02 -0.49696623209E+01 -0.87603743000E+03  0.10619303955E+04  0.59986944872E+03 0.  0.
        -24    2    4    4    0    0 -0.21801521112E+02  0.21316477362E+03 -0.76965246482E+03  0.80268536113E+03  0.77616656214E+02 0.  0.
         24    2    4    4    0    0  0.41461964669E+02 -0.21813443594E+03 -0.10638496518E+03  0.25924503436E+03  0.81169577836E+02 0.  0.
         11    1    5    5    0    0  0.37124768762E+01 -0.61067009330E+01 -0.23368605586E+02  0.24436980335E+02  0.00000000000E+00 0. -1.
        -12    1    5    5    0    0 -0.25513997989E+02  0.21927147455E+03 -0.74628385924E+03  0.77824838079E+03  0.00000000000E+00 0.  1.
         15    1    3    3    0    0  0.13998865382E+02  0.22944850182E+02 -0.12056968421E+04  0.12059977061E+04  0.17770000000E+01 0. -1.
        -16    1    3    3    0    0 -0.33659308939E+02 -0.17975187861E+02 -0.46722926200E+03  0.46878485441E+03  0.00000000000E+00 0.  1.
          2    1    6    6  502    0  0.46990506631E+02 -0.10277199492E+03 -0.19401194672E+02  0.11465861070E+03  0.00000000000E+00 0. -1.
         -1    1    6    6    0  502 -0.55285419622E+01 -0.11536244102E+03 -0.86983770504E+02  0.14458642365E+03  0.00000000000E+00 0.  1.
<mgrwt>
<rscale>  0 0.26074636E+03</rscale>
<asrwt>0</asrwt>
<pdfrwt beam="1">  1        1 0.40659045E+00 0.26074636E+03</pdfrwt>
<pdfrwt beam="2">  1       -2 0.14442265E-01 0.26074636E+03</pdfrwt>
<totfact> 0.41109790E+01</totfact>
</mgrwt>
</event>
<event>
12    3  0.1092576E-007  0.9289395E+03  0.7818608E-02  0.9390112E-01
         -2   -1    0    0    0  501 -0.00000000000E+00  0.00000000000E+00  0.60513437230E+03  0.60513437230E+03  0.00000000000E+00 0.  1.
          1   -1    0    0  501    0  0.00000000000E+00 -0.00000000000E+00 -0.16423601608E+04  0.16423601608E+04  0.00000000000E+00 0. -1.
        -24    2    1    2    0    0 -0.23815687089E+02  0.90422049586E+03 -0.45481465880E+03  0.10157012964E+04  0.81307180522E+02 0.  0.
    5000000    2    1    2    0    0  0.23815687089E+02 -0.90422049586E+03 -0.58241112969E+03  0.12317932367E+04  0.59994163202E+03 0.  0.
        -24    2    4    4    0    0  0.15060514390E+03 -0.48212746340E+03 -0.59423660779E+03  0.78353077433E+03  0.75329462694E+02 0.  0.
         24    2    4    4    0    0 -0.12678945681E+03 -0.42209303246E+03  0.11825478102E+02  0.44826246234E+03  0.81001844414E+02 0.  0.
         11    1    5    5    0    0  0.11638297783E+02 -0.79534786170E+02 -0.60019483214E+02  0.10031734921E+03  0.00000000000E+00 0. -1.
        -12    1    5    5    0    0  0.13896684612E+03 -0.40259267723E+03 -0.53421712458E+03  0.68321342512E+03  0.00000000000E+00 0.  1.
         15    1    3    3    0    0 -0.38999002870E+02  0.75844822234E+03 -0.35462926776E+03  0.83817045013E+03  0.17770000000E+01 0. -1.
        -16    1    3    3    0    0  0.15183315781E+02  0.14577227353E+03 -0.10018539104E+03  0.17753084629E+03  0.00000000000E+00 0.  1.
          2    1    6    6  502    0 -0.33598020106E+02 -0.22585140222E+03 -0.17692514051E+02  0.22902119530E+03  0.00000000000E+00 0. -1.
         -1    1    6    6    0  502 -0.93191436706E+02 -0.19624163024E+03  0.29517992153E+02  0.21924126704E+03  0.00000000000E+00 0.  1.
<mgrwt>
<rscale>  0 0.92893948E+03</rscale>
<asrwt>0</asrwt>
<pdfrwt beam="1">  1        1 0.25267079E+00 0.92893948E+03</pdfrwt>
<pdfrwt beam="2">  1       -2 0.93097597E-01 0.92893948E+03</pdfrwt>
<totfact> 0.45238519E+00</totfact>
</mgrwt>
</event>
<event>
12    3  0.1092576E-007  0.1450067E+04  0.7818608E-02  0.8918354E-01
         -2   -1    0    0    0  501 -0.00000000000E+00  0.00000000000E+00  0.86646980364E+03  0.86646980364E+03  0.00000000000E+00 0.  1.
          1   -1    0    0  501    0  0.00000000000E+00 -0.00000000000E+00 -0.28749755095E+04  0.28749755095E+04  0.00000000000E+00 0. -1.
        -24    2    1    2    0    0 -0.28668269690E+03 -0.14157453907E+04 -0.40683579893E+03  0.15027360550E+04  0.78602186706E+02 0.  0.
    5000000    2    1    2    0    0  0.28668269690E+03  0.14157453907E+04 -0.16016699069E+04  0.22387092582E+04  0.59995889174E+03 0.  0.
        -24    2    4    4    0    0  0.15239992430E+03  0.98658162575E+03 -0.14399762374E+04  0.17540811309E+04  0.81853578771E+02 0.  0.
         24    2    4    4    0    0  0.13428277260E+03  0.42916376494E+03 -0.16169366958E+03  0.48462812728E+03  0.80660887704E+02 0.  0.
         11    1    5    5    0    0  0.52448077968E+02  0.59446882629E+03 -0.84070438094E+03  0.10309839196E+04  0.00000000000E+00 0. -1.
        -12    1    5    5    0    0  0.99951846332E+02  0.39211279945E+03 -0.59927185642E+03  0.72309721130E+03  0.00000000000E+00 0.  1.
         15    1    3    3    0    0 -0.17158628293E+03 -0.67565168206E+03 -0.21636452118E+03  0.72990671439E+03  0.17770000000E+01 0. -1.
        -16    1    3    3    0    0 -0.11509641397E+03 -0.74009370863E+03 -0.19047127776E+03  0.77282934061E+03  0.00000000000E+00 0.  1.
          4    1    6    6  502    0  0.72415797627E+02  0.31001625622E+03 -0.82964988968E+02  0.32899440156E+03  0.00000000000E+00 0. -1.
         -3    1    6    6    0  502  0.61866974973E+02  0.11914750873E+03 -0.78728680615E+02  0.15563372572E+03  0.00000000000E+00 0.  1.
<mgrwt>
<rscale>  0 0.14500673E+04</rscale>
<asrwt>0</asrwt>
<pdfrwt beam="1">  1        1 0.44230391E+00 0.14500673E+04</pdfrwt>
<pdfrwt beam="2">  1       -2 0.13330305E+00 0.14500673E+04</pdfrwt>
<totfact> 0.25169266E-01</totfact>
</mgrwt>
</event>
<event>
12    3  0.1092576E-007  0.4839072E+03  0.7818608E-02  0.1018067E+00
         -2   -1    0    0    0  501 -0.00000000000E+00  0.00000000000E+00  0.44580406692E+03  0.44580406692E+03  0.00000000000E+00 0.  1.
          1   -1    0    0  501    0  0.00000000000E+00 -0.00000000000E+00 -0.10518258370E+04  0.10518258370E+04  0.00000000000E+00 0. -1.
        -24    2    1    2    0    0 -0.43917932616E+03  0.51136351318E+01 -0.60753746887E+03  0.75404089122E+03  0.81063307102E+02 0.  0.
    5000000    2    1    2    0    0  0.43917932616E+03 -0.51136351318E+01  0.15156987837E+01  0.74358901270E+03  0.60001474371E+03 0.  0.
        -24    2    4    4    0    0 -0.17689802959E+02  0.81004438991E+01  0.21830339836E+03  0.23139433071E+03  0.74218705402E+02 0.  0.
         24    2    4    4    0    0  0.45686912912E+03 -0.13214079031E+02 -0.21678769957E+03  0.51219468199E+03  0.80265014413E+02 0.  0.
         11    1    5    5    0    0  0.16711736397E+02 -0.14169567350E+02  0.15110866058E+03  0.15268885380E+03  0.00000000000E+00 0. -1.
        -12    1    5    5    0    0 -0.34401539357E+02  0.22270011249E+02  0.67194737777E+02  0.78705476913E+02  0.00000000000E+00 0.  1.
         15    1    3    3    0    0 -0.28679804003E+03  0.28287398803E+02 -0.44384881732E+03  0.52920527498E+03  0.17770000000E+01 0. -1.
        -16    1    3    3    0    0 -0.15238128613E+03 -0.23173763671E+02 -0.16368865155E+03  0.22483561624E+03  0.00000000000E+00 0.  1.
          2    1    6    6  502    0  0.94932479597E+02  0.26298558672E+02 -0.63198113696E+02  0.11703756425E+03  0.00000000000E+00 0. -1.
         -1    1    6    6    0  502  0.36193664953E+03 -0.39512637703E+02 -0.15358958588E+03  0.39515711774E+03  0.00000000000E+00 0.  1.
<mgrwt>
<rscale>  0 0.48390716E+03</rscale>
<asrwt>0</asrwt>
<pdfrwt beam="1">  1        1 0.16181936E+00 0.48390716E+03</pdfrwt>
<pdfrwt beam="2">  1       -2 0.68585242E-01 0.48390716E+03</pdfrwt>
<totfact> 0.24904756E+01</totfact>
</mgrwt>
</event>
<event>
12    3  0.1092576E-007  0.1314164E+04  0.7818608E-02  0.9018408E-01
         -4   -1    0    0    0  501 -0.00000000000E+00  0.00000000000E+00  0.95706416095E+03  0.95706416095E+03  0.00000000000E+00 0.  1.
          1   -1    0    0  501    0  0.00000000000E+00 -0.00000000000E+00 -0.19653652131E+04  0.19653652131E+04  0.00000000000E+00 0. -1.
        -24    2    1    2    0    0  0.87992542084E+02  0.12473390512E+04 -0.84436911933E+02  0.12561078999E+04  0.84143139946E+02 0.  0.
    5000000    2    1    2    0    0 -0.87992542084E+02 -0.12473390512E+04 -0.92386414020E+03  0.16663214742E+04  0.59958728287E+03 0.  0.
        -24    2    4    4    0    0  0.24108060636E+03 -0.47630331418E+03 -0.41951613731E+03  0.68463782243E+03  0.88036654689E+02 0.  0.
         24    2    4    4    0    0 -0.32907314844E+03 -0.77103573697E+03 -0.50434800289E+03  0.98168365176E+03  0.80936020390E+02 0.  0.
         11    1    5    5    0    0  0.21739075822E+03 -0.36971141600E+03 -0.30412791120E+03  0.52577472291E+03  0.00000000000E+00 0. -1.
        -12    1    5    5    0    0  0.23689848137E+02 -0.10659189818E+03 -0.11538822611E+03  0.15886309951E+03  0.00000000000E+00 0.  1.
         15    1    3    3    0    0  0.70096010716E+02  0.11358402113E+04 -0.98747774619E+02  0.11422787388E+04  0.17770000000E+01 0. -1.
        -16    1    3    3    0    0  0.17896531368E+02  0.11149883982E+03  0.14310862686E+02  0.11382916106E+03  0.00000000000E+00 0.  1.
          2    1    6    6  502    0 -0.66172712196E+02 -0.11691372608E+03 -0.11185127635E+03  0.17480948260E+03  0.00000000000E+00 0. -1.
         -1    1    6    6    0  502 -0.26290043624E+03 -0.65412201089E+03 -0.39249672654E+03  0.80687416916E+03  0.00000000000E+00 0.  1.
<mgrwt>
<rscale>  0 0.13141639E+04</rscale>
<asrwt>0</asrwt>
<pdfrwt beam="1">  1        1 0.30236387E+00 0.13141639E+04</pdfrwt>
<pdfrwt beam="2">  1       -4 0.14724064E+00 0.13141639E+04</pdfrwt>
<totfact> 0.45634802E-01</totfact>
</mgrwt>
</event>
<event>
12    3  0.1092576E-007  0.9069171E+03  0.7818608E-02  0.9416976E-01
          1   -1    0    0  501    0  0.00000000000E+00  0.00000000000E+00  0.70324158927E+03  0.70324158927E+03  0.00000000000E+00 0. -1.
         -2   -1    0    0    0  501 -0.00000000000E+00 -0.00000000000E+00 -0.23962307072E+04  0.23962307072E+04  0.00000000000E+00 0.  1.
        -24    2    1    2    0    0 -0.57764359228E+03 -0.58290759554E+03 -0.18918253153E+04  0.20636946803E+04  0.79870678226E+02 0.  0.
    5000000    2    1    2    0    0  0.57764359228E+03  0.58290759554E+03  0.19883619746E+03  0.10357776161E+04  0.59987169624E+03 0.  0.
        -24    2    4    4    0    0  0.28805090822E+03  0.62509544596E+03  0.23241684241E+03  0.73078525140E+03  0.79447169523E+02 0.  0.
         24    2    4    4    0    0  0.28959268406E+03 -0.42187850424E+02 -0.33580644952E+02  0.30499236469E+03  0.79050271477E+02 0.  0.
         11    1    5    5    0    0  0.97563404443E+02  0.28502190655E+03  0.75328021787E+02  0.31053247168E+03  0.00000000000E+00 0. -1.
        -12    1    5    5    0    0  0.19048750377E+03  0.34007353941E+03  0.15708882062E+03  0.42025277973E+03  0.00000000000E+00 0.  1.
         15    1    3    3    0    0 -0.44989715730E+03 -0.42872407278E+03 -0.15009168155E+04  0.16244895283E+04  0.17770000000E+01 0. -1.
        -16    1    3    3    0    0 -0.12774643497E+03 -0.15418352276E+03 -0.39090849987E+03  0.43920515208E+03  0.00000000000E+00 0.  1.
          2    1    6    6  502    0  0.11069830486E+03  0.18407547718E+02 -0.29666744424E+02  0.11607354667E+03  0.00000000000E+00 0. -1.
         -1    1    6    6    0  502  0.17889437920E+03 -0.60595398143E+02 -0.39139005283E+01  0.18891881803E+03  0.00000000000E+00 0.  1.
<mgrwt>
<rscale>  0 0.90691713E+03</rscale>
<asrwt>0</asrwt>
<pdfrwt beam="1">  1        1 0.10819101E+00 0.90691713E+03</pdfrwt>
<pdfrwt beam="2">  1       -2 0.36865088E+00 0.90691713E+03</pdfrwt>
<totfact> 0.29047343E-01</totfact>
</mgrwt>
</event>
<event>
12    3  0.1092576E-007  0.8711453E+03  0.7818608E-02  0.9462388E-01
         -2   -1    0    0    0  501 -0.00000000000E+00  0.00000000000E+00  0.66243957860E+03  0.66243957860E+03  0.00000000000E+00 0.  1.
          1   -1    0    0  501    0  0.00000000000E+00 -0.00000000000E+00 -0.18348012577E+04  0.18348012577E+04  0.00000000000E+00 0. -1.
        -24    2    1    2    0    0 -0.18115247389E+03 -0.76295889952E+03 -0.12808347394E+04  0.15039294298E+04  0.79646714049E+02 0.  0.
    5000000    2    1    2    0    0  0.18115247389E+03  0.76295889952E+03  0.10847306033E+03  0.99331140646E+03  0.59998220326E+03 0.  0.
        -24    2    4    4    0    0 -0.53360469110E+02  0.70861008463E+03 -0.59225590602E+01  0.71508744795E+03  0.79620285199E+02 0.  0.
         24    2    4    4    0    0  0.23451294300E+03  0.54348814894E+02  0.11439561939E+03  0.27822395851E+03  0.79825429743E+02 0.  0.
         13    1    5    5    0    0  0.86948649149E+01  0.40104363035E+03 -0.10848883342E+02  0.40128455289E+03  0.00000000000E+00 0. -1.
        -14    1    5    5    0    0 -0.62055334025E+02  0.30756645428E+03  0.49263242814E+01  0.31380289506E+03  0.00000000000E+00 0.  1.
         15    1    3    3    0    0 -0.92899383972E+02 -0.49524252726E+03 -0.87688184185E+03  0.10113458254E+04  0.17770000000E+01 0. -1.
        -16    1    3    3    0    0 -0.88253089923E+02 -0.26771637226E+03 -0.40395289757E+03  0.49258360439E+03  0.00000000000E+00 0.  1.
          4    1    6    6  502    0  0.53237686668E+02  0.35353067472E+01  0.64019482704E+02  0.83338129576E+02  0.00000000000E+00 0. -1.
         -3    1    6    6    0  502  0.18127525634E+03  0.50813508147E+02  0.50376136687E+02  0.19488582893E+03  0.00000000000E+00 0.  1.
<mgrwt>
<rscale>  0 0.87114533E+03</rscale>
<asrwt>0</asrwt>
<pdfrwt beam="1">  1        1 0.28227711E+00 0.87114533E+03</pdfrwt>
<pdfrwt beam="2">  1       -2 0.10191378E+00 0.87114533E+03</pdfrwt>
<totfact> 0.27299725E+00</totfact>
</mgrwt>
</event>
<event>
12    3  0.1092576E-007  0.4734794E+03  0.7818608E-02  0.1020943E+00
          1   -1    0    0  501    0  0.00000000000E+00  0.00000000000E+00  0.28710934036E+04  0.28710934036E+04  0.00000000000E+00 0. -1.
         -2   -1    0    0    0  501 -0.00000000000E+00 -0.00000000000E+00 -0.11649880017E+03  0.11649880017E+03  0.00000000000E+00 0.  1.
        -24    2    1    2    0    0 -0.21286649060E+03  0.35932360192E+03  0.98370192285E+03  0.10717370766E+04  0.80779295759E+02 0.  0.
    5000000    2    1    2    0    0  0.21286649060E+03 -0.35932360192E+03  0.17708926806E+04  0.19158551272E+04  0.60001199028E+03 0.  0.
        -24    2    4    4    0    0  0.27337251508E+03 -0.29936368905E+03  0.17475662532E+04  0.17955305015E+04  0.74771800423E+02 0.  0.
         24    2    4    4    0    0 -0.60506024483E+02 -0.59959912865E+02  0.23326427341E+02  0.12032462565E+03  0.81717337055E+02 0.  0.
         13    1    5    5    0    0  0.13140224906E+03 -0.10840040328E+03  0.60968260791E+03  0.63303244852E+03  0.00000000000E+00 0. -1.
        -14    1    5    5    0    0  0.14197026602E+03 -0.19096328578E+03  0.11378836453E+04  0.11624980530E+04  0.00000000000E+00 0.  1.
         15    1    3    3    0    0 -0.76084689898E+02  0.18706212549E+03  0.40295019005E+03  0.45072511825E+03  0.17770000000E+01 0. -1.
        -16    1    3    3    0    0 -0.13678180070E+03  0.17226147643E+03  0.58075173280E+03  0.62101195835E+03  0.00000000000E+00 0.  1.
          2    1    6    6  502    0  0.19548536152E+02 -0.16928082568E+02 -0.21096785462E+01  0.25945249829E+02  0.00000000000E+00 0. -1.
         -1    1    6    6    0  502 -0.80054560636E+02 -0.43031830297E+02  0.25436105888E+02  0.94379375819E+02  0.00000000000E+00 0.  1.
<mgrwt>
<rscale>  0 0.47347944E+03</rscale>
<asrwt>0</asrwt>
<pdfrwt beam="1">  1        1 0.44170662E+00 0.47347944E+03</pdfrwt>
<pdfrwt beam="2">  1       -2 0.17922894E-01 0.47347944E+03</pdfrwt>
<totfact> 0.18707693E+01</totfact>
</mgrwt>
</event>
<event>
12    3  0.1092576E-007  0.2717453E+03  0.7818608E-02  0.1100285E+00
          1   -1    0    0  501    0  0.00000000000E+00  0.00000000000E+00  0.26127087142E+03  0.26127087142E+03  0.00000000000E+00 0. -1.
         -2   -1    0    0    0  501 -0.00000000000E+00 -0.00000000000E+00 -0.68678855427E+03  0.68678855427E+03  0.00000000000E+00 0.  1.
        -24    2    1    2    0    0  0.10395888678E+03  0.16292746481E+03 -0.51288644094E+02  0.21442731814E+03  0.77432169162E+02 0.  0.
    5000000    2    1    2    0    0 -0.10395888678E+03 -0.16292746481E+03 -0.37422903876E+03  0.73363210756E+03  0.60067952092E+03 0.  0.
        -24    2    4    4    0    0 -0.17980939299E+02  0.61112784242E+02  0.13275393379E+03  0.16741957576E+03  0.79671957644E+02 0.  0.
         24    2    4    4    0    0 -0.85977947482E+02 -0.22404024905E+03 -0.50698297254E+03  0.56621253180E+03  0.77321769678E+02 0.  0.
         13    1    5    5    0    0  0.25235978093E+02 -0.22220361009E+01  0.33074634761E+02  0.41662015066E+02  0.00000000000E+00 0. -1.
        -14    1    5    5    0    0 -0.43216917392E+02  0.63334820343E+02  0.99679299027E+02  0.12575756069E+03  0.00000000000E+00 0.  1.
         15    1    3    3    0    0  0.65339858572E+02  0.50477049372E+02  0.52896973830E+01  0.82754868491E+02  0.17770000000E+01 0. -1.
        -16    1    3    3    0    0  0.38619028209E+02  0.11245041544E+03 -0.56578341477E+02  0.13167244965E+03  0.00000000000E+00 0.  1.
          2    1    6    6  502    0 -0.48163693522E+02 -0.12037816725E+03 -0.18550398581E+03  0.22632360300E+03  0.00000000000E+00 0. -1.
         -1    1    6    6    0  502 -0.37814253960E+02 -0.10366208180E+03 -0.32147898674E+03  0.33988892880E+03  0.00000000000E+00 0.  1.
<mgrwt>
<rscale>  0 0.27174532E+03</rscale>
<asrwt>0</asrwt>
<pdfrwt beam="1">  1        1 0.40195519E-01 0.27174532E+03</pdfrwt>
<pdfrwt beam="2">  1       -2 0.10565978E+00 0.27174532E+03</pdfrwt>
<totfact> 0.69753671E+01</totfact>
</mgrwt>
</event>
<event>
12    3  0.1092576E-007  0.6991622E+03  0.7818608E-02  0.9718666E-01
         -2   -1    0    0    0  501 -0.00000000000E+00  0.00000000000E+00  0.23069723977E+03  0.23069723977E+03  0.00000000000E+00 0.  1.
          1   -1    0    0  501    0  0.00000000000E+00 -0.00000000000E+00 -0.22756365240E+04  0.22756365240E+04  0.00000000000E+00 0. -1.
        -24    2    1    2    0    0 -0.38329332232E+03 -0.43047218300E+03 -0.58015791275E+03  0.82174693863E+03  0.80403707298E+02 0.  0.
    5000000    2    1    2    0    0  0.38329332232E+03  0.43047218300E+03 -0.14647813715E+04  0.16845868252E+04  0.60002352781E+03 0.  0.
        -24    2    4    4    0    0 -0.80753993763E+02  0.32964692499E+03 -0.55844777917E+03  0.65793672602E+03  0.76344683593E+02 0.  0.
         24    2    4    4    0    0  0.46404731609E+03  0.10082525801E+03 -0.90633359235E+03  0.10266500992E+04  0.84048802886E+02 0.  0.
         11    1    5    5    0    0 -0.74195600416E+02  0.19018530689E+03 -0.37997049406E+03  0.43133863082E+03  0.00000000000E+00 0. -1.
        -12    1    5    5    0    0 -0.65583933469E+01  0.13946161810E+03 -0.17847728511E+03  0.22659809520E+03  0.00000000000E+00 0.  1.
         15    1    3    3    0    0 -0.42360520296E+02 -0.33759414157E+02 -0.89069732425E+02  0.10426258527E+03  0.17770000000E+01 0. -1.
        -16    1    3    3    0    0 -0.34093280203E+03 -0.39671276885E+03 -0.49108818032E+03  0.71748435336E+03  0.00000000000E+00 0.  1.
          2    1    6    6  502    0  0.72687633205E+02  0.34049855777E+02 -0.21403096829E+03  0.22858727017E+03  0.00000000000E+00 0. -1.
         -1    1    6    6    0  502  0.39135968288E+03  0.66775402234E+02 -0.69230262406E+03  0.79806282899E+03  0.00000000000E+00 0.  1.
<mgrwt>
<rscale>  0 0.69916223E+03</rscale>
<asrwt>0</asrwt>
<pdfrwt beam="1">  1        1 0.35009794E+00 0.69916223E+03</pdfrwt>
<pdfrwt beam="2">  1       -2 0.35491882E-01 0.69916223E+03</pdfrwt>
<totfact> 0.13338568E+01</totfact>
</mgrwt>
</event>
<event>
12    3  0.1092576E-007  0.6461711E+03  0.7818608E-02  0.9813990E-01
         -2   -1    0    0    0  501 -0.00000000000E+00  0.00000000000E+00  0.80115815774E+03  0.80115815774E+03  0.00000000000E+00 0.  1.
          1   -1    0    0  501    0  0.00000000000E+00 -0.00000000000E+00 -0.13350259832E+04  0.13350259832E+04  0.00000000000E+00 0. -1.
        -24    2    1    2    0    0 -0.37146177995E+03  0.35693715173E+03  0.57372109860E+03  0.77521270274E+03  0.80067791672E+02 0.  0.
    5000000    2    1    2    0    0  0.37146177995E+03 -0.35693715173E+03 -0.11075889241E+04  0.13609714382E+04  0.60008503287E+03 0.  0.
        -24    2    4    4    0    0 -0.15170665430E+03 -0.11799476611E+03 -0.34675635361E+03  0.40387776860E+03  0.77068861460E+02 0.  0.
         24    2    4    4    0    0  0.52316843425E+03 -0.23894238562E+03 -0.76083257045E+03  0.95709366962E+03  0.79771034381E+02 0.  0.
         11    1    5    5    0    0 -0.12230720914E+03 -0.87060814480E+02 -0.32010973579E+03  0.35356595109E+03  0.00000000000E+00 0. -1.
        -12    1    5    5    0    0 -0.29399445162E+02 -0.30933951627E+02 -0.26646617828E+02  0.50311817506E+02  0.00000000000E+00 0.  1.
         15    1    3    3    0    0 -0.16359907409E+03  0.10370810648E+03  0.20999631809E+03  0.28569501174E+03  0.17770000000E+01 0. -1.
        -16    1    3    3    0    0 -0.20786270586E+03  0.25322904525E+03  0.36372478051E+03  0.48951769100E+03  0.00000000000E+00 0.  1.
          2    1    6    6  502    0  0.26901355247E+03 -0.15543904011E+03 -0.36484664144E+03  0.47921045311E+03  0.00000000000E+00 0. -1.
         -1    1    6    6    0  502  0.25415488178E+03 -0.83503345511E+02 -0.39598592902E+03  0.47788321651E+03  0.00000000000E+00 0.  1.
<mgrwt>
<rscale>  0 0.64617114E+03</rscale>
<asrwt>0</asrwt>
<pdfrwt beam="1">  1        1 0.20538861E+00 0.64617114E+03</pdfrwt>
<pdfrwt beam="2">  1       -2 0.12325510E+00 0.64617114E+03</pdfrwt>
<totfact> 0.38988194E+00</totfact>
</mgrwt>
</event>
<event>
12    3  0.1237440E-007  0.6047469E+03  0.7818608E-02  0.9895606E-01
         -2   -1    0    0    0  501 -0.00000000000E+00  0.00000000000E+00  0.43283125865E+03  0.43283125865E+03  0.00000000000E+00 0.  1.
          1   -1    0    0  501    0  0.00000000000E+00 -0.00000000000E+00 -0.15045167676E+04  0.15045167676E+04  0.00000000000E+00 0. -1.
        -24    2    1    2    0    0  0.30463041081E+02 -0.59288203417E+03 -0.89141425327E+03  0.10739461485E+04  0.79396824420E+02 0.  0.
    5000000    2    1    2    0    0 -0.30463041081E+02  0.59288203417E+03 -0.18027125572E+03  0.86340187775E+03  0.60043981676E+03 0.  0.
        -24    2    4    4    0    0 -0.88724050203E+02  0.27643126297E+03 -0.37326247291E+03  0.48028683372E+03  0.84049799095E+02 0.  0.
         24    2    4    4    0    0  0.58261009122E+02  0.31645077120E+03  0.19299121719E+03  0.38311504404E+03  0.77434432096E+02 0.  0.
         11    1    5    5    0    0 -0.56517850812E+02  0.13324591008E+03 -0.24888017258E+03  0.28790637422E+03  0.00000000000E+00 0. -1.
        -12    1    5    5    0    0 -0.32206199391E+02  0.14318535288E+03 -0.12438230033E+03  0.19238045949E+03  0.00000000000E+00 0.  1.
         15    1    3    3    0    0  0.19579814456E+02 -0.39807783115E+03 -0.66267867551E+03  0.77330169629E+03  0.17770000000E+01 0. -1.
        -16    1    3    3    0    0  0.10883226625E+02 -0.19480420302E+03 -0.22873557776E+03  0.30064445225E+03  0.00000000000E+00 0.  1.
          2    1    6    6  502    0  0.39415693518E+02  0.10704450452E+03  0.10552415636E+03  0.15539456367E+03  0.00000000000E+00 0. -1.
         -1    1    6    6    0  502  0.18845315604E+02  0.20940626668E+03  0.87467060833E+02  0.22772048036E+03  0.00000000000E+00 0.  1.
<mgrwt>
<rscale>  0 0.60474686E+03</rscale>
<asrwt>0</asrwt>
<pdfrwt beam="1">  1        1 0.23146412E+00 0.60474686E+03</pdfrwt>
<pdfrwt beam="2">  1       -2 0.66589423E-01 0.60474686E+03</pdfrwt>
<totfact> 0.12448712E+01</totfact>
</mgrwt>
</event>
<event>
12    3  0.1092576E-007  0.8565261E+03  0.7818608E-02  0.9481619E-01
          1   -1    0    0  501    0  0.00000000000E+00  0.00000000000E+00  0.34304908917E+04  0.34304908917E+04  0.00000000000E+00 0. -1.
         -2   -1    0    0    0  501 -0.00000000000E+00 -0.00000000000E+00 -0.24653897693E+03  0.24653897693E+03  0.00000000000E+00 0.  1.
        -24    2    1    2    0    0 -0.69820215710E+03  0.38911800283E+03  0.17886271468E+04  0.19606863530E+04  0.78770756769E+02 0.  0.
    5000000    2    1    2    0    0  0.69820215710E+03 -0.38911800283E+03  0.13953247679E+04  0.17163435156E+04  0.60000398611E+03 0.  0.
        -24    2    4    4    0    0  0.60455707544E+03 -0.46927571405E+03  0.13639669902E+04  0.15660944997E+04  0.80852201445E+02 0.  0.
         24    2    4    4    0    0  0.93645081656E+02  0.80157711219E+02  0.31357777730E+02  0.15024901590E+03  0.79979976047E+02 0.  0.
         11    1    5    5    0    0  0.16247312056E+03 -0.93525522872E+02  0.38225203905E+03  0.42574776534E+03  0.00000000000E+00 0. -1.
        -12    1    5    5    0    0  0.44208395488E+03 -0.37575019117E+03  0.98171495111E+03  0.11403467344E+04  0.00000000000E+00 0.  1.
         15    1    3    3    0    0 -0.15487689745E+03  0.94036772712E+02  0.48874257365E+03  0.52125063934E+03  0.17770000000E+01 0. -1.
        -16    1    3    3    0    0 -0.54332525964E+03  0.29508123012E+03  0.12998845732E+04  0.14394357137E+04  0.00000000000E+00 0.  1.
          2    1    6    6  502    0  0.10639686528E+03  0.80059567128E+02  0.33537221640E+02  0.13731195311E+03  0.00000000000E+00 0. -1.
         -1    1    6    6    0  502 -0.12751783627E+02  0.98144090964E-01 -0.21794439094E+01  0.12937062792E+02  0.00000000000E+00 0.  1.
<mgrwt>
<rscale>  0 0.85652610E+03</rscale>
<asrwt>0</asrwt>
<pdfrwt beam="1">  1        1 0.52776779E+00 0.85652610E+03</pdfrwt>
<pdfrwt beam="2">  1       -2 0.37929076E-01 0.85652610E+03</pdfrwt>
<totfact> 0.17302477E+00</totfact>
</mgrwt>
</event>
<event>
12    3  0.1092576E-007  0.1710708E+04  0.7818608E-02  0.8755281E-01
          1   -1    0    0  501    0  0.00000000000E+00  0.00000000000E+00  0.12282192706E+04  0.12282192706E+04  0.00000000000E+00 0. -1.
         -2   -1    0    0    0  501 -0.00000000000E+00 -0.00000000000E+00 -0.24392266482E+04  0.24392266482E+04  0.00000000000E+00 0.  1.
        -24    2    1    2    0    0  0.10841457462E+04 -0.12674788422E+04 -0.78159121213E+03  0.18436301235E+04  0.78820015244E+02 0.  0.
    5000000    2    1    2    0    0 -0.10841457462E+04  0.12674788422E+04 -0.42941616545E+03  0.18238157953E+04  0.60002599730E+03 0.  0.
        -24    2    4    4    0    0 -0.10509038453E+04  0.12941944562E+04 -0.45371293321E+03  0.17296313231E+04  0.80192927565E+02 0.  0.
         24    2    4    4    0    0 -0.33241900932E+02 -0.26715613976E+02  0.24296767765E+02  0.94184472169E+02  0.80384288678E+02 0.  0.
         11    1    5    5    0    0 -0.66979029761E+03  0.85263587362E+03 -0.25965069444E+03  0.11149105161E+04  0.00000000000E+00 0. -1.
        -12    1    5    5    0    0 -0.38111354771E+03  0.44155858256E+03 -0.19406223877E+03  0.61472080703E+03  0.00000000000E+00 0.  1.
         15    1    3    3    0    0  0.54873050988E+02 -0.62782948667E+02 -0.20922304133E+02  0.85986341400E+02  0.17770000000E+01 0. -1.
        -16    1    3    3    0    0  0.10292726953E+04 -0.12046958935E+04 -0.76066890800E+03  0.17576437821E+04  0.00000000000E+00 0.  1.
          2    1    6    6  502    0  0.19531461479E+02 -0.26827379270E+02 -0.54132038953E+01  0.33622745908E+02  0.00000000000E+00 0. -1.
         -1    1    6    6    0  502 -0.52773362410E+02  0.11176529448E+00  0.29709971661E+02  0.60561726261E+02  0.00000000000E+00 0.  1.
<mgrwt>
<rscale>  0 0.17107080E+04</rscale>
<asrwt>0</asrwt>
<pdfrwt beam="1">  1        1 0.18895681E+00 0.17107080E+04</pdfrwt>
<pdfrwt beam="2">  1       -2 0.37526564E+00 0.17107080E+04</pdfrwt>
<totfact> 0.88808811E-02</totfact>
</mgrwt>
</event>
<event>
12    3  0.1092576E-007  0.7326296E+03  0.7818608E-02  0.9663003E-01
         -2   -1    0    0    0  501 -0.00000000000E+00  0.00000000000E+00  0.49470454646E+03  0.49470454646E+03  0.00000000000E+00 0.  1.
          1   -1    0    0  501    0  0.00000000000E+00 -0.00000000000E+00 -0.16342851293E+04  0.16342851293E+04  0.00000000000E+00 0. -1.
        -24    2    1    2    0    0 -0.53761798941E+03 -0.46988082378E+03 -0.88683912527E+02  0.72392484584E+03  0.79882757760E+02 0.  0.
    5000000    2    1    2    0    0  0.53761798941E+03  0.46988082378E+03 -0.10508966703E+04  0.14050648299E+04  0.60000189461E+03 0.  0.
        -24    2    4    4    0    0  0.55964266779E+02  0.67576464999E+02  0.55625175262E+02  0.13040305662E+03  0.78817633023E+02 0.  0.
         24    2    4    4    0    0  0.48165372263E+03  0.40230435878E+03 -0.11065218456E+04  0.12746617733E+04  0.80826579670E+02 0.  0.
         13    1    5    5    0    0 -0.56288130518E+01 -0.13086571886E+02 -0.82591806285E+00  0.14269689581E+02  0.00000000000E+00 0. -1.
        -14    1    5    5    0    0  0.61593079831E+02  0.80663036885E+02  0.56451093324E+02  0.11613336704E+03  0.00000000000E+00 0.  1.
         15    1    3    3    0    0 -0.39163980764E+03 -0.38447965931E+03 -0.56042166444E+02  0.55167946265E+03  0.17770000000E+01 0. -1.
        -16    1    3    3    0    0 -0.14597818176E+03 -0.85401164472E+02 -0.32641746083E+02  0.17224538319E+03  0.00000000000E+00 0.  1.
          2    1    6    6  502    0  0.31470543088E+03  0.21764456604E+03 -0.63197996999E+03  0.73878775560E+03  0.00000000000E+00 0. -1.
         -1    1    6    6    0  502  0.16694829175E+03  0.18465979274E+03 -0.47454187559E+03  0.53587401771E+03  0.00000000000E+00 0.  1.
<mgrwt>
<rscale>  0 0.73262956E+03</rscale>
<asrwt>0</asrwt>
<pdfrwt beam="1">  1        1 0.25142849E+00 0.73262956E+03</pdfrwt>
<pdfrwt beam="2">  1       -2 0.76108391E-01 0.73262956E+03</pdfrwt>
<totfact> 0.74409849E+00</totfact>
</mgrwt>
</event>
<event>
12    3  0.1092576E-007  0.5142752E+03  0.7818608E-02  0.1010119E+00
          1   -1    0    0  501    0  0.00000000000E+00  0.00000000000E+00  0.85076053259E+03  0.85076053259E+03  0.00000000000E+00 0. -1.
         -2   -1    0    0    0  501 -0.00000000000E+00 -0.00000000000E+00 -0.90864963055E+03  0.90864963055E+03  0.00000000000E+00 0.  1.
        -24    2    1    2    0    0 -0.33123524541E+03  0.18007642644E+03  0.65152662322E+03  0.75698850100E+03  0.80002142016E+02 0.  0.
    5000000    2    1    2    0    0  0.33123524541E+03 -0.18007642644E+03 -0.70941572119E+03  0.10024216621E+04  0.59952832800E+03 0.  0.
        -24    2    4    4    0    0  0.20873327336E+03 -0.36548362486E+03 -0.28000729494E+03  0.51212336943E+03  0.81965851744E+02 0.  0.
         24    2    4    4    0    0  0.12250197205E+03  0.18540719843E+03 -0.42940842625E+03  0.49029829269E+03  0.81352669907E+02 0.  0.
         11    1    5    5    0    0  0.72905442015E+02 -0.21016135243E+03 -0.14728474020E+03  0.26678791619E+03  0.00000000000E+00 0. -1.
        -12    1    5    5    0    0  0.13582783135E+03 -0.15532227244E+03 -0.13272255474E+03  0.24533545325E+03  0.00000000000E+00 0.  1.
         15    1    3    3    0    0 -0.10221258909E+03  0.66025786579E+02  0.14335324164E+03  0.18804288734E+03  0.17770000000E+01 0. -1.
        -16    1    3    3    0    0 -0.22902265632E+03  0.11405063986E+03  0.50817338158E+03  0.56894561366E+03  0.00000000000E+00 0.  1.
          2    1    6    6  502    0  0.10396651083E+03  0.15734956293E+03 -0.41042673123E+03  0.45168354191E+03  0.00000000000E+00 0. -1.
         -1    1    6    6    0  502  0.18535461220E+02  0.28057635492E+02 -0.18981695024E+02  0.38614750783E+02  0.00000000000E+00 0.  1.
<mgrwt>
<rscale>  0 0.51427523E+03</rscale>
<asrwt>0</asrwt>
<pdfrwt beam="1">  1        1 0.13088623E+00 0.51427523E+03</pdfrwt>
<pdfrwt beam="2">  1       -2 0.13979225E+00 0.51427523E+03</pdfrwt>
<totfact> 0.66962669E+00</totfact>
</mgrwt>
</event>
<event>
12    3  0.1092576E-007  0.9654152E+03  0.7818608E-02  0.9347312E-01
          1   -1    0    0  501    0  0.00000000000E+00  0.00000000000E+00  0.10787557726E+04  0.10787557726E+04  0.00000000000E+00 0. -1.
         -2   -1    0    0    0  501 -0.00000000000E+00 -0.00000000000E+00 -0.16833093498E+04  0.16833093498E+04  0.00000000000E+00 0.  1.
        -24    2    1    2    0    0 -0.91250816778E+03 -0.57444661517E+02 -0.12047579967E+04  0.15145856936E+04  0.80974979454E+02 0.  0.
    5000000    2    1    2    0    0  0.91250816778E+03  0.57444661517E+02  0.60020441954E+03  0.12474794287E+04  0.59999044520E+03 0.  0.
        -24    2    4    4    0    0  0.53406857288E+03 -0.17814576559E+03  0.10813215367E+03  0.57888456021E+03  0.80309507874E+02 0.  0.
         24    2    4    4    0    0  0.37843959490E+03  0.23559042711E+03  0.49207226587E+03  0.66859486847E+03  0.78515011099E+02 0.  0.
         11    1    5    5    0    0  0.32373340869E+03 -0.11953250392E+03  0.10425727987E+03  0.36050092899E+03  0.00000000000E+00 0. -1.
        -12    1    5    5    0    0  0.21033516419E+03 -0.58613261670E+02  0.38748738041E+01  0.21838363122E+03  0.00000000000E+00 0.  1.
         15    1    3    3    0    0 -0.20471011689E+03  0.18866423386E+02 -0.25141984790E+03  0.32477264591E+03  0.17770000000E+01 0. -1.
        -16    1    3    3    0    0 -0.70779805089E+03 -0.76311084904E+02 -0.95333814884E+03  0.11898130477E+04  0.00000000000E+00 0.  1.
          2    1    6    6  502    0  0.20920736560E+03  0.94466130744E+02  0.28773106245E+03  0.36807707886E+03  0.00000000000E+00 0. -1.
         -1    1    6    6    0  502  0.16923222929E+03  0.14112429637E+03  0.20434120342E+03  0.30051778961E+03  0.00000000000E+00 0.  1.
<mgrwt>
<rscale>  0 0.96541523E+03</rscale>
<asrwt>0</asrwt>
<pdfrwt beam="1">  1        1 0.16596243E+00 0.96541523E+03</pdfrwt>
<pdfrwt beam="2">  1       -2 0.25897067E+00 0.96541523E+03</pdfrwt>
<totfact> 0.65815760E-01</totfact>
</mgrwt>
</event>
<event>
12    3  0.1092576E-007  0.1551207E+04  0.7818608E-02  0.8851097E-01
          1   -1    0    0  501    0  0.00000000000E+00  0.00000000000E+00  0.29450340485E+04  0.29450340485E+04  0.00000000000E+00 0. -1.
         -2   -1    0    0    0  501 -0.00000000000E+00 -0.00000000000E+00 -0.97660600656E+03  0.97660600656E+03  0.00000000000E+00 0.  1.
        -24    2    1    2    0    0  0.21550475218E+02 -0.15006412633E+04  0.18422114361E+03  0.15142239192E+04  0.80919859642E+02 0.  0.
    5000000    2    1    2    0    0 -0.21550475218E+02  0.15006412633E+04  0.17842068984E+04  0.24074161358E+04  0.59989129917E+03 0.  0.
        -24    2    4    4    0    0 -0.17384367028E+03  0.13828041969E+04  0.14434761134E+04  0.20080519487E+04  0.79248154761E+02 0.  0.
         24    2    4    4    0    0  0.15229319506E+03  0.11783706640E+03  0.34073078494E+03  0.39936418712E+03  0.79470086660E+02 0.  0.
         13    1    5    5    0    0 -0.57283340854E+02  0.59026788727E+03  0.56340354062E+03  0.81799823316E+03  0.00000000000E+00 0. -1.
        -14    1    5    5    0    0 -0.11656032942E+03  0.79253630966E+03  0.88007257280E+03  0.11900537156E+04  0.00000000000E+00 0.  1.
         15    1    3    3    0    0 -0.30409107806E+02 -0.58059781228E+03  0.78390471855E+02  0.58665727411E+03  0.17770000000E+01 0. -1.
        -16    1    3    3    0    0  0.51959583024E+02 -0.92004345105E+03  0.10583067175E+03  0.92756664513E+03  0.00000000000E+00 0.  1.
          2    1    6    6  502    0  0.53935287714E+02  0.86936491332E+02  0.20297197879E+03  0.22729846669E+03  0.00000000000E+00 0. -1.
         -1    1    6    6    0  502  0.98357907343E+02  0.30900575063E+02  0.13775880615E+03  0.17206572043E+03  0.00000000000E+00 0.  1.
<mgrwt>
<rscale>  0 0.15512072E+04</rscale>
<asrwt>0</asrwt>
<pdfrwt beam="1">  1        1 0.45308216E+00 0.15512072E+04</pdfrwt>
<pdfrwt beam="2">  1       -2 0.15024708E+00 0.15512072E+04</pdfrwt>
<totfact> 0.16172947E-01</totfact>
</mgrwt>
</event>
<event>
12    3  0.1092576E-007  0.1431139E+04  0.7818608E-02  0.8931582E-01
         -2   -1    0    0    0  501 -0.00000000000E+00  0.00000000000E+00  0.24878803899E+04  0.24878803899E+04  0.00000000000E+00 0.  1.
          1   -1    0    0  501    0  0.00000000000E+00 -0.00000000000E+00 -0.11280265354E+04  0.11280265354E+04  0.00000000000E+00 0. -1.
        -24    2    1    2    0    0  0.14224158853E+04 -0.49044314871E+02  0.14946421444E+04  0.20654645861E+04  0.80724972299E+02 0.  0.
    5000000    2    1    2    0    0 -0.14224158853E+04  0.49044314871E+02 -0.13478828988E+03  0.15504423393E+04  0.60002605688E+03 0.  0.
        -24    2    4    4    0    0 -0.11096661000E+04 -0.44463700302E+02  0.13241008723E+03  0.11213133350E+04  0.80469186395E+02 0.  0.
         24    2    4    4    0    0 -0.31274978524E+03  0.93508015172E+02 -0.26719837711E+03  0.42912900425E+03  0.78743587006E+02 0.  0.
         11    1    5    5    0    0 -0.64773886673E+03 -0.43654345573E+02  0.11306649315E+03  0.65898055603E+03  0.00000000000E+00 0. -1.
        -12    1    5    5    0    0 -0.46192723329E+03 -0.80935472863E+00  0.19343594087E+02  0.46233277900E+03  0.00000000000E+00 0.  1.
         15    1    3    3    0    0  0.88263786429E+03 -0.56173390588E+02  0.97056410249E+03  0.13130890617E+04  0.17770000000E+01 0. -1.
        -16    1    3    3    0    0  0.53977802096E+03  0.71290757174E+01  0.52407804188E+03  0.75237552433E+03  0.00000000000E+00 0.  1.
          2    1    6    6  502    0 -0.14528836575E+03  0.52483773323E+02 -0.17566024254E+03  0.23392258654E+03  0.00000000000E+00 0. -1.
         -1    1    6    6    0  502 -0.16746141949E+03  0.41024241850E+02 -0.91538134571E+02  0.19520641772E+03  0.00000000000E+00 0.  1.
<mgrwt>
<rscale>  0 0.14311386E+04</rscale>
<asrwt>0</asrwt>
<pdfrwt beam="1">  1        1 0.17354254E+00 0.14311386E+04</pdfrwt>
<pdfrwt beam="2">  1       -2 0.38275083E+00 0.14311386E+04</pdfrwt>
<totfact> 0.97377293E-02</totfact>
</mgrwt>
</event>
<event>
12    3  0.1092576E-007  0.1242410E+04  0.7818608E-02  0.9076524E-01
          1   -1    0    0  501    0  0.00000000000E+00  0.00000000000E+00  0.16404586157E+04  0.16404586157E+04  0.00000000000E+00 0. -1.
         -2   -1    0    0    0  501 -0.00000000000E+00 -0.00000000000E+00 -0.14111663678E+04  0.14111663678E+04  0.00000000000E+00 0.  1.
        -24    2    1    2    0    0 -0.67915866647E+03 -0.95445123731E+03  0.98635239003E+03  0.15332873268E+04  0.76454760940E+02 0.  0.
    5000000    2    1    2    0    0  0.67915866647E+03  0.95445123731E+03 -0.75706014212E+03  0.15183376568E+04  0.59997960180E+03 0.  0.
        -24    2    4    4    0    0 -0.24999127403E+02  0.41998653411E+03 -0.25956958005E+03  0.50073336710E+03  0.79648558267E+02 0.  0.
         24    2    4    4    0    0  0.70415779388E+03  0.53446470320E+03 -0.49749056207E+03  0.10176042897E+04  0.80814066824E+02 0.  0.
         13    1    5    5    0    0  0.55530447640E+01  0.30775877359E+03 -0.21811848078E+03  0.37725584248E+03  0.00000000000E+00 0. -1.
        -14    1    5    5    0    0 -0.30552172167E+02  0.11222776052E+03 -0.41451099273E+02  0.12347752462E+03  0.00000000000E+00 0.  1.
         15    1    3    3    0    0 -0.19097121909E+03 -0.32365484457E+03  0.33638142827E+03  0.50435908631E+03  0.17770000000E+01 0. -1.
        -16    1    3    3    0    0 -0.48818744739E+03 -0.63079639274E+03  0.64997096176E+03  0.10289282405E+04  0.00000000000E+00 0.  1.
          2    1    6    6  502    0  0.17482184484E+03  0.93161872085E+02 -0.12467693902E+03  0.23406441627E+03  0.00000000000E+00 0. -1.
         -1    1    6    6    0  502  0.52933594904E+03  0.44130283111E+03 -0.37281362306E+03  0.78353987342E+03  0.00000000000E+00 0.  1.
<mgrwt>
<rscale>  0 0.12424098E+04</rscale>
<asrwt>0</asrwt>
<pdfrwt beam="1">  1        1 0.25237825E+00 0.12424098E+04</pdfrwt>
<pdfrwt beam="2">  1       -2 0.21710252E+00 0.12424098E+04</pdfrwt>
<totfact> 0.45881905E-01</totfact>
</mgrwt>
</event>
<event>
12    3  0.1092576E-007  0.5712632E+03  0.7818608E-02  0.9966887E-01
          1   -1    0    0  501    0  0.00000000000E+00  0.00000000000E+00  0.19437832168E+04  0.19437832168E+04  0.00000000000E+00 0. -1.
         -2   -1    0    0    0  501 -0.00000000000E+00 -0.00000000000E+00 -0.33455146298E+03  0.33455146298E+03  0.00000000000E+00 0.  1.
        -24    2    1    2    0    0  0.18886964152E+03 -0.50588933386E+03  0.13073233023E+04  0.14164916755E+04  0.75886036008E+02 0.  0.
    5000000    2    1    2    0    0 -0.18886964152E+03  0.50588933386E+03  0.30190845152E+03  0.86184300427E+03  0.60002407561E+03 0.  0.
        -24    2    4    4    0    0 -0.85885541690E+02  0.49209478153E+02 -0.15585590140E+03  0.20223912655E+03  0.82533043654E+02 0.  0.
         24    2    4    4    0    0 -0.10298409983E+03  0.45667985571E+03  0.45776435292E+03  0.65960387772E+03  0.79792589073E+02 0.  0.
         13    1    5    5    0    0  0.93782775433E+01 -0.11942686328E+02 -0.24611732719E+02  0.28919149950E+02  0.00000000000E+00 0. -1.
        -14    1    5    5    0    0 -0.95263819233E+02  0.61152164481E+02 -0.13124416868E+03  0.17331997660E+03  0.00000000000E+00 0.  1.
         15    1    3    3    0    0  0.68391727276E+02 -0.29077423911E+03  0.70845938751E+03  0.76885951121E+03  0.17770000000E+01 0. -1.
        -16    1    3    3    0    0  0.12047791425E+03 -0.21511509476E+03  0.59886391476E+03  0.64763216429E+03  0.00000000000E+00 0.  1.
          2    1    6    6  502    0 -0.11205470856E+02  0.22994624381E+02  0.55041359553E+02  0.60694864602E+02  0.00000000000E+00 0. -1.
         -3    1    6    6    0  502 -0.91778628978E+02  0.43368523133E+03  0.40272299337E+03  0.59890901312E+03  0.00000000000E+00 0.  1.
<mgrwt>
<rscale>  0 0.57126324E+03</rscale>
<asrwt>0</asrwt>
<pdfrwt beam="1">  1        1 0.29904356E+00 0.57126324E+03</pdfrwt>
<pdfrwt beam="2">  1       -2 0.51469457E-01 0.57126324E+03</pdfrwt>
<totfact> 0.10916656E+01</totfact>
</mgrwt>
</event>
<event>
12    3  0.1092576E-007  0.5147076E+03  0.7818608E-02  0.1010010E+00
          1   -1    0    0  501    0  0.00000000000E+00  0.00000000000E+00  0.34976567342E+03  0.34976567342E+03  0.00000000000E+00 0. -1.
         -2   -1    0    0    0  501 -0.00000000000E+00 -0.00000000000E+00 -0.11851514383E+04  0.11851514383E+04  0.00000000000E+00 0.  1.
        -24    2    1    2    0    0 -0.20959439173E+03  0.44166551927E+03 -0.45870234811E+03  0.67415286296E+03  0.71246042109E+02 0.  0.
    5000000    2    1    2    0    0  0.20959439173E+03 -0.44166551927E+03 -0.37668341676E+03  0.86076424876E+03  0.60002204586E+03 0.  0.
        -24    2    4    4    0    0  0.23235920683E+03 -0.31354837731E+03 -0.51749025594E+03  0.65314573592E+03  0.80621346052E+02 0.  0.
         24    2    4    4    0    0 -0.22764815103E+02 -0.12811714195E+03  0.14080683919E+03  0.20761851284E+03  0.79665814757E+02 0.  0.
         11    1    5    5    0    0  0.16889421101E+03 -0.16230020918E+03 -0.31548729105E+03  0.39293618213E+03  0.00000000000E+00 0. -1.
        -12    1    5    5    0    0  0.63464995820E+02 -0.15124816813E+03 -0.20200296490E+03  0.26020955379E+03  0.00000000000E+00 0.  1.
         15    1    3    3    0    0 -0.11492113067E+03  0.26793601760E+03 -0.31769605249E+03  0.43119660864E+03  0.17770000000E+01 0. -1.
        -16    1    3    3    0    0 -0.94673261061E+02  0.17372950167E+03 -0.14100629562E+03  0.24295625432E+03  0.00000000000E+00 0.  1.
          2    1    6    6  502    0  0.18189291938E+02 -0.25973462316E+02  0.69761629272E+02  0.76629994157E+02  0.00000000000E+00 0. -1.
         -1    1    6    6    0  502 -0.40954107041E+02 -0.10214367964E+03  0.71045209916E+02  0.13098851868E+03  0.00000000000E+00 0.  1.
<mgrwt>
<rscale>  0 0.51470763E+03</rscale>
<asrwt>0</asrwt>
<pdfrwt beam="1">  1        1 0.53810104E-01 0.51470763E+03</pdfrwt>
<pdfrwt beam="2">  1       -2 0.18233099E+00 0.51470763E+03</pdfrwt>
<totfact> 0.11480286E+01</totfact>
</mgrwt>
</event>
<event>
12    3  0.1092576E-007  0.2110002E+04  0.7818608E-02  0.8556850E-01
         -2   -1    0    0    0  501 -0.00000000000E+00  0.00000000000E+00  0.20042185028E+04  0.20042185028E+04  0.00000000000E+00 0.  1.
          1   -1    0    0  501    0  0.00000000000E+00 -0.00000000000E+00 -0.22368765901E+04  0.22368765901E+04  0.00000000000E+00 0. -1.
        -24    2    1    2    0    0 -0.13004585418E+04 -0.16150932693E+04 -0.10701379781E+03  0.20787920038E+04  0.10102254426E+03 0.  0.
    5000000    2    1    2    0    0  0.13004585418E+04  0.16150932693E+04 -0.12564428943E+03  0.21623030891E+04  0.60004122717E+03 0.  0.
        -24    2    4    4    0    0  0.11760707247E+04  0.10970684927E+04 -0.64755491621E+01  0.16103265452E+04  0.80050123188E+02 0.  0.
         24    2    4    4    0    0  0.12438781705E+03  0.51802477664E+03 -0.11916874027E+03  0.55197654394E+03  0.81577681703E+02 0.  0.
         11    1    5    5    0    0  0.83680319947E+02  0.92751895613E+02  0.18063785639E+02  0.12622048343E+03  0.00000000000E+00 0. -1.
        -12    1    5    5    0    0  0.10923904048E+04  0.10043165971E+04 -0.24539334801E+02  0.14841060618E+04  0.00000000000E+00 0.  1.
         15    1    3    3    0    0 -0.40928090830E+03 -0.43582582329E+03 -0.25991069950E+02  0.59844273210E+03  0.17770000000E+01 0. -1.
        -16    1    3    3    0    0 -0.89117763349E+03 -0.11792674460E+04 -0.81022727860E+02  0.14803492717E+04  0.00000000000E+00 0.  1.
          4    1    6    6  502    0  0.25634489563E+02  0.43595742561E+02 -0.31301894230E+02  0.59477091447E+02  0.00000000000E+00 0. -1.
         -3    1    6    6    0  502  0.98753327490E+02  0.47442903408E+03 -0.87866846042E+02  0.49249945249E+03  0.00000000000E+00 0.  1.
<mgrwt>
<rscale>  0 0.21100023E+04</rscale>
<asrwt>0</asrwt>
<pdfrwt beam="1">  1        1 0.34413486E+00 0.21100023E+04</pdfrwt>
<pdfrwt beam="2">  1       -2 0.30834131E+00 0.21100023E+04</pdfrwt>
<totfact> 0.44768017E-02</totfact>
</mgrwt>
</event>
<event>
12    3  0.1092576E-007  0.1045513E+04  0.7818608E-02  0.9259989E-01
         -2   -1    0    0    0  501 -0.00000000000E+00  0.00000000000E+00  0.91828131702E+03  0.91828131702E+03  0.00000000000E+00 0.  1.
          1   -1    0    0  501    0  0.00000000000E+00 -0.00000000000E+00 -0.12832978424E+04  0.12832978424E+04  0.00000000000E+00 0. -1.
        -24    2    1    2    0    0  0.89192282592E+03  0.43327639086E+03 -0.30772533561E+03  0.10411764706E+04  0.78094829919E+02 0.  0.
    5000000    2    1    2    0    0 -0.89192282592E+03 -0.43327639086E+03 -0.57291189819E+02  0.11604026889E+04  0.59999780137E+03 0.  0.
        -24    2    4    4    0    0 -0.24400544922E+03 -0.36997022800E+03 -0.19426401760E+03  0.49042526011E+03  0.79760882425E+02 0.  0.
         24    2    4    4    0    0 -0.64791737670E+03 -0.63306162858E+02  0.13697282778E+03  0.66997742876E+03  0.79395227916E+02 0.  0.
         13    1    5    5    0    0 -0.16066181909E+03 -0.19446852159E+03 -0.78117304234E+02  0.26406919400E+03  0.00000000000E+00 0. -1.
        -14    1    5    5    0    0 -0.83343630132E+02 -0.17550170641E+03 -0.11614671337E+03  0.22635606611E+03  0.00000000000E+00 0.  1.
         15    1    3    3    0    0  0.56074704406E+03  0.25207351599E+03 -0.15572802518E+03  0.63421816470E+03  0.17770000000E+01 0. -1.
        -16    1    3    3    0    0  0.33117578187E+03  0.18120287486E+03 -0.15199731043E+03  0.40695830589E+03  0.00000000000E+00 0.  1.
          2    1    6    6  502    0 -0.51551601939E+03 -0.66188353330E+02  0.80242733304E+02  0.52590546737E+03  0.00000000000E+00 0. -1.
         -1    1    6    6    0  502 -0.13240135732E+03  0.28821904714E+01  0.56730094480E+02  0.14407196140E+03  0.00000000000E+00 0.  1.
<mgrwt>
<rscale>  0 0.10455130E+04</rscale>
<asrwt>0</asrwt>
<pdfrwt beam="1">  1        1 0.19743044E+00 0.10455130E+04</pdfrwt>
<pdfrwt beam="2">  1       -2 0.14127405E+00 0.10455130E+04</pdfrwt>
<totfact> 0.28378496E+00</totfact>
</mgrwt>
</event>
<event>
12    3  0.1092576E-007  0.6907886E+03  0.7818608E-02  0.9733116E-01
          1   -1    0    0  501    0  0.00000000000E+00  0.00000000000E+00  0.63640907360E+03  0.63640907360E+03  0.00000000000E+00 0. -1.
         -2   -1    0    0    0  501 -0.00000000000E+00 -0.00000000000E+00 -0.88437117496E+03  0.88437117496E+03  0.00000000000E+00 0.  1.
        -24    2    1    2    0    0  0.61747488077E+03 -0.49236168200E+02 -0.20665952441E+03  0.65743799489E+03  0.76270108510E+02 0.  0.
    5000000    2    1    2    0    0 -0.61747488077E+03  0.49236168200E+02 -0.41302576950E+02  0.86334225367E+03  0.59996209503E+03 0.  0.
        -24    2    4    4    0    0 -0.42562100175E+03  0.22494508805E+03 -0.22167773804E+03  0.53696210694E+03  0.86219226263E+02 0.  0.
         24    2    4    4    0    0 -0.19185387902E+03 -0.17570891985E+03  0.18037516109E+03  0.32638014673E+03  0.79418297853E+02 0.  0.
         11    1    5    5    0    0 -0.20208760698E+03  0.58631144683E+02 -0.98309469656E+02  0.23225366272E+03  0.00000000000E+00 0. -1.
        -12    1    5    5    0    0 -0.22353339477E+03  0.16631394337E+03 -0.12336826838E+03  0.30470844422E+03  0.00000000000E+00 0.  1.
         15    1    3    3    0    0  0.38372226650E+03 -0.10889605676E-01 -0.10504853859E+03  0.39784561216E+03  0.17770000000E+01 0. -1.
        -16    1    3    3    0    0  0.23375261426E+03 -0.49225278594E+02 -0.10161098582E+03  0.25959238272E+03  0.00000000000E+00 0.  1.
          2    1    6    6  502    0 -0.15506323950E+03 -0.96610089620E+02  0.10275491237E+03  0.20961080525E+03  0.00000000000E+00 0. -1.
         -1    1    6    6    0  502 -0.36790639523E+02 -0.79098830234E+02  0.77620248716E+02  0.11676934149E+03  0.00000000000E+00 0.  1.
<mgrwt>
<rscale>  0 0.69078858E+03</rscale>
<asrwt>0</asrwt>
<pdfrwt beam="1">  1        1 0.97909088E-01 0.69078858E+03</pdfrwt>
<pdfrwt beam="2">  1       -2 0.13605710E+00 0.69078858E+03</pdfrwt>
<totfact> 0.10926297E+01</totfact>
</mgrwt>
</event>
<event>
12    3  0.1408142E-007  0.9554113E+03  0.7818608E-02  0.9358848E-01
          1   -1    0    0  501    0  0.00000000000E+00  0.00000000000E+00  0.14351597681E+04  0.14351597681E+04  0.00000000000E+00 0. -1.
         -2   -1    0    0    0  501 -0.00000000000E+00 -0.00000000000E+00 -0.84788149397E+03  0.84788149397E+03  0.00000000000E+00 0.  1.
        -24    2    1    2    0    0  0.35224777765E+03  0.86167380139E+03 -0.15866334226E+03  0.94774992174E+03  0.80595416258E+02 0.  0.
    5000000    2    1    2    0    0 -0.35224777765E+03 -0.86167380139E+03  0.74594161640E+03  0.13352913403E+04  0.60001152624E+03 0.  0.
        -24    2    4    4    0    0  0.29243180862E+02 -0.18611266114E+03 -0.60239675262E+02  0.21360800995E+03  0.80662737232E+02 0.  0.
         24    2    4    4    0    0 -0.38149095851E+03 -0.67556114025E+03  0.80618129166E+03  0.11216833304E+04  0.79542523062E+02 0.  0.
         13    1    5    5    0    0 -0.10439194270E+02 -0.14427581345E+03 -0.58161006501E+02  0.15590763228E+03  0.00000000000E+00 0. -1.
        -14    1    5    5    0    0  0.39682375133E+02 -0.41836847684E+02 -0.20786687615E+01  0.57700377678E+02  0.00000000000E+00 0.  1.
         15    1    3    3    0    0  0.23352838096E+03  0.49676577630E+03 -0.12160561966E+03  0.56223022480E+03  0.17770000000E+01 0. -1.
        -16    1    3    3    0    0  0.11871939669E+03  0.36490802509E+03 -0.37057722602E+02  0.38551969694E+03  0.00000000000E+00 0.  1.
          2    1    6    6  502    0 -0.25253466829E+03 -0.44228255785E+03  0.47365727184E+03  0.69551335777E+03  0.00000000000E+00 0. -1.
         -1    1    6    6    0  502 -0.12895629022E+03 -0.23327858241E+03  0.33252401982E+03  0.42616997261E+03  0.00000000000E+00 0.  1.
<mgrwt>
<rscale>  0 0.95541128E+03</rscale>
<asrwt>0</asrwt>
<pdfrwt beam="1">  1        1 0.22079381E+00 0.95541128E+03</pdfrwt>
<pdfrwt beam="2">  1       -2 0.13044331E+00 0.95541128E+03</pdfrwt>
<totfact> 0.27520370E+00</totfact>
</mgrwt>
</event>
<event>
12    3  0.1092576E-007  0.1139735E+04  0.7818608E-02  0.9167306E-01
          1   -1    0    0  501    0  0.00000000000E+00  0.00000000000E+00  0.11265134686E+04  0.11265134686E+04  0.00000000000E+00 0. -1.
         -2   -1    0    0    0  501 -0.00000000000E+00 -0.00000000000E+00 -0.12883423403E+04  0.12883423403E+04  0.00000000000E+00 0.  1.
        -24    2    1    2    0    0 -0.60642332077E+03 -0.93648574236E+03  0.93955691798E+02  0.11225574851E+04  0.80949649788E+02 0.  0.
    5000000    2    1    2    0    0  0.60642332077E+03  0.93648574236E+03 -0.25578456349E+03  0.12922983238E+04  0.59987867528E+03 0.  0.
        -24    2    4    4    0    0  0.17573003561E+03  0.53621519934E+03 -0.37970386111E+03  0.68597841336E+03  0.89350859152E+02 0.  0.
         24    2    4    4    0    0  0.43069328516E+03  0.40027054302E+03  0.12391929762E+03  0.60631991040E+03  0.80960656743E+02 0.  0.
         11    1    5    5    0    0  0.85952671474E+02  0.16433020743E+03 -0.90241237165E+02  0.20624199304E+03  0.00000000000E+00 0. -1.
        -12    1    5    5    0    0  0.89777364137E+02  0.37188499192E+03 -0.28946262394E+03  0.47973642032E+03  0.00000000000E+00 0.  1.
         15    1    3    3    0    0 -0.28798482512E+03 -0.51733893290E+03  0.58334780052E+02  0.59496296967E+03  0.17770000000E+01 0. -1.
        -16    1    3    3    0    0 -0.31843849565E+03 -0.41914680947E+03  0.35620911746E+02  0.52759451547E+03  0.00000000000E+00 0.  1.
          2    1    6    6  502    0  0.38836841419E+00  0.16144287488E+02 -0.82646714539E+00  0.16170092655E+02  0.00000000000E+00 0. -1.
         -1    1    6    6    0  502  0.43030491675E+03  0.38412625553E+03  0.12474576476E+03  0.59014981775E+03  0.00000000000E+00 0.  1.
<mgrwt>
<rscale>  0 0.11397352E+04</rscale>
<asrwt>0</asrwt>
<pdfrwt beam="1">  1        1 0.17330976E+00 0.11397352E+04</pdfrwt>
<pdfrwt beam="2">  1       -2 0.19820651E+00 0.11397352E+04</pdfrwt>
<totfact> 0.14236324E+00</totfact>
</mgrwt>
</event>
<event>
12    3  0.1092576E-007  0.5404173E+03  0.7818608E-02  0.1003737E+00
         -2   -1    0    0    0  501 -0.00000000000E+00  0.00000000000E+00  0.69541482729E+03  0.69541482729E+03  0.00000000000E+00 0.  1.
          1   -1    0    0  501    0  0.00000000000E+00 -0.00000000000E+00 -0.97929036669E+03  0.97929036669E+03  0.00000000000E+00 0. -1.
        -24    2    1    2    0    0 -0.17469048299E+03  0.35139372346E+03  0.48129091143E+03  0.62616383900E+03  0.80286350743E+02 0.  0.
    5000000    2    1    2    0    0  0.17469048299E+03 -0.35139372346E+03 -0.76516645082E+03  0.10485413550E+04  0.59997080087E+03 0.  0.
        -24    2    4    4    0    0  0.34834077295E+03 -0.36333829556E+03 -0.45142332400E+03  0.68086198786E+03  0.80212330380E+02 0.  0.
         24    2    4    4    0    0 -0.17365028996E+03  0.11944572101E+02 -0.31374312682E+03  0.36767936711E+03  0.80350926355E+02 0.  0.
         11    1    5    5    0    0  0.24752276173E+03 -0.24649393887E+03 -0.35933913786E+03  0.50115007281E+03  0.00000000000E+00 0. -1.
        -12    1    5    5    0    0  0.10081801122E+03 -0.11684435669E+03 -0.92084186138E+02  0.17971191506E+03  0.00000000000E+00 0.  1.
         15    1    3    3    0    0 -0.11217249764E+03  0.14350146536E+03  0.19450855779E+03  0.26648091221E+03  0.17770000000E+01 0. -1.
        -16    1    3    3    0    0 -0.62517985348E+02  0.20789225810E+03  0.28678235364E+03  0.35968292680E+03  0.00000000000E+00 0.  1.
          4    1    6    6  502    0 -0.74506205744E+02 -0.13190494678E+02 -0.20440077704E+03  0.21795605406E+03  0.00000000000E+00 0. -1.
         -3    1    6    6    0  502 -0.99144084218E+02  0.25135066779E+02 -0.10934234978E+03  0.14972331306E+03  0.00000000000E+00 0.  1.
<mgrwt>
<rscale>  0 0.54041734E+03</rscale>
<asrwt>0</asrwt>
<pdfrwt beam="1">  1        1 0.15066005E+00 0.54041734E+03</pdfrwt>
<pdfrwt beam="2">  1       -2 0.10698690E+00 0.54041734E+03</pdfrwt>
<totfact> 0.10201387E+01</totfact>
</mgrwt>
</event>
<event>
12    3  0.1092576E-007  0.6518281E+03  0.7818608E-02  0.9803355E-01
         -2   -1    0    0    0  501 -0.00000000000E+00  0.00000000000E+00  0.25085792198E+03  0.25085792198E+03  0.00000000000E+00 0.  1.
          1   -1    0    0  501    0  0.00000000000E+00 -0.00000000000E+00 -0.18670935269E+04  0.18670935269E+04  0.00000000000E+00 0. -1.
        -24    2    1    2    0    0  0.76386307828E+02 -0.52771041269E+03 -0.45084903469E+03  0.70284593493E+03  0.80090002333E+02 0.  0.
    5000000    2    1    2    0    0 -0.76386307828E+02  0.52771041269E+03 -0.11653865702E+04  0.14151055140E+04  0.60007050411E+03 0.  0.
        -24    2    4    4    0    0  0.82951576726E+02  0.58014686952E+03 -0.70678388680E+03  0.92149815857E+03  0.78511396083E+02 0.  0.
         24    2    4    4    0    0 -0.15933788455E+03 -0.52436456824E+02 -0.45860268345E+03  0.49360735541E+03  0.72067028477E+02 0.  0.
         13    1    5    5    0    0  0.26077741476E+02  0.37586479171E+03 -0.41107977389E+03  0.55762081269E+03  0.00000000000E+00 0. -1.
        -14    1    5    5    0    0  0.56873835250E+02  0.20428207780E+03 -0.29570411291E+03  0.36387734588E+03  0.00000000000E+00 0.  1.
         15    1    3    3    0    0  0.73233537819E+02 -0.24239477686E+03 -0.22905186446E+03  0.34144735063E+03  0.17770000000E+01 0. -1.
        -16    1    3    3    0    0  0.31527700089E+01 -0.28531563583E+03 -0.22179717023E+03  0.36139858430E+03  0.00000000000E+00 0.  1.
          4    1    6    6  502    0 -0.11119845452E+03 -0.61832037735E+02 -0.38214991965E+03  0.40277395430E+03  0.00000000000E+00 0. -1.
         -3    1    6    6    0  502 -0.48139430031E+02  0.93955809108E+01 -0.76452763803E+02  0.90833401111E+02  0.00000000000E+00 0.  1.
<mgrwt>
<rscale>  0 0.65182806E+03</rscale>
<asrwt>0</asrwt>
<pdfrwt beam="1">  1        1 0.28724516E+00 0.65182806E+03</pdfrwt>
<pdfrwt beam="2">  1       -2 0.38593527E-01 0.65182806E+03</pdfrwt>
<totfact> 0.21444247E+01</totfact>
</mgrwt>
</event>
<event>
12    3  0.1092576E-007  0.1142091E+04  0.7818608E-02  0.9165111E-01
          1   -1    0    0  501    0  0.00000000000E+00  0.00000000000E+00  0.84661728489E+03  0.84661728489E+03  0.00000000000E+00 0. -1.
         -2   -1    0    0    0  501 -0.00000000000E+00 -0.00000000000E+00 -0.16181965730E+04  0.16181965730E+04  0.00000000000E+00 0.  1.
        -24    2    1    2    0    0  0.47425011162E+03 -0.98261499105E+03 -0.31396376839E+03  0.11382496158E+04  0.81200683328E+02 0.  0.
    5000000    2    1    2    0    0 -0.47425011162E+03  0.98261499105E+03 -0.45761551975E+03  0.13265642421E+04  0.59992944214E+03 0.  0.
        -24    2    4    4    0    0  0.22851388954E+02  0.45717447019E+03 -0.36633509098E+03  0.59142326274E+03  0.77777854558E+02 0.  0.
         24    2    4    4    0    0 -0.49710150058E+03  0.52544052086E+03 -0.91280428771E+02  0.73514097938E+03  0.94353060621E+02 0.  0.
         11    1    5    5    0    0  0.48486897780E+02  0.37728708717E+03 -0.29822295571E+03  0.48335644892E+03  0.00000000000E+00 0. -1.
        -12    1    5    5    0    0 -0.25635508826E+02  0.79887383023E+02 -0.68112135269E+02  0.10806681382E+03  0.00000000000E+00 0.  1.
         15    1    3    3    0    0  0.17339903044E+03 -0.42715503352E+03 -0.16074013428E+03  0.48823067798E+03  0.17770000000E+01 0. -1.
        -16    1    3    3    0    0  0.30085108118E+03 -0.55545995753E+03 -0.15322363411E+03  0.65001893782E+03  0.00000000000E+00 0.  1.
          4    1    6    6  502    0 -0.42125417062E+03  0.48052231846E+03 -0.60990900652E+02  0.64193197830E+03  0.00000000000E+00 0. -1.
         -3    1    6    6    0  502 -0.75847329956E+02  0.44918202401E+02 -0.30289528118E+02  0.93209001079E+02  0.00000000000E+00 0.  1.
<mgrwt>
<rscale>  0 0.11420907E+04</rscale>
<asrwt>0</asrwt>
<pdfrwt beam="1">  1        1 0.13024881E+00 0.11420907E+04</pdfrwt>
<pdfrwt beam="2">  1       -2 0.24895332E+00 0.11420907E+04</pdfrwt>
<totfact> 0.11347693E+00</totfact>
</mgrwt>
</event>
<event>
12    3  0.1092576E-007  0.7251537E+03  0.7818608E-02  0.9675157E-01
         -2   -1    0    0    0  501 -0.00000000000E+00  0.00000000000E+00  0.21388246302E+03  0.21388246302E+03  0.00000000000E+00 0.  1.
          1   -1    0    0  501    0  0.00000000000E+00 -0.00000000000E+00 -0.36360794162E+04  0.36360794162E+04  0.00000000000E+00 0. -1.
        -24    2    1    2    0    0  0.44246830358E+03  0.42709805719E+03 -0.25550707132E+04  0.26293199992E+04  0.82136218153E+02 0.  0.
    5000000    2    1    2    0    0 -0.44246830358E+03 -0.42709805719E+03 -0.86712623997E+03  0.12206418801E+04  0.59988976751E+03 0.  0.
        -24    2    4    4    0    0 -0.56940249949E+03 -0.35315555524E+03 -0.57110873307E+03  0.88415638637E+03  0.81420378020E+02 0.  0.
         24    2    4    4    0    0  0.12693419591E+03 -0.73942501955E+02 -0.29601750690E+03  0.33648549368E+03  0.63374595690E+02 0.  0.
         13    1    5    5    0    0 -0.22069406176E+03 -0.11530201290E+03 -0.16713793848E+03  0.29989250334E+03  0.00000000000E+00 0. -1.
        -14    1    5    5    0    0 -0.34870843773E+03 -0.23785354234E+03 -0.40397079459E+03  0.58426388304E+03  0.00000000000E+00 0.  1.
         15    1    3    3    0    0  0.25418229558E+03  0.29434473619E+03 -0.15262334897E+04  0.15750045352E+04  0.17770000000E+01 0. -1.
        -16    1    3    3    0    0  0.18828600801E+03  0.13275332101E+03 -0.10288372235E+04  0.10543154640E+04  0.00000000000E+00 0.  1.
          4    1    6    6  502    0  0.20699383408E+02  0.11413364022E+02 -0.47466646277E+02  0.53026520351E+02  0.00000000000E+00 0. -1.
         -3    1    6    6    0  502  0.10623481250E+03 -0.85355865977E+02 -0.24855086063E+03  0.28345897333E+03  0.00000000000E+00 0.  1.
<mgrwt>
<rscale>  0 0.72515367E+03</rscale>
<asrwt>0</asrwt>
<pdfrwt beam="1">  1        1 0.55939676E+00 0.72515367E+03</pdfrwt>
<pdfrwt beam="2">  1       -2 0.32904998E-01 0.72515367E+03</pdfrwt>
<totfact> 0.16104033E+00</totfact>
</mgrwt>
</event>
<event>
12    3  0.1866750E-007  0.1445209E+04  0.7818608E-02  0.8921729E-01
         -2   -1    0    0    0  501 -0.00000000000E+00  0.00000000000E+00  0.12732921328E+04  0.12732921328E+04  0.00000000000E+00 0.  1.
          1   -1    0    0  501    0  0.00000000000E+00 -0.00000000000E+00 -0.16859647676E+04  0.16859647676E+04  0.00000000000E+00 0. -1.
        -24    2    1    2    0    0 -0.13975806051E+04  0.42799942421E+02 -0.30906418252E+03  0.14342282799E+04  0.80166745018E+02 0.  0.
    5000000    2    1    2    0    0  0.13975806051E+04 -0.42799942421E+02 -0.10360845229E+03  0.15250286205E+04  0.59992849493E+03 0.  0.
        -24    2    4    4    0    0  0.99044028450E+03  0.20810207809E+03 -0.18925426063E+03  0.10325372936E+04  0.77702351931E+02 0.  0.
         24    2    4    4    0    0  0.40714032061E+03 -0.25090202051E+03  0.85645808342E+02  0.49249132685E+03  0.80606686883E+02 0.  0.
         11    1    5    5    0    0  0.61548225057E+03  0.14756098477E+03 -0.84481659892E+02  0.63853723138E+03  0.00000000000E+00 0. -1.
        -12    1    5    5    0    0  0.37495803393E+03  0.60541093324E+02 -0.10477260074E+03  0.39400006225E+03  0.00000000000E+00 0.  1.
         15    1    3    3    0    0 -0.72206643797E+03 -0.64183892133E+01 -0.18825790187E+03  0.74623409994E+03  0.17770000000E+01 0. -1.
        -16    1    3    3    0    0 -0.67551416714E+03  0.49218331634E+02 -0.12080628065E+03  0.68799417993E+03  0.00000000000E+00 0.  1.
          2    1    6    6  502    0  0.31107532421E+03 -0.19462776959E+03  0.99768395362E+02  0.38026511639E+03  0.00000000000E+00 0. -1.
         -1    1    6    6    0  502  0.96064996399E+02 -0.56274250926E+02 -0.14122587021E+02  0.11222621046E+03  0.00000000000E+00 0.  1.
<mgrwt>
<rscale>  0 0.14452090E+04</rscale>
<asrwt>0</asrwt>
<pdfrwt beam="1">  1        1 0.25937919E+00 0.14452090E+04</pdfrwt>
<pdfrwt beam="2">  1       -2 0.19589110E+00 0.14452090E+04</pdfrwt>
<totfact> 0.57367715E-01</totfact>
</mgrwt>
</event>
<event>
12    3  0.1092576E-007  0.1469877E+04  0.7818608E-02  0.8904735E-01
         -2   -1    0    0    0  501 -0.00000000000E+00  0.00000000000E+00  0.16813140184E+04  0.16813140184E+04  0.00000000000E+00 0.  1.
          1   -1    0    0  501    0  0.00000000000E+00 -0.00000000000E+00 -0.15890584956E+04  0.15890584956E+04  0.00000000000E+00 0. -1.
        -24    2    1    2    0    0 -0.10478584961E+04  0.10066390511E+04  0.66119482988E+03  0.15983815492E+04  0.79469281653E+02 0.  0.
    5000000    2    1    2    0    0  0.10478584961E+04 -0.10066390511E+04 -0.56893930704E+03  0.16719909648E+04  0.60044337290E+03 0.  0.
        -24    2    4    4    0    0  0.12205588051E+03 -0.28704481573E+03 -0.35133994183E+03  0.47670237765E+03  0.80703394775E+02 0.  0.
         24    2    4    4    0    0  0.92580261557E+03 -0.71959423541E+03 -0.21759936520E+03  0.11952885871E+04  0.80243230882E+02 0.  0.
         13    1    5    5    0    0  0.11655640063E+03 -0.24613533670E+03 -0.33636479792E+03  0.43279241650E+03  0.00000000000E+00 0. -1.
        -14    1    5    5    0    0  0.54994798770E+01 -0.40909479022E+02 -0.14975143914E+02  0.43909961148E+02  0.00000000000E+00 0.  1.
         15    1    3    3    0    0 -0.36041118205E+03  0.36653048796E+03  0.27259077301E+03  0.58185024363E+03  0.17770000000E+01 0. -1.
        -16    1    3    3    0    0 -0.68744731404E+03  0.64010856318E+03  0.38860405687E+03  0.10165313056E+04  0.00000000000E+00 0.  1.
          4    1    6    6  502    0  0.84428561211E+03 -0.66384002454E+03 -0.17695517959E+03  0.10884920342E+04  0.00000000000E+00 0. -1.
         -3    1    6    6    0  502  0.81517003459E+02 -0.55754210879E+02 -0.40644185611E+02  0.10679655288E+03  0.00000000000E+00 0.  1.
<mgrwt>
<rscale>  0 0.14698773E+04</rscale>
<asrwt>0</asrwt>
<pdfrwt beam="1">  1        1 0.24447054E+00 0.14698773E+04</pdfrwt>
<pdfrwt beam="2">  1       -2 0.25866369E+00 0.14698773E+04</pdfrwt>
<totfact> 0.26741979E-01</totfact>
</mgrwt>
</event>
<event>
12    3  0.1092576E-007  0.4569684E+03  0.7818608E-02  0.1025664E+00
         -2   -1    0    0    0  501 -0.00000000000E+00  0.00000000000E+00  0.28847347064E+03  0.28847347064E+03  0.00000000000E+00 0.  1.
          1   -1    0    0  501    0  0.00000000000E+00 -0.00000000000E+00 -0.77714357074E+03  0.77714357074E+03  0.00000000000E+00 0. -1.
        -24    2    1    2    0    0 -0.12659978820E+03 -0.24144735852E+03 -0.19260850798E+03  0.34319683063E+03  0.79760227553E+02 0.  0.
    5000000    2    1    2    0    0  0.12659978820E+03  0.24144735852E+03 -0.29606159212E+03  0.72242021076E+03  0.59992846347E+03 0.  0.
        -24    2    4    4    0    0  0.33531556441E+03  0.30327584076E+02 -0.19604749339E+03  0.39760530534E+03  0.79366674878E+02 0.  0.
         24    2    4    4    0    0 -0.20871577620E+03  0.21111977444E+03 -0.10001409873E+03  0.32481490542E+03  0.85837453610E+02 0.  0.
         11    1    5    5    0    0  0.31510138256E+03  0.31009930299E+02 -0.15650779527E+03  0.35319284682E+03  0.00000000000E+00 0. -1.
        -12    1    5    5    0    0  0.20214181849E+02 -0.68234622289E+00 -0.39539698118E+02  0.44412458516E+02  0.00000000000E+00 0.  1.
         15    1    3    3    0    0 -0.12614952937E+01 -0.54104816347E+02 -0.63435468415E+02  0.83403470578E+02  0.17770000000E+01 0. -1.
        -16    1    3    3    0    0 -0.12533829291E+03 -0.18734254217E+03 -0.12917303957E+03  0.25979336005E+03  0.00000000000E+00 0.  1.
          4    1    6    6  502    0 -0.10239604835E+03  0.89524193509E+02 -0.89773110723E+02  0.16296853485E+03  0.00000000000E+00 0. -1.
         -3    1    6    6    0  502 -0.10631972785E+03  0.12159558093E+03 -0.10240988011E+02  0.16184637057E+03  0.00000000000E+00 0.  1.
<mgrwt>
<rscale>  0 0.45696845E+03</rscale>
<asrwt>0</asrwt>
<pdfrwt beam="1">  1        1 0.11956055E+00 0.45696845E+03</pdfrwt>
<pdfrwt beam="2">  1       -2 0.44380535E-01 0.45696845E+03</pdfrwt>
<totfact> 0.10178499E+02</totfact>
</mgrwt>
</event>
<event>
12    3  0.1092576E-007  0.3971619E+03  0.7818608E-02  0.1044767E+00
         -2   -1    0    0    0  501 -0.00000000000E+00  0.00000000000E+00  0.58625311505E+03  0.58625311505E+03  0.00000000000E+00 0.  1.
          1   -1    0    0  501    0  0.00000000000E+00 -0.00000000000E+00 -0.44095040319E+03  0.44095040319E+03  0.00000000000E+00 0. -1.
        -24    2    1    2    0    0 -0.21989326595E+03  0.13225214084E+03 -0.15338622465E+03  0.30959122257E+03  0.80471821229E+02 0.  0.
    5000000    2    1    2    0    0  0.21989326595E+03 -0.13225214084E+03  0.29868893652E+03  0.71761229567E+03  0.59992386929E+03 0.  0.
        -24    2    4    4    0    0  0.35170830710E+03 -0.13294413391E+03  0.32591153456E+01  0.38449339489E+03  0.80322306103E+02 0.  0.
         24    2    4    4    0    0 -0.13181504115E+03  0.69199306988E+00  0.29542982117E+03  0.33311890078E+03  0.79459039092E+02 0.  0.
         13    1    5    5    0    0  0.18146992735E+02  0.10828072272E+02 -0.20207455696E+01  0.21228375046E+02  0.00000000000E+00 0. -1.
        -14    1    5    5    0    0  0.33356131437E+03 -0.14377220618E+03  0.52798609151E+01  0.36326501985E+03  0.00000000000E+00 0.  1.
         15    1    3    3    0    0 -0.16573170674E+03  0.10429550888E+03 -0.15321237597E+03  0.24863978297E+03  0.17770000000E+01 0. -1.
        -16    1    3    3    0    0 -0.54161559206E+02  0.27956631956E+02 -0.17384867557E+00  0.60951439600E+02  0.00000000000E+00 0.  1.
          2    1    6    6  502    0 -0.45135763130E+02  0.37825566758E+02  0.12961119993E+03  0.14236247315E+03  0.00000000000E+00 0. -1.
         -1    1    6    6    0  502 -0.86679278023E+02 -0.37133573688E+02  0.16581862124E+03  0.19075642764E+03  0.00000000000E+00 0.  1.
<mgrwt>
<rscale>  0 0.39716190E+03</rscale>
<asrwt>0</asrwt>
<pdfrwt beam="1">  1        1 0.67838523E-01 0.39716190E+03</pdfrwt>
<pdfrwt beam="2">  1       -2 0.90192787E-01 0.39716190E+03</pdfrwt>
<totfact> 0.50738631E+01</totfact>
</mgrwt>
</event>
<event>
12    3  0.1092576E-007  0.3745058E+03  0.7818608E-02  0.1052983E+00
         -2   -1    0    0    0  501 -0.00000000000E+00  0.00000000000E+00  0.12569996892E+03  0.12569996892E+03  0.00000000000E+00 0.  1.
          1   -1    0    0  501    0  0.00000000000E+00 -0.00000000000E+00 -0.26613670323E+04  0.26613670323E+04  0.00000000000E+00 0. -1.
        -24    2    1    2    0    0  0.85858661287E+02  0.35991842151E+03 -0.14017577589E+04  0.14518978700E+04  0.78546994420E+02 0.  0.
    5000000    2    1    2    0    0 -0.85858661287E+02 -0.35991842151E+03 -0.11339093044E+04  0.13351691312E+04  0.60001109854E+03 0.  0.
        -24    2    4    4    0    0 -0.69530553498E+02 -0.25900831944E+03 -0.10656148384E+03  0.29949430102E+03  0.80135379821E+02 0.  0.
         24    2    4    4    0    0 -0.16328107789E+02 -0.10091010208E+03 -0.10273478206E+04  0.10356748302E+04  0.82032637375E+02 0.  0.
         11    1    5    5    0    0 -0.64238721341E+02 -0.18671686336E+03 -0.40812017029E+02  0.20163189509E+03  0.00000000000E+00 0. -1.
        -12    1    5    5    0    0 -0.52918321573E+01 -0.72291456077E+02 -0.65749466812E+02  0.97862405935E+02  0.00000000000E+00 0.  1.
         15    1    3    3    0    0  0.60414126514E+02  0.10946498218E+03 -0.40663485292E+03  0.42542626899E+03  0.17770000000E+01 0. -1.
        -16    1    3    3    0    0  0.25444534773E+02  0.25045343934E+03 -0.99512290601E+03  0.10264716010E+04  0.00000000000E+00 0.  1.
          2    1    6    6  502    0 -0.15844116365E+01 -0.18244260088E+02 -0.59311161165E+03  0.59339425954E+03  0.00000000000E+00 0. -1.
         -1    1    6    6    0  502 -0.14743696152E+02 -0.82665841989E+02 -0.43423620893E+03  0.44228057062E+03  0.00000000000E+00 0.  1.
<mgrwt>
<rscale>  0 0.37450577E+03</rscale>
<asrwt>0</asrwt>
<pdfrwt beam="1">  1        1 0.40944103E+00 0.37450577E+03</pdfrwt>
<pdfrwt beam="2">  1       -2 0.19338459E-01 0.37450577E+03</pdfrwt>
<totfact> 0.23513866E+01</totfact>
</mgrwt>
</event>
<event>
12    3  0.1092576E-007  0.9623342E+03  0.7818608E-02  0.9350849E-01
         -2   -1    0    0    0  501 -0.00000000000E+00  0.00000000000E+00  0.45629634182E+03  0.45629634182E+03  0.00000000000E+00 0.  1.
          1   -1    0    0  501    0  0.00000000000E+00 -0.00000000000E+00 -0.26398729751E+04  0.26398729751E+04  0.00000000000E+00 0. -1.
        -24    2    1    2    0    0  0.62326506583E+03  0.62876236257E+03 -0.17087778487E+04  0.19259330704E+04  0.74128297479E+02 0.  0.
    5000000    2    1    2    0    0 -0.62326506583E+03 -0.62876236257E+03 -0.47479878450E+03  0.11702362465E+04  0.60018125255E+03 0.  0.
        -24    2    4    4    0    0 -0.53529540284E+03 -0.71227987060E+03 -0.49705384342E+03  0.10233888138E+04  0.79864626751E+02 0.  0.
         24    2    4    4    0    0 -0.87969662997E+02  0.83517508031E+02  0.22255058919E+02  0.14684743266E+03  0.79718536591E+02 0.  0.
         13    1    5    5    0    0 -0.15993374574E+03 -0.26087247446E+03 -0.14248109883E+03  0.33754127819E+03  0.00000000000E+00 0. -1.
        -14    1    5    5    0    0 -0.37536165709E+03 -0.45140739615E+03 -0.35457274459E+03  0.68584753562E+03  0.00000000000E+00 0.  1.
         15    1    3    3    0    0  0.17253671997E+03  0.22235673891E+03 -0.55328794390E+03  0.62075932991E+03  0.17770000000E+01 0. -1.
        -16    1    3    3    0    0  0.45072834586E+03  0.40640562366E+03 -0.11554899048E+04  0.13051737405E+04  0.00000000000E+00 0.  1.
          2    1    6    6  502    0 -0.45474195610E+02  0.89442420294E+02  0.26364496703E+02  0.10374456950E+03  0.00000000000E+00 0. -1.
         -1    1    6    6    0  502 -0.42495467387E+02 -0.59249122635E+01 -0.41094377838E+01  0.43102863161E+02  0.00000000000E+00 0.  1.
<mgrwt>
<rscale>  0 0.96233419E+03</rscale>
<asrwt>0</asrwt>
<pdfrwt beam="1">  1        1 0.40613430E+00 0.96233419E+03</pdfrwt>
<pdfrwt beam="2">  1       -2 0.70199437E-01 0.96233419E+03</pdfrwt>
<totfact> 0.17961400E+00</totfact>
</mgrwt>
</event>
<event>
12    3  0.1092576E-007  0.1279236E+04  0.7818608E-02  0.9046195E-01
         -2   -1    0    0    0  501 -0.00000000000E+00  0.00000000000E+00  0.12455648139E+04  0.12455648139E+04  0.00000000000E+00 0.  1.
          1   -1    0    0  501    0  0.00000000000E+00 -0.00000000000E+00 -0.14102624629E+04  0.14102624629E+04  0.00000000000E+00 0. -1.
        -24    2    1    2    0    0  0.68182222860E+03 -0.10534649535E+04 -0.10334488013E+03  0.12635772215E+04  0.10619449511E+03 0.  0.
    5000000    2    1    2    0    0 -0.68182222860E+03  0.10534649535E+04 -0.61352768841E+02  0.13922500553E+04  0.59993840891E+03 0.  0.
        -24    2    4    4    0    0 -0.22094798366E+03  0.62744356511E+03  0.21304336433E+03  0.70297147803E+03  0.79233736209E+02 0.  0.
         24    2    4    4    0    0 -0.46087424494E+03  0.42602138842E+03 -0.27439613317E+03  0.68927857727E+03  0.76892302209E+02 0.  0.
         11    1    5    5    0    0 -0.12972021460E+03  0.26301247524E+03  0.74643897159E+02  0.30261296666E+03  0.00000000000E+00 0. -1.
        -12    1    5    5    0    0 -0.91227769066E+02  0.36443108988E+03  0.13839946717E+03  0.40035851137E+03  0.00000000000E+00 0.  1.
         15    1    3    3    0    0  0.14546817870E+03 -0.17028236300E+03  0.93535460478E+01  0.22416003372E+03  0.17770000000E+01 0. -1.
        -16    1    3    3    0    0  0.53635404990E+03 -0.88318259054E+03 -0.11269842618E+03  0.10394171878E+04  0.00000000000E+00 0.  1.
          4    1    6    6  502    0 -0.63501165922E+02  0.26567506905E+02 -0.27855041963E+02  0.74257214191E+02  0.00000000000E+00 0. -1.
         -3    1    6    6    0  502 -0.39737307902E+03  0.39945388152E+03 -0.24654109121E+03  0.61502136308E+03  0.00000000000E+00 0.  1.
<mgrwt>
<rscale>  0 0.12792357E+04</rscale>
<asrwt>0</asrwt>
<pdfrwt beam="1">  1        1 0.21696345E+00 0.12792357E+04</pdfrwt>
<pdfrwt beam="2">  1       -2 0.19162536E+00 0.12792357E+04</pdfrwt>
<totfact> 0.96733276E-01</totfact>
</mgrwt>
</event>
<event>
12    3  0.1092576E-007  0.5162600E+03  0.7818608E-02  0.1009620E+00
         -2   -1    0    0    0  501 -0.00000000000E+00  0.00000000000E+00  0.48738466672E+03  0.48738466672E+03  0.00000000000E+00 0.  1.
          1   -1    0    0  501    0  0.00000000000E+00 -0.00000000000E+00 -0.60831302944E+03  0.60831302944E+03  0.00000000000E+00 0. -1.
        -24    2    1    2    0    0 -0.22254271140E+03  0.29944717260E+03 -0.56405783395E+02  0.38627362283E+03  0.82654895310E+02 0.  0.
    5000000    2    1    2    0    0  0.22254271140E+03 -0.29944717260E+03 -0.64522579323E+02  0.70942407334E+03  0.59993790097E+03 0.  0.
        -24    2    4    4    0    0  0.14646210506E+03  0.13283806341E+03  0.98668245696E+02  0.23448438712E+03  0.78424522845E+02 0.  0.
         24    2    4    4    0    0  0.76080606336E+02 -0.43228523601E+03 -0.16319082502E+03  0.47493968622E+03  0.79231788102E+02 0.  0.
         11    1    5    5    0    0  0.12725638481E+02  0.55777575356E+02  0.16076028856E+02  0.59426580679E+02  0.00000000000E+00 0. -1.
        -12    1    5    5    0    0  0.13373646658E+03  0.77060488054E+02  0.82592216840E+02  0.17505780644E+03  0.00000000000E+00 0.  1.
         15    1    3    3    0    0 -0.77609859873E+02  0.17290057847E+03 -0.34236329579E+02  0.19259590956E+03  0.17770000000E+01 0. -1.
        -16    1    3    3    0    0 -0.14493285152E+03  0.12654659413E+03 -0.22169453817E+02  0.19367771327E+03  0.00000000000E+00 0.  1.
          4    1    6    6  502    0  0.21083417211E+02 -0.14492978551E+03 -0.94868773673E+02  0.17449709862E+03  0.00000000000E+00 0. -1.
         -3    1    6    6    0  502  0.54997189126E+02 -0.28735545050E+03 -0.68322051346E+02  0.30044258760E+03  0.00000000000E+00 0.  1.
<mgrwt>
<rscale>  0 0.51625996E+03</rscale>
<asrwt>0</asrwt>
<pdfrwt beam="1">  1        1 0.93586620E-01 0.51625996E+03</pdfrwt>
<pdfrwt beam="2">  1       -2 0.74982256E-01 0.51625996E+03</pdfrwt>
<totfact> 0.48794005E+01</totfact>
</mgrwt>
</event>
<event>
12    3  0.1092576E-007  0.1899217E+04  0.7818608E-02  0.8655246E-01
          1   -1    0    0  501    0  0.00000000000E+00  0.00000000000E+00  0.30220974843E+04  0.30220974843E+04  0.00000000000E+00 0. -1.
         -2   -1    0    0    0  501 -0.00000000000E+00 -0.00000000000E+00 -0.13776415247E+04  0.13776415247E+04  0.00000000000E+00 0.  1.
        -24    2    1    2    0    0 -0.92097186600E+03 -0.16402401740E+04  0.87554074187E+02  0.18852690418E+04  0.89423919499E+02 0.  0.
    5000000    2    1    2    0    0  0.92097186600E+03  0.16402401740E+04  0.15569018854E+04  0.25144699673E+04  0.60003227338E+03 0.  0.
        -24    2    4    4    0    0  0.32178374671E+03  0.90577016380E+03  0.47881593289E+03  0.10768119643E+04  0.79340655576E+02 0.  0.
         24    2    4    4    0    0  0.59918811929E+03  0.73447001024E+03  0.10780859525E+04  0.14376580029E+04  0.78221571575E+02 0.  0.
         13    1    5    5    0    0  0.27470304499E+02  0.16329041225E+03  0.91172907702E+02  0.18902612375E+03  0.00000000000E+00 0. -1.
        -14    1    5    5    0    0  0.29431344221E+03  0.74247975155E+03  0.38764302519E+03  0.88778584056E+03  0.00000000000E+00 0.  1.
         15    1    3    3    0    0 -0.55360642752E+03 -0.89642361896E+03  0.55886204663E+02  0.10550743134E+04  0.17770000000E+01 0. -1.
        -16    1    3    3    0    0 -0.36736543847E+03 -0.74381655508E+03  0.31667869524E+02  0.83019472834E+03  0.00000000000E+00 0.  1.
          2    1    6    6  502    0  0.44008578778E+03  0.59015662393E+03  0.84398791294E+03  0.11199446141E+04  0.00000000000E+00 0. -1.
         -1    1    6    6    0  502  0.15910233151E+03  0.14431338631E+03  0.23409803954E+03  0.31771338888E+03  0.00000000000E+00 0.  1.
<mgrwt>
<rscale>  0 0.18992172E+04</rscale>
<asrwt>0</asrwt>
<pdfrwt beam="1">  1        1 0.46493807E+00 0.18992172E+04</pdfrwt>
<pdfrwt beam="2">  1       -2 0.21194485E+00 0.18992172E+04</pdfrwt>
<totfact> 0.50623304E-02</totfact>
</mgrwt>
</event>
<event>
12    3  0.1092576E-007  0.5731402E+03  0.7818608E-02  0.9962754E-01
          1   -1    0    0  501    0  0.00000000000E+00  0.00000000000E+00  0.88311532478E+03  0.88311532478E+03  0.00000000000E+00 0. -1.
         -2   -1    0    0    0  501 -0.00000000000E+00 -0.00000000000E+00 -0.59465136103E+03  0.59465136103E+03  0.00000000000E+00 0.  1.
        -24    2    1    2    0    0 -0.13152118425E+03  0.44245214133E+03 -0.26653700596E+03  0.53917054892E+03  0.81247683083E+02 0.  0.
    5000000    2    1    2    0    0  0.13152118425E+03 -0.44245214133E+03  0.55500096970E+03  0.93859613688E+03  0.59989575138E+03 0.  0.
        -24    2    4    4    0    0  0.14912977710E+03  0.65971925014E+02  0.32969797152E+03  0.37649268492E+03  0.80336816372E+02 0.  0.
         24    2    4    4    0    0 -0.17608592848E+02 -0.50842406635E+03  0.22530299819E+03  0.56210345197E+03  0.79960965084E+02 0.  0.
         13    1    5    5    0    0  0.32524146784E+01  0.69098274652E+01  0.86355830522E+02  0.86692868115E+02  0.00000000000E+00 0. -1.
        -14    1    5    5    0    0  0.14587736242E+03  0.59062097549E+02  0.24334214100E+03  0.28979981680E+03  0.00000000000E+00 0.  1.
         15    1    3    3    0    0 -0.88303429644E+02  0.16278851806E+03 -0.11759944553E+03  0.21938638203E+03  0.17770000000E+01 0. -1.
        -16    1    3    3    0    0 -0.43217754606E+02  0.27966362327E+03 -0.14893756043E+03  0.31978416690E+03  0.00000000000E+00 0.  1.
          2    1    6    6  502    0 -0.36312001281E+02 -0.45547291100E+03  0.18485073817E+03  0.49289342610E+03  0.00000000000E+00 0. -1.
         -1    1    6    6    0  502  0.18703408433E+02 -0.52951155345E+02  0.40452260019E+02  0.69210025864E+02  0.00000000000E+00 0.  1.
<mgrwt>
<rscale>  0 0.57314025E+03</rscale>
<asrwt>0</asrwt>
<pdfrwt beam="1">  1        1 0.13586390E+00 0.57314025E+03</pdfrwt>
<pdfrwt beam="2">  1       -2 0.91484824E-01 0.57314025E+03</pdfrwt>
<totfact> 0.17490876E+01</totfact>
</mgrwt>
</event>
<event>
12    3  0.1092576E-007  0.1014584E+04  0.7818608E-02  0.9292692E-01
          1   -1    0    0  501    0  0.00000000000E+00  0.00000000000E+00  0.17603075351E+04  0.17603075351E+04  0.00000000000E+00 0. -1.
         -2   -1    0    0    0  501 -0.00000000000E+00 -0.00000000000E+00 -0.64172636151E+03  0.64172636151E+03  0.00000000000E+00 0.  1.
        -24    2    1    2    0    0  0.94539053643E+03  0.18636086215E+03  0.34010397943E+03  0.10255585897E+04  0.87212766689E+02 0.  0.
    5000000    2    1    2    0    0 -0.94539053643E+03 -0.18636086215E+03  0.77847719416E+03  0.13764753069E+04  0.60013656071E+03 0.  0.
        -24    2    4    4    0    0 -0.36239221533E+03 -0.28741612074E+03  0.11410443915E+03  0.48307152827E+03  0.80013337671E+02 0.  0.
         24    2    4    4    0    0 -0.58299832111E+03  0.10105525859E+03  0.66437275500E+03  0.89340377867E+03  0.81730939425E+02 0.  0.
         11    1    5    5    0    0 -0.20552640919E+03 -0.11513682107E+03  0.43034738140E+02  0.23947772574E+03  0.00000000000E+00 0. -1.
        -12    1    5    5    0    0 -0.15686580614E+03 -0.17227929967E+03  0.71069701014E+02  0.24359380253E+03  0.00000000000E+00 0.  1.
         15    1    3    3    0    0  0.73344800090E+03  0.17937929654E+03  0.25327962567E+03  0.79641485958E+03  0.17770000000E+01 0. -1.
        -16    1    3    3    0    0  0.21194253554E+03  0.69815656042E+01  0.86824353760E+02  0.22914373008E+03  0.00000000000E+00 0.  1.
          4    1    6    6  502    0 -0.19355465768E+03  0.11710915059E+02  0.17106843940E+03  0.25858260189E+03  0.00000000000E+00 0. -1.
         -3    1    6    6    0  502 -0.38944366343E+03  0.89344343528E+02  0.49330431560E+03  0.63482117678E+03  0.00000000000E+00 0.  1.
<mgrwt>
<rscale>  0 0.10145844E+04</rscale>
<asrwt>0</asrwt>
<pdfrwt beam="1">  1        1 0.27081654E+00 0.10145844E+04</pdfrwt>
<pdfrwt beam="2">  1       -2 0.98727133E-01 0.10145844E+04</pdfrwt>
<totfact> 0.32444327E+00</totfact>
</mgrwt>
</event>
<event>
12    3  0.1628969E-007  0.7796137E+03  0.7818608E-02  0.9590003E-01
          1   -1    0    0  501    0  0.00000000000E+00  0.00000000000E+00  0.18390083179E+04  0.18390083179E+04  0.00000000000E+00 0. -1.
         -2   -1    0    0    0  501 -0.00000000000E+00 -0.00000000000E+00 -0.49947990242E+03  0.49947990242E+03  0.00000000000E+00 0.  1.
        -24    2    1    2    0    0  0.31377297712E+03 -0.64006643030E+03  0.11983502435E+04  0.13958564832E+04  0.65065345843E+02 0.  0.
    5000000    2    1    2    0    0 -0.31377297712E+03  0.64006643030E+03  0.14117817203E+03  0.94263173716E+03  0.60040386347E+03 0.  0.
        -24    2    4    4    0    0 -0.41882004214E+02  0.55294226152E+03 -0.89464771386E+02  0.56729490877E+03  0.79500448672E+02 0.  0.
         24    2    4    4    0    0 -0.27189097291E+03  0.87124168783E+02  0.23064294341E+03  0.37533682839E+03  0.78525444699E+02 0.  0.
         11    1    5    5    0    0 -0.50201700347E+02  0.45494193802E+03 -0.99620025803E+02  0.46841917897E+03  0.00000000000E+00 0. -1.
        -12    1    5    5    0    0  0.83196961323E+01  0.98000323505E+02  0.10155254417E+02  0.98875729798E+02  0.00000000000E+00 0.  1.
         15    1    3    3    0    0  0.12727750967E+03 -0.21166842790E+03  0.37119036009E+03  0.44585707238E+03  0.17770000000E+01 0. -1.
        -16    1    3    3    0    0  0.18649546745E+03 -0.42839800240E+03  0.82715988340E+03  0.94999941082E+03  0.00000000000E+00 0.  1.
          2    1    6    6  502    0 -0.17826434389E+03  0.34597475410E+02  0.10380834554E+03  0.20916819598E+03  0.00000000000E+00 0. -1.
         -1    1    6    6    0  502 -0.93626629016E+02  0.52526693373E+02  0.12683459788E+03  0.16616863241E+03  0.00000000000E+00 0.  1.
<mgrwt>
<rscale>  0 0.77961373E+03</rscale>
<asrwt>0</asrwt>
<pdfrwt beam="1">  1        1 0.28292435E+00 0.77961373E+03</pdfrwt>
<pdfrwt beam="2">  1       -2 0.76843063E-01 0.77961373E+03</pdfrwt>
<totfact> 0.52687966E+00</totfact>
</mgrwt>
</event>
<event>
12    3  0.1092576E-007  0.5621477E+03  0.7818608E-02  0.9987207E-01
         -4   -1    0    0    0  501 -0.00000000000E+00  0.00000000000E+00  0.22358516031E+03  0.22358516031E+03  0.00000000000E+00 0.  1.
          3   -1    0    0  501    0  0.00000000000E+00 -0.00000000000E+00 -0.21713074690E+04  0.21713074690E+04  0.00000000000E+00 0. -1.
        -24    2    1    2    0    0  0.48517967170E+03  0.77238387044E+02 -0.12727385038E+04  0.13667004444E+04  0.81496769763E+02 0.  0.
    5000000    2    1    2    0    0 -0.48517967170E+03 -0.77238387044E+02 -0.67498380492E+03  0.10281921849E+04  0.60017576586E+03 0.  0.
        -24    2    4    4    0    0 -0.35908349283E+03 -0.21675260743E+03 -0.70222542614E+03  0.82182807335E+03  0.79738230293E+02 0.  0.
         24    2    4    4    0    0 -0.12609617887E+03  0.13951422038E+03  0.27241621224E+02  0.20636411155E+03  0.80495817255E+02 0.  0.
         11    1    5    5    0    0 -0.13633391856E+02 -0.27359198396E+02 -0.76858675888E+02  0.82714274280E+02  0.00000000000E+00 0. -1.
        -12    1    5    5    0    0 -0.34545010098E+03 -0.18939340903E+03 -0.62536675026E+03  0.73911379907E+03  0.00000000000E+00 0.  1.
         15    1    3    3    0    0  0.41422013012E+03  0.94509599331E+02 -0.10956957084E+04  0.11751862081E+04  0.17770000000E+01 0. -1.
        -16    1    3    3    0    0  0.70959541586E+02 -0.17271212287E+02 -0.17704279537E+03  0.19151423631E+03  0.00000000000E+00 0.  1.
          4    1    6    6  502    0  0.64435746280E+01  0.27766093135E+02 -0.76782991886E+01  0.29520024736E+02  0.00000000000E+00 0. -1.
         -3    1    6    6    0  502 -0.13253975350E+03  0.11174812725E+03  0.34919920412E+02  0.17684408682E+03  0.00000000000E+00 0.  1.
<mgrwt>
<rscale>  0 0.56214773E+03</rscale>
<asrwt>0</asrwt>
<pdfrwt beam="1">  1        3 0.33404728E+00 0.56214773E+03</pdfrwt>
<pdfrwt beam="2">  1       -4 0.34397719E-01 0.56214773E+03</pdfrwt>
<totfact> 0.49083691E-01</totfact>
</mgrwt>
</event>
<event>
12    3  0.1092576E-007  0.3733148E+03  0.7818608E-02  0.1053433E+00
          1   -1    0    0  501    0  0.00000000000E+00  0.00000000000E+00  0.91409055699E+03  0.91409055699E+03  0.00000000000E+00 0. -1.
         -2   -1    0    0    0  501 -0.00000000000E+00 -0.00000000000E+00 -0.25760119334E+03  0.25760119334E+03  0.00000000000E+00 0.  1.
        -24    2    1    2    0    0  0.15497610379E+03  0.74982285157E+02 -0.80043134565E+02  0.20609605728E+03  0.80179458713E+02 0.  0.
    5000000    2    1    2    0    0 -0.15497610379E+03 -0.74982285157E+02  0.73653249822E+03  0.96559569305E+03  0.60021245045E+03 0.  0.
        -24    2    4    4    0    0 -0.22269273422E+03 -0.26705882054E+03  0.62899506953E+03  0.72333553127E+03  0.81651857361E+02 0.  0.
         24    2    4    4    0    0  0.67716630428E+02  0.19207653539E+03  0.10753742870E+03  0.24226016178E+03  0.75144859655E+02 0.  0.
         11    1    5    5    0    0 -0.19562181302E+03 -0.18204823697E+03  0.45072899961E+03  0.52399053942E+03  0.00000000000E+00 0. -1.
        -12    1    5    5    0    0 -0.27070921207E+02 -0.85010583573E+02  0.17826606991E+03  0.19934499185E+03  0.00000000000E+00 0.  1.
         15    1    3    3    0    0  0.10125159642E+03  0.36134164059E+02 -0.88502173105E+02  0.13926003002E+03  0.17770000000E+01 0. -1.
        -16    1    3    3    0    0  0.53724507379E+02  0.38848121097E+02  0.84590385404E+01  0.66836027252E+02  0.00000000000E+00 0.  1.
          4    1    6    6  502    0  0.61613838408E+02  0.66548100645E+02  0.35427085854E+02  0.97365256611E+02  0.00000000000E+00 0. -1.
         -3    1    6    6    0  502  0.61027920196E+01  0.12552843474E+03  0.72110342844E+02  0.14489490517E+03  0.00000000000E+00 0.  1.
<mgrwt>
<rscale>  0 0.37331481E+03</rscale>
<asrwt>0</asrwt>
<pdfrwt beam="1">  1        1 0.14062931E+00 0.37331481E+03</pdfrwt>
<pdfrwt beam="2">  1       -2 0.39630953E-01 0.37331481E+03</pdfrwt>
<totfact> 0.98791681E+01</totfact>
</mgrwt>
</event>
<event>
12    3  0.1092576E-007  0.5355386E+03  0.7818608E-02  0.1004898E+00
          1   -1    0    0  501    0  0.00000000000E+00  0.00000000000E+00  0.18367211807E+04  0.18367211807E+04  0.00000000000E+00 0. -1.
         -2   -1    0    0    0  501 -0.00000000000E+00 -0.00000000000E+00 -0.21701839608E+03  0.21701839608E+03  0.00000000000E+00 0.  1.
        -24    2    1    2    0    0  0.27902345453E+03 -0.39646839082E+03  0.61874952457E+03  0.79013199774E+03  0.80101976282E+02 0.  0.
    5000000    2    1    2    0    0 -0.27902345453E+03  0.39646839082E+03  0.10009532600E+04  0.12636075790E+04  0.59979614193E+03 0.  0.
        -24    2    4    4    0    0 -0.23015983675E+03  0.65157976034E+02  0.55789753226E+02  0.25775881870E+03  0.78153693166E+02 0.  0.
         24    2    4    4    0    0 -0.48863617775E+02  0.33131041479E+03  0.94516350681E+03  0.10058487603E+04  0.79015377924E+02 0.  0.
         11    1    5    5    0    0 -0.45319569765E+02  0.34177905797E+02 -0.12792465245E+02  0.58186251085E+02  0.00000000000E+00 0. -1.
        -12    1    5    5    0    0 -0.18484026699E+03  0.30980070237E+02  0.68582218471E+02  0.19957256761E+03  0.00000000000E+00 0.  1.
         15    1    3    3    0    0  0.59077132390E+02 -0.11688160855E+03  0.12086359896E+03  0.17822060843E+03  0.17770000000E+01 0. -1.
        -16    1    3    3    0    0  0.21994632214E+03 -0.27958678227E+03  0.49788592561E+03  0.61191138931E+03  0.00000000000E+00 0.  1.
          4    1    6    6  502    0 -0.60376199917E+02  0.21520231739E+03  0.68942852818E+03  0.72475445386E+03  0.00000000000E+00 0. -1.
         -3    1    6    6    0  502  0.11512582141E+02  0.11610809740E+03  0.25573497863E+03  0.28109430646E+03  0.00000000000E+00 0.  1.
<mgrwt>
<rscale>  0 0.53553861E+03</rscale>
<asrwt>0</asrwt>
<pdfrwt beam="1">  1        1 0.28257248E+00 0.53553861E+03</pdfrwt>
<pdfrwt beam="2">  1       -2 0.33387447E-01 0.53553861E+03</pdfrwt>
<totfact> 0.30165751E+01</totfact>
</mgrwt>
</event>
<event>
12    3  0.1092576E-007  0.5151599E+03  0.7818608E-02  0.1009896E+00
          1   -1    0    0  501    0  0.00000000000E+00  0.00000000000E+00  0.26667170808E+04  0.26667170808E+04  0.00000000000E+00 0. -1.
         -2   -1    0    0    0  501 -0.00000000000E+00 -0.00000000000E+00 -0.10366132423E+03  0.10366132423E+03  0.00000000000E+00 0.  1.
        -24    2    1    2    0    0  0.11224462494E+03 -0.33004523657E+03  0.85399762235E+03  0.92583831120E+03  0.79598527028E+02 0.  0.
    5000000    2    1    2    0    0 -0.11224462494E+03  0.33004523657E+03  0.17090581342E+04  0.18445400938E+04  0.59993311092E+03 0.  0.
        -24    2    4    4    0    0 -0.34091781202E+03  0.26206984979E+03  0.97934951502E+03  0.10726030194E+04  0.80288255653E+02 0.  0.
         24    2    4    4    0    0  0.22867318708E+03  0.67975386784E+02  0.72970861919E+03  0.77193707439E+03  0.80623186470E+02 0.  0.
         13    1    5    5    0    0 -0.18538726020E+03  0.10802710157E+03  0.55693450861E+03  0.59683694406E+03  0.00000000000E+00 0. -1.
        -14    1    5    5    0    0 -0.15553055182E+03  0.15404274822E+03  0.42241500642E+03  0.47576607537E+03  0.00000000000E+00 0.  1.
         15    1    3    3    0    0  0.80956923127E+02 -0.11736972109E+03  0.34581142495E+03  0.37405664569E+03  0.17770000000E+01 0. -1.
        -16    1    3    3    0    0  0.31287701817E+02 -0.21267551548E+03  0.50818619740E+03  0.55178166552E+03  0.00000000000E+00 0.  1.
          4    1    6    6  502    0  0.17282748928E+03  0.59638691107E+02  0.64281440465E+03  0.66830866622E+03  0.00000000000E+00 0. -1.
         -3    1    6    6    0  502  0.55845697801E+02  0.83366956772E+01  0.86894214543E+02  0.10362840816E+03  0.00000000000E+00 0.  1.
<mgrwt>
<rscale>  0 0.51515988E+03</rscale>
<asrwt>0</asrwt>
<pdfrwt beam="1">  1        1 0.41026411E+00 0.51515988E+03</pdfrwt>
<pdfrwt beam="2">  1       -2 0.15947898E-01 0.51515988E+03</pdfrwt>
<totfact> 0.31318644E+01</totfact>
</mgrwt>
</event>
<event>
12    3  0.1092576E-007  0.6800486E+03  0.7818608E-02  0.9751973E-01
         -2   -1    0    0    0  501 -0.00000000000E+00  0.00000000000E+00  0.11839320838E+04  0.11839320838E+04  0.00000000000E+00 0.  1.
          1   -1    0    0  501    0  0.00000000000E+00 -0.00000000000E+00 -0.62442448369E+03  0.62442448369E+03  0.00000000000E+00 0. -1.
        -24    2    1    2    0    0  0.48523190332E+03 -0.46941585478E+03  0.59683553828E+03  0.90444042154E+03  0.77450446368E+02 0.  0.
    5000000    2    1    2    0    0 -0.48523190332E+03  0.46941585478E+03 -0.37327938214E+02  0.90391614591E+03  0.59989147281E+03 0.  0.
        -24    2    4    4    0    0 -0.28522542967E+03  0.29359621013E+03 -0.30632301247E+03  0.51758430605E+03  0.80668739722E+02 0.  0.
         24    2    4    4    0    0 -0.20000647365E+03  0.17581964465E+03  0.26899507426E+03  0.38633183986E+03  0.77322723486E+02 0.  0.
         13    1    5    5    0    0 -0.12064690455E+03  0.18159095208E+03 -0.16612085498E+03  0.27409321026E+03  0.00000000000E+00 0. -1.
        -14    1    5    5    0    0 -0.16457852512E+03  0.11200525805E+03 -0.14020215749E+03  0.24349109579E+03  0.00000000000E+00 0.  1.
         15    1    3    3    0    0  0.27792954726E+03 -0.30018905386E+03  0.40080085330E+03  0.57271527222E+03  0.17770000000E+01 0. -1.
        -16    1    3    3    0    0  0.20730235606E+03 -0.16922680092E+03  0.19603468499E+03  0.33172514932E+03  0.00000000000E+00 0.  1.
          4    1    6    6  502    0 -0.11231319037E+03  0.99664999041E+02  0.96893212948E+02  0.17870551049E+03  0.00000000000E+00 0. -1.
         -3    1    6    6    0  502 -0.87693283278E+02  0.76154645613E+02  0.17210186131E+03  0.20762632937E+03  0.00000000000E+00 0.  1.
<mgrwt>
<rscale>  0 0.68004859E+03</rscale>
<asrwt>0</asrwt>
<pdfrwt beam="1">  1        1 0.96065306E-01 0.68004859E+03</pdfrwt>
<pdfrwt beam="2">  1       -2 0.18214340E+00 0.68004859E+03</pdfrwt>
<totfact> 0.51251607E+00</totfact>
</mgrwt>
</event>
<event>
12    3  0.1092576E-007  0.2339227E+03  0.7818608E-02  0.1123909E+00
         -4   -1    0    0    0  501 -0.00000000000E+00  0.00000000000E+00  0.91836494395E+03  0.91836494395E+03  0.00000000000E+00 0.  1.
          3   -1    0    0  501    0  0.00000000000E+00 -0.00000000000E+00 -0.19590570535E+03  0.19590570535E+03  0.00000000000E+00 0. -1.
        -24    2    1    2    0    0  0.12397139547E+02  0.15418378854E+03  0.17236208998E+02  0.17543249401E+03  0.80951487549E+02 0.  0.
    5000000    2    1    2    0    0 -0.12397139547E+02 -0.15418378854E+03  0.70522302961E+03  0.93883815529E+03  0.60012601228E+03 0.  0.
        -24    2    4    4    0    0  0.41768880950E+02  0.63028510152E+02 -0.69229521574E+02  0.12869345777E+03  0.77794902831E+02 0.  0.
         24    2    4    4    0    0 -0.54166020497E+02 -0.21721229870E+03  0.77445255118E+03  0.81014469752E+03  0.80265412297E+02 0.  0.
         13    1    5    5    0    0  0.18693280499E+02  0.62426688403E+02 -0.11041770602E+02  0.66094257381E+02  0.00000000000E+00 0. -1.
        -14    1    5    5    0    0  0.23075600451E+02  0.60182174936E+00 -0.58187750972E+02  0.62599200384E+02  0.00000000000E+00 0.  1.
         15    1    3    3    0    0 -0.34534033681E+01  0.21757978377E+02 -0.27022173469E+02  0.34909758032E+02  0.17770000000E+01 0. -1.
        -16    1    3    3    0    0  0.15850542916E+02  0.13242581017E+03  0.44258382467E+02  0.14052273598E+03  0.00000000000E+00 0.  1.
          4    1    6    6  502    0 -0.47014366953E+02 -0.17034488354E+03  0.69934140422E+03  0.72132248662E+03  0.00000000000E+00 0. -1.
         -3    1    6    6    0  502 -0.71516535439E+01 -0.46867415152E+02  0.75111146961E+02  0.88822210901E+02  0.00000000000E+00 0.  1.
<mgrwt>
<rscale>  0 0.23392270E+03</rscale>
<asrwt>0</asrwt>
<pdfrwt beam="1">  1        3 0.30139340E-01 0.23392270E+03</pdfrwt>
<pdfrwt beam="2">  1       -4 0.14128691E+00 0.23392270E+03</pdfrwt>
<totfact> 0.82543075E+00</totfact>
</mgrwt>
</event>
<event>
12    3  0.1092576E-007  0.1212345E+04  0.7818608E-02  0.9102119E-01
          1   -1    0    0  501    0  0.00000000000E+00  0.00000000000E+00  0.20696388968E+04  0.20696388968E+04  0.00000000000E+00 0. -1.
         -2   -1    0    0    0  501 -0.00000000000E+00 -0.00000000000E+00 -0.80680929322E+03  0.80680929322E+03  0.00000000000E+00 0.  1.
        -24    2    1    2    0    0 -0.99300885022E+03 -0.65963844970E+03  0.89252656711E+03  0.14913944024E+04  0.80399811763E+02 0.  0.
    5000000    2    1    2    0    0  0.99300885022E+03  0.65963844970E+03  0.37030303650E+03  0.13850537876E+04  0.60005016021E+03 0.  0.
        -24    2    4    4    0    0  0.77409281436E+03  0.35619436690E+03  0.48926916317E+03  0.98585509839E+03  0.80198807560E+02 0.  0.
         24    2    4    4    0    0  0.21891603586E+03  0.30344408280E+03 -0.11896612667E+03  0.39919868921E+03  0.72139531681E+02 0.  0.
         13    1    5    5    0    0  0.51162692263E+03  0.20661786698E+03  0.28354195581E+03  0.62036206494E+03  0.00000000000E+00 0. -1.
        -14    1    5    5    0    0  0.26246589173E+03  0.14957649992E+03  0.20572720735E+03  0.36549303345E+03  0.00000000000E+00 0.  1.
         15    1    3    3    0    0 -0.24814698543E+03 -0.20762732755E+03  0.23978337314E+03  0.40272230791E+03  0.17770000000E+01 0. -1.
        -16    1    3    3    0    0 -0.74486186479E+03 -0.45201112215E+03  0.65274319396E+03  0.10886720945E+04  0.00000000000E+00 0.  1.
          4    1    6    6  502    0  0.12006452825E+03  0.13491974508E+03 -0.24761201411E+02  0.18229631277E+03  0.00000000000E+00 0. -1.
         -3    1    6    6    0  502  0.98851507607E+02  0.16852433772E+03 -0.94204925256E+02  0.21690237644E+03  0.00000000000E+00 0.  1.
<mgrwt>
<rscale>  0 0.12123455E+04</rscale>
<asrwt>0</asrwt>
<pdfrwt beam="1">  1        1 0.31840598E+00 0.12123455E+04</pdfrwt>
<pdfrwt beam="2">  1       -2 0.12412451E+00 0.12123455E+04</pdfrwt>
<totfact> 0.11201228E+00</totfact>
</mgrwt>
</event>
<event>
12    3  0.1092576E-007  0.4073930E+03  0.7818608E-02  0.1041249E+00
         -2   -1    0    0    0  501 -0.00000000000E+00  0.00000000000E+00  0.94601772068E+03  0.94601772068E+03  0.00000000000E+00 0.  1.
          1   -1    0    0  501    0  0.00000000000E+00 -0.00000000000E+00 -0.79357841820E+03  0.79357841820E+03  0.00000000000E+00 0. -1.
        -24    2    1    2    0    0 -0.27021859304E+03  0.23245289773E+03  0.74107650537E+03  0.82631024626E+03  0.80881385802E+02 0.  0.
    5000000    2    1    2    0    0  0.27021859304E+03 -0.23245289773E+03 -0.58863720289E+03  0.91328589261E+03  0.60045393440E+03 0.  0.
        -24    2    4    4    0    0  0.81750171482E+02 -0.23329040773E+03  0.29891266187E+02  0.26194173924E+03  0.81317169687E+02 0.  0.
         24    2    4    4    0    0  0.18846842156E+03  0.83751000015E+00 -0.61852846908E+03  0.65134415337E+03  0.78426345868E+02 0.  0.
         13    1    5    5    0    0 -0.37488017509E+01 -0.58361332598E+02  0.33121045566E+02  0.67209391580E+02  0.00000000000E+00 0. -1.
        -14    1    5    5    0    0  0.85498973232E+02 -0.17492907513E+03 -0.32297793793E+01  0.19473234766E+03  0.00000000000E+00 0.  1.
         15    1    3    3    0    0 -0.11667369394E+03  0.64968015210E+02  0.21274339920E+03  0.25119017794E+03  0.17770000000E+01 0. -1.
        -16    1    3    3    0    0 -0.15354489910E+03  0.16748488252E+03  0.52833310617E+03  0.57512006832E+03  0.00000000000E+00 0.  1.
          4    1    6    6  502    0  0.13450964697E+03  0.32345246008E+02 -0.47654065296E+03  0.49621573331E+03  0.00000000000E+00 0. -1.
         -3    1    6    6    0  502  0.53958774589E+02 -0.31507736008E+02 -0.14198781612E+03  0.15512842006E+03  0.00000000000E+00 0.  1.
<mgrwt>
<rscale>  0 0.40739300E+03</rscale>
<asrwt>0</asrwt>
<pdfrwt beam="1">  1        1 0.12208899E+00 0.40739300E+03</pdfrwt>
<pdfrwt beam="2">  1       -2 0.14554119E+00 0.40739300E+03</pdfrwt>
<totfact> 0.68883958E+00</totfact>
</mgrwt>
</event>
<event>
12    3  0.1092576E-007  0.3981177E+03  0.7818608E-02  0.1044433E+00
          1   -1    0    0  501    0  0.00000000000E+00  0.00000000000E+00  0.84222605698E+03  0.84222605698E+03  0.00000000000E+00 0. -1.
         -2   -1    0    0    0  501 -0.00000000000E+00 -0.00000000000E+00 -0.93292050543E+03  0.93292050543E+03  0.00000000000E+00 0.  1.
        -24    2    1    2    0    0 -0.41726421764E+02 -0.30435887426E+03  0.68211604891E+03  0.74970337708E+03  0.48963566132E+02 0.  0.
    5000000    2    1    2    0    0  0.41726421764E+02  0.30435887426E+03 -0.77281049736E+03  0.10254431853E+04  0.59993519893E+03 0.  0.
        -24    2    4    4    0    0  0.16449932152E+03  0.29844005476E+03 -0.80358302039E+03  0.87637257184E+03  0.78464775149E+02 0.  0.
         24    2    4    4    0    0 -0.12277289976E+03  0.59188195040E+01  0.30772523033E+02  0.14907061350E+03  0.78529499538E+02 0.  0.
         13    1    5    5    0    0  0.94782315538E+02  0.21856174401E+03 -0.48007009654E+03  0.53592930585E+03  0.00000000000E+00 0. -1.
        -14    1    5    5    0    0  0.69717005981E+02  0.79878310743E+02 -0.32351292386E+03  0.34044326598E+03  0.00000000000E+00 0.  1.
         15    1    3    3    0    0  0.15176034529E-01 -0.16141292167E+03  0.38064121595E+03  0.41345498487E+03  0.17770000000E+01 0. -1.
        -16    1    3    3    0    0 -0.41741597798E+02 -0.14294595259E+03  0.30147483296E+03  0.33624839220E+03  0.00000000000E+00 0.  1.
          2    1    6    6  502    0 -0.12295148888E+03  0.22558637071E+02  0.14579051431E+02  0.12585114010E+03  0.00000000000E+00 0. -1.
         -1    1    6    6    0  502  0.17858911945E+00 -0.16639817567E+02  0.16193471602E+02  0.23219473406E+02  0.00000000000E+00 0.  1.
<mgrwt>
<rscale>  0 0.39811771E+03</rscale>
<asrwt>0</asrwt>
<pdfrwt beam="1">  1        1 0.12957324E+00 0.39811771E+03</pdfrwt>
<pdfrwt beam="2">  1       -2 0.14352623E+00 0.39811771E+03</pdfrwt>
<totfact> 0.65142526E+00</totfact>
</mgrwt>
</event>
<event>
12    3  0.1092576E-007  0.5445766E+03  0.7818608E-02  0.1002757E+00
          1   -1    0    0  501    0  0.00000000000E+00  0.00000000000E+00  0.42243763769E+03  0.42243763769E+03  0.00000000000E+00 0. -1.
         -2   -1    0    0    0  501 -0.00000000000E+00 -0.00000000000E+00 -0.10341317336E+04  0.10341317336E+04  0.00000000000E+00 0.  1.
        -24    2    1    2    0    0  0.32816851749E+03  0.40320717739E+03 -0.20352273797E+03  0.56389643609E+03  0.79291121808E+02 0.  0.
    5000000    2    1    2    0    0 -0.32816851749E+03 -0.40320717739E+03 -0.40817135794E+03  0.89267293519E+03  0.59999208996E+03 0.  0.
        -24    2    4    4    0    0  0.73187546074E+01 -0.13382028470E+03 -0.42711987104E+03  0.45467488391E+03  0.79601715165E+02 0.  0.
         24    2    4    4    0    0 -0.33548727210E+03 -0.26938689268E+03  0.18948513096E+02  0.43799805128E+03  0.79763645161E+02 0.  0.
         11    1    5    5    0    0  0.52796289353E+01 -0.13293290648E+02 -0.17109035894E+03  0.17168720680E+03  0.00000000000E+00 0. -1.
        -12    1    5    5    0    0  0.20391256720E+01 -0.12052699406E+03 -0.25602951210E+03  0.28298767711E+03  0.00000000000E+00 0.  1.
         15    1    3    3    0    0  0.11652177373E+03  0.10209322294E+03 -0.33704701113E+02  0.15855445289E+03  0.17770000000E+01 0. -1.
        -16    1    3    3    0    0  0.21164674376E+03  0.30111395445E+03 -0.16981803685E+03  0.40534198320E+03  0.00000000000E+00 0.  1.
          2    1    6    6  502    0 -0.32543525686E+03 -0.25348418212E+03  0.33997978243E+02  0.41390602739E+03  0.00000000000E+00 0. -1.
         -1    1    6    6    0  502 -0.10052015239E+02 -0.15902710566E+02 -0.15049465147E+02  0.24092023886E+02  0.00000000000E+00 0.  1.
<mgrwt>
<rscale>  0 0.54457660E+03</rscale>
<asrwt>0</asrwt>
<pdfrwt beam="1">  1        1 0.64990406E-01 0.54457660E+03</pdfrwt>
<pdfrwt beam="2">  1       -2 0.15909719E+00 0.54457660E+03</pdfrwt>
<totfact> 0.13005784E+01</totfact>
</mgrwt>
</event>
<event>
12    3  0.1092576E-007  0.4432042E+03  0.7818608E-02  0.1029768E+00
         -2   -1    0    0    0  501 -0.00000000000E+00  0.00000000000E+00  0.40717822658E+03  0.40717822658E+03  0.00000000000E+00 0.  1.
          1   -1    0    0  501    0  0.00000000000E+00 -0.00000000000E+00 -0.10058933948E+04  0.10058933948E+04  0.00000000000E+00 0. -1.
        -24    2    1    2    0    0  0.38526732274E+03 -0.20785817083E+03 -0.49058570844E+03  0.66244693140E+03  0.80781621960E+02 0.  0.
    5000000    2    1    2    0    0 -0.38526732274E+03  0.20785817083E+03 -0.10812945980E+03  0.75062468999E+03  0.60009125639E+03 0.  0.
        -24    2    4    4    0    0 -0.13002173530E+03  0.56003906664E+02  0.23737173050E+03  0.28784354463E+03  0.80414417441E+02 0.  0.
         24    2    4    4    0    0 -0.25524558744E+03  0.15185426417E+03 -0.34550119029E+03  0.46278114536E+03  0.81149790851E+02 0.  0.
         11    1    5    5    0    0 -0.73468265135E+02  0.47819819453E+02  0.20310340621E+03  0.22121327883E+03  0.00000000000E+00 0. -1.
        -12    1    5    5    0    0 -0.56553470163E+02  0.81840872109E+01  0.34268324281E+02  0.66630265796E+02  0.00000000000E+00 0.  1.
         15    1    3    3    0    0  0.15661483156E+03 -0.50506927391E+02 -0.22072559819E+03  0.27532181644E+03  0.17770000000E+01 0. -1.
        -16    1    3    3    0    0  0.22865249118E+03 -0.15735124344E+03 -0.26986011024E+03  0.38712511496E+03  0.00000000000E+00 0.  1.
          2    1    6    6  502    0 -0.19323066874E+03  0.94906252150E+02 -0.19567927675E+03  0.29092209849E+03  0.00000000000E+00 0. -1.
         -1    1    6    6    0  502 -0.62014918694E+02  0.56948012018E+02 -0.14982191355E+03  0.17185904687E+03  0.00000000000E+00 0.  1.
<mgrwt>
<rscale>  0 0.44320424E+03</rscale>
<asrwt>0</asrwt>
<pdfrwt beam="1">  1        1 0.15475283E+00 0.44320424E+03</pdfrwt>
<pdfrwt beam="2">  1       -2 0.62642804E-01 0.44320424E+03</pdfrwt>
<totfact> 0.32957341E+01</totfact>
</mgrwt>
</event>
<event>
12    3  0.1092576E-007  0.3932347E+03  0.7818608E-02  0.1046148E+00
         -2   -1    0    0    0  501 -0.00000000000E+00  0.00000000000E+00  0.10896788835E+04  0.10896788835E+04  0.00000000000E+00 0.  1.
          1   -1    0    0  501    0  0.00000000000E+00 -0.00000000000E+00 -0.24096418238E+03  0.24096418238E+03  0.00000000000E+00 0. -1.
        -24    2    1    2    0    0 -0.80830995754E+02  0.31099045080E+03  0.17082748778E+03  0.36971935275E+03  0.65281382135E+02 0.  0.
    5000000    2    1    2    0    0  0.80830995754E+02 -0.31099045080E+03  0.67788721334E+03  0.96092371313E+03  0.60049529397E+03 0.  0.
        -24    2    4    4    0    0  0.14008552530E+03 -0.18225739591E-01  0.60573213665E+03  0.62650038336E+03  0.77248652044E+02 0.  0.
         24    2    4    4    0    0 -0.59254529545E+02 -0.31097222506E+03  0.72155076686E+02  0.33442332977E+03  0.80111075218E+02 0.  0.
         13    1    5    5    0    0  0.11394458078E+03 -0.16185513504E+02  0.33900243337E+03  0.35800557003E+03  0.00000000000E+00 0. -1.
        -14    1    5    5    0    0  0.26140944516E+02  0.16167287765E+02  0.26672970328E+03  0.26849481333E+03  0.00000000000E+00 0.  1.
         15    1    3    3    0    0 -0.37798233497E+02  0.10711215102E+03  0.94642424822E+02  0.14785826205E+03  0.17770000000E+01 0. -1.
        -16    1    3    3    0    0 -0.43032762257E+02  0.20387829977E+03  0.76185062959E+02  0.22186109070E+03  0.00000000000E+00 0.  1.
          2    1    6    6  502    0 -0.14374441867E+02 -0.17278765880E+03  0.27484549545E+01  0.17340632519E+03  0.00000000000E+00 0. -1.
         -1    1    6    6    0  502 -0.44880087679E+02 -0.13818456626E+03  0.69406621732E+02  0.16101700457E+03  0.00000000000E+00 0.  1.
<mgrwt>
<rscale>  0 0.39323469E+03</rscale>
<asrwt>0</asrwt>
<pdfrwt beam="1">  1        1 0.37071413E-01 0.39323469E+03</pdfrwt>
<pdfrwt beam="2">  1       -2 0.16764290E+00 0.39323469E+03</pdfrwt>
<totfact> 0.23770560E+01</totfact>
</mgrwt>
</event>
<event>
12    3  0.1092576E-007  0.8058671E+03  0.7818608E-02  0.9551563E-01
         -2   -1    0    0    0  501 -0.00000000000E+00  0.00000000000E+00  0.80123153235E+03  0.80123153235E+03  0.00000000000E+00 0.  1.
          1   -1    0    0  501    0  0.00000000000E+00 -0.00000000000E+00 -0.16863865532E+04  0.16863865532E+04  0.00000000000E+00 0. -1.
        -24    2    1    2    0    0 -0.28623977010E+03 -0.74086849611E+03 -0.12020695934E+04  0.14429983728E+04  0.80334687869E+02 0.  0.
    5000000    2    1    2    0    0  0.28623977010E+03  0.74086849611E+03  0.31691457251E+03  0.10446197128E+04  0.59998013592E+03 0.  0.
        -24    2    4    4    0    0  0.13898692099E+03  0.49479034813E+03  0.47806531583E+03  0.70552706174E+03  0.71324160262E+02 0.  0.
         24    2    4    4    0    0  0.14725284911E+03  0.24607814798E+03 -0.16115074332E+03  0.33909265102E+03  0.82318937189E+02 0.  0.
         11    1    5    5    0    0  0.40521178782E+02  0.58458782604E+02  0.75801682939E+02  0.10394849845E+03  0.00000000000E+00 0. -1.
        -12    1    5    5    0    0  0.98465742210E+02  0.43633156553E+03  0.40226363289E+03  0.60157856329E+03  0.00000000000E+00 0.  1.
         15    1    3    3    0    0 -0.15805897339E+03 -0.48711937360E+03 -0.72470207464E+03  0.88739178379E+03  0.17770000000E+01 0. -1.
        -16    1    3    3    0    0 -0.12818079671E+03 -0.25374912251E+03 -0.47736751871E+03  0.55560658900E+03  0.00000000000E+00 0.  1.
          2    1    6    6  502    0  0.62222739543E+02  0.17609211766E+03 -0.11737463031E+03  0.22058310692E+03  0.00000000000E+00 0. -1.
         -3    1    6    6    0  502  0.85030109569E+02  0.69986030320E+02 -0.43776113014E+02  0.11850954410E+03  0.00000000000E+00 0.  1.
<mgrwt>
<rscale>  0 0.80586709E+03</rscale>
<asrwt>0</asrwt>
<pdfrwt beam="1">  1        1 0.25944408E+00 0.80586709E+03</pdfrwt>
<pdfrwt beam="2">  1       -2 0.12326639E+00 0.80586709E+03</pdfrwt>
<totfact> 0.21819833E+00</totfact>
</mgrwt>
</event>
<event>
12    3  0.1092576E-007  0.6590067E+03  0.7818608E-02  0.9790024E-01
         -4   -1    0    0    0  501 -0.00000000000E+00  0.00000000000E+00  0.62495075183E+03  0.62495075183E+03  0.00000000000E+00 0.  1.
          3   -1    0    0  501    0  0.00000000000E+00 -0.00000000000E+00 -0.71417536944E+03  0.71417536944E+03  0.00000000000E+00 0. -1.
        -24    2    1    2    0    0  0.52936478712E+03  0.11558199259E+01 -0.56943700131E+02  0.53841957840E+03  0.80153874895E+02 0.  0.
    5000000    2    1    2    0    0 -0.52936478712E+03 -0.11558199259E+01 -0.32280917474E+02  0.80070654287E+03  0.59988373573E+03 0.  0.
        -24    2    4    4    0    0 -0.41459208909E+03  0.26124567698E+03  0.27601966865E+02  0.49730957853E+03  0.80118938101E+02 0.  0.
         24    2    4    4    0    0 -0.11477269803E+03 -0.26240149691E+03 -0.59882884338E+02  0.30339696434E+03  0.80227428857E+02 0.  0.
         13    1    5    5    0    0 -0.16383066337E+03  0.60925870400E+02  0.23227369157E+02  0.17632912018E+03  0.00000000000E+00 0. -1.
        -14    1    5    5    0    0 -0.25076142572E+03  0.20031980658E+03  0.43745977073E+01  0.32098045835E+03  0.00000000000E+00 0.  1.
         15    1    3    3    0    0  0.25365546748E+03  0.14127613489E+02  0.10547157194E+02  0.25427364374E+03  0.17770000000E+01 0. -1.
        -16    1    3    3    0    0  0.27570931963E+03 -0.12971793563E+02 -0.67490857325E+02  0.28414593466E+03  0.00000000000E+00 0.  1.
          4    1    6    6  502    0 -0.59038585346E+02 -0.20000836363E+03 -0.16592368451E+02  0.20919896456E+03  0.00000000000E+00 0. -1.
         -3    1    6    6    0  502 -0.55734112682E+02 -0.62393133277E+02 -0.43290515887E+02  0.94197999779E+02  0.00000000000E+00 0.  1.
<mgrwt>
<rscale>  0 0.65900673E+03</rscale>
<asrwt>0</asrwt>
<pdfrwt beam="1">  1        3 0.10987313E+00 0.65900673E+03</pdfrwt>
<pdfrwt beam="2">  1       -4 0.96146269E-01 0.65900673E+03</pdfrwt>
<totfact> 0.14336713E+00</totfact>
</mgrwt>
</event>
<event>
12    3  0.1092576E-007  0.7324601E+03  0.7818608E-02  0.9663277E-01
          1   -1    0    0  501    0  0.00000000000E+00  0.00000000000E+00  0.15458505180E+04  0.15458505180E+04  0.00000000000E+00 0. -1.
         -2   -1    0    0    0  501 -0.00000000000E+00 -0.00000000000E+00 -0.41745479946E+03  0.41745479946E+03  0.00000000000E+00 0.  1.
        -24    2    1    2    0    0 -0.65168471360E+03 -0.75630046773E+01  0.75911495638E+03  0.10034366213E+04  0.76677056324E+02 0.  0.
    5000000    2    1    2    0    0  0.65168471360E+03  0.75630046773E+01  0.36928076215E+03  0.95986869617E+03  0.60019119256E+03 0.  0.
        -24    2    4    4    0    0  0.71944242453E+03 -0.48704065305E+02  0.20069698028E+03  0.75286086145E+03  0.80936460432E+02 0.  0.
         24    2    4    4    0    0 -0.67757710928E+02  0.56267069982E+02  0.16858378188E+03  0.20700783472E+03  0.81698602010E+02 0.  0.
         11    1    5    5    0    0  0.28399647163E+03  0.15378019952E+02  0.58898557205E+02  0.29044710265E+03  0.00000000000E+00 0. -1.
        -12    1    5    5    0    0  0.43544595289E+03 -0.64082085257E+02  0.14179842307E+03  0.46241375880E+03  0.00000000000E+00 0.  1.
         15    1    3    3    0    0 -0.32076893434E+03 -0.15356239523E+02  0.42970570368E+03  0.53645006556E+03  0.17770000000E+01 0. -1.
        -16    1    3    3    0    0 -0.33091577926E+03  0.77932348454E+01  0.32940925270E+03  0.46698655573E+03  0.00000000000E+00 0.  1.
          2    1    6    6  502    0 -0.40275406358E+02  0.30152228544E+02  0.16055829061E+03  0.16825644097E+03  0.00000000000E+00 0. -1.
         -1    1    6    6    0  502 -0.27482304571E+02  0.26114841438E+02  0.80254912648E+01  0.38751393754E+02  0.00000000000E+00 0.  1.
<mgrwt>
<rscale>  0 0.73246009E+03</rscale>
<asrwt>0</asrwt>
<pdfrwt beam="1">  1        1 0.23782315E+00 0.73246009E+03</pdfrwt>
<pdfrwt beam="2">  1       -2 0.64223816E-01 0.73246009E+03</pdfrwt>
<totfact> 0.12373605E+01</totfact>
</mgrwt>
</event>
<event>
12    3  0.1092576E-007  0.4801063E+03  0.7818608E-02  0.1019106E+00
         -2   -1    0    0    0  501 -0.00000000000E+00  0.00000000000E+00  0.15867133721E+03  0.15867133721E+03  0.00000000000E+00 0.  1.
          1   -1    0    0  501    0  0.00000000000E+00 -0.00000000000E+00 -0.18673483175E+04  0.18673483175E+04  0.00000000000E+00 0. -1.
        -24    2    1    2    0    0  0.14778670754E+03 -0.25144815631E+03 -0.16558550416E+03  0.34486482999E+03  0.80287642493E+02 0.  0.
    5000000    2    1    2    0    0 -0.14778670754E+03  0.25144815631E+03 -0.15430914762E+04  0.16811548248E+04  0.60006929162E+03 0.  0.
        -24    2    4    4    0    0 -0.66696152423E+02 -0.18554214314E+03 -0.41924226111E+03  0.46996541411E+03  0.78924985443E+02 0.  0.
         24    2    4    4    0    0 -0.81090555119E+02  0.43699029945E+03 -0.11238492151E+04  0.12111894107E+04  0.80040804217E+02 0.  0.
         13    1    5    5    0    0 -0.72496106086E+02 -0.86089111233E+02 -0.21204433741E+03  0.24006212008E+03  0.00000000000E+00 0. -1.
        -14    1    5    5    0    0  0.57999536626E+01 -0.99453031911E+02 -0.20719792370E+03  0.22990329403E+03  0.00000000000E+00 0.  1.
         15    1    3    3    0    0  0.71447788543E+02 -0.18361806599E+03 -0.13279570147E+03  0.23760942049E+03  0.17770000000E+01 0. -1.
        -16    1    3    3    0    0  0.76338918999E+02 -0.67830090318E+02 -0.32789802683E+02  0.10725540950E+03  0.00000000000E+00 0.  1.
          2    1    6    6  502    0 -0.89006200297E+02  0.33611586017E+03 -0.81126824626E+03  0.88263930489E+03  0.00000000000E+00 0. -1.
         -1    1    6    6    0  502  0.79156451781E+01  0.10087443928E+03 -0.31258096881E+03  0.32855010577E+03  0.00000000000E+00 0.  1.
<mgrwt>
<rscale>  0 0.48010628E+03</rscale>
<asrwt>0</asrwt>
<pdfrwt beam="1">  1        1 0.28728436E+00 0.48010628E+03</pdfrwt>
<pdfrwt beam="2">  1       -2 0.24410975E-01 0.48010628E+03</pdfrwt>
<totfact> 0.51557733E+01</totfact>
</mgrwt>
</event>
<event>
12    3  0.1092576E-007  0.6730901E+03  0.7818608E-02  0.9764392E-01
          1   -1    0    0  501    0  0.00000000000E+00  0.00000000000E+00  0.99787855469E+03  0.99787855469E+03  0.00000000000E+00 0. -1.
         -2   -1    0    0    0  501 -0.00000000000E+00 -0.00000000000E+00 -0.16000996847E+04  0.16000996847E+04  0.00000000000E+00 0.  1.
        -24    2    1    2    0    0 -0.48439551400E+03  0.37577687459E+03  0.76525261650E+03  0.98375591562E+03  0.79478682600E+02 0.  0.
    5000000    2    1    2    0    0  0.48439551400E+03 -0.37577687459E+03 -0.13674737465E+04  0.16142223238E+04  0.59990165003E+03 0.  0.
        -24    2    4    4    0    0  0.26065831376E+03 -0.41662037840E+03 -0.47057828936E+03  0.68592162729E+03  0.86771286361E+02 0.  0.
         24    2    4    4    0    0  0.22373720024E+03  0.40843503813E+02 -0.89689545719E+03  0.92830069651E+03  0.74794354385E+02 0.  0.
         11    1    5    5    0    0  0.16900069769E+03 -0.19425836090E+03 -0.26548237229E+03  0.36983568864E+03  0.00000000000E+00 0. -1.
        -12    1    5    5    0    0  0.91657616075E+02 -0.22236201750E+03 -0.20509591707E+03  0.31608593865E+03  0.00000000000E+00 0.  1.
         15    1    3    3    0    0 -0.36857629543E+03  0.24059939847E+03  0.54903618415E+03  0.70369058921E+03  0.17770000000E+01 0. -1.
        -16    1    3    3    0    0 -0.11581921856E+03  0.13517747612E+03  0.21621643235E+03  0.28006532641E+03  0.00000000000E+00 0.  1.
          4    1    6    6  502    0  0.15712754478E+03  0.12484788530E+02 -0.48147552817E+03  0.50661979778E+03  0.00000000000E+00 0. -1.
         -3    1    6    6    0  502  0.66609655453E+02  0.28358715283E+02 -0.41541992902E+03  0.42168089873E+03  0.00000000000E+00 0.  1.
<mgrwt>
<rscale>  0 0.67309013E+03</rscale>
<asrwt>0</asrwt>
<pdfrwt beam="1">  1        1 0.15351978E+00 0.67309013E+03</pdfrwt>
<pdfrwt beam="2">  1       -2 0.24616918E+00 0.67309013E+03</pdfrwt>
<totfact> 0.95443155E-01</totfact>
</mgrwt>
</event>
<event>
12    3  0.1092576E-007  0.8735863E+03  0.7818608E-02  0.9459216E-01
          1   -1    0    0  501    0  0.00000000000E+00  0.00000000000E+00  0.32613986731E+04  0.32613986731E+04  0.00000000000E+00 0. -1.
         -2   -1    0    0    0  501 -0.00000000000E+00 -0.00000000000E+00 -0.24649258288E+03  0.24649258288E+03  0.00000000000E+00 0.  1.
        -24    2    1    2    0    0  0.20384930942E+03  0.75854775598E+03  0.15691098024E+04  0.17567003261E+04  0.83314012919E+02 0.  0.
    5000000    2    1    2    0    0 -0.20384930942E+03 -0.75854775598E+03  0.14457962879E+04  0.17511909299E+04  0.59949439359E+03 0.  0.
        -24    2    4    4    0    0 -0.16601785249E+03  0.95734854590E+01  0.47672234349E+03  0.51150866398E+03  0.81995985126E+02 0.  0.
         24    2    4    4    0    0 -0.37831456932E+02 -0.76812124143E+03  0.96907394437E+03  0.12396822659E+04  0.79160281187E+02 0.  0.
         13    1    5    5    0    0 -0.10131175936E+03 -0.34075125321E+02  0.25736793210E+03  0.27868160905E+03  0.00000000000E+00 0. -1.
        -14    1    5    5    0    0 -0.64706093127E+02  0.43648610780E+02  0.21935441139E+03  0.23282705493E+03  0.00000000000E+00 0.  1.
         15    1    3    3    0    0  0.69273274000E+02  0.40394535256E+03  0.85289501543E+03  0.94625773414E+03  0.17770000000E+01 0. -1.
        -16    1    3    3    0    0  0.13457603542E+03  0.35460240341E+03  0.71621478697E+03  0.81044259197E+03  0.00000000000E+00 0.  1.
          4    1    6    6  502    0 -0.14728933596E+02 -0.21127811429E+02  0.33423579606E+02  0.42195516045E+02  0.00000000000E+00 0. -1.
         -3    1    6    6    0  502 -0.23102523336E+02 -0.74699343001E+03  0.93565036476E+03  0.11974867499E+04  0.00000000000E+00 0.  1.
<mgrwt>
<rscale>  0 0.87358627E+03</rscale>
<asrwt>0</asrwt>
<pdfrwt beam="1">  1        1 0.50175361E+00 0.87358627E+03</pdfrwt>
<pdfrwt beam="2">  1       -2 0.37921938E-01 0.87358627E+03</pdfrwt>
<totfact> 0.23161762E+00</totfact>
</mgrwt>
</event>
<event>
12    3  0.1092576E-007  0.5033603E+03  0.7818608E-02  0.1012906E+00
          1   -1    0    0  501    0  0.00000000000E+00  0.00000000000E+00  0.48079508257E+03  0.48079508257E+03  0.00000000000E+00 0. -1.
         -2   -1    0    0    0  501 -0.00000000000E+00 -0.00000000000E+00 -0.85054963428E+03  0.85054963428E+03  0.00000000000E+00 0.  1.
        -24    2    1    2    0    0  0.46365177512E+02  0.48652894552E+03 -0.22474989749E+03  0.54378274710E+03  0.79542536418E+02 0.  0.
    5000000    2    1    2    0    0 -0.46365177512E+02 -0.48652894552E+03 -0.14500465422E+03  0.78756196975E+03  0.60030605689E+03 0.  0.
        -24    2    4    4    0    0  0.40029442478E+02 -0.15099774028E+03 -0.33961593364E+03  0.38242602568E+03  0.80672231284E+02 0.  0.
         24    2    4    4    0    0 -0.86394619990E+02 -0.33553120524E+03  0.19461127942E+03  0.40513594407E+03  0.78843915716E+02 0.  0.
         13    1    5    5    0    0  0.39749741276E+02 -0.93533497751E+02 -0.28718241617E+03  0.30463469482E+03  0.00000000000E+00 0. -1.
        -14    1    5    5    0    0  0.27970120161E+00 -0.57464242531E+02 -0.52433517474E+02  0.77791330861E+02  0.00000000000E+00 0.  1.
         15    1    3    3    0    0  0.50567915179E+02  0.16169583202E+03 -0.92507603612E+02  0.19303748494E+03  0.17770000000E+01 0. -1.
        -16    1    3    3    0    0 -0.42027376673E+01  0.32483311351E+03 -0.13224229388E+03  0.35074526216E+03  0.00000000000E+00 0.  1.
          4    1    6    6  502    0 -0.87082381711E+00 -0.13902157630E+03  0.97752864741E+02  0.16995110937E+03  0.00000000000E+00 0. -1.
         -3    1    6    6    0  502 -0.85523796173E+02 -0.19650962894E+03  0.96858414683E+02  0.23518483470E+03  0.00000000000E+00 0.  1.
<mgrwt>
<rscale>  0 0.50336031E+03</rscale>
<asrwt>0</asrwt>
<pdfrwt beam="1">  1        1 0.73968475E-01 0.50336031E+03</pdfrwt>
<pdfrwt beam="2">  1       -2 0.13085379E+00 0.50336031E+03</pdfrwt>
<totfact> 0.18273046E+01</totfact>
</mgrwt>
</event>
<event>
12    3  0.1092576E-007  0.2287010E+04  0.7818608E-02  0.8483061E-01
         -2   -1    0    0    0  501 -0.00000000000E+00  0.00000000000E+00  0.19299285479E+04  0.19299285479E+04  0.00000000000E+00 0.  1.
          1   -1    0    0  501    0  0.00000000000E+00 -0.00000000000E+00 -0.29089667381E+04  0.29089667381E+04  0.00000000000E+00 0. -1.
        -24    2    1    2    0    0  0.21257646938E+04 -0.81210269798E+03 -0.99640455362E+03  0.24854502295E+04  0.79085290341E+02 0.  0.
    5000000    2    1    2    0    0 -0.21257646938E+04  0.81210269798E+03  0.17366363406E+02  0.23534450564E+04  0.60001309767E+03 0.  0.
        -24    2    4    4    0    0 -0.15400561433E+04  0.72257766479E+03  0.23126686045E+03  0.17186390991E+04  0.79652909281E+02 0.  0.
         24    2    4    4    0    0 -0.58570855056E+03  0.89525033192E+02 -0.21390049705E+03  0.63480595737E+03  0.78459818406E+02 0.  0.
         13    1    5    5    0    0 -0.28762246268E+03  0.16212818867E+03  0.64748339437E+02  0.33645888019E+03  0.00000000000E+00 0. -1.
        -14    1    5    5    0    0 -0.12524336806E+04  0.56044947612E+03  0.16651852102E+03  0.13821802189E+04  0.00000000000E+00 0.  1.
         15    1    3    3    0    0  0.18153815575E+04 -0.66410030782E+03 -0.83858291302E+03  0.21070984500E+04  0.17770000000E+01 0. -1.
        -16    1    3    3    0    0  0.31038313632E+03 -0.14800239016E+03 -0.15782164060E+03  0.37835177949E+03  0.00000000000E+00 0.  1.
          2    1    6    6  502    0 -0.46790407633E+03  0.49968254907E+02 -0.19385567851E+03  0.50893130699E+03  0.00000000000E+00 0. -1.
         -1    1    6    6    0  502 -0.11780447424E+03  0.39556778285E+02 -0.20044818534E+02  0.12587465038E+03  0.00000000000E+00 0.  1.
<mgrwt>
<rscale>  0 0.22870098E+04</rscale>
<asrwt>0</asrwt>
<pdfrwt beam="1">  1        1 0.44753334E+00 0.22870098E+04</pdfrwt>
<pdfrwt beam="2">  1       -2 0.29691209E+00 0.22870098E+04</pdfrwt>
<totfact> 0.17422862E-02</totfact>
</mgrwt>
</event>
<event>
12    3  0.1092576E-007  0.5459399E+03  0.7818608E-02  0.1002438E+00
          1   -1    0    0  501    0  0.00000000000E+00  0.00000000000E+00  0.19250296978E+03  0.19250296978E+03  0.00000000000E+00 0. -1.
         -2   -1    0    0    0  501 -0.00000000000E+00 -0.00000000000E+00 -0.16518461187E+04  0.16518461187E+04  0.00000000000E+00 0.  1.
        -24    2    1    2    0    0  0.14002111595E+02 -0.39704361307E+03 -0.58028233091E+03  0.70833851845E+03  0.84712356491E+02 0.  0.
    5000000    2    1    2    0    0 -0.14002111595E+02  0.39704361307E+03 -0.87906081804E+03  0.11360105701E+04  0.59994366707E+03 0.  0.
        -24    2    4    4    0    0 -0.23309345980E+03  0.40067240605E+03 -0.46748228910E+03  0.66300494843E+03  0.78517087624E+02 0.  0.
         24    2    4    4    0    0  0.21909134821E+03 -0.36287929742E+01 -0.41157852894E+03  0.47300562163E+03  0.79518838080E+02 0.  0.
         13    1    5    5    0    0 -0.17923879863E+03  0.24862498217E+03 -0.27412608813E+03  0.41120073065E+03  0.00000000000E+00 0. -1.
        -14    1    5    5    0    0 -0.53854661169E+02  0.15204742387E+03 -0.19335620097E+03  0.25180421777E+03  0.00000000000E+00 0.  1.
         15    1    3    3    0    0  0.35907361011E+01 -0.15838076587E+03 -0.16166267120E+03  0.22635224180E+03  0.17770000000E+01 0. -1.
        -16    1    3    3    0    0  0.10411375494E+02 -0.23866284720E+03 -0.41861965972E+03  0.48198627665E+03  0.00000000000E+00 0.  1.
          2    1    6    6  502    0  0.16421736461E+03 -0.28221336728E+02 -0.34599992159E+03  0.38403090035E+03  0.00000000000E+00 0. -1.
         -1    1    6    6    0  502  0.54873983593E+02  0.24592543754E+02 -0.65578607353E+02  0.88974721276E+02  0.00000000000E+00 0.  1.
<mgrwt>
<rscale>  0 0.54593990E+03</rscale>
<asrwt>0</asrwt>
<pdfrwt beam="1">  1        1 0.29615841E-01 0.54593990E+03</pdfrwt>
<pdfrwt beam="2">  1       -2 0.25413018E+00 0.54593990E+03</pdfrwt>
<totfact> 0.87373079E+00</totfact>
</mgrwt>
</event>
<event>
12    3  0.1092576E-007  0.2648473E+04  0.7818608E-02  0.8351920E-01
         -2   -1    0    0    0  501 -0.00000000000E+00  0.00000000000E+00  0.16965863182E+04  0.16965863182E+04  0.00000000000E+00 0.  1.
          1   -1    0    0  501    0  0.00000000000E+00 -0.00000000000E+00 -0.43736380660E+04  0.43736380660E+04  0.00000000000E+00 0. -1.
        -24    2    1    2    0    0  0.83568868331E+02 -0.26247236843E+04 -0.19740898672E+04  0.32862822606E+04  0.80387300976E+02 0.  0.
    5000000    2    1    2    0    0 -0.83568868331E+02  0.26247236843E+04 -0.70296188060E+03  0.27839421236E+04  0.60001680572E+03 0.  0.
        -24    2    4    4    0    0 -0.11396961786E+03  0.18921791064E+03 -0.16833092627E+03  0.28900441608E+03  0.79973497336E+02 0.  0.
         24    2    4    4    0    0  0.30400749527E+02  0.24355057737E+04 -0.53463095434E+03  0.24949377075E+04  0.79191715517E+02 0.  0.
         11    1    5    5    0    0 -0.66882087869E+02  0.41108850257E+02 -0.44131626156E+02  0.90059711716E+02  0.00000000000E+00 0. -1.
        -12    1    5    5    0    0 -0.47087529990E+02  0.14810906038E+03 -0.12419930011E+03  0.19894470437E+03  0.00000000000E+00 0.  1.
         15    1    3    3    0    0  0.25282360129E+02 -0.62162755563E+03 -0.42599162526E+03  0.75401063531E+03  0.17770000000E+01 0. -1.
        -16    1    3    3    0    0  0.58286508202E+02 -0.20030961287E+04 -0.15480982419E+04  0.25322716253E+04  0.00000000000E+00 0.  1.
          2    1    6    6  502    0  0.49551922005E+02  0.93655235777E+03 -0.19842203890E+03  0.95862245819E+03  0.00000000000E+00 0. -1.
         -1    1    6    6    0  502 -0.19151172478E+02  0.14989534159E+04 -0.33620891543E+03  0.15363152493E+04  0.00000000000E+00 0.  1.
<mgrwt>
<rscale>  0 0.26484729E+04</rscale>
<asrwt>0</asrwt>
<pdfrwt beam="1">  1        1 0.67286739E+00 0.26484729E+04</pdfrwt>
<pdfrwt beam="2">  1       -2 0.26101328E+00 0.26484729E+04</pdfrwt>
<totfact> 0.17253202E-03</totfact>
</mgrwt>
</event>
<event>
12    3  0.1092576E-007  0.1024427E+04  0.7818608E-02  0.9282152E-01
         -2   -1    0    0    0  501 -0.00000000000E+00  0.00000000000E+00  0.72169186687E+03  0.72169186687E+03  0.00000000000E+00 0.  1.
          1   -1    0    0  501    0  0.00000000000E+00 -0.00000000000E+00 -0.15318559398E+04  0.15318559398E+04  0.00000000000E+00 0. -1.
        -24    2    1    2    0    0  0.74921858869E+03 -0.60135194506E+03 -0.45902903288E+03  0.10677698104E+04  0.80449110859E+02 0.  0.
    5000000    2    1    2    0    0 -0.74921858869E+03  0.60135194506E+03 -0.35113504003E+03  0.11857779963E+04  0.59985080201E+03 0.  0.
        -24    2    4    4    0    0 -0.21842824070E+03  0.49833154120E+03 -0.32414143595E+03  0.63830034650E+03  0.79463454173E+02 0.  0.
         24    2    4    4    0    0 -0.53079034799E+03  0.10302040386E+03 -0.26993604083E+02  0.54747764979E+03  0.81556883387E+02 0.  0.
         11    1    5    5    0    0 -0.18654433973E+03  0.45263113054E+03 -0.31414329383E+03  0.58168697774E+03  0.00000000000E+00 0. -1.
        -12    1    5    5    0    0 -0.31883900968E+02  0.45700410664E+02 -0.99981421152E+01  0.56613368753E+02  0.00000000000E+00 0.  1.
         15    1    3    3    0    0  0.40037489974E+03 -0.28197064852E+03 -0.26221655793E+03  0.55548914296E+03  0.17770000000E+01 0. -1.
        -16    1    3    3    0    0  0.34884368895E+03 -0.31938129654E+03 -0.19681247495E+03  0.51228066740E+03  0.00000000000E+00 0.  1.
          4    1    6    6  502    0 -0.19421174758E+03  0.30475176499E+02 -0.48553348742E+02  0.20249535045E+03  0.00000000000E+00 0. -1.
         -1    1    6    6    0  502 -0.33657860041E+03  0.72545227358E+02  0.21559744660E+02  0.34498229933E+03  0.00000000000E+00 0.  1.
<mgrwt>
<rscale>  0 0.10244273E+04</rscale>
<asrwt>0</asrwt>
<pdfrwt beam="1">  1        1 0.23567014E+00 0.10244273E+04</pdfrwt>
<pdfrwt beam="2">  1       -2 0.11102952E+00 0.10244273E+04</pdfrwt>
<totfact> 0.34953219E+00</totfact>
</mgrwt>
</event>
<event>
12    3  0.1092576E-007  0.5970405E+03  0.7818608E-02  0.9911565E-01
         -4   -1    0    0    0  501 -0.00000000000E+00  0.00000000000E+00  0.60856497966E+03  0.60856497966E+03  0.00000000000E+00 0.  1.
          1   -1    0    0  501    0  0.00000000000E+00 -0.00000000000E+00 -0.72885745662E+03  0.72885745662E+03  0.00000000000E+00 0. -1.
        -24    2    1    2    0    0  0.51348719612E+03  0.11543128715E+03 -0.79257592972E+02  0.53827361767E+03  0.80394270940E+02 0.  0.
    5000000    2    1    2    0    0 -0.51348719612E+03 -0.11543128715E+03 -0.41034883982E+02  0.79914881861E+03  0.59996790742E+03 0.  0.
        -24    2    4    4    0    0 -0.22907688460E+03 -0.24974757025E+03 -0.23501866170E+03  0.42087288136E+03  0.83965129725E+02 0.  0.
         24    2    4    4    0    0 -0.28441031152E+03  0.13431628310E+03  0.19398377772E+03  0.37827593725E+03  0.80826291973E+02 0.  0.
         11    1    5    5    0    0 -0.23220216822E+02 -0.37302068470E+02 -0.14571182633E+01  0.43963006893E+02  0.00000000000E+00 0. -1.
        -12    1    5    5    0    0 -0.20585666778E+03 -0.21244550178E+03 -0.23356154344E+03  0.37690987447E+03  0.00000000000E+00 0.  1.
         15    1    3    3    0    0  0.26013477238E+03  0.23548267709E+02 -0.17508956608E+02  0.26179064537E+03  0.17770000000E+01 0. -1.
        -16    1    3    3    0    0  0.25335242374E+03  0.91883019442E+02 -0.61748636364E+02  0.27648297230E+03  0.00000000000E+00 0.  1.
          4    1    6    6  502    0 -0.13206364327E+03  0.20941384911E+02  0.64718642818E+02  0.14855251666E+03  0.00000000000E+00 0. -1.
         -3    1    6    6    0  502 -0.15234666825E+03  0.11337489819E+03  0.12926513490E+03  0.22972342059E+03  0.00000000000E+00 0.  1.
<mgrwt>
<rscale>  0 0.59704051E+03</rscale>
<asrwt>0</asrwt>
<pdfrwt beam="1">  1        1 0.11213192E+00 0.59704051E+03</pdfrwt>
<pdfrwt beam="2">  1       -4 0.93625381E-01 0.59704051E+03</pdfrwt>
<totfact> 0.12056555E+01</totfact>
</mgrwt>
</event>
<event>
12    3  0.1092576E-007  0.7717650E+03  0.7818608E-02  0.9601810E-01
         -2   -1    0    0    0  501 -0.00000000000E+00  0.00000000000E+00  0.91763100359E+03  0.91763100359E+03  0.00000000000E+00 0.  1.
          1   -1    0    0  501    0  0.00000000000E+00 -0.00000000000E+00 -0.69204269044E+03  0.69204269044E+03  0.00000000000E+00 0. -1.
        -24    2    1    2    0    0 -0.19997301332E+03  0.63495649453E+03 -0.47324050437E+02  0.67290586877E+03  0.86045258269E+02 0.  0.
    5000000    2    1    2    0    0  0.19997301332E+03 -0.63495649453E+03  0.27291236359E+03  0.93676782526E+03  0.59991153034E+03 0.  0.
        -24    2    4    4    0    0 -0.20017585048E+03 -0.20479382898E+03  0.40846285997E+02  0.30010071534E+03  0.79882017756E+02 0.  0.
         24    2    4    4    0    0  0.40014886381E+03 -0.43016266555E+03  0.23206607759E+03  0.63666710992E+03  0.79569544741E+02 0.  0.
         13    1    5    5    0    0 -0.12161701374E+03 -0.13551280897E+03  0.63677730032E+02  0.19289705215E+03  0.00000000000E+00 0. -1.
        -14    1    5    5    0    0 -0.78558836741E+02 -0.69281020011E+02 -0.22831444034E+02  0.10720366319E+03  0.00000000000E+00 0.  1.
         15    1    3    3    0    0 -0.55073871075E+02  0.21242787197E+03  0.23231489154E+02  0.22068437163E+03  0.17770000000E+01 0. -1.
        -16    1    3    3    0    0 -0.14489914225E+03  0.42252862256E+03 -0.70555539591E+02  0.45222149714E+03  0.00000000000E+00 0.  1.
          2    1    6    6  502    0  0.12818956905E+03 -0.98561674429E+02  0.88988007876E+02  0.18456932255E+03  0.00000000000E+00 0. -1.
         -1    1    6    6    0  502  0.27195929475E+03 -0.33160099112E+03  0.14307806971E+03  0.45209778737E+03  0.00000000000E+00 0.  1.
<mgrwt>
<rscale>  0 0.77176497E+03</rscale>
<asrwt>0</asrwt>
<pdfrwt beam="1">  1        1 0.10646811E+00 0.77176497E+03</pdfrwt>
<pdfrwt beam="2">  1       -2 0.14117400E+00 0.77176497E+03</pdfrwt>
<totfact> 0.86929151E+00</totfact>
</mgrwt>
</event>
<event>
12    3  0.1092576E-007  0.8525806E+03  0.7818608E-02  0.9486880E-01
         -2   -1    0    0    0  501 -0.00000000000E+00  0.00000000000E+00  0.25527673811E+04  0.25527673811E+04  0.00000000000E+00 0.  1.
          1   -1    0    0  501    0  0.00000000000E+00 -0.00000000000E+00 -0.30167179782E+03  0.30167179782E+03  0.00000000000E+00 0. -1.
        -24    2    1    2    0    0 -0.47121833324E+03  0.58276138152E+03  0.68879963542E+03  0.10207795291E+04  0.76735675379E+02 0.  0.
    5000000    2    1    2    0    0  0.47121833324E+03 -0.58276138152E+03  0.15622959479E+04  0.18336596499E+04  0.59990127303E+03 0.  0.
        -24    2    4    4    0    0  0.38815701812E+03 -0.33770193931E+02  0.61398775005E+03  0.73162786713E+03  0.80573457403E+02 0.  0.
         24    2    4    4    0    0  0.83061315115E+02 -0.54899118759E+03  0.94830819786E+03  0.11020317828E+04  0.83036774669E+02 0.  0.
         11    1    5    5    0    0  0.22019942794E+03  0.21001613322E+02  0.34334147666E+03  0.40842652390E+03  0.00000000000E+00 0. -1.
        -12    1    5    5    0    0  0.16795759018E+03 -0.54771807253E+02  0.27064627338E+03  0.32320134323E+03  0.00000000000E+00 0.  1.
         15    1    3    3    0    0 -0.41778337612E+03  0.48509433958E+03  0.56032688588E+03  0.85078131410E+03  0.17770000000E+01 0. -1.
        -16    1    3    3    0    0 -0.53434957114E+02  0.97667041938E+02  0.12847274954E+03  0.16999821498E+03  0.00000000000E+00 0.  1.
          2    1    6    6  502    0  0.70371691383E+00 -0.51402535322E+02  0.14151715321E+03  0.15056500426E+03  0.00000000000E+00 0. -1.
         -1    1    6    6    0  502  0.82357598202E+02 -0.49758865227E+03  0.80679104465E+03  0.95146677849E+03  0.00000000000E+00 0.  1.
<mgrwt>
<rscale>  0 0.85258055E+03</rscale>
<asrwt>0</asrwt>
<pdfrwt beam="1">  1        1 0.46411048E-01 0.85258055E+03</pdfrwt>
<pdfrwt beam="2">  1       -2 0.39273343E+00 0.85258055E+03</pdfrwt>
<totfact> 0.65928746E-01</totfact>
</mgrwt>
</event>
<event>
12    3  0.1092576E-007  0.6874983E+03  0.7818608E-02  0.9738854E-01
          1   -1    0    0  501    0  0.00000000000E+00  0.00000000000E+00  0.86675189973E+03  0.86675189973E+03  0.00000000000E+00 0. -1.
         -2   -1    0    0    0  501 -0.00000000000E+00 -0.00000000000E+00 -0.78850424840E+03  0.78850424840E+03  0.00000000000E+00 0.  1.
        -24    2    1    2    0    0  0.61884492071E+03  0.15148406910E+02  0.39286186115E+03  0.73751803418E+03  0.79961857623E+02 0.  0.
    5000000    2    1    2    0    0 -0.61884492071E+03 -0.15148406910E+02 -0.31461420982E+03  0.91773811395E+03  0.60005219328E+03 0.  0.
        -24    2    4    4    0    0 -0.47091094572E+03 -0.19449522132E+03  0.37200406294E+01  0.51575936825E+03  0.80052341171E+02 0.  0.
         24    2    4    4    0    0 -0.14793397499E+03  0.17934681441E+03 -0.31833425045E+03  0.40197874570E+03  0.78743102507E+02 0.  0.
         13    1    5    5    0    0 -0.16871279915E+03 -0.53814295628E+02  0.36508695918E+02  0.18081170285E+03  0.00000000000E+00 0. -1.
        -14    1    5    5    0    0 -0.30219814657E+03 -0.14068092569E+03 -0.32788655289E+02  0.33494766540E+03  0.00000000000E+00 0.  1.
         15    1    3    3    0    0  0.38051840999E+03  0.17213019265E+02  0.19593022758E+03  0.42834840980E+03  0.17770000000E+01 0. -1.
        -16    1    3    3    0    0  0.23832651072E+03 -0.20646123557E+01  0.19693163357E+03  0.30916962437E+03  0.00000000000E+00 0.  1.
          4    1    6    6  502    0 -0.70525657126E+02  0.29071674153E+02 -0.92853785572E+02  0.12017011295E+03  0.00000000000E+00 0. -1.
         -3    1    6    6    0  502 -0.77408317866E+02  0.15027514025E+03 -0.22548046488E+03  0.28180863275E+03  0.00000000000E+00 0.  1.
<mgrwt>
<rscale>  0 0.68749828E+03</rscale>
<asrwt>0</asrwt>
<pdfrwt beam="1">  1        1 0.13334645E+00 0.68749828E+03</pdfrwt>
<pdfrwt beam="2">  1       -2 0.12130834E+00 0.68749828E+03</pdfrwt>
<totfact> 0.90491948E+00</totfact>
</mgrwt>
</event>
<event>
12    3  0.1092576E-007  0.5286444E+03  0.7818608E-02  0.1006561E+00
         -4   -1    0    0    0  501 -0.00000000000E+00  0.00000000000E+00  0.17890455650E+03  0.17890455650E+03  0.00000000000E+00 0.  1.
          3   -1    0    0  501    0  0.00000000000E+00 -0.00000000000E+00 -0.16457111886E+04  0.16457111886E+04  0.00000000000E+00 0. -1.
        -24    2    1    2    0    0 -0.27084037760E+03  0.25068302480E+03 -0.57760622040E+03  0.68999371974E+03  0.79157427785E+02 0.  0.
    5000000    2    1    2    0    0  0.27084037760E+03 -0.25068302480E+03 -0.88920041173E+03  0.11346220254E+04  0.60041092529E+03 0.  0.
        -24    2    4    4    0    0  0.42336783601E+03 -0.29620289442E+03 -0.60821204742E+03  0.80218218712E+03  0.81227381350E+02 0.  0.
         24    2    4    4    0    0 -0.15252745841E+03  0.45519869614E+02 -0.28098836431E+03  0.33243983827E+03  0.78899309819E+02 0.  0.
         11    1    5    5    0    0  0.27317800462E+03 -0.21641749821E+03 -0.45611351525E+03  0.57402290418E+03  0.00000000000E+00 0. -1.
        -12    1    5    5    0    0  0.15018983139E+03 -0.79785396211E+02 -0.15209853218E+03  0.22815928294E+03  0.00000000000E+00 0.  1.
         15    1    3    3    0    0 -0.16701159748E+03  0.10075401541E+03 -0.30143959429E+03  0.35904488863E+03  0.17770000000E+01 0. -1.
        -16    1    3    3    0    0 -0.10382878012E+03  0.14992900939E+03 -0.27616662611E+03  0.33094883112E+03  0.00000000000E+00 0.  1.
          4    1    6    6  502    0 -0.36238972558E+02  0.22731998438E+02 -0.23072902728E+02  0.48604173950E+02  0.00000000000E+00 0. -1.
         -3    1    6    6    0  502 -0.11628848585E+03  0.22787871176E+02 -0.25791546158E+03  0.28383566432E+03  0.00000000000E+00 0.  1.
<mgrwt>
<rscale>  0 0.52864444E+03</rscale>
<asrwt>0</asrwt>
<pdfrwt beam="1">  1        3 0.25318634E+00 0.52864444E+03</pdfrwt>
<pdfrwt beam="2">  1       -4 0.27523777E-01 0.52864444E+03</pdfrwt>
<totfact> 0.20898023E+00</totfact>
</mgrwt>
</event>
<event>
12    3  0.1092576E-007  0.5149877E+03  0.7818608E-02  0.1009939E+00
          1   -1    0    0  501    0  0.00000000000E+00  0.00000000000E+00  0.71432231379E+03  0.71432231379E+03  0.00000000000E+00 0. -1.
         -2   -1    0    0    0  501 -0.00000000000E+00 -0.00000000000E+00 -0.39313804839E+03  0.39313804839E+03  0.00000000000E+00 0.  1.
        -24    2    1    2    0    0  0.35123544056E+03  0.13468547348E+02  0.62526168279E+02  0.36564972874E+03  0.79009277489E+02 0.  0.
    5000000    2    1    2    0    0 -0.35123544056E+03 -0.13468547348E+02  0.25865809712E+03  0.74181063345E+03  0.59985937370E+03 0.  0.
        -24    2    4    4    0    0 -0.49215889106E+03  0.75244731791E+02  0.14685834471E+03  0.52682875781E+03  0.89994571657E+02 0.  0.
         24    2    4    4    0    0  0.14092345050E+03 -0.88713279139E+02  0.11179975241E+03  0.21498187564E+03  0.77385770131E+02 0.  0.
         11    1    5    5    0    0 -0.19294396859E+03 -0.31194066917E+00  0.90513604663E+02  0.21312011860E+03  0.00000000000E+00 0. -1.
        -12    1    5    5    0    0 -0.29921492247E+03  0.75556672460E+02  0.56344740047E+02  0.31370863921E+03  0.00000000000E+00 0.  1.
         15    1    3    3    0    0  0.28141513982E+03 -0.75767269781E+01  0.75753547815E+02  0.29153669657E+03  0.17770000000E+01 0. -1.
        -16    1    3    3    0    0  0.69820300745E+02  0.21045274326E+02 -0.13227379536E+02  0.74113032167E+02  0.00000000000E+00 0.  1.
          4    1    6    6  502    0  0.86151367610E+02 -0.81750374036E+02  0.10648724102E+03  0.15951399405E+03  0.00000000000E+00 0. -1.
         -3    1    6    6    0  502  0.54772082889E+02 -0.69629051027E+01  0.53125113920E+01  0.55467881596E+02  0.00000000000E+00 0.  1.
<mgrwt>
<rscale>  0 0.51498767E+03</rscale>
<asrwt>0</asrwt>
<pdfrwt beam="1">  1        1 0.10989574E+00 0.51498767E+03</pdfrwt>
<pdfrwt beam="2">  1       -2 0.60482777E-01 0.51498767E+03</pdfrwt>
<totfact> 0.61249140E+01</totfact>
</mgrwt>
</event>
<event>
12    3  0.1092576E-007  0.3043517E+03  0.7818608E-02  0.1083085E+00
         -2   -1    0    0    0  501 -0.00000000000E+00  0.00000000000E+00  0.16473988882E+03  0.16473988882E+03  0.00000000000E+00 0.  1.
          1   -1    0    0  501    0  0.00000000000E+00 -0.00000000000E+00 -0.10972947078E+04  0.10972947078E+04  0.00000000000E+00 0. -1.
        -24    2    1    2    0    0 -0.11095488323E+03 -0.16363151814E+03 -0.29948735449E+03  0.36746737276E+03  0.79078029204E+02 0.  0.
    5000000    2    1    2    0    0  0.11095488323E+03  0.16363151814E+03 -0.63306746446E+03  0.89456722383E+03  0.60032478172E+03 0.  0.
        -24    2    4    4    0    0  0.11485232173E+03 -0.65899126201E+02 -0.63288507764E+03  0.65154540319E+03  0.80213092920E+02 0.  0.
         24    2    4    4    0    0 -0.38974384968E+01  0.22953064434E+03 -0.18238681969E+00  0.24302182064E+03  0.79750017699E+02 0.  0.
         11    1    5    5    0    0  0.21903961544E+02 -0.55241544338E+02 -0.29625047413E+03  0.30215187435E+03  0.00000000000E+00 0. -1.
        -12    1    5    5    0    0  0.92948360187E+02 -0.10657581863E+02 -0.33663460351E+03  0.34939352884E+03  0.00000000000E+00 0.  1.
         15    1    3    3    0    0 -0.43606044016E+02 -0.13062679589E+03 -0.20152142370E+03  0.24408787110E+03  0.17770000000E+01 0. -1.
        -16    1    3    3    0    0 -0.67348839218E+02 -0.33004722253E+02 -0.97965930784E+02  0.12337950166E+03  0.00000000000E+00 0.  1.
          4    1    6    6  502    0 -0.34678075831E+02  0.50025123713E+02  0.15215918368E+01  0.60888399450E+02  0.00000000000E+00 0. -1.
         -3    1    6    6    0  502  0.30780637334E+02  0.17950552063E+03 -0.17039786565E+01  0.18213342119E+03  0.00000000000E+00 0.  1.
<mgrwt>
<rscale>  0 0.30435173E+03</rscale>
<asrwt>0</asrwt>
<pdfrwt beam="1">  1        1 0.16881457E+00 0.30435173E+03</pdfrwt>
<pdfrwt beam="2">  1       -2 0.25344599E-01 0.30435173E+03</pdfrwt>
<totfact> 0.16582939E+02</totfact>
</mgrwt>
</event>
<event>
12    3  0.1092576E-007  0.1169212E+04  0.7818608E-02  0.9140240E-01
          1   -1    0    0  501    0  0.00000000000E+00  0.00000000000E+00  0.17984102846E+04  0.17984102846E+04  0.00000000000E+00 0. -1.
         -2   -1    0    0    0  501 -0.00000000000E+00 -0.00000000000E+00 -0.86653892000E+03  0.86653892000E+03  0.00000000000E+00 0.  1.
        -24    2    1    2    0    0  0.58884969879E+03 -0.92844259206E+03  0.88140701911E+03  0.14114514302E+04  0.81038213216E+02 0.  0.
    5000000    2    1    2    0    0 -0.58884969879E+03  0.92844259206E+03  0.50464345451E+02  0.12534977743E+04  0.59996700376E+03 0.  0.
        -24    2    4    4    0    0 -0.56762996303E+03  0.36728889788E+03 -0.23549333819E+02  0.68151545815E+03  0.82485387452E+02 0.  0.
         24    2    4    4    0    0 -0.21219735752E+02  0.56115369418E+03  0.74013679270E+02  0.57198231618E+03  0.79636672636E+02 0.  0.
         11    1    5    5    0    0 -0.22277445094E+03  0.16074206591E+03 -0.47655781377E+02  0.27881452840E+03  0.00000000000E+00 0. -1.
        -12    1    5    5    0    0 -0.34485551209E+03  0.20654683197E+03  0.24106447557E+02  0.40270092976E+03  0.00000000000E+00 0.  1.
         15    1    3    3    0    0  0.50002335737E+03 -0.79894575785E+03  0.71823652481E+03  0.11849913693E+04  0.17770000000E+01 0. -1.
        -16    1    3    3    0    0  0.88826341412E+02 -0.12949683421E+03  0.16317049430E+03  0.22646006096E+03  0.00000000000E+00 0.  1.
          4    1    6    6  502    0 -0.17429757730E+02  0.14981030226E+03 -0.13472210397E+02  0.15142134450E+03  0.00000000000E+00 0. -1.
         -3    1    6    6    0  502 -0.37899780218E+01  0.41134339193E+03  0.87485889667E+02  0.42056097169E+03  0.00000000000E+00 0.  1.
<mgrwt>
<rscale>  0 0.11692120E+04</rscale>
<asrwt>0</asrwt>
<pdfrwt beam="1">  1        1 0.27667851E+00 0.11692120E+04</pdfrwt>
<pdfrwt beam="2">  1       -2 0.13331368E+00 0.11692120E+04</pdfrwt>
<totfact> 0.14323217E+00</totfact>
</mgrwt>
</event>
<event>
12    3  0.1092576E-007  0.1567516E+04  0.7818608E-02  0.8840756E-01
          1   -1    0    0  501    0  0.00000000000E+00  0.00000000000E+00  0.26572984019E+04  0.26572984019E+04  0.00000000000E+00 0. -1.
         -2   -1    0    0    0  501 -0.00000000000E+00 -0.00000000000E+00 -0.13312801866E+04  0.13312801866E+04  0.00000000000E+00 0.  1.
        -24    2    1    2    0    0  0.15413227951E+04  0.13470832955E+03  0.16868314423E+04  0.22903347415E+04  0.80066352310E+02 0.  0.
    5000000    2    1    2    0    0 -0.15413227951E+04 -0.13470832955E+03 -0.36081322708E+03  0.16982438469E+04  0.60001973802E+03 0.  0.
        -24    2    4    4    0    0 -0.42035306777E+03  0.10287907675E+03  0.11454336599E+03  0.45512295834E+03  0.82072641574E+02 0.  0.
         24    2    4    4    0    0 -0.11209697274E+04 -0.23758740630E+03 -0.47535659307E+03  0.12431208886E+04  0.79779369700E+02 0.  0.
         11    1    5    5    0    0 -0.12251234409E+03  0.66281815321E+02  0.21457922940E+02  0.14093614141E+03  0.00000000000E+00 0. -1.
        -12    1    5    5    0    0 -0.29784072368E+03  0.36597261430E+02  0.93085443054E+02  0.31418681693E+03  0.00000000000E+00 0.  1.
         15    1    3    3    0    0  0.25155463341E+03  0.21761341638E+02  0.32052207795E+03  0.40803290279E+03  0.17770000000E+01 0. -1.
        -16    1    3    3    0    0  0.12897681617E+04  0.11294698791E+03  0.13663093643E+04  0.18823018387E+04  0.00000000000E+00 0.  1.
          4    1    6    6  502    0 -0.91860162926E+03 -0.22465173686E+03 -0.40001858728E+03  0.10267970716E+04  0.00000000000E+00 0. -1.
         -3    1    6    6    0  502 -0.20236809809E+03 -0.12935669436E+02 -0.75338005794E+02  0.21632381697E+03  0.00000000000E+00 0.  1.
<mgrwt>
<rscale>  0 0.15675162E+04</rscale>
<asrwt>0</asrwt>
<pdfrwt beam="1">  1        1 0.40881514E+00 0.15675162E+04</pdfrwt>
<pdfrwt beam="2">  1       -2 0.20481234E+00 0.15675162E+04</pdfrwt>
<totfact> 0.10663074E-01</totfact>
</mgrwt>
</event>
<event>
12    3  0.1092576E-007  0.1178919E+04  0.7818608E-02  0.9131512E-01
         -2   -1    0    0    0  501 -0.00000000000E+00  0.00000000000E+00  0.40750601861E+03  0.40750601861E+03  0.00000000000E+00 0.  1.
          1   -1    0    0  501    0  0.00000000000E+00 -0.00000000000E+00 -0.36927533583E+04  0.36927533583E+04  0.00000000000E+00 0. -1.
        -24    2    1    2    0    0 -0.88824443303E+02 -0.11400306419E+04 -0.13161220984E+04  0.17454429839E+04  0.82669135495E+02 0.  0.
    5000000    2    1    2    0    0  0.88824443303E+02  0.11400306419E+04 -0.19691252413E+04  0.23548163930E+04  0.60012197318E+03 0.  0.
        -24    2    4    4    0    0  0.19446210817E+03  0.34090301996E+03 -0.10784991878E+04  0.11506005912E+04  0.81797567013E+02 0.  0.
         24    2    4    4    0    0 -0.10563766487E+03  0.79912762195E+03 -0.89062605352E+03  0.12042158018E+04  0.84597031104E+02 0.  0.
         13    1    5    5    0    0  0.51802136968E+02  0.17287126645E+03 -0.48124702655E+03  0.51397143571E+03  0.00000000000E+00 0. -1.
        -14    1    5    5    0    0  0.14265997120E+03  0.16803175350E+03 -0.59725216121E+03  0.63662915551E+03  0.00000000000E+00 0.  1.
         15    1    3    3    0    0 -0.37682783168E+02 -0.91138881662E+03 -0.10443139848E+04  0.13865945419E+04  0.17770000000E+01 0. -1.
        -16    1    3    3    0    0 -0.51141660135E+02 -0.22864182529E+03 -0.27180811368E+03  0.35884844201E+03  0.00000000000E+00 0.  1.
          4    1    6    6  502    0 -0.31548245034E+02  0.54147861305E+03 -0.59997016247E+03  0.80880070228E+03  0.00000000000E+00 0. -1.
         -3    1    6    6    0  502 -0.74089419835E+02  0.25764900890E+03 -0.29065589105E+03  0.39541509951E+03  0.00000000000E+00 0.  1.
<mgrwt>
<rscale>  0 0.11789186E+04</rscale>
<asrwt>0</asrwt>
<pdfrwt beam="1">  1        1 0.56811591E+00 0.11789186E+04</pdfrwt>
<pdfrwt beam="2">  1       -2 0.62693232E-01 0.11789186E+04</pdfrwt>
<totfact> 0.36691818E-01</totfact>
</mgrwt>
</event>
<event>
12    3  0.1092576E-007  0.1194061E+04  0.7818608E-02  0.9118071E-01
          1   -1    0    0  501    0  0.00000000000E+00  0.00000000000E+00  0.48704009921E+03  0.48704009921E+03  0.00000000000E+00 0. -1.
         -2   -1    0    0    0  501 -0.00000000000E+00 -0.00000000000E+00 -0.30558919846E+04  0.30558919846E+04  0.00000000000E+00 0.  1.
        -24    2    1    2    0    0 -0.99764126113E+03  0.51647686173E+03 -0.15283306529E+04  0.18983242559E+04  0.76183733418E+02 0.  0.
    5000000    2    1    2    0    0  0.99764126113E+03 -0.51647686173E+03 -0.10405212325E+04  0.16446078279E+04  0.60001169809E+03 0.  0.
        -24    2    4    4    0    0  0.63541100353E+03 -0.11174258584E+02 -0.60675644879E+03  0.88240232220E+03  0.81292451070E+02 0.  0.
         24    2    4    4    0    0  0.36223025759E+03 -0.50530260315E+03 -0.43376478368E+03  0.76220550573E+03  0.79144583746E+02 0.  0.
         13    1    5    5    0    0  0.16167836520E+03  0.28168776077E+02 -0.17996408731E+03  0.24355789135E+03  0.00000000000E+00 0. -1.
        -14    1    5    5    0    0  0.47373263834E+03 -0.39343034661E+02 -0.42679236148E+03  0.63884443084E+03  0.00000000000E+00 0.  1.
         15    1    3    3    0    0 -0.25282830568E+03  0.16867373710E+03 -0.40622678058E+03  0.50734242552E+03  0.17770000000E+01 0. -1.
        -16    1    3    3    0    0 -0.74481295545E+03  0.34780312463E+03 -0.11221038723E+04  0.13909818303E+04  0.00000000000E+00 0.  1.
          4    1    6    6  502    0  0.19665583810E+03 -0.24456255080E+03 -0.26184081297E+03  0.40871135444E+03  0.00000000000E+00 0. -1.
         -3    1    6    6    0  502  0.16557441949E+03 -0.26074005235E+03 -0.17192397071E+03  0.35349415129E+03  0.00000000000E+00 0.  1.
<mgrwt>
<rscale>  0 0.11940606E+04</rscale>
<asrwt>0</asrwt>
<pdfrwt beam="1">  1        1 0.74929248E-01 0.11940606E+04</pdfrwt>
<pdfrwt beam="2">  1       -2 0.47013722E+00 0.11940606E+04</pdfrwt>
<totfact> 0.10232840E-01</totfact>
</mgrwt>
</event>
<event>
12    3  0.1092576E-007  0.2533423E+03  0.7818608E-02  0.1111211E+00
         -2   -1    0    0    0  501 -0.00000000000E+00  0.00000000000E+00  0.14015664433E+03  0.14015664433E+03  0.00000000000E+00 0.  1.
          1   -1    0    0  501    0  0.00000000000E+00 -0.00000000000E+00 -0.17436204018E+04  0.17436204018E+04  0.00000000000E+00 0. -1.
        -24    2    1    2    0    0 -0.16538533730E+03  0.40606323537E+02 -0.99343667251E+03  0.10112583018E+04  0.82010653480E+02 0.  0.
    5000000    2    1    2    0    0  0.16538533730E+03 -0.40606323537E+02 -0.61002708497E+03  0.87251874438E+03  0.60012892915E+03 0.  0.
        -24    2    4    4    0    0  0.17472502781E+03 -0.13108674684E+03 -0.68946614817E+03  0.72744496788E+03  0.78102761078E+02 0.  0.
         24    2    4    4    0    0 -0.93396905098E+01  0.90480423299E+02  0.79439063196E+02  0.14507377650E+03  0.80385938126E+02 0.  0.
         13    1    5    5    0    0  0.40383527490E+02 -0.12834361586E+01 -0.74744355106E+02  0.84965846792E+02  0.00000000000E+00 0. -1.
        -14    1    5    5    0    0  0.13434150032E+03 -0.12980331068E+03 -0.61472179306E+03  0.64247912109E+03  0.00000000000E+00 0.  1.
         15    1    3    3    0    0 -0.50675224956E+02 -0.24498806695E+02 -0.34161176042E+03  0.34622235997E+03  0.17770000000E+01 0. -1.
        -16    1    3    3    0    0 -0.11471011234E+03  0.65105130231E+02 -0.65182491209E+03  0.66503594179E+03  0.00000000000E+00 0.  1.
          2    1    6    6  502    0 -0.69207971780E+01  0.84878374845E+02  0.22871285415E+02  0.88177841018E+02  0.00000000000E+00 0. -1.
         -1    1    6    6    0  502 -0.24188933319E+01  0.56020484540E+01  0.56567777780E+02  0.56895935486E+02  0.00000000000E+00 0.  1.
<mgrwt>
<rscale>  0 0.25334233E+03</rscale>
<asrwt>0</asrwt>
<pdfrwt beam="1">  1        1 0.26824930E+00 0.25334233E+03</pdfrwt>
<pdfrwt beam="2">  1       -2 0.21562560E-01 0.25334233E+03</pdfrwt>
<totfact> 0.81323432E+01</totfact>
</mgrwt>
</event>
<event>
12    3  0.1092576E-007  0.4893505E+03  0.7818608E-02  0.1016597E+00
         -2   -1    0    0    0  501 -0.00000000000E+00  0.00000000000E+00  0.45157505276E+03  0.45157505276E+03  0.00000000000E+00 0.  1.
          1   -1    0    0  501    0  0.00000000000E+00 -0.00000000000E+00 -0.63081926087E+03  0.63081926087E+03  0.00000000000E+00 0. -1.
        -24    2    1    2    0    0 -0.21203886493E+03 -0.28890508020E+03 -0.21837668747E+02  0.36604083243E+03  0.71290824281E+02 0.  0.
    5000000    2    1    2    0    0  0.21203886493E+03  0.28890508020E+03 -0.15740653936E+03  0.71635348120E+03  0.59996572051E+03 0.  0.
        -24    2    4    4    0    0 -0.15575997499E+03  0.97679913336E+02  0.97046298001E+02  0.22356287150E+03  0.82218235695E+02 0.  0.
         24    2    4    4    0    0  0.36779883992E+03  0.19122516686E+03 -0.25445283737E+03  0.49279060970E+03  0.79077730601E+02 0.  0.
         11    1    5    5    0    0 -0.82058292602E+02  0.13888484628E+02  0.13848967434E+02  0.84369705991E+02  0.00000000000E+00 0. -1.
        -12    1    5    5    0    0 -0.73701682388E+02  0.83791428708E+02  0.83197330568E+02  0.13919316551E+03  0.00000000000E+00 0.  1.
         15    1    3    3    0    0 -0.10157538398E+03 -0.18558850540E+03 -0.34057552266E+02  0.21429821876E+03  0.17770000000E+01 0. -1.
        -16    1    3    3    0    0 -0.11046348095E+03 -0.10331657480E+03  0.12219883519E+02  0.15174261367E+03  0.00000000000E+00 0.  1.
          4    1    6    6  502    0  0.16514914057E+03  0.12745437340E+03 -0.10949677450E+03  0.23560220618E+03  0.00000000000E+00 0. -1.
         -3    1    6    6    0  502  0.20264969934E+03  0.63770793464E+02 -0.14495606287E+03  0.25718840352E+03  0.00000000000E+00 0.  1.
<mgrwt>
<rscale>  0 0.48935045E+03</rscale>
<asrwt>0</asrwt>
<pdfrwt beam="1">  1        1 0.97049117E-01 0.48935045E+03</pdfrwt>
<pdfrwt beam="2">  1       -2 0.69473085E-01 0.48935045E+03</pdfrwt>
<totfact> 0.54876481E+01</totfact>
</mgrwt>
</event>
<event>
12    3  0.1092576E-007  0.1193784E+04  0.7818608E-02  0.9118315E-01
          1   -1    0    0  501    0  0.00000000000E+00  0.00000000000E+00  0.99508019782E+03  0.99508019782E+03  0.00000000000E+00 0. -1.
         -2   -1    0    0    0  501 -0.00000000000E+00 -0.00000000000E+00 -0.16646550296E+04  0.16646550296E+04  0.00000000000E+00 0.  1.
        -24    2    1    2    0    0 -0.47361535093E+03  0.10824025219E+04 -0.61340979226E+03  0.13334500155E+04  0.76880755407E+02 0.  0.
    5000000    2    1    2    0    0  0.47361535093E+03 -0.10824025219E+04 -0.56165039564E+02  0.13262852119E+04  0.59997602589E+03 0.  0.
        -24    2    4    4    0    0  0.40402564243E+03 -0.71279586393E+03 -0.29121477259E+03  0.87554317192E+03  0.10225037274E+03 0.  0.
         24    2    4    4    0    0  0.69589708499E+02 -0.36960665799E+03  0.23504973303E+03  0.45074204003E+03  0.80425123519E+02 0.  0.
         11    1    5    5    0    0  0.40806547844E+03 -0.68436848427E+03 -0.28445591575E+03  0.84604540360E+03  0.00000000000E+00 0. -1.
        -12    1    5    5    0    0 -0.40398360030E+01 -0.28427379669E+02 -0.67588568390E+01  0.29497768315E+02  0.00000000000E+00 0.  1.
         15    1    3    3    0    0 -0.10511751332E+03  0.28037614002E+03 -0.18885651020E+03  0.35402035347E+03  0.17770000000E+01 0. -1.
        -16    1    3    3    0    0 -0.36849783762E+03  0.80202638191E+03 -0.42455328206E+03  0.97942966206E+03  0.00000000000E+00 0.  1.
          2    1    6    6  502    0 -0.57756816812E+01 -0.96686786737E+02  0.91723154410E+02  0.13339726490E+03  0.00000000000E+00 0. -1.
         -1    1    6    6    0  502  0.75365390180E+02 -0.27291987126E+03  0.14332657862E+03  0.31734477513E+03  0.00000000000E+00 0.  1.
<mgrwt>
<rscale>  0 0.11937842E+04</rscale>
<asrwt>0</asrwt>
<pdfrwt beam="1">  1        1 0.15308926E+00 0.11937842E+04</pdfrwt>
<pdfrwt beam="2">  1       -2 0.25610077E+00 0.11937842E+04</pdfrwt>
<totfact> 0.77177526E-01</totfact>
</mgrwt>
</event>
<event>
12    3  0.1092576E-007  0.1043349E+04  0.7818608E-02  0.9262238E-01
          1   -1    0    0  501    0  0.00000000000E+00  0.00000000000E+00  0.39289357895E+04  0.39289357895E+04  0.00000000000E+00 0. -1.
         -2   -1    0    0    0  501 -0.00000000000E+00 -0.00000000000E+00 -0.52671038195E+03  0.52671038195E+03  0.00000000000E+00 0.  1.
        -24    2    1    2    0    0  0.93736893888E+03  0.25647650408E+03  0.12240232691E+03  0.98264061757E+03  0.78482666467E+02 0.  0.
    5000000    2    1    2    0    0 -0.93736893888E+03 -0.25647650408E+03  0.32798230806E+04  0.34730055539E+04  0.60007283911E+03 0.  0.
        -24    2    4    4    0    0  0.48390002474E+02 -0.10107489848E+03  0.49074688726E+03  0.50960321559E+03  0.79405305507E+02 0.  0.
         24    2    4    4    0    0 -0.98575894136E+03 -0.15540160560E+03  0.27890761934E+04  0.29634023383E+04  0.83288994500E+02 0.  0.
         13    1    5    5    0    0  0.23695803239E+02 -0.50262436340E+02  0.39132836189E+03  0.39525395687E+03  0.00000000000E+00 0. -1.
        -14    1    5    5    0    0  0.24694199235E+02 -0.50812462135E+02  0.99418525371E+02  0.11434925873E+03  0.00000000000E+00 0.  1.
         15    1    3    3    0    0  0.78365071359E+03  0.19227990252E+03  0.12191292117E+03  0.81605509612E+03  0.17770000000E+01 0. -1.
        -16    1    3    3    0    0  0.15371822529E+03  0.64196601559E+02  0.48940573931E+00  0.16658552145E+03  0.00000000000E+00 0.  1.
          2    1    6    6  502    0 -0.15979603742E+03  0.44741222328E+01  0.47009981234E+03  0.49653662997E+03  0.00000000000E+00 0. -1.
         -1    1    6    6    0  502 -0.82596290394E+03 -0.15987572783E+03  0.23189763810E+04  0.24668657083E+04  0.00000000000E+00 0.  1.
<mgrwt>
<rscale>  0 0.10433488E+04</rscale>
<asrwt>0</asrwt>
<pdfrwt beam="1">  1        1 0.60445164E+00 0.10433488E+04</pdfrwt>
<pdfrwt beam="2">  1       -2 0.81032369E-01 0.10433488E+04</pdfrwt>
<totfact> 0.13563254E-01</totfact>
</mgrwt>
</event>
<event>
12    3  0.1092576E-007  0.5758737E+03  0.7818608E-02  0.9956765E-01
          1   -1    0    0  501    0  0.00000000000E+00  0.00000000000E+00  0.10321738566E+04  0.10321738566E+04  0.00000000000E+00 0. -1.
         -2   -1    0    0    0  501 -0.00000000000E+00 -0.00000000000E+00 -0.47329671106E+03  0.47329671106E+03  0.00000000000E+00 0.  1.
        -24    2    1    2    0    0  0.54253069918E+03  0.16364619572E+03  0.21769625618E+03  0.61223408592E+03  0.79493893391E+02 0.  0.
    5000000    2    1    2    0    0 -0.54253069918E+03 -0.16364619572E+03  0.34118088935E+03  0.89323648174E+03  0.60028941031E+03 0.  0.
        -24    2    4    4    0    0 -0.39409609303E+03 -0.14959896858E+03  0.50199854337E+03  0.66010723326E+03  0.77765287398E+02 0.  0.
         24    2    4    4    0    0 -0.14843460615E+03 -0.14047227140E+02 -0.16081765401E+03  0.23312924848E+03  0.79099758281E+02 0.  0.
         13    1    5    5    0    0 -0.24723969758E+02 -0.31342584522E+02  0.60088363060E+02  0.72140443999E+02  0.00000000000E+00 0. -1.
        -14    1    5    5    0    0 -0.36937212327E+03 -0.11825638406E+03  0.44191018031E+03  0.58796678926E+03  0.00000000000E+00 0.  1.
         15    1    3    3    0    0  0.37471683830E+03  0.87067939312E+02  0.11712407132E+03  0.40213771370E+03  0.17770000000E+01 0. -1.
        -16    1    3    3    0    0  0.16781386087E+03  0.76578256407E+02  0.10057218486E+03  0.21009637223E+03  0.00000000000E+00 0.  1.
          2    1    6    6  502    0 -0.12275894867E+00 -0.63076572198E+01 -0.43264742564E+02  0.43722300471E+02  0.00000000000E+00 0. -1.
         -1    1    6    6    0  502 -0.14831184720E+03 -0.77395699206E+01 -0.11755291145E+03  0.18940694801E+03  0.00000000000E+00 0.  1.
<mgrwt>
<rscale>  0 0.57587372E+03</rscale>
<asrwt>0</asrwt>
<pdfrwt beam="1">  1        1 0.15879598E+00 0.57587372E+03</pdfrwt>
<pdfrwt beam="2">  1       -2 0.72814879E-01 0.57587372E+03</pdfrwt>
<totfact> 0.22315432E+01</totfact>
</mgrwt>
</event>
<event>
12    3  0.1092576E-007  0.9117836E+03  0.7818608E-02  0.9410970E-01
         -2   -1    0    0    0  501 -0.00000000000E+00  0.00000000000E+00  0.41812558437E+03  0.41812558437E+03  0.00000000000E+00 0.  1.
          1   -1    0    0  501    0  0.00000000000E+00 -0.00000000000E+00 -0.31128088152E+04  0.31128088152E+04  0.00000000000E+00 0. -1.
        -24    2    1    2    0    0  0.55161081104E+02  0.85384757164E+03 -0.28664094321E+03  0.90588459410E+03  0.79783751725E+02 0.  0.
    5000000    2    1    2    0    0 -0.55161081104E+02 -0.85384757164E+03 -0.24080422876E+04  0.26250498055E+04  0.60010032640E+03 0.  0.
        -24    2    4    4    0    0 -0.16449452223E+03 -0.78072877191E+02 -0.20731904530E+03  0.28768175816E+03  0.81398927733E+02 0.  0.
         24    2    4    4    0    0  0.10933344112E+03 -0.77577469445E+03 -0.22007232423E+04  0.23373680473E+04  0.79538804278E+02 0.  0.
         11    1    5    5    0    0 -0.13345988601E+03 -0.65330246684E+02 -0.20613934583E+03  0.25411220396E+03  0.00000000000E+00 0. -1.
        -12    1    5    5    0    0 -0.31034636223E+02 -0.12742630507E+02 -0.11796994675E+01  0.33569554191E+02  0.00000000000E+00 0.  1.
         15    1    3    3    0    0  0.14853699198E+02  0.63180198592E+03 -0.23593811639E+03  0.67458456422E+03  0.17770000000E+01 0. -1.
        -16    1    3    3    0    0  0.40307381906E+02  0.22204558572E+03 -0.50702826820E+02  0.23130002988E+03  0.00000000000E+00 0.  1.
          2    1    6    6  502    0  0.39727513795E+02 -0.36339897423E+03 -0.91430818636E+03  0.98468093790E+03  0.00000000000E+00 0. -1.
         -1    1    6    6    0  502  0.69605927330E+02 -0.41237572022E+03 -0.12864150560E+04  0.13526871094E+04  0.00000000000E+00 0.  1.
<mgrwt>
<rscale>  0 0.91178364E+03</rscale>
<asrwt>0</asrwt>
<pdfrwt beam="1">  1        1 0.47889366E+00 0.91178364E+03</pdfrwt>
<pdfrwt beam="2">  1       -2 0.64327013E-01 0.91178364E+03</pdfrwt>
<totfact> 0.10090979E+00</totfact>
</mgrwt>
</event>
<event>
12    3  0.1092576E-007  0.9985867E+03  0.7818608E-02  0.9310096E-01
          1   -1    0    0  501    0  0.00000000000E+00  0.00000000000E+00  0.29843935514E+04  0.29843935514E+04  0.00000000000E+00 0. -1.
         -2   -1    0    0    0  501 -0.00000000000E+00 -0.00000000000E+00 -0.36394082162E+03  0.36394082162E+03  0.00000000000E+00 0.  1.
        -24    2    1    2    0    0  0.13691103461E+03 -0.92631470494E+03  0.91184762714E+03  0.13096689850E+04  0.83445738353E+02 0.  0.
    5000000    2    1    2    0    0 -0.13691103461E+03  0.92631470494E+03  0.17086051026E+04  0.20386653880E+04  0.60001800257E+03 0.  0.
        -24    2    4    4    0    0 -0.24968600816E+03  0.89332719379E+03  0.16280354557E+04  0.18753662461E+04  0.78246623559E+02 0.  0.
         24    2    4    4    0    0  0.11277497354E+03  0.32987511158E+02  0.80569646885E+02  0.16329914186E+03  0.79804581209E+02 0.  0.
         11    1    5    5    0    0 -0.19792270420E+03  0.56937578679E+03  0.10519421485E+04  0.12124126638E+04  0.00000000000E+00 0. -1.
        -12    1    5    5    0    0 -0.51763303960E+02  0.32395140700E+03  0.57609330719E+03  0.66295358233E+03  0.00000000000E+00 0.  1.
         15    1    3    3    0    0  0.11509187486E+03 -0.68226706562E+03  0.62473752550E+03  0.93222026474E+03  0.17770000000E+01 0. -1.
        -16    1    3    3    0    0  0.21819159753E+02 -0.24404763932E+03  0.28711010164E+03  0.37744872030E+03  0.00000000000E+00 0.  1.
          2    1    6    6  502    0  0.28887571941E+02 -0.15202350338E+02 -0.63364602039E+01  0.33252879519E+02  0.00000000000E+00 0. -1.
         -1    1    6    6    0  502  0.83887401604E+02  0.48189861495E+02  0.86906107089E+02  0.13004626234E+03  0.00000000000E+00 0.  1.
<mgrwt>
<rscale>  0 0.99858667E+03</rscale>
<asrwt>0</asrwt>
<pdfrwt beam="1">  1        1 0.45913745E+00 0.99858667E+03</pdfrwt>
<pdfrwt beam="2">  1       -2 0.55990898E-01 0.99858667E+03</pdfrwt>
<totfact> 0.16551871E+00</totfact>
</mgrwt>
</event>
<event>
12    3  0.1302083E-007  0.1062687E+04  0.7818608E-02  0.9242342E-01
          1   -1    0    0  501    0  0.00000000000E+00  0.00000000000E+00  0.83056643028E+03  0.83056643028E+03  0.00000000000E+00 0. -1.
         -2   -1    0    0    0  501 -0.00000000000E+00 -0.00000000000E+00 -0.15642010401E+04  0.15642010401E+04  0.00000000000E+00 0.  1.
        -24    2    1    2    0    0  0.10461047964E+04  0.13674539061E+03 -0.24358762017E+03  0.10856645102E+04  0.79359643809E+02 0.  0.
    5000000    2    1    2    0    0 -0.10461047964E+04 -0.13674539061E+03 -0.49004698967E+03  0.13091029602E+04  0.60047478004E+03 0.  0.
        -24    2    4    4    0    0 -0.60512107971E+03  0.30025406210E+01 -0.56744210436E+03  0.83330980921E+03  0.78956696755E+02 0.  0.
         24    2    4    4    0    0 -0.44098371669E+03 -0.13974793123E+03  0.77395114692E+02  0.47579315101E+03  0.79956213633E+02 0.  0.
         11    1    5    5    0    0 -0.44320939774E+03 -0.21774336802E+02 -0.37839461900E+03  0.58317337017E+03  0.00000000000E+00 0. -1.
        -12    1    5    5    0    0 -0.16191168197E+03  0.24776877423E+02 -0.18904748536E+03  0.25013643904E+03  0.00000000000E+00 0.  1.
         15    1    3    3    0    0  0.75076312106E+03  0.88114942104E+02 -0.20949140919E+03  0.78441017026E+03  0.17770000000E+01 0. -1.
        -16    1    3    3    0    0  0.29534167535E+03  0.48630448502E+02 -0.34096210981E+02  0.30125433992E+03  0.00000000000E+00 0.  1.
          2    1    6    6  502    0 -0.38315320181E+03 -0.12122657845E+03  0.38574245162E+02  0.40372048718E+03  0.00000000000E+00 0. -1.
         -1    1    6    6    0  502 -0.57830514887E+02 -0.18521352781E+02  0.38820869530E+02  0.72072663833E+02  0.00000000000E+00 0.  1.
<mgrwt>
<rscale>  0 0.10626875E+04</rscale>
<asrwt>0</asrwt>
<pdfrwt beam="1">  1        1 0.12777945E+00 0.10626875E+04</pdfrwt>
<pdfrwt beam="2">  1       -2 0.24064631E+00 0.10626875E+04</pdfrwt>
<totfact> 0.13287941E+00</totfact>
</mgrwt>
</event>
<event>
12    3  0.1092576E-007  0.4883402E+03  0.7818608E-02  0.1016868E+00
         -2   -1    0    0    0  501 -0.00000000000E+00  0.00000000000E+00  0.38978483589E+03  0.38978483589E+03  0.00000000000E+00 0.  1.
          1   -1    0    0  501    0  0.00000000000E+00 -0.00000000000E+00 -0.64692520222E+03  0.64692520222E+03  0.00000000000E+00 0. -1.
        -24    2    1    2    0    0 -0.26736801451E+03 -0.16458631818E+03 -0.12236124519E+03  0.34628818596E+03  0.79805526713E+02 0.  0.
    5000000    2    1    2    0    0  0.26736801451E+03  0.16458631818E+03 -0.13477912114E+03  0.69042185215E+03  0.59995217402E+03 0.  0.
        -24    2    4    4    0    0  0.26472982402E+03  0.36240935921E+03 -0.45036172550E+02  0.45814840092E+03  0.80307391069E+02 0.  0.
         24    2    4    4    0    0  0.26381904915E+01 -0.19782304103E+03 -0.89742948593E+02  0.23227345123E+03  0.82196372848E+02 0.  0.
         11    1    5    5    0    0  0.11603670555E+03  0.19824852102E+03 -0.55816854828E+02  0.23639482736E+03  0.00000000000E+00 0. -1.
        -12    1    5    5    0    0  0.14869311847E+03  0.16416083820E+03  0.10780682278E+02  0.22175357356E+03  0.00000000000E+00 0.  1.
         15    1    3    3    0    0 -0.19677388977E+03 -0.12662875759E+03 -0.12654115699E+03  0.26602749498E+03  0.17770000000E+01 0. -1.
        -16    1    3    3    0    0 -0.70594124735E+02 -0.37957560589E+02  0.41799117971E+01  0.80260690974E+02  0.00000000000E+00 0.  1.
          2    1    6    6  502    0 -0.25507959280E+02 -0.16944208964E+03 -0.56936183835E+02  0.18056302710E+03  0.00000000000E+00 0. -1.
         -1    1    6    6    0  502  0.28146149771E+02 -0.28380951400E+02 -0.32806764758E+02  0.51710424125E+02  0.00000000000E+00 0.  1.
<mgrwt>
<rscale>  0 0.48834019E+03</rscale>
<asrwt>0</asrwt>
<pdfrwt beam="1">  1        1 0.99526955E-01 0.48834019E+03</pdfrwt>
<pdfrwt beam="2">  1       -2 0.59966898E-01 0.48834019E+03</pdfrwt>
<totfact> 0.72409762E+01</totfact>
</mgrwt>
</event>
<event>
12    3  0.1092576E-007  0.8304301E+03  0.7818608E-02  0.9516986E-01
          1   -1    0    0  501    0  0.00000000000E+00  0.00000000000E+00  0.10131607737E+04  0.10131607737E+04  0.00000000000E+00 0. -1.
         -2   -1    0    0    0  501 -0.00000000000E+00 -0.00000000000E+00 -0.11344961192E+04  0.11344961192E+04  0.00000000000E+00 0.  1.
        -24    2    1    2    0    0  0.72656153455E+03 -0.88978663757E+01 -0.72423368168E+03  0.10290562991E+04  0.80446290011E+02 0.  0.
    5000000    2    1    2    0    0 -0.72656153455E+03  0.88978663757E+01  0.60289833614E+03  0.11186005938E+04  0.59984168676E+03 0.  0.
        -24    2    4    4    0    0 -0.54398627612E+03 -0.25749867974E+03  0.34681833708E+03  0.69868067636E+03  0.75133813334E+02 0.  0.
         24    2    4    4    0    0 -0.18257525843E+03  0.26639654611E+03  0.25607999906E+03  0.41991991743E+03  0.80342556348E+02 0.  0.
         11    1    5    5    0    0 -0.43765861314E+03 -0.17263889176E+03  0.26761753511E+03  0.54126554823E+03  0.00000000000E+00 0. -1.
        -12    1    5    5    0    0 -0.10632766298E+03 -0.84859787972E+02  0.79200801974E+02  0.15741512812E+03  0.00000000000E+00 0.  1.
         15    1    3    3    0    0  0.32914453922E+03  0.34920504114E+02 -0.31508114120E+03  0.45698452116E+03  0.17770000000E+01 0. -1.
        -16    1    3    3    0    0  0.39741699533E+03 -0.43818370490E+02 -0.40915254048E+03  0.57207177797E+03  0.00000000000E+00 0.  1.
          4    1    6    6  502    0 -0.74989430056E+02  0.93106084548E+02  0.14408828703E+03  0.18722604535E+03  0.00000000000E+00 0. -1.
         -3    1    6    6    0  502 -0.10758582838E+03  0.17329046156E+03  0.11199171203E+03  0.23269387208E+03  0.00000000000E+00 0.  1.
<mgrwt>
<rscale>  0 0.83043013E+03</rscale>
<asrwt>0</asrwt>
<pdfrwt beam="1">  1        1 0.15587089E+00 0.83043013E+03</pdfrwt>
<pdfrwt beam="2">  1       -2 0.17453787E+00 0.83043013E+03</pdfrwt>
<totfact> 0.26076318E+00</totfact>
</mgrwt>
</event>
<event>
12    3  0.1092576E-007  0.5048639E+03  0.7818608E-02  0.1012517E+00
         -2   -1    0    0    0  501 -0.00000000000E+00  0.00000000000E+00  0.10214186341E+04  0.10214186341E+04  0.00000000000E+00 0.  1.
          1   -1    0    0  501    0  0.00000000000E+00 -0.00000000000E+00 -0.33879317615E+03  0.33879317615E+03  0.00000000000E+00 0. -1.
        -24    2    1    2    0    0 -0.40313579116E+03  0.18639373546E+02  0.42828486836E+03  0.59403996649E+03  0.81176726735E+02 0.  0.
    5000000    2    1    2    0    0  0.40313579116E+03 -0.18639373546E+02  0.25434058954E+03  0.76617184371E+03  0.59955338899E+03 0.  0.
        -24    2    4    4    0    0  0.10497353547E+03  0.20632783964E+03 -0.81770510222E+02  0.25753910189E+03  0.77777580975E+02 0.  0.
         24    2    4    4    0    0  0.29816225569E+03 -0.22496721318E+03  0.33611109976E+03  0.50863274182E+03  0.78902578816E+02 0.  0.
         11    1    5    5    0    0  0.57532083788E+02  0.11702141581E+03 -0.86202997470E+02  0.15631669519E+03  0.00000000000E+00 0. -1.
        -12    1    5    5    0    0  0.47441451684E+02  0.89306423830E+02  0.44324872474E+01  0.10122240670E+03  0.00000000000E+00 0.  1.
         15    1    3    3    0    0 -0.62425769354E+02  0.13617494875E+02  0.32255827936E+02  0.71596152208E+02  0.17770000000E+01 0. -1.
        -16    1    3    3    0    0 -0.34071002180E+03  0.50218786702E+01  0.39602904043E+03  0.52244381429E+03  0.00000000000E+00 0.  1.
          2    1    6    6  502    0  0.11347889287E+03 -0.82946100163E+02  0.17916853005E+03  0.22772544175E+03  0.00000000000E+00 0. -1.
         -1    1    6    6    0  502  0.18468336282E+03 -0.14202111302E+03  0.15694256971E+03  0.28090730007E+03  0.00000000000E+00 0.  1.
<mgrwt>
<rscale>  0 0.50486385E+03</rscale>
<asrwt>0</asrwt>
<pdfrwt beam="1">  1        1 0.52122028E-01 0.50486385E+03</pdfrwt>
<pdfrwt beam="2">  1       -2 0.15714133E+00 0.50486385E+03</pdfrwt>
<totfact> 0.18028759E+01</totfact>
</mgrwt>
</event>
<event>
12    3  0.1092576E-007  0.6020881E+03  0.7818608E-02  0.9901083E-01
         -2   -1    0    0    0  501 -0.00000000000E+00  0.00000000000E+00  0.55124849227E+03  0.55124849227E+03  0.00000000000E+00 0.  1.
          1   -1    0    0  501    0  0.00000000000E+00 -0.00000000000E+00 -0.69371825623E+03  0.69371825623E+03  0.00000000000E+00 0. -1.
        -24    2    1    2    0    0  0.41907443709E+03  0.20983340310E+03 -0.54704030900E+02  0.47851184785E+03  0.79546317707E+02 0.  0.
    5000000    2    1    2    0    0 -0.41907443709E+03 -0.20983340310E+03 -0.87765733057E+02  0.76645490065E+03  0.60008070287E+03 0.  0.
        -24    2    4    4    0    0 -0.55252488230E+03 -0.12286207775E+03 -0.12351488278E+03  0.58464032132E+03  0.78546440635E+02 0.  0.
         24    2    4    4    0    0  0.13345044521E+03 -0.86971325349E+02  0.35749149724E+02  0.18181457933E+03  0.80034410044E+02 0.  0.
         11    1    5    5    0    0 -0.23809851364E+03 -0.14428327588E+02 -0.61097242314E+02  0.24623556171E+03  0.00000000000E+00 0. -1.
        -12    1    5    5    0    0 -0.31442636866E+03 -0.10843375016E+03 -0.62417640467E+02  0.33840475961E+03  0.00000000000E+00 0.  1.
         15    1    3    3    0    0  0.28903078904E+03  0.17437285177E+03 -0.63303823988E+02  0.34344609520E+03  0.17770000000E+01 0. -1.
        -16    1    3    3    0    0  0.13004364805E+03  0.35460551330E+02  0.85997930876E+01  0.13506575265E+03  0.00000000000E+00 0.  1.
          2    1    6    6  502    0  0.95580775041E+02 -0.50451039551E+02 -0.14519223439E+02  0.10904952911E+03  0.00000000000E+00 0. -1.
         -1    1    6    6    0  502  0.37869670170E+02 -0.36520285798E+02  0.50268373163E+02  0.72765050224E+02  0.00000000000E+00 0.  1.
<mgrwt>
<rscale>  0 0.60208806E+03</rscale>
<asrwt>0</asrwt>
<pdfrwt beam="1">  1        1 0.10672589E+00 0.60208806E+03</pdfrwt>
<pdfrwt beam="2">  1       -2 0.84807461E-01 0.60208806E+03</pdfrwt>
<totfact> 0.30294185E+01</totfact>
</mgrwt>
</event>
<event>
12    3  0.1092576E-007  0.4979696E+03  0.7818608E-02  0.1014310E+00
          1   -1    0    0  501    0  0.00000000000E+00  0.00000000000E+00  0.68143487455E+03  0.68143487455E+03  0.00000000000E+00 0. -1.
         -2   -1    0    0    0  501 -0.00000000000E+00 -0.00000000000E+00 -0.60843257810E+03  0.60843257810E+03  0.00000000000E+00 0.  1.
        -24    2    1    2    0    0 -0.30327206504E+03  0.36679585313E+03 -0.12597359345E+03  0.49854897067E+03  0.78540350192E+02 0.  0.
    5000000    2    1    2    0    0  0.30327206504E+03 -0.36679585313E+03  0.19897588990E+03  0.79131848197E+03  0.60006698946E+03 0.  0.
        -24    2    4    4    0    0  0.27708481721E+03 -0.22175886407E+03 -0.15836880427E+03  0.39653801377E+03  0.78795485136E+02 0.  0.
         24    2    4    4    0    0  0.26187247832E+02 -0.14503698906E+03  0.35734469417E+03  0.39478046820E+03  0.80217750405E+02 0.  0.
         11    1    5    5    0    0  0.25541585915E+03 -0.19726804017E+03 -0.16606224939E+03  0.36294436412E+03  0.00000000000E+00 0. -1.
        -12    1    5    5    0    0  0.21668958064E+02 -0.24490823893E+02  0.76934451228E+01  0.33593649644E+02  0.00000000000E+00 0.  1.
         15    1    3    3    0    0 -0.12301370531E+03  0.92405899287E+02 -0.46961062695E+02  0.16087175344E+03  0.17770000000E+01 0. -1.
        -16    1    3    3    0    0 -0.18025835973E+03  0.27438995384E+03 -0.79012530753E+02  0.33767721723E+03  0.00000000000E+00 0.  1.
          4    1    6    6  502    0 -0.13733591646E+02 -0.85922457550E+02  0.25946357331E+03  0.27366517156E+03  0.00000000000E+00 0. -1.
         -3    1    6    6    0  502  0.39920839478E+02 -0.59114531509E+02  0.97881120861E+02  0.12111529664E+03  0.00000000000E+00 0.  1.
<mgrwt>
<rscale>  0 0.49796963E+03</rscale>
<asrwt>0</asrwt>
<pdfrwt beam="1">  1        1 0.10483613E+00 0.49796963E+03</pdfrwt>
<pdfrwt beam="2">  1       -2 0.93605012E-01 0.49796963E+03</pdfrwt>
<totfact> 0.25124523E+01</totfact>
</mgrwt>
</event>
<event>
12    3  0.1092576E-007  0.5979824E+03  0.7818608E-02  0.9909601E-01
         -4   -1    0    0    0  501 -0.00000000000E+00  0.00000000000E+00  0.13878192189E+04  0.13878192189E+04  0.00000000000E+00 0.  1.
          3   -1    0    0  501    0  0.00000000000E+00 -0.00000000000E+00 -0.43459256195E+03  0.43459256195E+03  0.00000000000E+00 0. -1.
        -24    2    1    2    0    0 -0.52506657000E+03 -0.17884589483E+03  0.82168541248E+03  0.99474224670E+03  0.81636163856E+02 0.  0.
    5000000    2    1    2    0    0  0.52506657000E+03  0.17884589483E+03  0.13154124452E+03  0.82766953420E+03  0.60004416654E+03 0.  0.
        -24    2    4    4    0    0  0.22184276085E+03 -0.82732570225E+02 -0.18644874982E+03  0.31140592955E+03  0.78432314344E+02 0.  0.
         24    2    4    4    0    0  0.30322380915E+03  0.26157846506E+03  0.31798999434E+03  0.51626360464E+03  0.71010570747E+02 0.  0.
         11    1    5    5    0    0  0.20681798011E+03 -0.75421644623E+02 -0.13718922441E+03  0.25938963871E+03  0.00000000000E+00 0. -1.
        -12    1    5    5    0    0  0.15024780736E+02 -0.73109256028E+01 -0.49259525412E+02  0.52016290844E+02  0.00000000000E+00 0.  1.
         15    1    3    3    0    0 -0.31427494900E+03 -0.72401537586E+02  0.51548208487E+03  0.60805893117E+03  0.17770000000E+01 0. -1.
        -16    1    3    3    0    0 -0.21079162100E+03 -0.10644435725E+03  0.30620332761E+03  0.38668331553E+03  0.00000000000E+00 0.  1.
          2    1    6    6  502    0  0.18091636961E+03  0.15589149774E+03  0.14445000296E+03  0.27910337729E+03  0.00000000000E+00 0. -1.
         -1    1    6    6    0  502  0.12230743955E+03  0.10568696732E+03  0.17353999139E+03  0.23716022736E+03  0.00000000000E+00 0.  1.
<mgrwt>
<rscale>  0 0.59798240E+03</rscale>
<asrwt>0</asrwt>
<pdfrwt beam="1">  1        3 0.66860395E-01 0.59798240E+03</pdfrwt>
<pdfrwt beam="2">  1       -4 0.21351065E+00 0.59798240E+03</pdfrwt>
<totfact> 0.53087098E-01</totfact>
</mgrwt>
</event>
<event>
12    3  0.1092576E-007  0.1060107E+04  0.7818608E-02  0.9244971E-01
          1   -1    0    0  501    0  0.00000000000E+00  0.00000000000E+00  0.27647093721E+04  0.27647093721E+04  0.00000000000E+00 0. -1.
         -2   -1    0    0    0  501 -0.00000000000E+00 -0.00000000000E+00 -0.58105590517E+03  0.58105590517E+03  0.00000000000E+00 0.  1.
        -24    2    1    2    0    0 -0.97674011237E+03  0.35640649309E+03  0.25419193721E+03  0.10733035807E+04  0.79499684660E+02 0.  0.
    5000000    2    1    2    0    0  0.97674011237E+03 -0.35640649309E+03  0.19294615297E+04  0.22724616966E+04  0.60017791737E+03 0.  0.
        -24    2    4    4    0    0  0.89896539664E+03 -0.26499798066E+03  0.11793722261E+04  0.15085258840E+04  0.79804643204E+02 0.  0.
         24    2    4    4    0    0  0.77774715739E+02 -0.91408512434E+02  0.75008930367E+03  0.76393581260E+03  0.80990985570E+02 0.  0.
         11    1    5    5    0    0  0.50699514378E+03 -0.12163677589E+03  0.70182302046E+03  0.87429693646E+03  0.00000000000E+00 0. -1.
        -12    1    5    5    0    0  0.39197025285E+03 -0.14336120477E+03  0.47754920561E+03  0.63422894757E+03  0.00000000000E+00 0.  1.
         15    1    3    3    0    0 -0.28504533169E+03  0.11309636023E+03  0.11149836866E+03  0.32630763362E+03  0.17770000000E+01 0. -1.
        -16    1    3    3    0    0 -0.69169478068E+03  0.24331013286E+03  0.14269356855E+03  0.74699594703E+03  0.00000000000E+00 0.  1.
          2    1    6    6  502    0  0.86248214158E+01 -0.68014442358E+02  0.28360165531E+03  0.29177088753E+03  0.00000000000E+00 0. -1.
         -1    1    6    6    0  502  0.69149894323E+02 -0.23394070076E+02  0.46648764836E+03  0.47216492507E+03  0.00000000000E+00 0.  1.
<mgrwt>
<rscale>  0 0.10601068E+04</rscale>
<asrwt>0</asrwt>
<pdfrwt beam="1">  1        1 0.42533989E+00 0.10601068E+04</pdfrwt>
<pdfrwt beam="2">  1       -2 0.89393218E-01 0.10601068E+04</pdfrwt>
<totfact> 0.84014203E-01</totfact>
</mgrwt>
</event>
<event>
12    3  0.1092576E-007  0.1377578E+04  0.7818608E-02  0.8970210E-01
         -4   -1    0    0    0  501 -0.00000000000E+00  0.00000000000E+00  0.17206546295E+04  0.17206546295E+04  0.00000000000E+00 0.  1.
          3   -1    0    0  501    0  0.00000000000E+00 -0.00000000000E+00 -0.11757989874E+04  0.11757989874E+04  0.00000000000E+00 0. -1.
        -24    2    1    2    0    0 -0.11865064467E+04  0.64949239139E+03  0.38150684571E+03  0.14077029319E+04  0.80263046884E+02 0.  0.
    5000000    2    1    2    0    0  0.11865064467E+04 -0.64949239139E+03  0.16334879641E+03  0.14887506849E+04  0.60004821310E+03 0.  0.
        -24    2    4    4    0    0  0.20222417042E+03 -0.28731498074E+03  0.23849278341E+03  0.43451611314E+03  0.92091973480E+02 0.  0.
         24    2    4    4    0    0  0.98428227626E+03 -0.36217741066E+03 -0.75143987004E+02  0.10542345718E+04  0.76025241802E+02 0.  0.
         13    1    5    5    0    0  0.11213867164E+03 -0.17037158985E+03  0.83269955126E+02  0.22030761615E+03  0.00000000000E+00 0. -1.
        -14    1    5    5    0    0  0.90085498780E+02 -0.11694339088E+03  0.15522282829E+03  0.21420849699E+03  0.00000000000E+00 0.  1.
         15    1    3    3    0    0 -0.63762048747E+03  0.31503177513E+03  0.17259407959E+03  0.73184477823E+03  0.17770000000E+01 0. -1.
        -16    1    3    3    0    0 -0.54888595921E+03  0.33446061627E+03  0.20891276612E+03  0.67585815369E+03  0.00000000000E+00 0.  1.
          4    1    6    6  502    0  0.37264724411E+03 -0.11587942594E+03 -0.58920886574E+02  0.39467161130E+03  0.00000000000E+00 0. -1.
         -3    1    6    6    0  502  0.61163503216E+03 -0.24629798472E+03 -0.16223100429E+02  0.65956296047E+03  0.00000000000E+00 0.  1.
<mgrwt>
<rscale>  0 0.13775781E+04</rscale>
<asrwt>0</asrwt>
<pdfrwt beam="1">  1        3 0.18089215E+00 0.13775781E+04</pdfrwt>
<pdfrwt beam="2">  1       -4 0.26471610E+00 0.13775781E+04</pdfrwt>
<totfact> 0.21376988E-02</totfact>
</mgrwt>
</event>
<event>
12    3  0.1092576E-007  0.1964964E+04  0.7818608E-02  0.8623179E-01
          1   -1    0    0  501    0  0.00000000000E+00  0.00000000000E+00  0.18922457945E+04  0.18922457945E+04  0.00000000000E+00 0. -1.
         -2   -1    0    0    0  501 -0.00000000000E+00 -0.00000000000E+00 -0.32132182828E+04  0.32132182828E+04  0.00000000000E+00 0.  1.
        -24    2    1    2    0    0 -0.16977758245E+04  0.96960152875E+03  0.84101016682E+03  0.21294507494E+04  0.68501961641E+02 0.  0.
    5000000    2    1    2    0    0  0.16977758245E+04 -0.96960152875E+03 -0.21619826551E+04  0.29760133279E+04  0.59993037256E+03 0.  0.
        -24    2    4    4    0    0  0.49891264906E+03 -0.16695810363E+03 -0.95503775821E+03  0.10933219503E+04  0.80417209517E+02 0.  0.
         24    2    4    4    0    0  0.11988631754E+04 -0.80264342512E+03 -0.12069448969E+04  0.18826913776E+04  0.79381722392E+02 0.  0.
         11    1    5    5    0    0  0.12256852069E+03 -0.13014732612E+02 -0.26782721288E+03  0.29482849504E+03  0.00000000000E+00 0. -1.
        -12    1    5    5    0    0  0.37634412837E+03 -0.15394337102E+03 -0.68721054534E+03  0.79849345524E+03  0.00000000000E+00 0.  1.
         15    1    3    3    0    0 -0.12616644770E+04  0.72257991341E+03  0.59267270193E+03  0.15700901481E+04  0.17770000000E+01 0. -1.
        -16    1    3    3    0    0 -0.43611134745E+03  0.24702161534E+03  0.24833746489E+03  0.55936060130E+03  0.00000000000E+00 0.  1.
          2    1    6    6  502    0  0.35155085609E+03 -0.19273094332E+03 -0.33136899391E+03  0.52013328201E+03  0.00000000000E+00 0. -1.
         -1    1    6    6    0  502  0.84731231935E+03 -0.60991248180E+03 -0.87557590303E+03  0.13625580956E+04  0.00000000000E+00 0.  1.
<mgrwt>
<rscale>  0 0.19649638E+04</rscale>
<asrwt>0</asrwt>
<pdfrwt beam="1">  1        1 0.29111474E+00 0.19649638E+04</pdfrwt>
<pdfrwt beam="2">  1       -2 0.49434127E+00 0.19649638E+04</pdfrwt>
<totfact> 0.48795902E-03</totfact>
</mgrwt>
</event>
<event>
12    3  0.1092576E-007  0.1405985E+04  0.7818608E-02  0.8949497E-01
          3   -1    0    0  501    0  0.00000000000E+00  0.00000000000E+00  0.13719670778E+04  0.13719670778E+04  0.00000000000E+00 0. -1.
         -4   -1    0    0    0  501 -0.00000000000E+00 -0.00000000000E+00 -0.16221370399E+04  0.16221370399E+04  0.00000000000E+00 0.  1.
        -24    2    1    2    0    0 -0.13295561401E+04  0.39833510130E+03 -0.46709309113E+03  0.14665136342E+04  0.78076250677E+02 0.  0.
    5000000    2    1    2    0    0  0.13295561401E+04 -0.39833510130E+03  0.21692312903E+03  0.15275904836E+04  0.60007221150E+03 0.  0.
        -24    2    4    4    0    0  0.12315897171E+04 -0.38789918497E+03  0.24702070901E+02  0.12940170652E+04  0.81184750527E+02 0.  0.
         24    2    4    4    0    0  0.97966422971E+02 -0.10435916322E+02  0.19222105813E+03  0.23357341837E+03  0.88889134329E+02 0.  0.
         11    1    5    5    0    0  0.21898885489E+03 -0.10044743361E+03 -0.51754733733E+01  0.24098255333E+03  0.00000000000E+00 0. -1.
        -12    1    5    5    0    0  0.10126008622E+04 -0.28745175137E+03  0.29877544274E+02  0.10530345119E+04  0.00000000000E+00 0.  1.
         15    1    3    3    0    0 -0.25451179037E+03  0.54157695716E+02 -0.64686839323E+02  0.26813588412E+03  0.17770000000E+01 0. -1.
        -16    1    3    3    0    0 -0.10750443497E+04  0.34417740558E+03 -0.40240625181E+03  0.11983777501E+04  0.00000000000E+00 0.  1.
          4    1    6    6  502    0 -0.55431810599E+01 -0.24357586492E+02  0.60616879223E+02  0.65562374291E+02  0.00000000000E+00 0. -1.
         -3    1    6    6    0  502  0.10350960403E+03  0.13921670170E+02  0.13160417890E+03  0.16801104408E+03  0.00000000000E+00 0.  1.
<mgrwt>
<rscale>  0 0.14059854E+04</rscale>
<asrwt>0</asrwt>
<pdfrwt beam="1">  1        3 0.21107186E+00 0.14059854E+04</pdfrwt>
<pdfrwt beam="2">  1       -4 0.24955954E+00 0.14059854E+04</pdfrwt>
<totfact> 0.16935155E-02</totfact>
</mgrwt>
</event>
<event>
12    3  0.1092576E-007  0.7023497E+03  0.7818608E-02  0.9713222E-01
          1   -1    0    0  501    0  0.00000000000E+00  0.00000000000E+00  0.16822745753E+04  0.16822745753E+04  0.00000000000E+00 0. -1.
         -2   -1    0    0    0  501 -0.00000000000E+00 -0.00000000000E+00 -0.42976496605E+03  0.42976496605E+03  0.00000000000E+00 0.  1.
        -24    2    1    2    0    0 -0.46430440914E+03  0.51368510908E+03  0.21879119449E+03  0.73061770301E+03  0.80508791627E+02 0.  0.
    5000000    2    1    2    0    0  0.46430440914E+03 -0.51368510908E+03  0.10337184147E+04  0.13814218383E+04  0.60025124637E+03 0.  0.
        -24    2    4    4    0    0  0.17800518808E+03 -0.10080795239E+03 -0.10094402786E+02  0.22021369953E+03  0.80895526715E+02 0.  0.
         24    2    4    4    0    0  0.28629922106E+03 -0.41287715669E+03  0.10438128175E+04  0.11612081388E+04  0.80152062110E+02 0.  0.
         11    1    5    5    0    0  0.11205219548E+03 -0.54423274213E+02 -0.44868521769E+02  0.13240381993E+03  0.00000000000E+00 0. -1.
        -12    1    5    5    0    0  0.65952992608E+02 -0.46384678179E+02  0.34774118983E+02  0.87809879597E+02  0.00000000000E+00 0.  1.
         15    1    3    3    0    0 -0.27526427971E+02  0.29433608647E+02  0.34146703196E+02  0.52850701253E+02  0.17770000000E+01 0. -1.
        -16    1    3    3    0    0 -0.43677798117E+03  0.48425150043E+03  0.18464449129E+03  0.67776700175E+03  0.00000000000E+00 0.  1.
          4    1    6    6  502    0  0.87772507811E+02 -0.18524887591E+03  0.46996221090E+03  0.51272374514E+03  0.00000000000E+00 0. -1.
         -3    1    6    6    0  502  0.19852671324E+03 -0.22762828078E+03  0.57385060662E+03  0.64848439365E+03  0.00000000000E+00 0.  1.
<mgrwt>
<rscale>  0 0.70234965E+03</rscale>
<asrwt>0</asrwt>
<pdfrwt beam="1">  1        1 0.25881147E+00 0.70234965E+03</pdfrwt>
<pdfrwt beam="2">  1       -2 0.66117688E-01 0.70234965E+03</pdfrwt>
<totfact> 0.94401328E+00</totfact>
</mgrwt>
</event>
<event>
12    3  0.1092576E-007  0.7071219E+03  0.7818608E-02  0.9705130E-01
          1   -1    0    0  501    0  0.00000000000E+00  0.00000000000E+00  0.71469452854E+03  0.71469452854E+03  0.00000000000E+00 0. -1.
         -2   -1    0    0    0  501 -0.00000000000E+00 -0.00000000000E+00 -0.14785809053E+04  0.14785809053E+04  0.00000000000E+00 0.  1.
        -24    2    1    2    0    0 -0.16830016574E+03 -0.65463385153E+03  0.34436601890E+03  0.76314192926E+03  0.83229945706E+02 0.  0.
    5000000    2    1    2    0    0  0.16830016574E+03  0.65463385153E+03 -0.11082523957E+04  0.14301335046E+04  0.60015668209E+03 0.  0.
        -24    2    4    4    0    0 -0.71103102743E+02  0.11104064233E+03 -0.66619197978E+03  0.68370157169E+03  0.79059532858E+02 0.  0.
         24    2    4    4    0    0  0.23940326848E+03  0.54359320920E+03 -0.44206041588E+03  0.74643193289E+03  0.94528922003E+02 0.  0.
         11    1    5    5    0    0 -0.37948639907E+01  0.33764070382E+02 -0.34234303106E+03  0.34402494729E+03  0.00000000000E+00 0. -1.
        -12    1    5    5    0    0 -0.67308238752E+02  0.77276571948E+02 -0.32384894872E+03  0.33967662440E+03  0.00000000000E+00 0.  1.
         15    1    3    3    0    0 -0.77766525067E+02 -0.16083805627E+03  0.10107177441E+03  0.20526854138E+03  0.17770000000E+01 0. -1.
        -16    1    3    3    0    0 -0.90533640671E+02 -0.49379579526E+03  0.24329424449E+03  0.55787338789E+03  0.00000000000E+00 0.  1.
          4    1    6    6  502    0  0.13802256890E+03  0.38376170887E+03 -0.34251326474E+03  0.53257733264E+03  0.00000000000E+00 0. -1.
         -3    1    6    6    0  502  0.10138069958E+03  0.15983150033E+03 -0.99547151143E+02  0.21385460025E+03  0.00000000000E+00 0.  1.
<mgrwt>
<rscale>  0 0.70712188E+03</rscale>
<asrwt>0</asrwt>
<pdfrwt beam="1">  1        1 0.10995301E+00 0.70712188E+03</pdfrwt>
<pdfrwt beam="2">  1       -2 0.22747398E+00 0.70712188E+03</pdfrwt>
<totfact> 0.21314025E+00</totfact>
</mgrwt>
</event>
<event>
12    3  0.1092576E-007  0.5780089E+03  0.7818608E-02  0.9952111E-01
         -2   -1    0    0    0  501 -0.00000000000E+00  0.00000000000E+00  0.46543455020E+03  0.46543455020E+03  0.00000000000E+00 0.  1.
          1   -1    0    0  501    0  0.00000000000E+00 -0.00000000000E+00 -0.88776871677E+03  0.88776871677E+03  0.00000000000E+00 0. -1.
        -24    2    1    2    0    0 -0.55879639245E+02  0.44847392520E+03  0.56805433064E+02  0.46225717325E+03  0.78761928162E+02 0.  0.
    5000000    2    1    2    0    0  0.55879639245E+02 -0.44847392520E+03 -0.47913959963E+03  0.89094609372E+03  0.59996565760E+03 0.  0.
        -24    2    4    4    0    0  0.29461562970E+03 -0.28979604506E+03 -0.40548010973E+03  0.58440219574E+03  0.79571917156E+02 0.  0.
         24    2    4    4    0    0 -0.23873599046E+03 -0.15867788014E+03 -0.73659489901E+02  0.30654389797E+03  0.79811641676E+02 0.  0.
         11    1    5    5    0    0  0.24486686871E+03 -0.20923584971E+03 -0.34537121523E+03  0.47225067550E+03  0.00000000000E+00 0. -1.
        -12    1    5    5    0    0  0.49748760989E+02 -0.80560195351E+02 -0.60108894505E+02  0.11215152025E+03  0.00000000000E+00 0.  1.
         15    1    3    3    0    0  0.75778902513E+00  0.32502980780E+02  0.25361797663E+02  0.41272224480E+02  0.17770000000E+01 0. -1.
        -16    1    3    3    0    0 -0.56637428270E+02  0.41597094442E+03  0.31443635401E+02  0.42098494877E+03  0.00000000000E+00 0.  1.
          2    1    6    6  502    0 -0.16208931557E+03 -0.10137579119E+03 -0.96744834052E+01  0.19142516264E+03  0.00000000000E+00 0. -1.
         -1    1    6    6    0  502 -0.76646674889E+02 -0.57302088945E+02 -0.63985006495E+02  0.11511873534E+03  0.00000000000E+00 0.  1.
<mgrwt>
<rscale>  0 0.57800887E+03</rscale>
<asrwt>0</asrwt>
<pdfrwt beam="1">  1        1 0.13657980E+00 0.57800887E+03</pdfrwt>
<pdfrwt beam="2">  1       -2 0.71605315E-01 0.57800887E+03</pdfrwt>
<totfact> 0.30038015E+01</totfact>
</mgrwt>
</event>
<event>
12    3  0.1092576E-007  0.4760315E+03  0.7818608E-02  0.1020232E+00
         -2   -1    0    0    0  501 -0.00000000000E+00  0.00000000000E+00  0.11933784626E+03  0.11933784626E+03  0.00000000000E+00 0.  1.
          1   -1    0    0  501    0  0.00000000000E+00 -0.00000000000E+00 -0.24120416518E+04  0.24120416518E+04  0.00000000000E+00 0. -1.
        -24    2    1    2    0    0  0.14299719178E+03  0.27674704612E+03 -0.34913254093E+03  0.47359506624E+03  0.73223160504E+02 0.  0.
    5000000    2    1    2    0    0 -0.14299719178E+03 -0.27674704612E+03 -0.19435712646E+04  0.20577844318E+04  0.59997531851E+03 0.  0.
        -24    2    4    4    0    0 -0.31637462846E+03 -0.32660250191E+03 -0.15572762206E+04  0.16242038083E+04  0.78528236855E+02 0.  0.
         24    2    4    4    0    0  0.17337743669E+03  0.49855455788E+02 -0.38629504399E+03  0.43358062346E+03  0.78885955704E+02 0.  0.
         11    1    5    5    0    0 -0.27960957256E+03 -0.26145381590E+03 -0.13717980635E+04  0.14242083899E+04  0.00000000000E+00 0. -1.
        -12    1    5    5    0    0 -0.36765055904E+02 -0.65148686003E+02 -0.18547815709E+03  0.19999541840E+03  0.00000000000E+00 0.  1.
         15    1    3    3    0    0  0.11791799880E+03  0.19822769738E+03 -0.29707322668E+03  0.37610441926E+03  0.17770000000E+01 0. -1.
        -16    1    3    3    0    0  0.25079192974E+02  0.78519348741E+02 -0.52059314249E+02  0.97490646972E+02  0.00000000000E+00 0.  1.
          4    1    6    6  502    0  0.33892534463E+02  0.17654395828E+02 -0.16972584500E+03  0.17397483739E+03  0.00000000000E+00 0. -1.
         -3    1    6    6    0  502  0.13948490222E+03  0.32201059961E+02 -0.21656919899E+03  0.25960578607E+03  0.00000000000E+00 0.  1.
<mgrwt>
<rscale>  0 0.47603146E+03</rscale>
<asrwt>0</asrwt>
<pdfrwt beam="1">  1        1 0.37108333E+00 0.47603146E+03</pdfrwt>
<pdfrwt beam="2">  1       -2 0.18359669E-01 0.47603146E+03</pdfrwt>
<totfact> 0.36957613E+01</totfact>
</mgrwt>
</event>
<event>
12    3  0.1092576E-007  0.1985426E+04  0.7818608E-02  0.8613465E-01
          1   -1    0    0  501    0  0.00000000000E+00  0.00000000000E+00  0.49153372374E+04  0.49153372374E+04  0.00000000000E+00 0. -1.
         -2   -1    0    0    0  501 -0.00000000000E+00 -0.00000000000E+00 -0.86309181460E+03  0.86309181460E+03  0.00000000000E+00 0.  1.
        -24    2    1    2    0    0 -0.15538137796E+04 -0.12204953582E+04  0.14275710623E+04  0.24388449243E+04  0.77841158040E+02 0.  0.
    5000000    2    1    2    0    0  0.15538137796E+04  0.12204953582E+04  0.26246743605E+04  0.33395841277E+04  0.59996705387E+03 0.  0.
        -24    2    4    4    0    0  0.10417937208E+04  0.66633043787E+03  0.20172411641E+04  0.23674682173E+04  0.79457139599E+02 0.  0.
         24    2    4    4    0    0  0.51202005884E+03  0.55416492033E+03  0.60743319648E+03  0.97211591033E+03  0.82285814943E+02 0.  0.
         13    1    5    5    0    0  0.61276857138E+03  0.37513254196E+03  0.11012237690E+04  0.13148777645E+04  0.00000000000E+00 0. -1.
        -14    1    5    5    0    0  0.42902514942E+03  0.29119789591E+03  0.91601739502E+03  0.10525904528E+04  0.00000000000E+00 0.  1.
         15    1    3    3    0    0 -0.86421585895E+03 -0.68848634115E+03  0.75146721137E+03  0.13362591890E+04  0.17770000000E+01 0. -1.
        -16    1    3    3    0    0 -0.68959792070E+03 -0.53200901705E+03  0.67610385090E+03  0.11025857353E+04  0.00000000000E+00 0.  1.
          4    1    6    6  502    0  0.38744319901E+03  0.37087472024E+03  0.45231423760E+03  0.70160420474E+03  0.00000000000E+00 0. -1.
         -3    1    6    6    0  502  0.12457685983E+03  0.18329020009E+03  0.15511895888E+03  0.27051170559E+03  0.00000000000E+00 0.  1.
<mgrwt>
<rscale>  0 0.19854263E+04</rscale>
<asrwt>0</asrwt>
<pdfrwt beam="1">  1        1 0.75620571E+00 0.19854263E+04</pdfrwt>
<pdfrwt beam="2">  1       -2 0.13278336E+00 0.19854263E+04</pdfrwt>
<totfact> 0.36515682E-03</totfact>
</mgrwt>
</event>
<event>
12    3  0.1092576E-007  0.1916918E+04  0.7818608E-02  0.8646481E-01
         -2   -1    0    0    0  501 -0.00000000000E+00  0.00000000000E+00  0.23121854470E+04  0.23121854470E+04  0.00000000000E+00 0.  1.
          1   -1    0    0  501    0  0.00000000000E+00 -0.00000000000E+00 -0.15944001683E+04  0.15944001683E+04  0.00000000000E+00 0. -1.
        -24    2    1    2    0    0 -0.50270183923E+03 -0.18015604900E+04  0.26429402040E+03  0.18906619607E+04  0.80137268869E+02 0.  0.
    5000000    2    1    2    0    0  0.50270183923E+03  0.18015604900E+04  0.45349125833E+03  0.20159236547E+04  0.59997043412E+03 0.  0.
        -24    2    4    4    0    0  0.49676257059E+03  0.18135856616E+04  0.42610238313E+03  0.19296842751E+04  0.79070582169E+02 0.  0.
         24    2    4    4    0    0  0.59392686461E+01 -0.12025171589E+02  0.27388875201E+02  0.86239379641E+02  0.80667220432E+02 0.  0.
         11    1    5    5    0    0  0.46974249598E+03  0.17530753228E+04  0.42171675517E+03  0.18632702760E+04  0.00000000000E+00 0. -1.
        -12    1    5    5    0    0  0.27020074605E+02  0.60510338836E+02  0.43856279590E+01  0.66413999053E+02  0.00000000000E+00 0.  1.
         15    1    3    3    0    0 -0.13213744661E+03 -0.38278813438E+03  0.34868800436E+02  0.40645547308E+03  0.17770000000E+01 0. -1.
        -16    1    3    3    0    0 -0.37056439262E+03 -0.14187723556E+04  0.22942521996E+03  0.14842064876E+04  0.00000000000E+00 0.  1.
          4    1    6    6  502    0 -0.62011662880E+01 -0.45393902689E+02  0.10927432270E+02  0.47100633124E+02  0.00000000000E+00 0. -1.
         -3    1    6    6    0  502  0.12140434934E+02  0.33368731099E+02  0.16461442931E+02  0.39138746517E+02  0.00000000000E+00 0.  1.
<mgrwt>
<rscale>  0 0.19169183E+04</rscale>
<asrwt>0</asrwt>
<pdfrwt beam="1">  1        1 0.24529233E+00 0.19169183E+04</pdfrwt>
<pdfrwt beam="2">  1       -2 0.35572084E+00 0.19169183E+04</pdfrwt>
<totfact> 0.63670544E-02</totfact>
</mgrwt>
</event>
<event>
12    3  0.1092576E-007  0.6910908E+03  0.7818608E-02  0.9732591E-01
          1   -1    0    0  501    0  0.00000000000E+00  0.00000000000E+00  0.41600204849E+03  0.41600204849E+03  0.00000000000E+00 0. -1.
         -2   -1    0    0    0  501 -0.00000000000E+00 -0.00000000000E+00 -0.13099558517E+04  0.13099558517E+04  0.00000000000E+00 0.  1.
        -24    2    1    2    0    0 -0.44280464515E+03  0.36810033764E+03 -0.12873069892E+03  0.59587187150E+03  0.83173806350E+02 0.  0.
    5000000    2    1    2    0    0  0.44280464515E+03 -0.36810033764E+03 -0.76522310432E+03  0.11300860287E+04  0.59996184929E+03 0.  0.
        -24    2    4    4    0    0  0.50109715749E+03 -0.45406121711E+03 -0.54022160747E+03  0.86910348551E+03  0.78940060882E+02 0.  0.
         24    2    4    4    0    0 -0.58292512338E+02  0.85960879478E+02 -0.22500149685E+03  0.26098254322E+03  0.81846957708E+02 0.  0.
         11    1    5    5    0    0  0.44830040219E+03 -0.37536856655E+03 -0.48307152235E+03  0.75844110323E+03  0.00000000000E+00 0. -1.
        -12    1    5    5    0    0  0.52796755301E+02 -0.78692650563E+02 -0.57150085121E+02  0.11066238228E+03  0.00000000000E+00 0.  1.
         15    1    3    3    0    0 -0.17142968059E+03  0.11241675233E+03 -0.79062534683E+02  0.21972642925E+03  0.17770000000E+01 0. -1.
        -16    1    3    3    0    0 -0.27137496456E+03  0.25568358530E+03 -0.49668164240E+02  0.37614544224E+03  0.00000000000E+00 0.  1.
          4    1    6    6  502    0 -0.74174550720E+02  0.75494625638E+02 -0.21465893104E+03  0.23933190166E+03  0.00000000000E+00 0. -1.
         -3    1    6    6    0  502  0.15882038382E+02  0.10466253841E+02 -0.10342565807E+02  0.21650641563E+02  0.00000000000E+00 0.  1.
<mgrwt>
<rscale>  0 0.69109076E+03</rscale>
<asrwt>0</asrwt>
<pdfrwt beam="1">  1        1 0.64000317E-01 0.69109076E+03</pdfrwt>
<pdfrwt beam="2">  1       -2 0.20153166E+00 0.69109076E+03</pdfrwt>
<totfact> 0.66733828E+00</totfact>
</mgrwt>
</event>
<event>
12    3  0.1092576E-007  0.4102477E+03  0.7818608E-02  0.1040288E+00
         -2   -1    0    0    0  501 -0.00000000000E+00  0.00000000000E+00  0.15077876921E+04  0.15077876921E+04  0.00000000000E+00 0.  1.
          1   -1    0    0  501    0  0.00000000000E+00 -0.00000000000E+00 -0.17380097594E+03  0.17380097594E+03  0.00000000000E+00 0. -1.
        -24    2    1    2    0    0  0.18576531811E+03  0.11091554028E+03  0.30963489120E+02  0.23084387417E+03  0.74290955681E+02 0.  0.
    5000000    2    1    2    0    0 -0.18576531811E+03 -0.11091554028E+03  0.13030232270E+04  0.14507447938E+04  0.59998326330E+03 0.  0.
        -24    2    4    4    0    0 -0.36058613742E+03  0.30651351421E+02  0.10078098483E+04  0.10737537035E+04  0.79400614384E+02 0.  0.
         24    2    4    4    0    0  0.17482081932E+03 -0.14156689170E+03  0.29521337867E+03  0.37699109032E+03  0.66089632634E+02 0.  0.
         11    1    5    5    0    0 -0.93170407720E+02 -0.25352759010E+02  0.29349223326E+03  0.30896792431E+03  0.00000000000E+00 0. -1.
        -12    1    5    5    0    0 -0.26741572970E+03  0.56004110431E+02  0.71431761508E+03  0.76478577922E+03  0.00000000000E+00 0.  1.
         15    1    3    3    0    0  0.80558955360E+02  0.68110088148E+02  0.48139892191E+02  0.11597127379E+03  0.17770000000E+01 0. -1.
        -16    1    3    3    0    0  0.10520636275E+03  0.42805452134E+02 -0.17176403070E+02  0.11487260038E+03  0.00000000000E+00 0.  1.
          4    1    6    6  502    0  0.57679559128E+02 -0.81890730715E+02  0.99208148699E+02  0.14097971516E+03  0.00000000000E+00 0. -1.
         -3    1    6    6    0  502  0.11714126019E+03 -0.59676160988E+02  0.19600522997E+03  0.23601137516E+03  0.00000000000E+00 0.  1.
<mgrwt>
<rscale>  0 0.41024768E+03</rscale>
<asrwt>0</asrwt>
<pdfrwt beam="1">  1        1 0.26738613E-01 0.41024768E+03</pdfrwt>
<pdfrwt beam="2">  1       -2 0.23196733E+00 0.41024768E+03</pdfrwt>
<totfact> 0.13839008E+01</totfact>
</mgrwt>
</event>
<event>
12    3  0.1092576E-007  0.8327537E+03  0.7818608E-02  0.9513781E-01
         -2   -1    0    0    0  501 -0.00000000000E+00  0.00000000000E+00  0.94187353124E+03  0.94187353124E+03  0.00000000000E+00 0.  1.
          1   -1    0    0  501    0  0.00000000000E+00 -0.00000000000E+00 -0.96776390435E+03  0.96776390435E+03  0.00000000000E+00 0. -1.
        -24    2    1    2    0    0  0.62729013444E+03  0.48760428396E+03  0.31339980783E+03  0.85776671568E+03  0.79331257945E+02 0.  0.
    5000000    2    1    2    0    0 -0.62729013444E+03 -0.48760428396E+03 -0.33929018093E+03  0.10518707199E+04  0.60005277602E+03 0.  0.
        -24    2    4    4    0    0 -0.22991429766E+03 -0.38231198135E+03  0.78968930101E+02  0.46000242697E+03  0.79643615843E+02 0.  0.
         24    2    4    4    0    0 -0.39737583678E+03 -0.10529230261E+03 -0.41825911104E+03  0.59186829293E+03  0.79833373770E+02 0.  0.
         13    1    5    5    0    0 -0.14092866643E+03 -0.16337053181E+03  0.53570562842E+02  0.22230750074E+03  0.00000000000E+00 0. -1.
        -14    1    5    5    0    0 -0.88985631234E+02 -0.21894144955E+03  0.25398367260E+02  0.23769492623E+03  0.00000000000E+00 0.  1.
         15    1    3    3    0    0  0.41256106058E+03  0.27837358076E+03  0.21582949803E+03  0.54247950110E+03  0.17770000000E+01 0. -1.
        -16    1    3    3    0    0  0.21472907387E+03  0.20923070320E+03  0.97570309801E+02  0.31528721458E+03  0.00000000000E+00 0.  1.
          2    1    6    6  502    0 -0.36921318963E+03 -0.79400161654E+02 -0.39768506241E+03  0.54843064642E+03  0.00000000000E+00 0. -1.
         -1    1    6    6    0  502 -0.28162647147E+02 -0.25892140953E+02 -0.20574048625E+02  0.43437646509E+02  0.00000000000E+00 0.  1.
<mgrwt>
<rscale>  0 0.83275368E+03</rscale>
<asrwt>0</asrwt>
<pdfrwt beam="1">  1        1 0.14888675E+00 0.83275368E+03</pdfrwt>
<pdfrwt beam="2">  1       -2 0.14490362E+00 0.83275368E+03</pdfrwt>
<totfact> 0.46830705E+00</totfact>
</mgrwt>
</event>
<event>
12    3  0.1092576E-007  0.4287424E+03  0.7818608E-02  0.1034258E+00
          1   -1    0    0  501    0  0.00000000000E+00  0.00000000000E+00  0.32128472187E+04  0.32128472187E+04  0.00000000000E+00 0. -1.
         -2   -1    0    0    0  501 -0.00000000000E+00 -0.00000000000E+00 -0.92264816720E+02  0.92264816720E+02  0.00000000000E+00 0.  1.
        -24    2    1    2    0    0  0.29347476625E+03 -0.15039578732E+03  0.16293023546E+04  0.16641817036E+04  0.78283130611E+02 0.  0.
    5000000    2    1    2    0    0 -0.29347476625E+03  0.15039578732E+03  0.14912800473E+04  0.16409303318E+04  0.59999153575E+03 0.  0.
        -24    2    4    4    0    0 -0.15828129020E+03  0.27785710628E+03  0.34525464336E+03  0.47720844018E+03  0.79180731763E+02 0.  0.
         24    2    4    4    0    0 -0.13519347605E+03 -0.12746131896E+03  0.11460254039E+04  0.11637218916E+04  0.79691597282E+02 0.  0.
         11    1    5    5    0    0 -0.14960484454E+03  0.27720509885E+03  0.34665551905E+03  0.46839547951E+03  0.00000000000E+00 0. -1.
        -12    1    5    5    0    0 -0.86764456644E+01  0.65200742616E+00 -0.14008756928E+01  0.88129606692E+01  0.00000000000E+00 0.  1.
         15    1    3    3    0    0  0.29363778899E+02 -0.40526690792E+02  0.17551856985E+03  0.18252279383E+03  0.17770000000E+01 0. -1.
        -16    1    3    3    0    0  0.26411098735E+03 -0.10986909653E+03  0.14537837848E+04  0.14816589098E+04  0.00000000000E+00 0.  1.
          2    1    6    6  502    0 -0.97458152004E+02 -0.45773150526E+02  0.74389812076E+03  0.75164997623E+03  0.00000000000E+00 0. -1.
         -1    1    6    6    0  502 -0.37735324045E+02 -0.81688168430E+02  0.40212728318E+03  0.41207191535E+03  0.00000000000E+00 0.  1.
<mgrwt>
<rscale>  0 0.42874238E+03</rscale>
<asrwt>0</asrwt>
<pdfrwt beam="1">  1        1 0.49428410E+00 0.42874238E+03</pdfrwt>
<pdfrwt beam="2">  1       -2 0.14194590E-01 0.42874238E+03</pdfrwt>
<totfact> 0.16005661E+01</totfact>
</mgrwt>
</event>
<event>
12    3  0.1092576E-007  0.3360305E+03  0.7818608E-02  0.1068499E+00
          1   -1    0    0  501    0  0.00000000000E+00  0.00000000000E+00  0.10195411992E+04  0.10195411992E+04  0.00000000000E+00 0. -1.
         -2   -1    0    0    0  501 -0.00000000000E+00 -0.00000000000E+00 -0.27703143273E+03  0.27703143273E+03  0.00000000000E+00 0.  1.
        -24    2    1    2    0    0 -0.22556342945E+03  0.20994216235E+03  0.47327424176E+03  0.57039971808E+03  0.80079699260E+02 0.  0.
    5000000    2    1    2    0    0  0.22556342945E+03 -0.20994216235E+03  0.26923552472E+03  0.72617291386E+03  0.59990395966E+03 0.  0.
        -24    2    4    4    0    0  0.29458493648E+02 -0.11035999311E+03  0.41921933980E+03  0.44195981031E+03  0.80848550636E+02 0.  0.
         24    2    4    4    0    0  0.19610493580E+03 -0.99582169237E+02 -0.14998381508E+03  0.28421310355E+03  0.99539887310E+02 0.  0.
         11    1    5    5    0    0  0.54054600080E+02 -0.52732754511E+02  0.26350315557E+03  0.27411048171E+03  0.00000000000E+00 0. -1.
        -12    1    5    5    0    0 -0.24596106432E+02 -0.57627238602E+02  0.15571618423E+03  0.16784932860E+03  0.00000000000E+00 0.  1.
         15    1    3    3    0    0 -0.79818350276E+02  0.65328749335E+02  0.22992993697E+03  0.25201140485E+03  0.17770000000E+01 0. -1.
        -16    1    3    3    0    0 -0.14574507918E+03  0.14461341301E+03  0.24334430480E+03  0.31838831323E+03  0.00000000000E+00 0.  1.
          4    1    6    6  502    0  0.15908207181E+03 -0.56998436793E+02 -0.62627326270E+02  0.18021683984E+03  0.00000000000E+00 0. -1.
         -3    1    6    6    0  502  0.37022863999E+02 -0.42583732443E+02 -0.87356488813E+02  0.10399626371E+03  0.00000000000E+00 0.  1.
<mgrwt>
<rscale>  0 0.33603053E+03</rscale>
<asrwt>0</asrwt>
<pdfrwt beam="1">  1        1 0.15685249E+00 0.33603053E+03</pdfrwt>
<pdfrwt beam="2">  1       -2 0.42620221E-01 0.33603053E+03</pdfrwt>
<totfact> 0.71617877E+01</totfact>
</mgrwt>
</event>
<event>
12    3  0.1092576E-007  0.5903201E+03  0.7818608E-02  0.9925695E-01
         -2   -1    0    0    0  501 -0.00000000000E+00  0.00000000000E+00  0.57842068787E+03  0.57842068787E+03  0.00000000000E+00 0.  1.
          1   -1    0    0  501    0  0.00000000000E+00 -0.00000000000E+00 -0.88591361756E+03  0.88591361756E+03  0.00000000000E+00 0. -1.
        -24    2    1    2    0    0  0.51404985926E+03 -0.23037502293E+02  0.16085232982E+03  0.54555578394E+03  0.83544341876E+02 0.  0.
    5000000    2    1    2    0    0 -0.51404985926E+03  0.23037502293E+02 -0.46834525951E+03  0.91877852150E+03  0.60002392047E+03 0.  0.
        -24    2    4    4    0    0 -0.55889402232E+03 -0.31068074934E+02 -0.54669082254E+03  0.78657134274E+03  0.80596949704E+02 0.  0.
         24    2    4    4    0    0  0.44844163062E+02  0.54105577227E+02  0.78345563028E+02  0.13220717875E+03  0.80014363838E+02 0.  0.
         11    1    5    5    0    0 -0.36100435567E+03 -0.30394154243E+02 -0.30037758416E+03  0.47061092475E+03  0.00000000000E+00 0. -1.
        -12    1    5    5    0    0 -0.19788966665E+03 -0.67392069079E+00 -0.24631323838E+03  0.31596041799E+03  0.00000000000E+00 0.  1.
         15    1    3    3    0    0  0.38485868372E+03  0.10834626593E+02  0.94592230229E+02  0.39646493328E+03  0.17770000000E+01 0. -1.
        -16    1    3    3    0    0  0.12919117554E+03 -0.33872128887E+02  0.66260099593E+02  0.14909085066E+03  0.00000000000E+00 0.  1.
          4    1    6    6  502    0  0.36223972172E+02  0.72796872476E+02  0.76330702580E+02  0.11152549914E+03  0.00000000000E+00 0. -1.
         -3    1    6    6    0  502  0.86201908892E+01 -0.18691295249E+02  0.20148604477E+01  0.20681679614E+02  0.00000000000E+00 0.  1.
<mgrwt>
<rscale>  0 0.59032013E+03</rscale>
<asrwt>0</asrwt>
<pdfrwt beam="1">  1        1 0.13629440E+00 0.59032013E+03</pdfrwt>
<pdfrwt beam="2">  1       -2 0.88987798E-01 0.59032013E+03</pdfrwt>
<totfact> 0.18500054E+01</totfact>
</mgrwt>
</event>
<event>
12    3  0.1092576E-007  0.7437301E+03  0.7818608E-02  0.9645239E-01
         -2   -1    0    0    0  501 -0.00000000000E+00  0.00000000000E+00  0.88728565498E+03  0.88728565498E+03  0.00000000000E+00 0.  1.
          1   -1    0    0  501    0  0.00000000000E+00 -0.00000000000E+00 -0.84127785763E+03  0.84127785763E+03  0.00000000000E+00 0. -1.
        -24    2    1    2    0    0 -0.84876717592E+02  0.66818904826E+03  0.36529788119E+03  0.77151867039E+03  0.90099141831E+02 0.  0.
    5000000    2    1    2    0    0  0.84876717592E+02 -0.66818904826E+03 -0.31929008384E+03  0.95704484222E+03  0.60025662094E+03 0.  0.
        -24    2    4    4    0    0  0.24721667251E+03 -0.24048567437E+03  0.57680273209E+02  0.35893532649E+03  0.80982170552E+02 0.  0.
         24    2    4    4    0    0 -0.16233995491E+03 -0.42770337389E+03 -0.37697035705E+03  0.59810951573E+03  0.79648639087E+02 0.  0.
         11    1    5    5    0    0  0.80430694356E+02 -0.98590998355E+02 -0.15212241015E+02  0.12814325510E+03  0.00000000000E+00 0. -1.
        -12    1    5    5    0    0  0.16678597815E+03 -0.14189467601E+03  0.72892514224E+02  0.23079207139E+03  0.00000000000E+00 0.  1.
         15    1    3    3    0    0 -0.87679274521E+02  0.35654426766E+03  0.21535858522E+03  0.42566882425E+03  0.17770000000E+01 0. -1.
        -16    1    3    3    0    0  0.28025569286E+01  0.31164478060E+03  0.14993929596E+03  0.34584984614E+03  0.00000000000E+00 0.  1.
          4    1    6    6  502    0 -0.58042673428E+02 -0.76340084648E+02 -0.10130326255E+03  0.13949591917E+03  0.00000000000E+00 0. -1.
         -3    1    6    6    0  502 -0.10429728149E+03 -0.35136328924E+03 -0.27566709450E+03  0.45861359655E+03  0.00000000000E+00 0.  1.
<mgrwt>
<rscale>  0 0.74373008E+03</rscale>
<asrwt>0</asrwt>
<pdfrwt beam="1">  1        1 0.12942736E+00 0.74373008E+03</pdfrwt>
<pdfrwt beam="2">  1       -2 0.13650549E+00 0.74373008E+03</pdfrwt>
<totfact> 0.70073266E+00</totfact>
</mgrwt>
</event>
<event>
12    3  0.1092576E-007  0.7415859E+03  0.7818608E-02  0.9648644E-01
          1   -1    0    0  501    0  0.00000000000E+00  0.00000000000E+00  0.33690991178E+03  0.33690991178E+03  0.00000000000E+00 0. -1.
         -2   -1    0    0    0  501 -0.00000000000E+00 -0.00000000000E+00 -0.23715232909E+04  0.23715232909E+04  0.00000000000E+00 0.  1.
        -24    2    1    2    0    0 -0.36607905873E+03 -0.61745405309E+03 -0.14079610213E+04  0.15827655764E+04  0.86771235873E+02 0.  0.
    5000000    2    1    2    0    0  0.36607905873E+03  0.61745405309E+03 -0.62665235788E+03  0.11256676264E+04  0.59930880392E+03 0.  0.
        -24    2    4    4    0    0  0.33398442546E+03  0.38596460483E+03 -0.75816310873E+02  0.52193754323E+03  0.78462815428E+02 0.  0.
         24    2    4    4    0    0  0.32094633267E+02  0.23148944826E+03 -0.55083604701E+03  0.60373008312E+03  0.80325789404E+02 0.  0.
         13    1    5    5    0    0  0.18885958040E+03  0.26450207502E+03 -0.70775386493E+02  0.33262357723E+03  0.00000000000E+00 0. -1.
        -14    1    5    5    0    0  0.14512484506E+03  0.12146252981E+03 -0.50409243803E+01  0.18931396599E+03  0.00000000000E+00 0.  1.
         15    1    3    3    0    0 -0.22320701240E+03 -0.29222731877E+03 -0.72893451193E+03  0.81643545772E+03  0.17770000000E+01 0. -1.
        -16    1    3    3    0    0 -0.14287204633E+03 -0.32522673432E+03 -0.67902650934E+03  0.76633011864E+03  0.00000000000E+00 0.  1.
          2    1    6    6  502    0  0.47784995539E+02  0.76572897065E+02 -0.23091281478E+03  0.24792648586E+03  0.00000000000E+00 0. -1.
         -1    1    6    6    0  502 -0.15690362272E+02  0.15491655120E+03 -0.31992323223E+03  0.35580359726E+03  0.00000000000E+00 0.  1.
<mgrwt>
<rscale>  0 0.74158593E+03</rscale>
<asrwt>0</asrwt>
<pdfrwt beam="1">  1        1 0.51832293E-01 0.74158593E+03</pdfrwt>
<pdfrwt beam="2">  1       -2 0.36484974E+00 0.74158593E+03</pdfrwt>
<totfact> 0.87581470E-01</totfact>
</mgrwt>
</event>
<event>
12    3  0.1092576E-007  0.1653033E+04  0.7818608E-02  0.8788614E-01
          1   -1    0    0  501    0  0.00000000000E+00  0.00000000000E+00  0.20459416377E+04  0.20459416377E+04  0.00000000000E+00 0. -1.
         -2   -1    0    0    0  501 -0.00000000000E+00 -0.00000000000E+00 -0.13883453016E+04  0.13883453016E+04  0.00000000000E+00 0.  1.
        -24    2    1    2    0    0  0.16015044536E+04  0.13567126201E+03  0.35875374983E+02  0.16095408234E+04  0.78175529496E+02 0.  0.
    5000000    2    1    2    0    0 -0.16015044536E+04 -0.13567126201E+03  0.62172096106E+03  0.18247461159E+04  0.59994852122E+03 0.  0.
        -24    2    4    4    0    0 -0.44855165846E+03  0.19770541886E+03  0.29877154550E+03  0.57913075996E+03  0.76432831782E+02 0.  0.
         24    2    4    4    0    0 -0.11529527951E+04 -0.33337668087E+03  0.32294941556E+03  0.12456153560E+04  0.82590138505E+02 0.  0.
         13    1    5    5    0    0 -0.29750894559E+03  0.92867747448E+02  0.20141338720E+03  0.37108401173E+03  0.00000000000E+00 0. -1.
        -14    1    5    5    0    0 -0.15104271287E+03  0.10483767141E+03  0.97358158298E+02  0.20804674822E+03  0.00000000000E+00 0.  1.
         15    1    3    3    0    0  0.84586860185E+03  0.87687755291E+02  0.54567261006E+02  0.85215232073E+03  0.17770000000E+01 0. -1.
        -16    1    3    3    0    0  0.75563585171E+03  0.47983506720E+02 -0.18691886023E+02  0.75738850262E+03  0.00000000000E+00 0.  1.
          2    1    6    6  502    0 -0.80939153050E+03 -0.19466623441E+03  0.22836631768E+03  0.86322695018E+03  0.00000000000E+00 0. -1.
         -1    1    6    6    0  502 -0.34356126460E+03 -0.13871044646E+03  0.94583097881E+02  0.38238840580E+03  0.00000000000E+00 0.  1.
<mgrwt>
<rscale>  0 0.16530335E+04</rscale>
<asrwt>0</asrwt>
<pdfrwt beam="1">  1        1 0.31476025E+00 0.16530335E+04</pdfrwt>
<pdfrwt beam="2">  1       -2 0.21359159E+00 0.16530335E+04</pdfrwt>
<totfact> 0.24458405E-01</totfact>
</mgrwt>
</event>
<event>
12    3  0.1092576E-007  0.1252687E+04  0.7818608E-02  0.9067949E-01
         -2   -1    0    0    0  501 -0.00000000000E+00  0.00000000000E+00  0.93889700477E+03  0.93889700477E+03  0.00000000000E+00 0.  1.
          1   -1    0    0  501    0  0.00000000000E+00 -0.00000000000E+00 -0.20361024109E+04  0.20361024109E+04  0.00000000000E+00 0. -1.
        -24    2    1    2    0    0  0.70047085318E+03  0.10191205280E+04 -0.38856237663E+02  0.12401531703E+04  0.84876450513E+02 0.  0.
    5000000    2    1    2    0    0 -0.70047085318E+03 -0.10191205280E+04 -0.10583491685E+04  0.17348462454E+04  0.60026866148E+03 0.  0.
        -24    2    4    4    0    0 -0.29324349487E+03 -0.64387844591E+03 -0.25545658354E+03  0.75625652225E+03  0.78068309721E+02 0.  0.
         24    2    4    4    0    0 -0.40722735832E+03 -0.37524208209E+03 -0.80289258494E+03  0.97858972314E+03  0.79753380767E+02 0.  0.
         13    1    5    5    0    0 -0.12638804857E+03 -0.35212239605E+03 -0.10932613053E+03  0.38976444609E+03  0.00000000000E+00 0. -1.
        -14    1    5    5    0    0 -0.16685544630E+03 -0.29175604986E+03 -0.14613045301E+03  0.36649207615E+03  0.00000000000E+00 0.  1.
         15    1    3    3    0    0  0.10927756041E+03  0.11002095255E+03 -0.14230911637E+01  0.15508506738E+03  0.17770000000E+01 0. -1.
        -16    1    3    3    0    0  0.59119329278E+03  0.90909957545E+03 -0.37433146500E+02  0.10850681029E+04  0.00000000000E+00 0.  1.
          4    1    6    6  502    0 -0.30262497110E+03 -0.25041257423E+03 -0.61726563789E+03  0.73164554135E+03  0.00000000000E+00 0. -1.
         -3    1    6    6    0  502 -0.10460238722E+03 -0.12482950787E+03 -0.18562694705E+03  0.24694418179E+03  0.00000000000E+00 0.  1.
<mgrwt>
<rscale>  0 0.12526874E+04</rscale>
<asrwt>0</asrwt>
<pdfrwt beam="1">  1        1 0.31324653E+00 0.12526874E+04</pdfrwt>
<pdfrwt beam="2">  1       -2 0.14444569E+00 0.12526874E+04</pdfrwt>
<totfact> 0.79495228E-01</totfact>
</mgrwt>
</event>
<event>
12    3  0.1092576E-007  0.1024406E+04  0.7818608E-02  0.9282174E-01
         -2   -1    0    0    0  501 -0.00000000000E+00  0.00000000000E+00  0.13486380359E+04  0.13486380359E+04  0.00000000000E+00 0.  1.
          1   -1    0    0  501    0  0.00000000000E+00 -0.00000000000E+00 -0.93221859741E+03  0.93221859741E+03  0.00000000000E+00 0. -1.
        -24    2    1    2    0    0  0.37411580313E+03  0.86365235283E+03  0.64096959297E+03  0.11422581034E+04  0.89741489127E+02 0.  0.
    5000000    2    1    2    0    0 -0.37411580313E+03 -0.86365235283E+03 -0.22455015453E+03  0.11385985299E+04  0.60010484060E+03 0.  0.
        -24    2    4    4    0    0 -0.25901874241E+03 -0.92362790113E+03 -0.23220630912E+03  0.98991983003E+03  0.76434882389E+02 0.  0.
         24    2    4    4    0    0 -0.11509706073E+03  0.59975548299E+02  0.76561545863E+01  0.14867869987E+03  0.72127243892E+02 0.  0.
         11    1    5    5    0    0 -0.17613477469E+02 -0.10246477455E+03 -0.37147321706E+01  0.10403395527E+03  0.00000000000E+00 0. -1.
        -12    1    5    5    0    0 -0.24140526494E+03 -0.82116312657E+03 -0.22849157695E+03  0.88588587477E+03  0.00000000000E+00 0.  1.
         15    1    3    3    0    0  0.27856185369E+03  0.71292192495E+03  0.54505815602E+03  0.93965202527E+03  0.17770000000E+01 0. -1.
        -16    1    3    3    0    0  0.95553949445E+02  0.15073042787E+03  0.95911436944E+02  0.20260607809E+03  0.00000000000E+00 0.  1.
          2    1    6    6  502    0 -0.54284506784E+01  0.31205434376E+02  0.15030817556E+02  0.35059559149E+02  0.00000000000E+00 0. -1.
         -1    1    6    6    0  502 -0.10966861005E+03  0.28770113923E+02 -0.73746629693E+01  0.11361914073E+03  0.00000000000E+00 0.  1.
<mgrwt>
<rscale>  0 0.10244064E+04</rscale>
<asrwt>0</asrwt>
<pdfrwt beam="1">  1        1 0.14341825E+00 0.10244064E+04</pdfrwt>
<pdfrwt beam="2">  1       -2 0.20748277E+00 0.10244064E+04</pdfrwt>
<totfact> 0.17749759E+00</totfact>
</mgrwt>
</event>
<event>
12    3  0.1092576E-007  0.1152782E+04  0.7818608E-02  0.9155221E-01
          1   -1    0    0  501    0  0.00000000000E+00  0.00000000000E+00  0.23713298116E+04  0.23713298116E+04  0.00000000000E+00 0. -1.
         -2   -1    0    0    0  501 -0.00000000000E+00 -0.00000000000E+00 -0.66690715710E+03  0.66690715710E+03  0.00000000000E+00 0.  1.
        -24    2    1    2    0    0  0.10753874689E+04  0.21582796899E+03  0.13450017257E+04  0.17373785491E+04  0.80091575331E+02 0.  0.
    5000000    2    1    2    0    0 -0.10753874689E+04 -0.21582796899E+03  0.35942092889E+03  0.13008584196E+04  0.60000775270E+03 0.  0.
        -24    2    4    4    0    0 -0.98547153527E+03 -0.34680471490E+03  0.20820512523E+03  0.10681349424E+04  0.78327670033E+02 0.  0.
         24    2    4    4    0    0 -0.89915933635E+02  0.13097674590E+03  0.15121580366E+03  0.23272347723E+03  0.77808832961E+02 0.  0.
         13    1    5    5    0    0 -0.86803147729E+03 -0.32694052343E+03  0.16969185601E+03  0.94295497105E+03  0.00000000000E+00 0. -1.
        -14    1    5    5    0    0 -0.11744005798E+03 -0.19864191471E+02  0.38513269220E+02  0.12517997135E+03  0.00000000000E+00 0.  1.
         15    1    3    3    0    0  0.65861529066E+03  0.16826902761E+03  0.80610586228E+03  0.10544659244E+04  0.17770000000E+01 0. -1.
        -16    1    3    3    0    0  0.41677217824E+03  0.47558941385E+02  0.53889586338E+03  0.68291262474E+03  0.00000000000E+00 0.  1.
          2    1    6    6  502    0 -0.29462679920E+02  0.30667579156E+02  0.13839193843E+01  0.42549561128E+02  0.00000000000E+00 0. -1.
         -1    1    6    6    0  502 -0.60453253715E+02  0.10030916675E+03  0.14983188428E+03  0.19017391610E+03  0.00000000000E+00 0.  1.
<mgrwt>
<rscale>  0 0.11527818E+04</rscale>
<asrwt>0</asrwt>
<pdfrwt beam="1">  1        1 0.36481997E+00 0.11527818E+04</pdfrwt>
<pdfrwt beam="2">  1       -2 0.10260110E+00 0.11527818E+04</pdfrwt>
<totfact> 0.11232332E+00</totfact>
</mgrwt>
</event>
<event>
12    3  0.1092576E-007  0.4051599E+03  0.7818608E-02  0.1042007E+00
          1   -1    0    0  501    0  0.00000000000E+00  0.00000000000E+00  0.11117423473E+04  0.11117423473E+04  0.00000000000E+00 0. -1.
         -2   -1    0    0    0  501 -0.00000000000E+00 -0.00000000000E+00 -0.18965455598E+03  0.18965455598E+03  0.00000000000E+00 0.  1.
        -24    2    1    2    0    0  0.19402022533E+02 -0.22310942229E+03  0.43984245948E+03  0.49994334857E+03  0.79546903347E+02 0.  0.
    5000000    2    1    2    0    0 -0.19402022533E+02  0.22310942229E+03  0.48224533183E+03  0.80145355470E+03  0.59967740284E+03 0.  0.
        -24    2    4    4    0    0 -0.16094003797E+03  0.34686609277E+03  0.44845977360E+03  0.59427468196E+03  0.76344265981E+02 0.  0.
         24    2    4    4    0    0  0.14153801544E+03 -0.12375667048E+03  0.33785558233E+02  0.20717887274E+03  0.80205349342E+02 0.  0.
         13    1    5    5    0    0 -0.42620268949E+02  0.10193150292E+03  0.80560560140E+02  0.13673522759E+03  0.00000000000E+00 0. -1.
        -14    1    5    5    0    0 -0.11831976902E+03  0.24493458985E+03  0.36789921346E+03  0.45753945437E+03  0.00000000000E+00 0.  1.
         15    1    3    3    0    0 -0.16580761471E+02 -0.57164797197E+02  0.17951381595E+03  0.18913250259E+03  0.17770000000E+01 0. -1.
        -16    1    3    3    0    0  0.35982784003E+02 -0.16594462509E+03  0.26032864353E+03  0.31081084598E+03  0.00000000000E+00 0.  1.
          2    1    6    6  502    0 -0.31336256069E+01  0.42635452028E+01 -0.79410496871E+01  0.95424156937E+01  0.00000000000E+00 0. -1.
         -1    1    6    6    0  502  0.14467164104E+03 -0.12802021568E+03  0.41726607920E+02  0.19763645705E+03  0.00000000000E+00 0.  1.
<mgrwt>
<rscale>  0 0.40515993E+03</rscale>
<asrwt>0</asrwt>
<pdfrwt beam="1">  1        1 0.17103728E+00 0.40515993E+03</pdfrwt>
<pdfrwt beam="2">  1       -2 0.29177625E-01 0.40515993E+03</pdfrwt>
<totfact> 0.12375235E+02</totfact>
</mgrwt>
</event>
<event>
12    3  0.1321540E-007  0.8400070E+03  0.7818608E-02  0.9503848E-01
          1   -1    0    0  501    0  0.00000000000E+00  0.00000000000E+00  0.14698727982E+04  0.14698727982E+04  0.00000000000E+00 0. -1.
         -2   -1    0    0    0  501 -0.00000000000E+00 -0.00000000000E+00 -0.52455452210E+03  0.52455452210E+03  0.00000000000E+00 0.  1.
        -24    2    1    2    0    0  0.74496257403E+03 -0.19833978539E+02  0.18410380589E+03  0.77176989401E+03  0.79824398202E+02 0.  0.
    5000000    2    1    2    0    0 -0.74496257403E+03  0.19833978539E+02  0.76121447025E+03  0.12226574263E+04  0.60006757040E+03 0.  0.
        -24    2    4    4    0    0 -0.11157583565E+03 -0.21648372253E+03  0.10432906545E+03  0.27655767241E+03  0.79279398650E+02 0.  0.
         24    2    4    4    0    0 -0.63338673838E+03  0.23631770106E+03  0.65688540480E+03  0.94609975393E+03  0.81126402278E+02 0.  0.
         13    1    5    5    0    0  0.38812893451E+00 -0.56242080095E+02  0.28762296499E+01  0.56316914994E+02  0.00000000000E+00 0. -1.
        -14    1    5    5    0    0 -0.11196396458E+03 -0.16024164243E+03  0.10145283580E+03  0.22024075741E+03  0.00000000000E+00 0.  1.
         15    1    3    3    0    0  0.22073748979E+03  0.21035541413E+02  0.29513060682E+02  0.22370004891E+03  0.17770000000E+01 0. -1.
        -16    1    3    3    0    0  0.52422508424E+03 -0.40869519953E+02  0.15459074521E+03  0.54806984510E+03  0.00000000000E+00 0.  1.
          4    1    6    6  502    0 -0.33466494816E+03  0.16722979702E+03  0.37115970725E+03  0.52699711653E+03  0.00000000000E+00 0. -1.
         -3    1    6    6    0  502 -0.29872179022E+03  0.69087904049E+02  0.28572569755E+03  0.41910263740E+03  0.00000000000E+00 0.  1.
<mgrwt>
<rscale>  0 0.84000700E+03</rscale>
<asrwt>0</asrwt>
<pdfrwt beam="1">  1        1 0.22613428E+00 0.84000700E+03</pdfrwt>
<pdfrwt beam="2">  1       -2 0.80700696E-01 0.84000700E+03</pdfrwt>
<totfact> 0.83278277E+00</totfact>
</mgrwt>
</event>
<event>
12    3  0.1092576E-007  0.5883070E+03  0.7818608E-02  0.9929967E-01
         -2   -1    0    0    0  501 -0.00000000000E+00  0.00000000000E+00  0.16984321903E+03  0.16984321903E+03  0.00000000000E+00 0.  1.
          1   -1    0    0  501    0  0.00000000000E+00 -0.00000000000E+00 -0.23886779600E+04  0.23886779600E+04  0.00000000000E+00 0. -1.
        -24    2    1    2    0    0  0.43143334117E+03 -0.60999016118E+02 -0.41016926674E+03  0.60375860788E+03  0.80187414050E+02 0.  0.
    5000000    2    1    2    0    0 -0.43143334117E+03  0.60999016118E+02 -0.18086654742E+04  0.19547625712E+04  0.59997525285E+03 0.  0.
        -24    2    4    4    0    0 -0.62640093489E+02  0.28444305088E+03 -0.69865854363E+03  0.76125575319E+03  0.80962526418E+02 0.  0.
         24    2    4    4    0    0 -0.36879324768E+03 -0.22344403476E+03 -0.11100069306E+04  0.11935068180E+04  0.80046500875E+02 0.  0.
         13    1    5    5    0    0  0.15976156597E+02  0.17413519190E+02 -0.46017442401E+02  0.51730776481E+02  0.00000000000E+00 0. -1.
        -14    1    5    5    0    0 -0.78616250087E+02  0.26702953169E+03 -0.65264110123E+03  0.70952497671E+03  0.00000000000E+00 0.  1.
         15    1    3    3    0    0  0.17097708599E+03  0.13897153642E+02 -0.14539962504E+03  0.22487886407E+03  0.17770000000E+01 0. -1.
        -16    1    3    3    0    0  0.26045625517E+03 -0.74896169761E+02 -0.26476964169E+03  0.37887974380E+03  0.00000000000E+00 0.  1.
          4    1    6    6  502    0 -0.82537808979E+02 -0.37083698676E+02 -0.15798226388E+03  0.18206066659E+03  0.00000000000E+00 0. -1.
         -3    1    6    6    0  502 -0.28625543870E+03 -0.18636033608E+03 -0.95202466674E+03  0.10114461514E+04  0.00000000000E+00 0.  1.
<mgrwt>
<rscale>  0 0.58830698E+03</rscale>
<asrwt>0</asrwt>
<pdfrwt beam="1">  1        1 0.36748890E+00 0.58830698E+03</pdfrwt>
<pdfrwt beam="2">  1       -2 0.26129727E-01 0.58830698E+03</pdfrwt>
<totfact> 0.20140768E+01</totfact>
</mgrwt>
</event>
<event>
12    3  0.1092576E-007  0.7061934E+03  0.7818608E-02  0.9706699E-01
         -2   -1    0    0    0  501 -0.00000000000E+00  0.00000000000E+00  0.40576114322E+03  0.40576114322E+03  0.00000000000E+00 0.  1.
          1   -1    0    0  501    0  0.00000000000E+00 -0.00000000000E+00 -0.31946917207E+04  0.31946917207E+04  0.00000000000E+00 0. -1.
        -24    2    1    2    0    0  0.56553808658E+03 -0.36364272521E+03 -0.80359303557E+01  0.67718892342E+03  0.80317512767E+02 0.  0.
    5000000    2    1    2    0    0 -0.56553808658E+03  0.36364272521E+03 -0.27808946471E+04  0.29232639405E+04  0.60002305657E+03 0.  0.
        -24    2    4    4    0    0 -0.56868671338E+02 -0.22896008858E+02 -0.13542165832E+04  0.13580519817E+04  0.81512930205E+02 0.  0.
         24    2    4    4    0    0 -0.50866941524E+03  0.38653873407E+03 -0.14266780639E+04  0.15652119588E+04  0.79507301080E+02 0.  0.
         11    1    5    5    0    0  0.17394241711E+02  0.18279644105E+01 -0.48595816719E+03  0.48627280549E+03  0.00000000000E+00 0. -1.
        -12    1    5    5    0    0 -0.74262913049E+02 -0.24723973268E+02 -0.86825841599E+03  0.87177917620E+03  0.00000000000E+00 0.  1.
         15    1    3    3    0    0  0.24795889674E+03 -0.11432276740E+03 -0.13728059330E+02  0.27339518460E+03  0.17770000000E+01 0. -1.
        -16    1    3    3    0    0  0.31757918984E+03 -0.24931995781E+03  0.56921289744E+01  0.40379373883E+03  0.00000000000E+00 0.  1.
          4    1    6    6  502    0 -0.20407558299E+03  0.17670600758E+03 -0.51749767030E+03  0.58367430598E+03  0.00000000000E+00 0. -1.
         -3    1    6    6    0  502 -0.30459383226E+03  0.20983272649E+03 -0.90918039360E+03  0.98153765280E+03  0.00000000000E+00 0.  1.
<mgrwt>
<rscale>  0 0.70619338E+03</rscale>
<asrwt>0</asrwt>
<pdfrwt beam="1">  1        1 0.49149103E+00 0.70619338E+03</pdfrwt>
<pdfrwt beam="2">  1       -2 0.62424792E-01 0.70619338E+03</pdfrwt>
<totfact> 0.97592862E-01</totfact>
</mgrwt>
</event>
<event>
12    3  0.1092576E-007  0.6926025E+03  0.7818608E-02  0.9729967E-01
         -4   -1    0    0    0  501 -0.00000000000E+00  0.00000000000E+00  0.63340983453E+03  0.63340983453E+03  0.00000000000E+00 0.  1.
          3   -1    0    0  501    0  0.00000000000E+00 -0.00000000000E+00 -0.10249051067E+04  0.10249051067E+04  0.00000000000E+00 0. -1.
        -24    2    1    2    0    0 -0.66270904181E+03  0.13157225181E+03 -0.17666492745E+02  0.68054982911E+03  0.79633117443E+02 0.  0.
    5000000    2    1    2    0    0  0.66270904181E+03 -0.13157225181E+03 -0.37382877939E+03  0.97776511209E+03  0.59981841134E+03 0.  0.
        -24    2    4    4    0    0  0.28139182182E+03  0.34750882303E+02  0.12800196343E+03  0.32111058650E+03  0.79614853595E+02 0.  0.
         24    2    4    4    0    0  0.38131721999E+03 -0.16632313412E+03 -0.50183074282E+03  0.65665452560E+03  0.79340181135E+02 0.  0.
         11    1    5    5    0    0  0.26274961922E+03  0.48621317374E+02  0.10143412515E+03  0.28581510921E+03  0.00000000000E+00 0. -1.
        -12    1    5    5    0    0  0.18642202592E+02 -0.13870435071E+02  0.26567838273E+02  0.35295477289E+02  0.00000000000E+00 0.  1.
         15    1    3    3    0    0 -0.20088324528E+03  0.55128610439E+02  0.28115119544E+02  0.21020670683E+03  0.17770000000E+01 0. -1.
        -16    1    3    3    0    0 -0.46182579653E+03  0.76443641373E+02 -0.45781612289E+02  0.47034312228E+03  0.00000000000E+00 0.  1.
          4    1    6    6  502    0  0.29972725070E+03 -0.14983045294E+03 -0.35714516950E+03  0.48973284711E+03  0.00000000000E+00 0. -1.
         -1    1    6    6    0  502  0.81589969290E+02 -0.16492681171E+02 -0.14468557333E+03  0.16692167849E+03  0.00000000000E+00 0.  1.
<mgrwt>
<rscale>  0 0.69260247E+03</rscale>
<asrwt>0</asrwt>
<pdfrwt beam="1">  1        3 0.15767771E+00 0.69260247E+03</pdfrwt>
<pdfrwt beam="2">  1       -4 0.97447668E-01 0.69260247E+03</pdfrwt>
<totfact> 0.56269777E-01</totfact>
</mgrwt>
</event>
<event>
12    3  0.1092576E-007  0.2332838E+03  0.7818608E-02  0.1124350E+00
          1   -1    0    0  501    0  0.00000000000E+00  0.00000000000E+00  0.80246641872E+03  0.80246641872E+03  0.00000000000E+00 0. -1.
         -2   -1    0    0    0  501 -0.00000000000E+00 -0.00000000000E+00 -0.38215839261E+03  0.38215839261E+03  0.00000000000E+00 0.  1.
        -24    2    1    2    0    0 -0.18029060598E+03  0.46109830023E+01  0.51477202032E+03  0.55107759389E+03  0.78551370568E+02 0.  0.
    5000000    2    1    2    0    0  0.18029060598E+03 -0.46109830023E+01 -0.94463994212E+02  0.63354721744E+03  0.59994388634E+03 0.  0.
        -24    2    4    4    0    0 -0.17646228783E+02 -0.62542619846E+02 -0.30873352979E+03  0.32563994420E+03  0.80635055386E+02 0.  0.
         24    2    4    4    0    0  0.19793683476E+03  0.57931636844E+02  0.21426953558E+03  0.30790727324E+03  0.79752052862E+02 0.  0.
         13    1    5    5    0    0 -0.68617194387E+01 -0.32381215034E+02 -0.28194978648E+03  0.28388608345E+03  0.00000000000E+00 0. -1.
        -14    1    5    5    0    0 -0.10784509345E+02 -0.30161404812E+02 -0.26783743307E+02  0.41753860750E+02  0.00000000000E+00 0.  1.
         15    1    3    3    0    0 -0.72990808586E+02 -0.61209541399E+00  0.10804659741E+03  0.13040420906E+03  0.17770000000E+01 0. -1.
        -16    1    3    3    0    0 -0.10729979739E+03  0.52230784162E+01  0.40672542290E+03  0.42067338483E+03  0.00000000000E+00 0.  1.
          2    1    6    6  502    0  0.20558622391E+03  0.56538409015E+02  0.20466952154E+03  0.29555354880E+03  0.00000000000E+00 0. -1.
         -1    1    6    6    0  502 -0.76493891538E+01  0.13932278294E+01  0.96000140322E+01  0.12353724444E+02  0.00000000000E+00 0.  1.
<mgrwt>
<rscale>  0 0.23328384E+03</rscale>
<asrwt>0</asrwt>
<pdfrwt beam="1">  1        1 0.12345637E+00 0.23328384E+03</pdfrwt>
<pdfrwt beam="2">  1       -2 0.58793599E-01 0.23328384E+03</pdfrwt>
<totfact> 0.56893178E+01</totfact>
</mgrwt>
</event>
<event>
12    3  0.1092576E-007  0.6492107E+03  0.7818608E-02  0.9808261E-01
         -2   -1    0    0    0  501 -0.00000000000E+00  0.00000000000E+00  0.35771062656E+03  0.35771062656E+03  0.00000000000E+00 0.  1.
          1   -1    0    0  501    0  0.00000000000E+00 -0.00000000000E+00 -0.14227540914E+04  0.14227540914E+04  0.00000000000E+00 0. -1.
        -24    2    1    2    0    0 -0.12115962384E+03  0.50529236886E+03 -0.10709261188E+03  0.53641462918E+03  0.79194661452E+02 0.  0.
    5000000    2    1    2    0    0  0.12115962384E+03 -0.50529236886E+03 -0.95795085296E+03  0.12440500888E+04  0.59999229514E+03 0.  0.
        -24    2    4    4    0    0 -0.21081183447E+03 -0.32423498487E+03 -0.59490208815E+03  0.71404217542E+03  0.79860996836E+02 0.  0.
         24    2    4    4    0    0  0.33197145831E+03 -0.18105738399E+03 -0.36304876480E+03  0.53000791336E+03  0.78212257165E+02 0.  0.
         13    1    5    5    0    0 -0.13928135862E+03 -0.27283474989E+03 -0.47644367848E+03  0.56642446661E+03  0.00000000000E+00 0. -1.
        -14    1    5    5    0    0 -0.71530475853E+02 -0.51400234980E+02 -0.11845840967E+03  0.14761770881E+03  0.00000000000E+00 0.  1.
         15    1    3    3    0    0 -0.19703777358E+02  0.24925766086E+03 -0.57789621791E+02  0.25663284758E+03  0.17770000000E+01 0. -1.
        -16    1    3    3    0    0 -0.10145584648E+03  0.25603470800E+03 -0.49302990089E+02  0.27978178160E+03  0.00000000000E+00 0.  1.
          2    1    6    6  502    0  0.66466304214E+02 -0.44611414651E+02 -0.12391303957E+03  0.14752080968E+03  0.00000000000E+00 0. -1.
         -1    1    6    6    0  502  0.26550515409E+03 -0.13644596934E+03 -0.23913572523E+03  0.38248710368E+03  0.00000000000E+00 0.  1.
<mgrwt>
<rscale>  0 0.64921069E+03</rscale>
<asrwt>0</asrwt>
<pdfrwt beam="1">  1        1 0.21888525E+00 0.64921069E+03</pdfrwt>
<pdfrwt beam="2">  1       -2 0.55032403E-01 0.64921069E+03</pdfrwt>
<totfact> 0.21035611E+01</totfact>
</mgrwt>
</event>
<event>
12    3  0.1092576E-007  0.5856533E+03  0.7818608E-02  0.9935626E-01
          1   -1    0    0  501    0  0.00000000000E+00  0.00000000000E+00  0.29869912028E+03  0.29869912028E+03  0.00000000000E+00 0. -1.
         -2   -1    0    0    0  501 -0.00000000000E+00 -0.00000000000E+00 -0.14450200879E+04  0.14450200879E+04  0.00000000000E+00 0.  1.
        -24    2    1    2    0    0 -0.42071020756E+03  0.13926662929E+03 -0.10338806714E+03  0.46144704060E+03  0.76498405623E+02 0.  0.
    5000000    2    1    2    0    0  0.42071020756E+03 -0.13926662929E+03 -0.10429329005E+04  0.12822721676E+04  0.60010049498E+03 0.  0.
        -24    2    4    4    0    0  0.10156140092E+03 -0.32421148665E+03 -0.35857249603E+03  0.50075089883E+03  0.82154863086E+02 0.  0.
         24    2    4    4    0    0  0.31914880664E+03  0.18494485736E+03 -0.68436040443E+03  0.78152126875E+03  0.79785771290E+02 0.  0.
         11    1    5    5    0    0  0.11541414880E+03 -0.28468287429E+03 -0.30678463046E+03  0.43414464657E+03  0.00000000000E+00 0. -1.
        -12    1    5    5    0    0 -0.13852747881E+02 -0.39528612367E+02 -0.51787865573E+02  0.66606252260E+02  0.00000000000E+00 0.  1.
         15    1    3    3    0    0 -0.13414087214E+03  0.78375171577E+01 -0.34459743715E+02  0.13872934772E+03  0.17770000000E+01 0. -1.
        -16    1    3    3    0    0 -0.28656933542E+03  0.13142911214E+03 -0.68928323429E+02  0.32271769287E+03  0.00000000000E+00 0.  1.
          2    1    6    6  502    0  0.27371324008E+03  0.13545358496E+03 -0.50715633636E+03  0.59200858185E+03  0.00000000000E+00 0. -1.
         -3    1    6    6    0  502  0.45435566561E+02  0.49491272402E+02 -0.17720406807E+03  0.18951268689E+03  0.00000000000E+00 0.  1.
<mgrwt>
<rscale>  0 0.58565335E+03</rscale>
<asrwt>0</asrwt>
<pdfrwt beam="1">  1        1 0.45953711E-01 0.58565335E+03</pdfrwt>
<pdfrwt beam="2">  1       -2 0.22231078E+00 0.58565335E+03</pdfrwt>
<totfact> 0.77052061E+00</totfact>
</mgrwt>
</event>
<event>
12    3  0.1092576E-007  0.8564728E+03  0.7818608E-02  0.9481690E-01
         -2   -1    0    0    0  501 -0.00000000000E+00  0.00000000000E+00  0.75490346883E+03  0.75490346883E+03  0.00000000000E+00 0.  1.
          1   -1    0    0  501    0  0.00000000000E+00 -0.00000000000E+00 -0.10231734666E+04  0.10231734666E+04  0.00000000000E+00 0. -1.
        -24    2    1    2    0    0 -0.77399029617E+03  0.40601835789E+01 -0.90552375715E+02  0.78272585901E+03  0.73366027341E+02 0.  0.
    5000000    2    1    2    0    0  0.77399029617E+03 -0.40601835789E+01 -0.17771762203E+03  0.99535107639E+03  0.60005228808E+03 0.  0.
        -24    2    4    4    0    0  0.67025275441E+03  0.19928663095E+03 -0.24513760152E+03  0.74518409168E+03  0.79075727953E+02 0.  0.
         24    2    4    4    0    0  0.10373754176E+03 -0.20334681453E+03  0.67419979490E+02  0.25016698471E+03  0.76984817023E+02 0.  0.
         11    1    5    5    0    0  0.17697619002E+03  0.28453267149E+02 -0.90145570956E+02  0.20063993673E+03  0.00000000000E+00 0. -1.
        -12    1    5    5    0    0  0.49327656438E+03  0.17083336380E+03 -0.15499203056E+03  0.54454415495E+03  0.00000000000E+00 0.  1.
         15    1    3    3    0    0 -0.81006752802E+02  0.22351663542E+02 -0.15223809530E+02  0.85420214049E+02  0.17770000000E+01 0. -1.
        -16    1    3    3    0    0 -0.69298354337E+03 -0.18291479963E+02 -0.75328566185E+02  0.69730564496E+03  0.00000000000E+00 0.  1.
          4    1    6    6  502    0  0.71745655083E+02 -0.82238392062E+02  0.26917526732E+01  0.10916884942E+03  0.00000000000E+00 0. -1.
         -3    1    6    6    0  502  0.31991886679E+02 -0.12110842247E+03  0.64728226817E+02  0.14099813528E+03  0.00000000000E+00 0.  1.
<mgrwt>
<rscale>  0 0.85647282E+03</rscale>
<asrwt>0</asrwt>
<pdfrwt beam="1">  1        1 0.15741130E+00 0.85647282E+03</pdfrwt>
<pdfrwt beam="2">  1       -2 0.11613900E+00 0.85647282E+03</pdfrwt>
<totfact> 0.74131481E+00</totfact>
</mgrwt>
</event>
<event>
12    3  0.1092576E-007  0.5601973E+03  0.7818608E-02  0.9991608E-01
         -2   -1    0    0    0  501 -0.00000000000E+00  0.00000000000E+00  0.52289044026E+03  0.52289044026E+03  0.00000000000E+00 0.  1.
          1   -1    0    0  501    0  0.00000000000E+00 -0.00000000000E+00 -0.90632985127E+03  0.90632985127E+03  0.00000000000E+00 0. -1.
        -24    2    1    2    0    0  0.44099401866E+03  0.33511485299E+03 -0.16421926471E+03  0.58376299040E+03  0.83866398916E+02 0.  0.
    5000000    2    1    2    0    0 -0.44099401866E+03 -0.33511485299E+03 -0.21922014630E+03  0.84545730112E+03  0.59996907110E+03 0.  0.
        -24    2    4    4    0    0 -0.12574215115E+03 -0.96857142455E+02  0.19755528191E+03  0.26577478564E+03  0.80098393563E+02 0.  0.
         24    2    4    4    0    0 -0.31525186752E+03 -0.23825771054E+03 -0.41677542821E+03  0.57968251548E+03  0.78610333888E+02 0.  0.
         11    1    5    5    0    0 -0.58746828987E+01 -0.38734926440E+01 -0.77717310633E+01  0.10484066394E+02  0.00000000000E+00 0. -1.
        -12    1    5    5    0    0 -0.11986746825E+03 -0.92983649811E+02  0.20532701297E+03  0.25529071924E+03  0.00000000000E+00 0.  1.
         15    1    3    3    0    0  0.15379991104E+03  0.68866580457E+02 -0.46131023998E+02  0.17472334602E+03  0.17770000000E+01 0. -1.
        -16    1    3    3    0    0  0.28719410762E+03  0.26624827254E+03 -0.11808824071E+03  0.40903964438E+03  0.00000000000E+00 0.  1.
          4    1    6    6  502    0 -0.70295488319E+02 -0.19154182509E+02 -0.95165365706E+02  0.11985318192E+03  0.00000000000E+00 0. -1.
         -3    1    6    6    0  502 -0.24495637920E+03 -0.21910352803E+03 -0.32161006250E+03  0.45982933356E+03  0.00000000000E+00 0.  1.
<mgrwt>
<rscale>  0 0.56019729E+03</rscale>
<asrwt>0</asrwt>
<pdfrwt beam="1">  1        1 0.13943536E+00 0.56019729E+03</pdfrwt>
<pdfrwt beam="2">  1       -2 0.80444684E-01 0.56019729E+03</pdfrwt>
<totfact> 0.22477666E+01</totfact>
</mgrwt>
</event>
<event>
12    3  0.1092576E-007  0.5760670E+03  0.7818608E-02  0.9956342E-01
          1   -1    0    0  501    0  0.00000000000E+00  0.00000000000E+00  0.33344440275E+03  0.33344440275E+03  0.00000000000E+00 0. -1.
         -2   -1    0    0    0  501 -0.00000000000E+00 -0.00000000000E+00 -0.11589161742E+04  0.11589161742E+04  0.00000000000E+00 0.  1.
        -24    2    1    2    0    0  0.81984267998E+02  0.46344077444E+03 -0.28198390651E+03  0.55597656793E+03  0.89979158382E+02 0.  0.
    5000000    2    1    2    0    0 -0.81984267998E+02 -0.46344077444E+03 -0.54348786490E+03  0.93638400897E+03  0.59994764885E+03 0.  0.
        -24    2    4    4    0    0  0.63588109146E+02 -0.50960759279E+03 -0.20300626612E+03  0.55449282966E+03  0.50074023287E+02 0.  0.
         24    2    4    4    0    0 -0.14557237714E+03  0.46166818347E+02 -0.34048159877E+03  0.38189117931E+03  0.81181658214E+02 0.  0.
         13    1    5    5    0    0  0.27286687581E+02 -0.32740684180E+03 -0.10807027576E+03  0.34585978067E+03  0.00000000000E+00 0. -1.
        -14    1    5    5    0    0  0.36301421564E+02 -0.18220075099E+03 -0.94935990365E+02  0.20863304900E+03  0.00000000000E+00 0.  1.
         15    1    3    3    0    0  0.54404768631E+02  0.28543664106E+03 -0.22350191637E+03  0.36659271578E+03  0.17770000000E+01 0. -1.
        -16    1    3    3    0    0  0.27579499367E+02  0.17800413338E+03 -0.58481990140E+02  0.18938385216E+03  0.00000000000E+00 0.  1.
          2    1    6    6  502    0 -0.89171743289E+02 -0.71905267203E+01 -0.23061955927E+03  0.24736346657E+03  0.00000000000E+00 0. -1.
         -1    1    6    6    0  502 -0.56400633855E+02  0.53357345067E+02 -0.10986203950E+03  0.13452771274E+03  0.00000000000E+00 0.  1.
<mgrwt>
<rscale>  0 0.57606705E+03</rscale>
<asrwt>0</asrwt>
<pdfrwt beam="1">  1        1 0.51299138E-01 0.57606705E+03</pdfrwt>
<pdfrwt beam="2">  1       -2 0.17829480E+00 0.57606705E+03</pdfrwt>
<totfact> 0.12909220E+01</totfact>
</mgrwt>
</event>
<event>
12    3  0.1092576E-007  0.7375808E+03  0.7818608E-02  0.9655038E-01
          1   -1    0    0  501    0  0.00000000000E+00  0.00000000000E+00  0.13890256474E+04  0.13890256474E+04  0.00000000000E+00 0. -1.
         -2   -1    0    0    0  501 -0.00000000000E+00 -0.00000000000E+00 -0.71388592935E+03  0.71388592935E+03  0.00000000000E+00 0.  1.
        -24    2    1    2    0    0  0.17837967433E+02  0.71174082359E+03 -0.27987283018E+03  0.76918557310E+03  0.80152677686E+02 0.  0.
    5000000    2    1    2    0    0 -0.17837967433E+02 -0.71174082359E+03  0.95501254819E+03  0.13337260036E+04  0.59990240245E+03 0.  0.
        -24    2    4    4    0    0 -0.13139646149E+03 -0.23213990964E+03  0.73970650070E+03  0.78985510633E+03  0.74507812248E+02 0.  0.
         24    2    4    4    0    0  0.11355849405E+03 -0.47960091395E+03  0.21530604749E+03  0.54387089728E+03  0.80785460239E+02 0.  0.
         11    1    5    5    0    0 -0.37824692826E+02 -0.90725353004E+02  0.18080843254E+03  0.20579962668E+03  0.00000000000E+00 0. -1.
        -12    1    5    5    0    0 -0.93571768661E+02 -0.14141455663E+03  0.55889806815E+03  0.58405547965E+03  0.00000000000E+00 0.  1.
         15    1    3    3    0    0 -0.96791716969E+01  0.39626986066E+03 -0.19263053853E+03  0.44071892509E+03  0.17770000000E+01 0. -1.
        -16    1    3    3    0    0  0.27517139130E+02  0.31547096293E+03 -0.87242291647E+02  0.32846664800E+03  0.00000000000E+00 0.  1.
          2    1    6    6  502    0  0.23119158994E+02 -0.17416851068E+03  0.11469322081E+03  0.20981825594E+03  0.00000000000E+00 0. -1.
         -1    1    6    6    0  502  0.90439335060E+02 -0.30543240327E+03  0.10061282668E+03  0.33405264134E+03  0.00000000000E+00 0.  1.
<mgrwt>
<rscale>  0 0.73758079E+03</rscale>
<asrwt>0</asrwt>
<pdfrwt beam="1">  1        1 0.21369625E+00 0.73758079E+03</pdfrwt>
<pdfrwt beam="2">  1       -2 0.10982861E+00 0.73758079E+03</pdfrwt>
<totfact> 0.46742461E+00</totfact>
</mgrwt>
</event>
<event>
12    3  0.1092576E-007  0.3826898E+03  0.7818608E-02  0.1049944E+00
         -2   -1    0    0    0  501 -0.00000000000E+00  0.00000000000E+00  0.14428057805E+04  0.14428057805E+04  0.00000000000E+00 0.  1.
          1   -1    0    0  501    0  0.00000000000E+00 -0.00000000000E+00 -0.90735479230E+03  0.90735479230E+03  0.00000000000E+00 0. -1.
        -24    2    1    2    0    0  0.32481793046E+03  0.71812910767E+02  0.12875387672E+04  0.13321676915E+04  0.79062628159E+02 0.  0.
    5000000    2    1    2    0    0 -0.32481793046E+03 -0.71812910767E+02 -0.75208777902E+03  0.10179928813E+04  0.60000808066E+03 0.  0.
        -24    2    4    4    0    0 -0.17095918046E+03  0.88972216222E+02  0.21053767234E+02  0.20935431065E+03  0.79011832216E+02 0.  0.
         24    2    4    4    0    0 -0.15385874999E+03 -0.16078512699E+03 -0.77314154626E+03  0.80863857062E+03  0.81388668292E+02 0.  0.
         13    1    5    5    0    0 -0.56758267637E+02  0.40153530561E+00  0.30663993535E+02  0.64513120179E+02  0.00000000000E+00 0. -1.
        -14    1    5    5    0    0 -0.11420091283E+03  0.88570680916E+02 -0.96102263013E+01  0.14484119047E+03  0.00000000000E+00 0.  1.
         15    1    3    3    0    0  0.11298661349E+03  0.59748587498E+02  0.55432458365E+03  0.56887148839E+03  0.17770000000E+01 0. -1.
        -16    1    3    3    0    0  0.21183131696E+03  0.12064323269E+02  0.73321418354E+03  0.76329620311E+03  0.00000000000E+00 0.  1.
          4    1    6    6  502    0 -0.48510298671E+01 -0.14486690268E+02 -0.16375001787E+03  0.16446113534E+03  0.00000000000E+00 0. -1.
         -1    1    6    6    0  502 -0.14900772012E+03 -0.14629843672E+03 -0.60939152839E+03  0.64417743528E+03  0.00000000000E+00 0.  1.
<mgrwt>
<rscale>  0 0.38268980E+03</rscale>
<asrwt>0</asrwt>
<pdfrwt beam="1">  1        1 0.13959305E+00 0.38268980E+03</pdfrwt>
<pdfrwt beam="2">  1       -2 0.22197012E+00 0.38268980E+03</pdfrwt>
<totfact> 0.16998756E+00</totfact>
</mgrwt>
</event>
<event>
12    3  0.1092576E-007  0.3308462E+03  0.7818608E-02  0.1070763E+00
          1   -1    0    0  501    0  0.00000000000E+00  0.00000000000E+00  0.14313870836E+04  0.14313870836E+04  0.00000000000E+00 0. -1.
         -2   -1    0    0    0  501 -0.00000000000E+00 -0.00000000000E+00 -0.17614175760E+03  0.17614175760E+03  0.00000000000E+00 0.  1.
        -24    2    1    2    0    0  0.10225497615E+03  0.28721547009E+03  0.54238705452E+03  0.62713178356E+03  0.78496819180E+02 0.  0.
    5000000    2    1    2    0    0 -0.10225497615E+03 -0.28721547009E+03  0.71285827152E+03  0.98039705770E+03  0.60005222194E+03 0.  0.
        -24    2    4    4    0    0 -0.38298759516E+02 -0.24920588316E+03  0.79856254817E+03  0.84178405968E+03  0.85603111068E+02 0.  0.
         24    2    4    4    0    0 -0.63956216636E+02 -0.38009586937E+02 -0.85704276649E+02  0.13861299801E+03  0.79581491794E+02 0.  0.
         13    1    5    5    0    0  0.24481590283E+02 -0.10286904837E+03  0.27891745850E+03  0.29828901762E+03  0.00000000000E+00 0. -1.
        -14    1    5    5    0    0 -0.62780349799E+02 -0.14633683478E+03  0.51964508967E+03  0.54349504206E+03  0.00000000000E+00 0.  1.
         15    1    3    3    0    0  0.32272226542E+02  0.29049567817E+02  0.46116160483E+02  0.63365858181E+02  0.17770000000E+01 0. -1.
        -16    1    3    3    0    0  0.69982749611E+02  0.25816590228E+03  0.49627089404E+03  0.56376592537E+03  0.00000000000E+00 0.  1.
          2    1    6    6  502    0 -0.37032297936E+02 -0.44684940837E+02 -0.93277909257E+02  0.10985856081E+03  0.00000000000E+00 0. -1.
         -1    1    6    6    0  502 -0.26923918700E+02  0.66753538993E+01  0.75736326079E+01  0.28754437201E+02  0.00000000000E+00 0.  1.
<mgrwt>
<rscale>  0 0.33084618E+03</rscale>
<asrwt>0</asrwt>
<pdfrwt beam="1">  1        1 0.22021339E+00 0.33084618E+03</pdfrwt>
<pdfrwt beam="2">  1       -2 0.27098733E-01 0.33084618E+03</pdfrwt>
<totfact> 0.85707205E+01</totfact>
</mgrwt>
</event>
<event>
12    3  0.1092576E-007  0.1203336E+04  0.7818608E-02  0.9109942E-01
          1   -1    0    0  501    0  0.00000000000E+00  0.00000000000E+00  0.10244223596E+04  0.10244223596E+04  0.00000000000E+00 0. -1.
         -2   -1    0    0    0  501 -0.00000000000E+00 -0.00000000000E+00 -0.15597546869E+04  0.15597546869E+04  0.00000000000E+00 0.  1.
        -24    2    1    2    0    0  0.52556938127E+03  0.10271391240E+04 -0.55665188681E+03  0.12834866147E+04  0.78984886272E+02 0.  0.
    5000000    2    1    2    0    0 -0.52556938127E+03 -0.10271391240E+04  0.21319559574E+02  0.13006904318E+04  0.60008592819E+03 0.  0.
        -24    2    4    4    0    0 -0.24151091739E+03 -0.91304641630E+03  0.14875892599E+03  0.95879026064E+03  0.71890641169E+02 0.  0.
         24    2    4    4    0    0 -0.28405846388E+03 -0.11409270773E+03 -0.12743936642E+03  0.34190017120E+03  0.83358131560E+02 0.  0.
         11    1    5    5    0    0 -0.53998154022E+02 -0.24950537300E+03  0.10238731460E+02  0.25548691438E+03  0.00000000000E+00 0. -1.
        -12    1    5    5    0    0 -0.18751276337E+03 -0.66354104330E+03  0.13852019453E+03  0.70330334626E+03  0.00000000000E+00 0.  1.
         15    1    3    3    0    0  0.11353889333E+03  0.25836017267E+03 -0.16940805509E+03  0.32915544349E+03  0.17770000000E+01 0. -1.
        -16    1    3    3    0    0  0.41203048793E+03  0.76877895136E+03 -0.38724383172E+03  0.95433117116E+03  0.00000000000E+00 0.  1.
          4    1    6    6  502    0 -0.10749354854E+03 -0.58076053978E+02 -0.92860455444E+02  0.15346255311E+03  0.00000000000E+00 0. -1.
         -3    1    6    6    0  502 -0.17656491534E+03 -0.56016653751E+02 -0.34578910975E+02  0.18843761809E+03  0.00000000000E+00 0.  1.
<mgrwt>
<rscale>  0 0.12033358E+04</rscale>
<asrwt>0</asrwt>
<pdfrwt beam="1">  1        1 0.15760344E+00 0.12033358E+04</pdfrwt>
<pdfrwt beam="2">  1       -2 0.23996226E+00 0.12033358E+04</pdfrwt>
<totfact> 0.91849633E-01</totfact>
</mgrwt>
</event>
<event>
12    3  0.1092576E-007  0.1001040E+04  0.7818608E-02  0.9307405E-01
          1   -1    0    0  501    0  0.00000000000E+00  0.00000000000E+00  0.16249934861E+04  0.16249934861E+04  0.00000000000E+00 0. -1.
         -2   -1    0    0    0  501 -0.00000000000E+00 -0.00000000000E+00 -0.16395871696E+04  0.16395871696E+04  0.00000000000E+00 0.  1.
        -24    2    1    2    0    0  0.92744994639E+03  0.26594962825E+03 -0.12533550346E+04  0.15836641221E+04  0.78743895794E+02 0.  0.
    5000000    2    1    2    0    0 -0.92744994639E+03 -0.26594962825E+03  0.12387613511E+04  0.16809165335E+04  0.60004841469E+03 0.  0.
        -24    2    4    4    0    0 -0.37982931623E+02  0.32335146798E+02  0.42643603734E+03  0.43679836171E+03  0.80354527142E+02 0.  0.
         24    2    4    4    0    0 -0.88946701477E+03 -0.29828477505E+03  0.81232531372E+03  0.12441181718E+04  0.88499902556E+02 0.  0.
         11    1    5    5    0    0 -0.79231097331E+01  0.54919807289E+02  0.29084929088E+03  0.29609503695E+03  0.00000000000E+00 0. -1.
        -12    1    5    5    0    0 -0.30059821889E+02 -0.22584660492E+02  0.13558674646E+03  0.14070332476E+03  0.00000000000E+00 0.  1.
         15    1    3    3    0    0  0.43567272298E+03  0.15993763374E+03 -0.56820164944E+03  0.73365321535E+03  0.17770000000E+01 0. -1.
        -16    1    3    3    0    0  0.49177722341E+03  0.10601199451E+03 -0.68515338512E+03  0.85001090674E+03  0.00000000000E+00 0.  1.
          2    1    6    6  502    0 -0.66075980727E+03 -0.25924726078E+03  0.62949758776E+03  0.94872539659E+03  0.00000000000E+00 0. -1.
         -1    1    6    6    0  502 -0.22870720749E+03 -0.39037514267E+02  0.18282772596E+03  0.29539277523E+03  0.00000000000E+00 0.  1.
<mgrwt>
<rscale>  0 0.10010395E+04</rscale>
<asrwt>0</asrwt>
<pdfrwt beam="1">  1        1 0.24999900E+00 0.10010395E+04</pdfrwt>
<pdfrwt beam="2">  1       -2 0.25224418E+00 0.10010395E+04</pdfrwt>
<totfact> 0.29440497E-01</totfact>
</mgrwt>
</event>
<event>
12    3  0.1092576E-007  0.8761967E+03  0.7818608E-02  0.9455836E-01
         -2   -1    0    0    0  501 -0.00000000000E+00  0.00000000000E+00  0.93614857228E+03  0.93614857228E+03  0.00000000000E+00 0.  1.
          1   -1    0    0  501    0  0.00000000000E+00 -0.00000000000E+00 -0.90628030771E+03  0.90628030771E+03  0.00000000000E+00 0. -1.
        -24    2    1    2    0    0  0.57593534446E+03 -0.58554634644E+03  0.69745202567E+01  0.82507666678E+03  0.78337840767E+02 0.  0.
    5000000    2    1    2    0    0 -0.57593534446E+03  0.58554634644E+03  0.22893744318E+02  0.10173522132E+04  0.59992946033E+03 0.  0.
        -24    2    4    4    0    0 -0.51043100169E+03  0.22580269761E+03 -0.17795346666E+03  0.59249003385E+03  0.88602134230E+02 0.  0.
         24    2    4    4    0    0 -0.65504342775E+02  0.35974364883E+03  0.20084721097E+03  0.42486217936E+03  0.80386301667E+02 0.  0.
         11    1    5    5    0    0 -0.33225188142E+03  0.99891089067E+02 -0.11125121098E+03  0.36434375846E+03  0.00000000000E+00 0. -1.
        -12    1    5    5    0    0 -0.17817912026E+03  0.12591160854E+03 -0.66702255674E+02  0.22814627539E+03  0.00000000000E+00 0.  1.
         15    1    3    3    0    0  0.42623402506E+03 -0.44029288722E+03  0.38973149279E+02  0.61404831630E+03  0.17770000000E+01 0. -1.
        -16    1    3    3    0    0  0.14970131940E+03 -0.14525345922E+03 -0.31998629022E+02  0.21102835047E+03  0.00000000000E+00 0.  1.
          2    1    6    6  502    0 -0.32689794129E+02  0.14511470492E+03  0.38206715808E+02  0.15357946919E+03  0.00000000000E+00 0. -1.
         -1    1    6    6    0  502 -0.32814548645E+02  0.21462894391E+03  0.16264049517E+03  0.27128271017E+03  0.00000000000E+00 0.  1.
<mgrwt>
<rscale>  0 0.87619675E+03</rscale>
<asrwt>0</asrwt>
<pdfrwt beam="1">  1        1 0.13942774E+00 0.87619675E+03</pdfrwt>
<pdfrwt beam="2">  1       -2 0.14402286E+00 0.87619675E+03</pdfrwt>
<totfact> 0.53036900E+00</totfact>
</mgrwt>
</event>
<event>
12    3  0.1092576E-007  0.4977854E+03  0.7818608E-02  0.1014359E+00
         -2   -1    0    0    0  501 -0.00000000000E+00  0.00000000000E+00  0.18764289833E+03  0.18764289833E+03  0.00000000000E+00 0.  1.
          1   -1    0    0  501    0  0.00000000000E+00 -0.00000000000E+00 -0.20559602627E+04  0.20559602627E+04  0.00000000000E+00 0. -1.
        -24    2    1    2    0    0 -0.12082528456E+03  0.33265583399E+03 -0.15582491347E+03  0.39474314900E+03  0.79259679214E+02 0.  0.
    5000000    2    1    2    0    0  0.12082528456E+03 -0.33265583399E+03 -0.17124924509E+04  0.18488600120E+04  0.60032849041E+03 0.  0.
        -24    2    4    4    0    0 -0.17963285900E+03  0.85621679983E+01 -0.82719755228E+03  0.85043159523E+03  0.81466759632E+02 0.  0.
         24    2    4    4    0    0  0.30045814356E+03 -0.34121800199E+03 -0.88529489865E+03  0.99842841681E+03  0.80046392887E+02 0.  0.
         11    1    5    5    0    0 -0.13725112754E+03 -0.40412781572E+01 -0.74035592260E+03  0.75298147126E+03  0.00000000000E+00 0. -1.
        -12    1    5    5    0    0 -0.42381731459E+02  0.12603446155E+02 -0.86841629679E+02  0.97450123969E+02  0.00000000000E+00 0.  1.
         15    1    3    3    0    0 -0.24463594427E+02  0.59018165449E+02 -0.64003300203E+02  0.90449939033E+02  0.17770000000E+01 0. -1.
        -16    1    3    3    0    0 -0.96361690136E+02  0.27363766854E+03 -0.91821613265E+02  0.30429320997E+03  0.00000000000E+00 0.  1.
          4    1    6    6  502    0  0.14179420434E+02 -0.48724715486E+02 -0.73768816622E+02  0.89537657825E+02  0.00000000000E+00 0. -1.
         -3    1    6    6    0  502  0.28627872313E+03 -0.29249328650E+03 -0.81152608203E+03  0.90889075899E+03  0.00000000000E+00 0.  1.
<mgrwt>
<rscale>  0 0.49778544E+03</rscale>
<asrwt>0</asrwt>
<pdfrwt beam="1">  1        1 0.31630160E+00 0.49778544E+03</pdfrwt>
<pdfrwt beam="2">  1       -2 0.28868136E-01 0.49778544E+03</pdfrwt>
<totfact> 0.28480177E+01</totfact>
</mgrwt>
</event>
<event>
12    3  0.1092576E-007  0.1514614E+04  0.7818608E-02  0.8874793E-01
         -2   -1    0    0    0  501 -0.00000000000E+00  0.00000000000E+00  0.91594289265E+03  0.91594289265E+03  0.00000000000E+00 0.  1.
          1   -1    0    0  501    0  0.00000000000E+00 -0.00000000000E+00 -0.25352047925E+04  0.25352047925E+04  0.00000000000E+00 0. -1.
        -24    2    1    2    0    0 -0.77071343834E+03  0.12383237665E+04 -0.91485520548E+03  0.17236411331E+04  0.80831639332E+02 0.  0.
    5000000    2    1    2    0    0  0.77071343834E+03 -0.12383237665E+04 -0.70440669438E+03  0.17275065521E+04  0.60053737748E+03 0.  0.
        -24    2    4    4    0    0  0.60233425775E+03 -0.43287138708E+03 -0.25709635393E+03  0.78734894873E+03  0.60296235764E+02 0.  0.
         24    2    4    4    0    0  0.16837918060E+03 -0.80545237940E+03 -0.44731034045E+03  0.94015760337E+03  0.81882199224E+02 0.  0.
         13    1    5    5    0    0  0.10545691111E+03 -0.55307987325E+02 -0.56860560616E+02  0.13195930023E+03  0.00000000000E+00 0. -1.
        -14    1    5    5    0    0  0.49687734664E+03 -0.37756339976E+03 -0.20023579332E+03  0.65538964850E+03  0.00000000000E+00 0.  1.
         15    1    3    3    0    0 -0.17398984451E+03  0.31829793045E+03 -0.19450921345E+03  0.41161028943E+03  0.17770000000E+01 0. -1.
        -16    1    3    3    0    0 -0.59672359383E+03  0.92002583604E+03 -0.72034599203E+03  0.13120308436E+04  0.00000000000E+00 0.  1.
          2    1    6    6  502    0  0.62998149158E+02 -0.49281542720E+03 -0.27845850022E+03  0.56953924222E+03  0.00000000000E+00 0. -1.
         -1    1    6    6    0  502  0.10538103144E+03 -0.31263695220E+03 -0.16885184023E+03  0.37061836114E+03  0.00000000000E+00 0.  1.
<mgrwt>
<rscale>  0 0.15146140E+04</rscale>
<asrwt>0</asrwt>
<pdfrwt beam="1">  1        1 0.39003151E+00 0.15146140E+04</pdfrwt>
<pdfrwt beam="2">  1       -2 0.14091429E+00 0.15146140E+04</pdfrwt>
<totfact> 0.37552708E-01</totfact>
</mgrwt>
</event>
<event>
12    3  0.1092576E-007  0.1097849E+04  0.7818608E-02  0.9207291E-01
          1   -1    0    0  501    0  0.00000000000E+00  0.00000000000E+00  0.10970021828E+04  0.10970021828E+04  0.00000000000E+00 0. -1.
         -2   -1    0    0    0  501 -0.00000000000E+00 -0.00000000000E+00 -0.11185440362E+04  0.11185440362E+04  0.00000000000E+00 0.  1.
        -24    2    1    2    0    0  0.61268220568E+03 -0.81392962500E+03  0.10214899300E+03  0.10268121388E+04  0.77767808431E+02 0.  0.
    5000000    2    1    2    0    0 -0.61268220568E+03  0.81392962500E+03 -0.12369084644E+03  0.11887340802E+04  0.59994030399E+03 0.  0.
        -24    2    4    4    0    0  0.94255762327E+02  0.22971829511E+03 -0.10683123661E+02  0.26134187898E+03  0.80813394547E+02 0.  0.
         24    2    4    4    0    0 -0.70693796801E+03  0.58421132989E+03 -0.11300772278E+03  0.92739220124E+03  0.78875730833E+02 0.  0.
         13    1    5    5    0    0  0.68145745661E+02  0.78992300306E+02 -0.26263432933E+02  0.10757971030E+03  0.00000000000E+00 0. -1.
        -14    1    5    5    0    0  0.26110016666E+02  0.15072599480E+03  0.15580309271E+02  0.15376216868E+03  0.00000000000E+00 0.  1.
         15    1    3    3    0    0  0.27631308849E+03 -0.38680842958E+03  0.84767130947E+02  0.48286468941E+03  0.17770000000E+01 0. -1.
        -16    1    3    3    0    0  0.33636911720E+03 -0.42712119542E+03  0.17381862053E+02  0.54394744940E+03  0.00000000000E+00 0.  1.
          2    1    6    6  502    0 -0.51355155018E+02  0.22553827037E+02  0.39481397440E+01  0.56228239066E+02  0.00000000000E+00 0. -1.
         -1    1    6    6    0  502 -0.65558281299E+03  0.56165750286E+03 -0.11695586253E+03  0.87116396217E+03  0.00000000000E+00 0.  1.
<mgrwt>
<rscale>  0 0.10978490E+04</rscale>
<asrwt>0</asrwt>
<pdfrwt beam="1">  1        1 0.16876956E+00 0.10978490E+04</pdfrwt>
<pdfrwt beam="2">  1       -2 0.17208370E+00 0.10978490E+04</pdfrwt>
<totfact> 0.22684972E+00</totfact>
</mgrwt>
</event>
<event>
12    3  0.1092576E-007  0.4735289E+03  0.7818608E-02  0.1020929E+00
         -2   -1    0    0    0  501 -0.00000000000E+00  0.00000000000E+00  0.19214075045E+03  0.19214075045E+03  0.00000000000E+00 0.  1.
          1   -1    0    0  501    0  0.00000000000E+00 -0.00000000000E+00 -0.13532738240E+04  0.13532738240E+04  0.00000000000E+00 0. -1.
        -24    2    1    2    0    0  0.85819479376E+02 -0.27437372571E+03 -0.14731689424E+03  0.33272011252E+03  0.79715002025E+02 0.  0.
    5000000    2    1    2    0    0 -0.85819479376E+02  0.27437372571E+03 -0.10138161793E+04  0.12126944620E+04  0.60013222558E+03 0.  0.
        -24    2    4    4    0    0  0.23724538572E+03  0.18125017963E+03 -0.56662356579E+03  0.64562359699E+03  0.81428269135E+02 0.  0.
         24    2    4    4    0    0 -0.32306486510E+03  0.93123546077E+02 -0.44719261354E+03  0.56707086497E+03  0.92440415369E+02 0.  0.
         13    1    5    5    0    0  0.18710683348E+03  0.17351768802E+03 -0.50494185831E+03  0.56575934412E+03  0.00000000000E+00 0. -1.
        -14    1    5    5    0    0  0.50138552244E+02  0.77324916110E+01 -0.61681707482E+02  0.79864252864E+02  0.00000000000E+00 0.  1.
         15    1    3    3    0    0 -0.12142774898E+02 -0.76965708613E+02 -0.37113273715E+02  0.86323346201E+02  0.17770000000E+01 0. -1.
        -16    1    3    3    0    0  0.97962254274E+02 -0.19740801709E+03 -0.11020362053E+03  0.24639676632E+03  0.00000000000E+00 0.  1.
          4    1    6    6  502    0 -0.21739798386E+03  0.94753527959E+02 -0.25851748061E+03  0.35081533921E+03  0.00000000000E+00 0. -1.
         -3    1    6    6    0  502 -0.10566688124E+03 -0.16299818823E+01 -0.18867513293E+03  0.21625552575E+03  0.00000000000E+00 0.  1.
<mgrwt>
<rscale>  0 0.47352894E+03</rscale>
<asrwt>0</asrwt>
<pdfrwt beam="1">  1        1 0.20819598E+00 0.47352894E+03</pdfrwt>
<pdfrwt beam="2">  1       -2 0.29560115E-01 0.47352894E+03</pdfrwt>
<totfact> 0.80757759E+01</totfact>
</mgrwt>
</event>
<event>
12    3  0.1092576E-007  0.4993520E+03  0.7818608E-02  0.1013948E+00
          1   -1    0    0  501    0  0.00000000000E+00  0.00000000000E+00  0.91468767996E+03  0.91468767996E+03  0.00000000000E+00 0. -1.
         -2   -1    0    0    0  501 -0.00000000000E+00 -0.00000000000E+00 -0.62121217065E+03  0.62121217065E+03  0.00000000000E+00 0.  1.
        -24    2    1    2    0    0 -0.28841852364E+03  0.17102582537E+03 -0.42146954415E+03  0.54414292185E+03  0.77587789192E+02 0.  0.
    5000000    2    1    2    0    0  0.28841852364E+03 -0.17102582537E+03  0.71494505346E+03  0.99175692876E+03  0.60000024880E+03 0.  0.
        -24    2    4    4    0    0 -0.11120183011E+03 -0.21753114719E+03  0.39529833141E+03  0.47153570864E+03  0.79996916713E+02 0.  0.
         24    2    4    4    0    0  0.39962035375E+03  0.46505321823E+02  0.31964672204E+03  0.52022122012E+03  0.81221418756E+02 0.  0.
         13    1    5    5    0    0 -0.44359501000E+02 -0.21638326094E+02  0.90845376448E+02  0.10338696681E+03  0.00000000000E+00 0. -1.
        -14    1    5    5    0    0 -0.66842329109E+02 -0.19589282110E+03  0.30445295497E+03  0.36814874182E+03  0.00000000000E+00 0.  1.
         15    1    3    3    0    0 -0.26371699755E+03  0.13971073781E+03 -0.39931159365E+03  0.49851645069E+03  0.17770000000E+01 0. -1.
        -16    1    3    3    0    0 -0.24701526093E+02  0.31315087559E+02 -0.22157950494E+02  0.45626471157E+02  0.00000000000E+00 0.  1.
          4    1    6    6  502    0  0.21626183250E+03  0.43828700093E+02  0.12855651470E+03  0.25537602202E+03  0.00000000000E+00 0. -1.
         -3    1    6    6    0  502  0.18335852125E+03  0.26766217302E+01  0.19109020734E+03  0.26484519811E+03  0.00000000000E+00 0.  1.
<mgrwt>
<rscale>  0 0.49935198E+03</rscale>
<asrwt>0</asrwt>
<pdfrwt beam="1">  1        1 0.14072118E+00 0.49935198E+03</pdfrwt>
<pdfrwt beam="2">  1       -2 0.95571103E-01 0.49935198E+03</pdfrwt>
<totfact> 0.15072287E+01</totfact>
</mgrwt>
</event>
<event>
12    3  0.1092576E-007  0.3736517E+03  0.7818608E-02  0.1053305E+00
         -2   -1    0    0    0  501 -0.00000000000E+00  0.00000000000E+00  0.23711314050E+03  0.23711314050E+03  0.00000000000E+00 0.  1.
          1   -1    0    0  501    0  0.00000000000E+00 -0.00000000000E+00 -0.10109896796E+04  0.10109896796E+04  0.00000000000E+00 0. -1.
        -24    2    1    2    0    0  0.44690329603E+02 -0.29527006992E+03 -0.25081665470E+03  0.39791645527E+03  0.79037151728E+02 0.  0.
    5000000    2    1    2    0    0 -0.44690329603E+02  0.29527006992E+03 -0.52305988436E+03  0.85018636478E+03  0.60003630931E+03 0.  0.
        -24    2    4    4    0    0  0.12499817097E+03  0.11799062880E+03  0.71273178075E+02  0.20215255234E+03  0.78990235314E+02 0.  0.
         24    2    4    4    0    0 -0.16968850057E+03  0.17727944112E+03 -0.59433306243E+03  0.64803381244E+03  0.80584399849E+02 0.  0.
         11    1    5    5    0    0  0.12087270437E+03  0.67368348383E+02  0.52584997873E+02  0.14803339835E+03  0.00000000000E+00 0. -1.
        -12    1    5    5    0    0  0.41254665951E+01  0.50622280417E+02  0.18688180202E+02  0.54119153989E+02  0.00000000000E+00 0.  1.
         15    1    3    3    0    0 -0.11721809572E+02 -0.11235658872E+03 -0.12683089355E+03  0.16985475305E+03  0.17770000000E+01 0. -1.
        -16    1    3    3    0    0  0.56412139174E+02 -0.18291348120E+03 -0.12398576115E+03  0.22806170222E+03  0.00000000000E+00 0.  1.
          2    1    6    6  502    0 -0.12865873992E+03  0.16811683847E+03 -0.53459785490E+03  0.57498800787E+03  0.00000000000E+00 0. -1.
         -1    1    6    6    0  502 -0.41029760647E+02  0.91626026480E+01 -0.59735207535E+02  0.73045804570E+02  0.00000000000E+00 0.  1.
<mgrwt>
<rscale>  0 0.37365166E+03</rscale>
<asrwt>0</asrwt>
<pdfrwt beam="1">  1        1 0.15553687E+00 0.37365166E+03</pdfrwt>
<pdfrwt beam="2">  1       -2 0.36478945E-01 0.37365166E+03</pdfrwt>
<totfact> 0.97418232E+01</totfact>
</mgrwt>
</event>
<event>
12    3  0.1092576E-007  0.9272390E+03  0.7818608E-02  0.9392158E-01
          1   -1    0    0  501    0  0.00000000000E+00  0.00000000000E+00  0.73847973767E+03  0.73847973767E+03  0.00000000000E+00 0. -1.
         -2   -1    0    0    0  501 -0.00000000000E+00 -0.00000000000E+00 -0.12917162826E+04  0.12917162826E+04  0.00000000000E+00 0.  1.
        -24    2    1    2    0    0 -0.86848433713E+03 -0.50568460795E+02 -0.40606359912E+03  0.96324038064E+03  0.78244305256E+02 0.  0.
    5000000    2    1    2    0    0  0.86848433713E+03  0.50568460795E+02 -0.14717294578E+03  0.10669556396E+04  0.59992686871E+03 0.  0.
        -24    2    4    4    0    0  0.64627520078E+03 -0.15910795170E+03 -0.27477142576E+03  0.72475971344E+03  0.82403460918E+02 0.  0.
         24    2    4    4    0    0  0.22220913635E+03  0.20967641249E+03  0.12759847999E+03  0.34219592615E+03  0.86461445411E+02 0.  0.
         11    1    5    5    0    0  0.62853833556E+03 -0.13976413771E+03 -0.26937208322E+03  0.69796545235E+03  0.00000000000E+00 0. -1.
        -12    1    5    5    0    0  0.17736865216E+02 -0.19343813983E+02 -0.53993425479E+01  0.26794261085E+02  0.00000000000E+00 0.  1.
         15    1    3    3    0    0 -0.47784109902E+03 -0.66559707877E+02 -0.22880705501E+03  0.53396454637E+03  0.17770000000E+01 0. -1.
        -16    1    3    3    0    0 -0.39064323811E+03  0.15991247081E+02 -0.17725654410E+03  0.42927583428E+03  0.00000000000E+00 0.  1.
          2    1    6    6  502    0  0.19881584946E+03  0.20757384630E+03  0.96437741292E+02  0.30317467179E+03  0.00000000000E+00 0. -1.
         -1    1    6    6    0  502  0.23393286886E+02  0.21025661905E+01  0.31160738693E+02  0.39021254360E+02  0.00000000000E+00 0.  1.
<mgrwt>
<rscale>  0 0.92723903E+03</rscale>
<asrwt>0</asrwt>
<pdfrwt beam="1">  1        1 0.11361227E+00 0.92723903E+03</pdfrwt>
<pdfrwt beam="2">  1       -2 0.19872558E+00 0.92723903E+03</pdfrwt>
<totfact> 0.29958985E+00</totfact>
</mgrwt>
</event>
<event>
12    3  0.1092576E-007  0.1271496E+04  0.7818608E-02  0.9052480E-01
         -2   -1    0    0    0  501 -0.00000000000E+00  0.00000000000E+00  0.96770236007E+03  0.96770236007E+03  0.00000000000E+00 0.  1.
          1   -1    0    0  501    0  0.00000000000E+00 -0.00000000000E+00 -0.21402312595E+04  0.21402312595E+04  0.00000000000E+00 0. -1.
        -24    2    1    2    0    0 -0.68425738277E+03 -0.10297193293E+04  0.89620417116E+02  0.12420408778E+04  0.78125923243E+02 0.  0.
    5000000    2    1    2    0    0  0.68425738277E+03  0.10297193293E+04 -0.12621493166E+04  0.18658927418E+04  0.60000396946E+03 0.  0.
        -24    2    4    4    0    0  0.42040068282E+03  0.28020963520E+03 -0.22811333785E+03  0.55918427425E+03  0.73465528608E+02 0.  0.
         24    2    4    4    0    0  0.26385669996E+03  0.74950969415E+03 -0.10340359787E+04  0.13067084675E+04  0.82894354894E+02 0.  0.
         11    1    5    5    0    0  0.25950457782E+03  0.14814671116E+03 -0.10167967851E+03  0.31564035065E+03  0.00000000000E+00 0. -1.
        -12    1    5    5    0    0  0.16089610500E+03  0.13206292403E+03 -0.12643365934E+03  0.24354392360E+03  0.00000000000E+00 0.  1.
         15    1    3    3    0    0 -0.39836012971E+02 -0.32749296800E+02  0.68163191262E+00  0.51604716077E+02  0.17770000000E+01 0. -1.
        -16    1    3    3    0    0 -0.64442136980E+03 -0.99697003255E+03  0.88938785203E+02  0.11904361617E+04  0.00000000000E+00 0.  1.
          2    1    6    6  502    0  0.18360958466E+03  0.42380178108E+03 -0.55791482818E+03  0.72428543042E+03  0.00000000000E+00 0. -1.
         -1    1    6    6    0  502  0.80247115298E+02  0.32570791307E+03 -0.47612115053E+03  0.58242303709E+03  0.00000000000E+00 0.  1.
<mgrwt>
<rscale>  0 0.12714960E+04</rscale>
<asrwt>0</asrwt>
<pdfrwt beam="1">  1        1 0.32926635E+00 0.12714960E+04</pdfrwt>
<pdfrwt beam="2">  1       -2 0.14887729E+00 0.12714960E+04</pdfrwt>
<totfact> 0.62233608E-01</totfact>
</mgrwt>
</event>
<event>
12    3  0.1092576E-007  0.8384919E+03  0.7818608E-02  0.9505914E-01
          1   -1    0    0  501    0  0.00000000000E+00  0.00000000000E+00  0.33707911711E+03  0.33707911711E+03  0.00000000000E+00 0. -1.
         -2   -1    0    0    0  501 -0.00000000000E+00 -0.00000000000E+00 -0.22210031684E+04  0.22210031684E+04  0.00000000000E+00 0.  1.
        -24    2    1    2    0    0 -0.46804852930E+03  0.58038261078E+03 -0.10428983483E+04  0.12840303362E+04  0.71996795668E+02 0.  0.
    5000000    2    1    2    0    0  0.46804852930E+03 -0.58038261078E+03 -0.84102570296E+03  0.12740519493E+04  0.59997561273E+03 0.  0.
        -24    2    4    4    0    0  0.21358398320E+03  0.63004857007E+02 -0.98320272399E+02  0.25605511041E+03  0.79433076980E+02 0.  0.
         24    2    4    4    0    0  0.25446454610E+03 -0.64338746779E+03 -0.74270543056E+03  0.10179968389E+04  0.77502054976E+02 0.  0.
         13    1    5    5    0    0  0.17212979584E+03  0.15391601575E+02 -0.79136999928E+02  0.19007428225E+03  0.00000000000E+00 0. -1.
        -14    1    5    5    0    0  0.41454187358E+02  0.47613255432E+02 -0.19183272470E+02  0.65980828163E+02  0.00000000000E+00 0.  1.
         15    1    3    3    0    0 -0.19571462204E+03  0.21071584841E+03 -0.45156577786E+03  0.53536921046E+03  0.17770000000E+01 0. -1.
        -16    1    3    3    0    0 -0.27233390725E+03  0.36966676238E+03 -0.59133257046E+03  0.74866112570E+03  0.00000000000E+00 0.  1.
          4    1    6    6  502    0  0.20912619817E+03 -0.45867415704E+03 -0.57198597651E+03  0.76241963932E+03  0.00000000000E+00 0. -1.
         -3    1    6    6    0  502  0.45338347930E+02 -0.18471331075E+03 -0.17071945405E+03  0.25557719959E+03  0.00000000000E+00 0.  1.
<mgrwt>
<rscale>  0 0.83849189E+03</rscale>
<asrwt>0</asrwt>
<pdfrwt beam="1">  1        1 0.51858325E-01 0.83849189E+03</pdfrwt>
<pdfrwt beam="2">  1       -2 0.34169280E+00 0.83849189E+03</pdfrwt>
<totfact> 0.12014430E+00</totfact>
</mgrwt>
</event>
<event>
12    3  0.1092576E-007  0.6342179E+03  0.7818608E-02  0.9836852E-01
          1   -1    0    0  501    0  0.00000000000E+00  0.00000000000E+00  0.86845501304E+03  0.86845501304E+03  0.00000000000E+00 0. -1.
         -2   -1    0    0    0  501 -0.00000000000E+00 -0.00000000000E+00 -0.51644921568E+03  0.51644921568E+03  0.00000000000E+00 0.  1.
        -24    2    1    2    0    0  0.52186416563E+03 -0.89704538896E+02  0.91479948156E+02  0.54338605364E+03  0.80688975123E+02 0.  0.
    5000000    2    1    2    0    0 -0.52186416563E+03  0.89704538896E+02  0.26052584921E+03  0.84151817508E+03  0.59990833400E+03 0.  0.
        -24    2    4    4    0    0  0.84161545210E+02 -0.17957707628E+02  0.18103431138E+03  0.21559507882E+03  0.79386215166E+02 0.  0.
         24    2    4    4    0    0 -0.60602571084E+03  0.10766224652E+03  0.79491537832E+02  0.62592309626E+03  0.81255746339E+02 0.  0.
         11    1    5    5    0    0 -0.57885323213E+01 -0.21802574537E+02  0.16188651049E+02  0.27765658387E+02  0.00000000000E+00 0. -1.
        -12    1    5    5    0    0  0.89950077532E+02  0.38448669095E+01  0.16484566033E+03  0.18782942043E+03  0.00000000000E+00 0.  1.
         15    1    3    3    0    0  0.35163380742E+03 -0.22294974406E+02  0.67136406946E+02  0.35868350293E+03  0.17770000000E+01 0. -1.
        -16    1    3    3    0    0  0.17023035821E+03 -0.67409564490E+02  0.24343541209E+02  0.18470255072E+03  0.00000000000E+00 0.  1.
          2    1    6    6  502    0 -0.43751024295E+03  0.41879859153E+02  0.45520715933E+02  0.44186114433E+03  0.00000000000E+00 0. -1.
         -1    1    6    6    0  502 -0.16851546789E+03  0.65782387370E+02  0.33970821899E+02  0.18406195193E+03  0.00000000000E+00 0.  1.
<mgrwt>
<rscale>  0 0.63421792E+03</rscale>
<asrwt>0</asrwt>
<pdfrwt beam="1">  1        1 0.13360846E+00 0.63421792E+03</pdfrwt>
<pdfrwt beam="2">  1       -2 0.79453726E-01 0.63421792E+03</pdfrwt>
<totfact> 0.24584659E+01</totfact>
</mgrwt>
</event>
<event>
12    3  0.1092576E-007  0.7464190E+03  0.7818608E-02  0.9640985E-01
         -2   -1    0    0    0  501 -0.00000000000E+00  0.00000000000E+00  0.38499408288E+03  0.38499408288E+03  0.00000000000E+00 0.  1.
          1   -1    0    0  501    0  0.00000000000E+00 -0.00000000000E+00 -0.16310278062E+04  0.16310278062E+04  0.00000000000E+00 0. -1.
        -24    2    1    2    0    0 -0.34297883339E+03  0.54823969399E+03 -0.28453450057E+03  0.71121714597E+03  0.81662136208E+02 0.  0.
    5000000    2    1    2    0    0  0.34297883339E+03 -0.54823969399E+03 -0.96149922277E+03  0.13048047431E+04  0.59986116735E+03 0.  0.
        -24    2    4    4    0    0 -0.53394212293E+02 -0.41016759180E+03 -0.65490560440E+03  0.77887224968E+03  0.81561236943E+02 0.  0.
         24    2    4    4    0    0  0.39637304568E+03 -0.13807210219E+03 -0.30659361837E+03  0.52593249346E+03  0.80186308693E+02 0.  0.
         13    1    5    5    0    0 -0.24917607494E+02 -0.39852924851E+02 -0.46879747788E+02  0.66384136171E+02  0.00000000000E+00 0. -1.
        -14    1    5    5    0    0 -0.28476604798E+02 -0.37031466695E+03 -0.60802585661E+03  0.71248811350E+03  0.00000000000E+00 0.  1.
         15    1    3    3    0    0 -0.19872389516E+03  0.34337432860E+03 -0.13318533134E+03  0.41849564665E+03  0.17770000000E+01 0. -1.
        -16    1    3    3    0    0 -0.14425493823E+03  0.20486536538E+03 -0.15134916923E+03  0.29272149932E+03  0.00000000000E+00 0.  1.
          2    1    6    6  502    0  0.97329790834E+02  0.99694883295E+00 -0.63360737142E+02  0.11614071251E+03  0.00000000000E+00 0. -1.
         -1    1    6    6    0  502  0.29904325485E+03 -0.13906905102E+03 -0.24323288123E+03  0.40979178095E+03  0.00000000000E+00 0.  1.
<mgrwt>
<rscale>  0 0.74641896E+03</rscale>
<asrwt>0</asrwt>
<pdfrwt beam="1">  1        1 0.25092735E+00 0.74641896E+03</pdfrwt>
<pdfrwt beam="2">  1       -2 0.59229859E-01 0.74641896E+03</pdfrwt>
<totfact> 0.12840157E+01</totfact>
</mgrwt>
</event>
<event>
12    3  0.1092576E-007  0.1069673E+04  0.7818608E-02  0.9235266E-01
          1   -1    0    0  501    0  0.00000000000E+00  0.00000000000E+00  0.93159793393E+03  0.93159793393E+03  0.00000000000E+00 0. -1.
         -2   -1    0    0    0  501 -0.00000000000E+00 -0.00000000000E+00 -0.13048434037E+04  0.13048434037E+04  0.00000000000E+00 0.  1.
        -24    2    1    2    0    0 -0.10069328690E+04  0.12620233637E+03 -0.26898317774E+03  0.10528884906E+04  0.79883611392E+02 0.  0.
    5000000    2    1    2    0    0  0.10069328690E+04 -0.12620233637E+03 -0.10426229200E+03  0.11835528470E+04  0.60007156553E+03 0.  0.
        -24    2    4    4    0    0  0.97873576630E+02 -0.18160402906E+03 -0.14828420590E+03  0.26734919188E+03  0.83235354889E+02 0.  0.
         24    2    4    4    0    0  0.90905929237E+03  0.55401692693E+02  0.44021913894E+02  0.91620365513E+03  0.89627362942E+02 0.  0.
         13    1    5    5    0    0  0.12059646646E+02 -0.85438188825E+01  0.98060500852E+01  0.17736700274E+02  0.00000000000E+00 0. -1.
        -14    1    5    5    0    0  0.85813929984E+02 -0.17306021018E+03 -0.15809025598E+03  0.24961249160E+03  0.00000000000E+00 0.  1.
         15    1    3    3    0    0 -0.55339130459E+03  0.10923275226E+03 -0.15228266067E+03  0.58426611799E+03  0.17770000000E+01 0. -1.
        -16    1    3    3    0    0 -0.45354156441E+03  0.16969584108E+02 -0.11670051707E+03  0.46862237262E+03  0.00000000000E+00 0.  1.
          2    1    6    6  502    0  0.15088482333E+03 -0.17021129037E+02  0.28047486984E+02  0.15441052513E+03  0.00000000000E+00 0. -1.
         -1    1    6    6    0  502  0.75817446903E+03  0.72422821730E+02  0.15974426910E+02  0.76179313000E+03  0.00000000000E+00 0.  1.
<mgrwt>
<rscale>  0 0.10696728E+04</rscale>
<asrwt>0</asrwt>
<pdfrwt beam="1">  1        1 0.14332276E+00 0.10696728E+04</pdfrwt>
<pdfrwt beam="2">  1       -2 0.20074514E+00 0.10696728E+04</pdfrwt>
<totfact> 0.19554136E+00</totfact>
</mgrwt>
</event>
<event>
12    3  0.1092576E-007  0.5218390E+03  0.7818608E-02  0.1008231E+00
          1   -1    0    0  501    0  0.00000000000E+00  0.00000000000E+00  0.33196797780E+04  0.33196797780E+04  0.00000000000E+00 0. -1.
         -2   -1    0    0    0  501 -0.00000000000E+00 -0.00000000000E+00 -0.12303968321E+03  0.12303968321E+03  0.00000000000E+00 0.  1.
        -24    2    1    2    0    0 -0.43776932847E+03  0.11280313941E+02  0.63428416911E+03  0.77484127539E+03  0.79330728112E+02 0.  0.
    5000000    2    1    2    0    0  0.43776932847E+03 -0.11280313941E+02  0.25623559257E+04  0.26678781859E+04  0.60011406759E+03 0.  0.
        -24    2    4    4    0    0  0.34391647445E+03  0.17146700084E+03  0.79255857179E+03  0.88445479052E+03  0.80197961217E+02 0.  0.
         24    2    4    4    0    0  0.93852854016E+02 -0.18274731478E+03  0.17697973539E+04  0.17834233953E+04  0.78812396307E+02 0.  0.
         13    1    5    5    0    0  0.16308485412E+03  0.11954103818E+03  0.36339970038E+03  0.41586785364E+03  0.00000000000E+00 0. -1.
        -14    1    5    5    0    0  0.18083162033E+03  0.51925962665E+02  0.42915887141E+03  0.46858693689E+03  0.00000000000E+00 0.  1.
         15    1    3    3    0    0 -0.31829118612E+03  0.35344007272E+02  0.41797042367E+03  0.52655570532E+03  0.17770000000E+01 0. -1.
        -16    1    3    3    0    0 -0.11947814235E+03 -0.24063693331E+02  0.21631374544E+03  0.24828557007E+03  0.00000000000E+00 0.  1.
          2    1    6    6  502    0  0.45360603231E+02 -0.13784106566E+03  0.14233630318E+04  0.14307410891E+04  0.00000000000E+00 0. -1.
         -1    1    6    6    0  502  0.48492250785E+02 -0.44906249123E+02  0.34643432217E+03  0.35268230629E+03  0.00000000000E+00 0.  1.
<mgrwt>
<rscale>  0 0.52183899E+03</rscale>
<asrwt>0</asrwt>
<pdfrwt beam="1">  1        1 0.51071990E+00 0.52183899E+03</pdfrwt>
<pdfrwt beam="2">  1       -2 0.18929185E-01 0.52183899E+03</pdfrwt>
<totfact> 0.79983404E+00</totfact>
</mgrwt>
</event>
<event>
12    3  0.1092576E-007  0.6447287E+03  0.7818608E-02  0.9816721E-01
          1   -1    0    0  501    0  0.00000000000E+00  0.00000000000E+00  0.13881804213E+04  0.13881804213E+04  0.00000000000E+00 0. -1.
         -2   -1    0    0    0  501 -0.00000000000E+00 -0.00000000000E+00 -0.42043005647E+03  0.42043005647E+03  0.00000000000E+00 0.  1.
        -24    2    1    2    0    0  0.63241496759E+03 -0.43635658191E+02  0.53965477175E+03  0.83644102043E+03  0.80953975100E+02 0.  0.
    5000000    2    1    2    0    0 -0.63241496759E+03  0.43635658191E+02  0.42809559311E+03  0.97216945737E+03  0.59999571257E+03 0.  0.
        -24    2    4    4    0    0 -0.23395668029E+03 -0.13173989866E+02 -0.12990808344E+03  0.27922961368E+03  0.78637044395E+02 0.  0.
         24    2    4    4    0    0 -0.39845828731E+03  0.56809648057E+02  0.55800367655E+03  0.69293984369E+03  0.82469273628E+02 0.  0.
         11    1    5    5    0    0 -0.13218848509E+03 -0.42386439700E+02 -0.93053390347E+02  0.16712073275E+03  0.00000000000E+00 0. -1.
        -12    1    5    5    0    0 -0.10176819520E+03  0.29212449835E+02 -0.36854693097E+02  0.11210888093E+03  0.00000000000E+00 0.  1.
         15    1    3    3    0    0  0.28744460486E+03 -0.19381036155E+02  0.29838360247E+03  0.41477217526E+03  0.17770000000E+01 0. -1.
        -16    1    3    3    0    0  0.34497036274E+03 -0.24254622036E+02  0.24127116929E+03  0.42166884517E+03  0.00000000000E+00 0.  1.
          4    1    6    6  502    0 -0.32600440175E+03  0.13200949725E+02  0.44535820318E+03  0.55208429082E+03  0.00000000000E+00 0. -1.
         -3    1    6    6    0  502 -0.72453885559E+02  0.43608698332E+02  0.11264547337E+03  0.14085555287E+03  0.00000000000E+00 0.  1.
<mgrwt>
<rscale>  0 0.64472867E+03</rscale>
<asrwt>0</asrwt>
<pdfrwt beam="1">  1        1 0.21356622E+00 0.64472867E+03</pdfrwt>
<pdfrwt beam="2">  1       -2 0.64681548E-01 0.64472867E+03</pdfrwt>
<totfact> 0.15827052E+01</totfact>
</mgrwt>
</event>
<event>
12    3  0.1092576E-007  0.3795707E+03  0.7818608E-02  0.1051093E+00
         -2   -1    0    0    0  501 -0.00000000000E+00  0.00000000000E+00  0.60835954178E+03  0.60835954178E+03  0.00000000000E+00 0.  1.
          1   -1    0    0  501    0  0.00000000000E+00 -0.00000000000E+00 -0.30730843325E+03  0.30730843325E+03  0.00000000000E+00 0. -1.
        -24    2    1    2    0    0 -0.18059387306E+03 -0.28661039631E+02  0.19656934402E+03  0.27981381855E+03  0.78871185252E+02 0.  0.
    5000000    2    1    2    0    0  0.18059387306E+03  0.28661039631E+02  0.10448176451E+03  0.63585415649E+03  0.59996538819E+03 0.  0.
        -24    2    4    4    0    0 -0.43271632195E+02 -0.21835619032E+03  0.16396436462E+03  0.28784111109E+03  0.80102012251E+02 0.  0.
         24    2    4    4    0    0  0.22386550525E+03  0.24701722995E+03 -0.59482600108E+02  0.34801304540E+03  0.80259726613E+02 0.  0.
         13    1    5    5    0    0  0.19536044122E+02 -0.99814354003E+02  0.81847925757E+02  0.13055131265E+03  0.00000000000E+00 0. -1.
        -14    1    5    5    0    0 -0.62807676316E+02 -0.11854183632E+03  0.82116438859E+02  0.15728979844E+03  0.00000000000E+00 0.  1.
         15    1    3    3    0    0 -0.10018488993E+03 -0.37167100410E+02  0.64111859351E+02  0.12462701858E+03  0.17770000000E+01 0. -1.
        -16    1    3    3    0    0 -0.80408983130E+02  0.85060607789E+01  0.13245748467E+03  0.15518679996E+03  0.00000000000E+00 0.  1.
          4    1    6    6  502    0  0.18971298319E+03  0.18632691501E+03 -0.17034931816E+02  0.26645623308E+03  0.00000000000E+00 0. -1.
         -1    1    6    6    0  502  0.34152522061E+02  0.60690314943E+02 -0.42447668292E+02  0.81556812312E+02  0.00000000000E+00 0.  1.
<mgrwt>
<rscale>  0 0.37957068E+03</rscale>
<asrwt>0</asrwt>
<pdfrwt beam="1">  1        1 0.47278221E-01 0.37957068E+03</pdfrwt>
<pdfrwt beam="2">  1       -2 0.93593775E-01 0.37957068E+03</pdfrwt>
<totfact> 0.74513646E+01</totfact>
</mgrwt>
</event>
<event>
12    3  0.1092576E-007  0.1958148E+04  0.7818608E-02  0.8626442E-01
         -2   -1    0    0    0  501 -0.00000000000E+00  0.00000000000E+00  0.10073726799E+04  0.10073726799E+04  0.00000000000E+00 0.  1.
          1   -1    0    0  501    0  0.00000000000E+00 -0.00000000000E+00 -0.39238034269E+04  0.39238034269E+04  0.00000000000E+00 0. -1.
        -24    2    1    2    0    0 -0.13513525252E+04  0.13861375259E+04 -0.16190554528E+04  0.25247693137E+04  0.74757206547E+02 0.  0.
    5000000    2    1    2    0    0  0.13513525252E+04 -0.13861375259E+04 -0.12973752942E+04  0.24064067931E+04  0.60006675593E+03 0.  0.
        -24    2    4    4    0    0  0.86508815803E+03 -0.11365418975E+04 -0.69977347626E+03  0.15925990708E+04  0.81141087717E+02 0.  0.
         24    2    4    4    0    0  0.48626436718E+03 -0.24959562841E+03 -0.59760181795E+03  0.81380772232E+03  0.80025393392E+02 0.  0.
         11    1    5    5    0    0  0.19838484392E+03 -0.29570201819E+03 -0.14360034670E+03  0.38394959230E+03  0.00000000000E+00 0. -1.
        -12    1    5    5    0    0  0.66670331411E+03 -0.84083987934E+03 -0.55617312957E+03  0.12086494785E+04  0.00000000000E+00 0.  1.
         15    1    3    3    0    0 -0.63061678659E+03  0.70029729553E+03 -0.78553654308E+03  0.12268515199E+04  0.17770000000E+01 0. -1.
        -16    1    3    3    0    0 -0.72073573863E+03  0.68584023041E+03 -0.83351890973E+03  0.12979177938E+04  0.00000000000E+00 0.  1.
          4    1    6    6  502    0  0.33887352695E+03 -0.14235848601E+03 -0.43551280387E+03  0.56988824180E+03  0.00000000000E+00 0. -1.
         -3    1    6    6    0  502  0.14739084023E+03 -0.10723714240E+03 -0.16208901407E+03  0.24391948052E+03  0.00000000000E+00 0.  1.
<mgrwt>
<rscale>  0 0.19581482E+04</rscale>
<asrwt>0</asrwt>
<pdfrwt beam="1">  1        1 0.60366206E+00 0.19581482E+04</pdfrwt>
<pdfrwt beam="2">  1       -2 0.15498041E+00 0.19581482E+04</pdfrwt>
<totfact> 0.24399520E-02</totfact>
</mgrwt>
</event>
<event>
12    3  0.1092576E-007  0.7004010E+03  0.7818608E-02  0.9716547E-01
         -2   -1    0    0    0  501 -0.00000000000E+00  0.00000000000E+00  0.13118396940E+04  0.13118396940E+04  0.00000000000E+00 0.  1.
          1   -1    0    0  501    0  0.00000000000E+00 -0.00000000000E+00 -0.50347975348E+03  0.50347975348E+03  0.00000000000E+00 0. -1.
        -24    2    1    2    0    0  0.48557510418E+03  0.44257869813E+03  0.82663652395E+02  0.66704711958E+03  0.80370980259E+02 0.  0.
    5000000    2    1    2    0    0 -0.48557510418E+03 -0.44257869813E+03  0.72569628810E+03  0.11482723279E+04  0.60019592682E+03 0.  0.
        -24    2    4    4    0    0 -0.38037835183E+03 -0.47988868410E+03  0.27286855111E+03  0.67515092328E+03  0.79941749806E+02 0.  0.
         24    2    4    4    0    0 -0.10519675236E+03  0.37309985967E+02  0.45282773699E+03  0.47312140460E+03  0.79577084284E+02 0.  0.
         13    1    5    5    0    0 -0.17432016465E+03 -0.24136754457E+03  0.17378651585E+03  0.34474275115E+03  0.00000000000E+00 0. -1.
        -14    1    5    5    0    0 -0.20605818718E+03 -0.23852113953E+03  0.99082035254E+02  0.33040817213E+03  0.00000000000E+00 0.  1.
         15    1    3    3    0    0  0.28063809086E+03  0.20880217827E+03  0.63958940151E+02  0.35559807570E+03  0.17770000000E+01 0. -1.
        -16    1    3    3    0    0  0.20493701333E+03  0.23377651986E+03  0.18704712244E+02  0.31144904388E+03  0.00000000000E+00 0.  1.
          2    1    6    6  502    0 -0.11137521476E+03  0.42401635899E+02  0.34512204720E+03  0.36511856246E+03  0.00000000000E+00 0. -1.
         -1    1    6    6    0  502  0.61784624053E+01 -0.50916499313E+01  0.10770568979E+03  0.10800284214E+03  0.00000000000E+00 0.  1.
<mgrwt>
<rscale>  0 0.70040095E+03</rscale>
<asrwt>0</asrwt>
<pdfrwt beam="1">  1        1 0.77458424E-01 0.70040095E+03</pdfrwt>
<pdfrwt beam="2">  1       -2 0.20182149E+00 0.70040095E+03</pdfrwt>
<totfact> 0.51290823E+00</totfact>
</mgrwt>
</event>
<event>
12    3  0.1092576E-007  0.1433883E+04  0.7818608E-02  0.8929651E-01
         -2   -1    0    0    0  501 -0.00000000000E+00  0.00000000000E+00  0.14915416043E+04  0.14915416043E+04  0.00000000000E+00 0.  1.
          1   -1    0    0  501    0  0.00000000000E+00 -0.00000000000E+00 -0.25590725883E+04  0.25590725883E+04  0.00000000000E+00 0. -1.
        -24    2    1    2    0    0 -0.96115093517E+03 -0.10199791742E+04  0.81889150978E+03  0.16251691668E+04  0.80142871591E+02 0.  0.
    5000000    2    1    2    0    0  0.96115093517E+03  0.10199791742E+04 -0.18864224938E+04  0.24254450258E+04  0.60002092613E+03 0.  0.
        -24    2    4    4    0    0  0.30818701208E+03  0.61390679813E+03 -0.55837052151E+03  0.88880068900E+03  0.79550199728E+02 0.  0.
         24    2    4    4    0    0  0.65296392309E+03  0.40607237612E+03 -0.13280519723E+04  0.15366443368E+04  0.79354376582E+02 0.  0.
         11    1    5    5    0    0  0.12112232098E+03  0.16088165321E+03 -0.16422891808E+03  0.25985507598E+03  0.00000000000E+00 0. -1.
        -12    1    5    5    0    0  0.18706469110E+03  0.45302514491E+03 -0.39414160343E+03  0.62894561302E+03  0.00000000000E+00 0.  1.
         15    1    3    3    0    0 -0.21189605395E+03 -0.18334574427E+03  0.18053785682E+03  0.33333567930E+03  0.17770000000E+01 0. -1.
        -16    1    3    3    0    0 -0.74925488122E+03 -0.83663342997E+03  0.63835365295E+03  0.12918334875E+04  0.00000000000E+00 0.  1.
          2    1    6    6  502    0  0.24158080556E+03  0.19569655353E+03 -0.54377280135E+03  0.62637631354E+03  0.00000000000E+00 0. -1.
         -1    1    6    6    0  502  0.41138311753E+03  0.21037582259E+03 -0.78427917095E+03  0.91026802323E+03  0.00000000000E+00 0.  1.
<mgrwt>
<rscale>  0 0.14338827E+04</rscale>
<asrwt>0</asrwt>
<pdfrwt beam="1">  1        1 0.39370347E+00 0.14338827E+04</pdfrwt>
<pdfrwt beam="2">  1       -2 0.22946794E+00 0.14338827E+04</pdfrwt>
<totfact> 0.88327107E-02</totfact>
</mgrwt>
</event>
<event>
12    3  0.1092576E-007  0.9830094E+03  0.7818608E-02  0.9327379E-01
         -2   -1    0    0    0  501 -0.00000000000E+00  0.00000000000E+00  0.74596558738E+03  0.74596558738E+03  0.00000000000E+00 0.  1.
          1   -1    0    0  501    0  0.00000000000E+00 -0.00000000000E+00 -0.13007701004E+04  0.13007701004E+04  0.00000000000E+00 0. -1.
        -24    2    1    2    0    0  0.18786837498E+03  0.87174809402E+03 -0.25341571560E+03  0.93049387982E+03  0.79750045258E+02 0.  0.
    5000000    2    1    2    0    0 -0.18786837498E+03 -0.87174809402E+03 -0.30138879741E+03  0.11162418079E+04  0.59993441377E+03 0.  0.
        -24    2    4    4    0    0 -0.31732657350E+03 -0.86269702619E+03 -0.25651997534E+03  0.95720945705E+03  0.74196587962E+02 0.  0.
         24    2    4    4    0    0  0.12945819852E+03 -0.90510678314E+01 -0.44868822065E+02  0.15903235089E+03  0.80229236836E+02 0.  0.
         13    1    5    5    0    0 -0.18743386968E+03 -0.44122615931E+03 -0.16325826533E+03  0.50642397293E+03  0.00000000000E+00 0. -1.
        -14    1    5    5    0    0 -0.12989270382E+03 -0.42147086688E+03 -0.93261710015E+02  0.45078548412E+03  0.00000000000E+00 0.  1.
         15    1    3    3    0    0  0.49442496288E+02  0.14031899210E+03 -0.66517340694E+02  0.16297758841E+03  0.17770000000E+01 0. -1.
        -16    1    3    3    0    0  0.13842587870E+03  0.73142910192E+03 -0.18689837491E+03  0.76751629141E+03  0.00000000000E+00 0.  1.
          4    1    6    6  502    0  0.34066906988E+02  0.33653763394E+02 -0.17609829238E+02  0.51021917135E+02  0.00000000000E+00 0. -1.
         -3    1    6    6    0  502  0.95391291529E+02 -0.42704831226E+02 -0.27258992827E+02  0.10801043375E+03  0.00000000000E+00 0.  1.
<mgrwt>
<rscale>  0 0.98300937E+03</rscale>
<asrwt>0</asrwt>
<pdfrwt beam="1">  1        1 0.20011848E+00 0.98300937E+03</pdfrwt>
<pdfrwt beam="2">  1       -2 0.11476394E+00 0.98300937E+03</pdfrwt>
<totfact> 0.46974998E+00</totfact>
</mgrwt>
</event>
<event>
12    3  0.1180232E-007  0.1181901E+04  0.7818608E-02  0.9128848E-01
         -2   -1    0    0    0  501 -0.00000000000E+00  0.00000000000E+00  0.66908086874E+03  0.66908086874E+03  0.00000000000E+00 0.  1.
          1   -1    0    0  501    0  0.00000000000E+00 -0.00000000000E+00 -0.23605725478E+04  0.23605725478E+04  0.00000000000E+00 0. -1.
        -24    2    1    2    0    0 -0.54594627217E+03 -0.10278256145E+04 -0.10585426801E+04  0.15753554566E+04  0.82154629282E+02 0.  0.
    5000000    2    1    2    0    0  0.54594627217E+03  0.10278256145E+04 -0.63294899891E+03  0.14542979599E+04  0.59989607036E+03 0.  0.
        -24    2    4    4    0    0  0.46404918381E+03  0.96920021700E+03 -0.33138234613E+03  0.11269863613E+04  0.74788325213E+02 0.  0.
         24    2    4    4    0    0  0.81897088358E+02  0.58625397458E+02 -0.30156665279E+03  0.32731159865E+03  0.77758383654E+02 0.  0.
         13    1    5    5    0    0  0.16733551876E+03  0.38556653753E+03 -0.95172491061E+02  0.43095305284E+03  0.00000000000E+00 0. -1.
        -14    1    5    5    0    0  0.29671366505E+03  0.58363367947E+03 -0.23620985507E+03  0.69603330845E+03  0.00000000000E+00 0.  1.
         15    1    3    3    0    0 -0.26427333838E+03 -0.52112407175E+03 -0.58472948371E+03  0.82663318491E+03  0.17770000000E+01 0. -1.
        -16    1    3    3    0    0 -0.28167293379E+03 -0.50670154271E+03 -0.47381319640E+03  0.74872227167E+03  0.00000000000E+00 0.  1.
          2    1    6    6  502    0  0.75684018067E+01 -0.17049494722E+02 -0.72764389112E+02  0.75117390124E+02  0.00000000000E+00 0. -1.
         -3    1    6    6    0  502  0.74328686551E+02  0.75674892180E+02 -0.22880226368E+03  0.25219420853E+03  0.00000000000E+00 0.  1.
<mgrwt>
<rscale>  0 0.11819009E+04</rscale>
<asrwt>0</asrwt>
<pdfrwt beam="1">  1        1 0.36316501E+00 0.11819009E+04</pdfrwt>
<pdfrwt beam="2">  1       -2 0.10293552E+00 0.11819009E+04</pdfrwt>
<totfact> 0.11294698E+00</totfact>
</mgrwt>
</event>
<event>
12    3  0.1092576E-007  0.4058240E+03  0.7818608E-02  0.1041781E+00
         -2   -1    0    0    0  501 -0.00000000000E+00  0.00000000000E+00  0.15718828491E+04  0.15718828491E+04  0.00000000000E+00 0.  1.
          1   -1    0    0  501    0  0.00000000000E+00 -0.00000000000E+00 -0.18826524374E+03  0.18826524374E+03  0.00000000000E+00 0. -1.
        -24    2    1    2    0    0 -0.42107862183E+00 -0.35148458655E+03  0.28396723696E+03  0.45909797837E+03  0.81190948916E+02 0.  0.
    5000000    2    1    2    0    0  0.42107862183E+00  0.35148458655E+03  0.10996503684E+04  0.13010501145E+04  0.59996572883E+03 0.  0.
        -24    2    4    4    0    0 -0.25270081646E+02  0.36581872538E+03  0.25975347441E+03  0.45689299763E+03  0.82567711328E+02 0.  0.
         24    2    4    4    0    0  0.25691160268E+02 -0.14334138830E+02  0.83989689398E+03  0.84415711684E+03  0.79428849543E+02 0.  0.
         11    1    5    5    0    0  0.11235584267E+02  0.24843911378E+03  0.20513568302E+03  0.32238002429E+03  0.00000000000E+00 0. -1.
        -12    1    5    5    0    0 -0.36505665913E+02  0.11737961160E+03  0.54617791392E+02  0.13451297335E+03  0.00000000000E+00 0.  1.
         15    1    3    3    0    0 -0.29196861196E+02 -0.30067949329E+03  0.24417532384E+03  0.38843964897E+03  0.17770000000E+01 0. -1.
        -16    1    3    3    0    0  0.28775782575E+02 -0.50805093260E+02  0.39791913120E+02  0.70658329400E+02  0.00000000000E+00 0.  1.
          4    1    6    6  502    0  0.45653104042E+02  0.11321107754E+02  0.34468267111E+03  0.34787715814E+03  0.00000000000E+00 0. -1.
         -3    1    6    6    0  502 -0.19961943774E+02 -0.25655246585E+02  0.49521422287E+03  0.49627995870E+03  0.00000000000E+00 0.  1.
<mgrwt>
<rscale>  0 0.40582403E+03</rscale>
<asrwt>0</asrwt>
<pdfrwt beam="1">  1        1 0.28963885E-01 0.40582403E+03</pdfrwt>
<pdfrwt beam="2">  1       -2 0.24182812E+00 0.40582403E+03</pdfrwt>
<totfact> 0.10898033E+01</totfact>
</mgrwt>
</event>
<event>
12    3  0.1092576E-007  0.4834398E+03  0.7818608E-02  0.1018194E+00
          1   -1    0    0  501    0  0.00000000000E+00  0.00000000000E+00  0.17767883351E+04  0.17767883351E+04  0.00000000000E+00 0. -1.
         -2   -1    0    0    0  501 -0.00000000000E+00 -0.00000000000E+00 -0.15645717346E+03  0.15645717346E+03  0.00000000000E+00 0.  1.
        -24    2    1    2    0    0 -0.13645454870E+03  0.27247535343E+03  0.23612107474E+03  0.39410186162E+03  0.81856296685E+02 0.  0.
    5000000    2    1    2    0    0  0.13645454870E+03 -0.27247535343E+03  0.13842100869E+04  0.15391436470E+04  0.60005244700E+03 0.  0.
        -24    2    4    4    0    0  0.33047610252E+03 -0.13129921203E+02  0.73146096539E+03  0.80655828888E+03  0.78193863580E+02 0.  0.
         24    2    4    4    0    0 -0.19402155382E+03 -0.25934543223E+03  0.65274912152E+03  0.73258535807E+03  0.75468368549E+02 0.  0.
         11    1    5    5    0    0  0.22147826183E+03  0.22824199417E+02  0.43535361780E+03  0.48898500701E+03  0.00000000000E+00 0. -1.
        -12    1    5    5    0    0  0.10899784069E+03 -0.35954120620E+02  0.29610734759E+03  0.31757328188E+03  0.00000000000E+00 0.  1.
         15    1    3    3    0    0 -0.60175396032E+02  0.10473732535E+03  0.45809927081E+02  0.12920020417E+03  0.17770000000E+01 0. -1.
        -16    1    3    3    0    0 -0.76279152667E+02  0.16773802808E+03  0.19031114766E+03  0.26490165745E+03  0.00000000000E+00 0.  1.
          2    1    6    6  502    0 -0.65878334176E+02 -0.74344021865E+02  0.13126109902E+03  0.16461003802E+03  0.00000000000E+00 0. -1.
         -1    1    6    6    0  502 -0.12814321964E+03 -0.18500141036E+03  0.52148802250E+03  0.56797532005E+03  0.00000000000E+00 0.  1.
<mgrwt>
<rscale>  0 0.48343979E+03</rscale>
<asrwt>0</asrwt>
<pdfrwt beam="1">  1        1 0.27335204E+00 0.48343979E+03</pdfrwt>
<pdfrwt beam="2">  1       -2 0.24070336E-01 0.48343979E+03</pdfrwt>
<totfact> 0.60651539E+01</totfact>
</mgrwt>
</event>
<event>
12    3  0.1092576E-007  0.7585322E+03  0.7818608E-02  0.9622059E-01
          1   -1    0    0  501    0  0.00000000000E+00  0.00000000000E+00  0.13874521201E+04  0.13874521201E+04  0.00000000000E+00 0. -1.
         -2   -1    0    0    0  501 -0.00000000000E+00 -0.00000000000E+00 -0.47933128013E+03  0.47933128013E+03  0.00000000000E+00 0.  1.
        -24    2    1    2    0    0 -0.22916179186E+03 -0.66404447051E+03  0.41197954619E+03  0.81816209091E+03  0.78688467164E+02 0.  0.
    5000000    2    1    2    0    0  0.22916179186E+03  0.66404447051E+03  0.49614129381E+03  0.10486213093E+04  0.59998356752E+03 0.  0.
        -24    2    4    4    0    0  0.33035906973E+03  0.37332862804E+03  0.52565177136E+03  0.72883046620E+03  0.79829094072E+02 0.  0.
         24    2    4    4    0    0 -0.10119727787E+03  0.29071584247E+03 -0.29510477557E+02  0.31979084313E+03  0.81478371055E+02 0.  0.
         11    1    5    5    0    0  0.85381691118E+02  0.13776314474E+03  0.20746358023E+03  0.26326764774E+03  0.00000000000E+00 0. -1.
        -12    1    5    5    0    0  0.24497737862E+03  0.23556548330E+03  0.31818819113E+03  0.46556281846E+03  0.00000000000E+00 0.  1.
         15    1    3    3    0    0 -0.82693457091E+02 -0.34939216605E+03  0.19068240055E+03  0.40654154665E+03  0.17770000000E+01 0. -1.
        -16    1    3    3    0    0 -0.14646833477E+03 -0.31465230446E+03  0.22129714564E+03  0.41162054427E+03  0.00000000000E+00 0.  1.
          2    1    6    6  502    0 -0.83980816551E+02  0.20420867179E+03  0.14379385142E+02  0.22127070728E+03  0.00000000000E+00 0. -1.
         -1    1    6    6    0  502 -0.17216461323E+02  0.86507170680E+02 -0.43889862700E+02  0.98520135847E+02  0.00000000000E+00 0.  1.
<mgrwt>
<rscale>  0 0.75853223E+03</rscale>
<asrwt>0</asrwt>
<pdfrwt beam="1">  1        1 0.21345417E+00 0.75853223E+03</pdfrwt>
<pdfrwt beam="2">  1       -2 0.73743275E-01 0.75853223E+03</pdfrwt>
<totfact> 0.11733426E+01</totfact>
</mgrwt>
</event>
<event>
12    3  0.1092576E-007  0.8658806E+03  0.7818608E-02  0.9469267E-01
         -2   -1    0    0    0  501 -0.00000000000E+00  0.00000000000E+00  0.38618018093E+03  0.38618018093E+03  0.00000000000E+00 0.  1.
          1   -1    0    0  501    0  0.00000000000E+00 -0.00000000000E+00 -0.21366043004E+04  0.21366043004E+04  0.00000000000E+00 0. -1.
        -24    2    1    2    0    0  0.72656508422E+03 -0.33625552651E+03 -0.64020491929E+03  0.10284428969E+04  0.82872509366E+02 0.  0.
    5000000    2    1    2    0    0 -0.72656508422E+03  0.33625552651E+03 -0.11102192002E+04  0.14943415845E+04  0.59958777320E+03 0.  0.
        -24    2    4    4    0    0 -0.65351990843E+03  0.91586667985E+02 -0.51123857843E+03  0.83866912121E+03  0.80775134318E+02 0.  0.
         24    2    4    4    0    0 -0.73045175787E+02  0.24466885853E+03 -0.59898062180E+03  0.65567246325E+03  0.77007439477E+02 0.  0.
         13    1    5    5    0    0 -0.26015041106E+03 -0.32738625593E+01 -0.19732871457E+03  0.32653878199E+03  0.00000000000E+00 0. -1.
        -14    1    5    5    0    0 -0.39336949737E+03  0.94860530544E+02 -0.31390986386E+03  0.51213033922E+03  0.00000000000E+00 0.  1.
         15    1    3    3    0    0  0.46255533847E+03 -0.24695030440E+03 -0.45051661772E+03  0.69131054857E+03  0.17770000000E+01 0. -1.
        -16    1    3    3    0    0  0.26400974575E+03 -0.89305222116E+02 -0.18968830156E+03  0.33713234834E+03  0.00000000000E+00 0.  1.
          4    1    6    6  502    0 -0.14262490200E+02  0.16101650933E+03 -0.41178564290E+03  0.44237670667E+03  0.00000000000E+00 0. -1.
         -3    1    6    6    0  502 -0.58782685587E+02  0.83652349195E+02 -0.18719497890E+03  0.21329575658E+03  0.00000000000E+00 0.  1.
<mgrwt>
<rscale>  0 0.86588064E+03</rscale>
<asrwt>0</asrwt>
<pdfrwt beam="1">  1        1 0.32870836E+00 0.86588064E+03</pdfrwt>
<pdfrwt beam="2">  1       -2 0.59412335E-01 0.86588064E+03</pdfrwt>
<totfact> 0.57441037E+00</totfact>
</mgrwt>
</event>
<event>
12    3  0.1092576E-007  0.1024995E+04  0.7818608E-02  0.9281547E-01
         -2   -1    0    0    0  501 -0.00000000000E+00  0.00000000000E+00  0.56940552381E+03  0.56940552381E+03  0.00000000000E+00 0.  1.
          1   -1    0    0  501    0  0.00000000000E+00 -0.00000000000E+00 -0.19742314780E+04  0.19742314780E+04  0.00000000000E+00 0. -1.
        -24    2    1    2    0    0  0.49094942725E+03  0.80880178081E+03 -0.92236159500E+03  0.13238354689E+04  0.81226695009E+02 0.  0.
    5000000    2    1    2    0    0 -0.49094942725E+03 -0.80880178081E+03 -0.48246435919E+03  0.12198015329E+04  0.59996021623E+03 0.  0.
        -24    2    4    4    0    0 -0.48073707081E+03 -0.24736118554E+03 -0.18490622074E+03  0.57919050918E+03  0.94739897108E+02 0.  0.
         24    2    4    4    0    0 -0.10212356439E+02 -0.56144059528E+03 -0.29755813845E+03  0.64061102373E+03  0.80757685214E+02 0.  0.
         13    1    5    5    0    0 -0.83889409695E+02 -0.60824971005E+02 -0.84042900753E+00  0.10362343595E+03  0.00000000000E+00 0. -1.
        -14    1    5    5    0    0 -0.39684766111E+03 -0.18653621453E+03 -0.18406579173E+03  0.47556707324E+03  0.00000000000E+00 0.  1.
         15    1    3    3    0    0  0.23493305287E+03  0.40513352139E+03 -0.51154669844E+03  0.69354876678E+03  0.17770000000E+01 0. -1.
        -16    1    3    3    0    0  0.25601637438E+03  0.40366825943E+03 -0.41081489655E+03  0.63028670211E+03  0.00000000000E+00 0.  1.
          4    1    6    6  502    0 -0.78989468244E+01 -0.44103469414E+03 -0.19440871931E+03  0.48204641368E+03  0.00000000000E+00 0. -1.
         -3    1    6    6    0  502 -0.23134096148E+01 -0.12040590113E+03 -0.10314941914E+03  0.15856461005E+03  0.00000000000E+00 0.  1.
<mgrwt>
<rscale>  0 0.10249954E+04</rscale>
<asrwt>0</asrwt>
<pdfrwt beam="1">  1        1 0.30372792E+00 0.10249954E+04</pdfrwt>
<pdfrwt beam="2">  1       -2 0.87600851E-01 0.10249954E+04</pdfrwt>
<totfact> 0.30733127E+00</totfact>
</mgrwt>
</event>
<event>
12    3  0.1092576E-007  0.4835143E+03  0.7818608E-02  0.1018174E+00
         -2   -1    0    0    0  501 -0.00000000000E+00  0.00000000000E+00  0.68673424387E+03  0.68673424387E+03  0.00000000000E+00 0.  1.
          1   -1    0    0  501    0  0.00000000000E+00 -0.00000000000E+00 -0.11004989487E+04  0.11004989487E+04  0.00000000000E+00 0. -1.
        -24    2    1    2    0    0 -0.34503734673E+03 -0.23432550053E+03 -0.84000495672E+03  0.94126196214E+03  0.80040884662E+02 0.  0.
    5000000    2    1    2    0    0  0.34503734673E+03  0.23432550053E+03  0.42624025190E+03  0.84597123041E+03  0.60002279915E+03 0.  0.
        -24    2    4    4    0    0  0.31755963619E+03  0.30091157095E+03  0.41294255351E+02  0.44651873224E+03  0.79258227620E+02 0.  0.
         24    2    4    4    0    0  0.27477710544E+02 -0.66586070420E+02  0.38494599655E+03  0.39945249817E+03  0.78677497938E+02 0.  0.
         11    1    5    5    0    0  0.11361653156E+03  0.14255708199E+03 -0.12678544488E+02  0.18273473496E+03  0.00000000000E+00 0. -1.
        -12    1    5    5    0    0  0.20394310463E+03  0.15835448896E+03  0.53972799839E+02  0.26378399728E+03  0.00000000000E+00 0.  1.
         15    1    3    3    0    0  0.16438018455E+01 -0.93365439178E+01 -0.91626856954E+01  0.13303596318E+02  0.17770000000E+01 0. -1.
        -16    1    3    3    0    0 -0.34668114858E+03 -0.22498895661E+03 -0.83084227102E+03  0.92795836582E+03  0.00000000000E+00 0.  1.
          2    1    6    6  502    0  0.19413518393E+02 -0.83036672312E+02  0.34686409625E+03  0.35719276996E+03  0.00000000000E+00 0. -1.
         -1    1    6    6    0  502  0.80641921510E+01  0.16450601892E+02  0.38081900306E+02  0.42259728212E+02  0.00000000000E+00 0.  1.
<mgrwt>
<rscale>  0 0.48351434E+03</rscale>
<asrwt>0</asrwt>
<pdfrwt beam="1">  1        1 0.16930753E+00 0.48351434E+03</pdfrwt>
<pdfrwt beam="2">  1       -2 0.10565142E+00 0.48351434E+03</pdfrwt>
<totfact> 0.86044729E+00</totfact>
</mgrwt>
</event>
<event>
12    3  0.1092576E-007  0.1216139E+04  0.7818608E-02  0.9098847E-01
          1   -1    0    0  501    0  0.00000000000E+00  0.00000000000E+00  0.24334559394E+04  0.24334559394E+04  0.00000000000E+00 0. -1.
         -2   -1    0    0    0  501 -0.00000000000E+00 -0.00000000000E+00 -0.77651853009E+03  0.77651853009E+03  0.00000000000E+00 0.  1.
        -24    2    1    2    0    0  0.15766050609E+03  0.11574814239E+04  0.10304725389E+03  0.11754471319E+04  0.80231799512E+02 0.  0.
    5000000    2    1    2    0    0 -0.15766050609E+03 -0.11574814239E+04  0.15538901554E+04  0.20345273376E+04  0.60008898534E+03 0.  0.
        -24    2    4    4    0    0 -0.21969932476E+03 -0.11744247295E+04  0.14887060274E+04  0.19106374538E+04  0.82149895260E+02 0.  0.
         24    2    4    4    0    0  0.62038818670E+02  0.16943305644E+02  0.65184128021E+02  0.12388988373E+03  0.83449638213E+02 0.  0.
         13    1    5    5    0    0 -0.18926180573E+03 -0.87946097635E+03  0.11599087030E+04  0.14678759619E+04  0.00000000000E+00 0. -1.
        -14    1    5    5    0    0 -0.30437519038E+02 -0.29496375317E+03  0.32879732440E+03  0.44276149198E+03  0.00000000000E+00 0.  1.
         15    1    3    3    0    0  0.78726263744E+02  0.48617197318E+03  0.57152534664E+01  0.49254120026E+03  0.17770000000E+01 0. -1.
        -16    1    3    3    0    0  0.78934242349E+02  0.67130945070E+03  0.97332000421E+02  0.68290593168E+03  0.00000000000E+00 0.  1.
          2    1    6    6  502    0  0.39515714604E+02  0.21115175376E+02  0.83367424093E+02  0.94643910167E+02  0.00000000000E+00 0. -1.
         -1    1    6    6    0  502  0.22523104066E+02 -0.41718697326E+01 -0.18183296072E+02  0.29245973567E+02  0.00000000000E+00 0.  1.
<mgrwt>
<rscale>  0 0.12161385E+04</rscale>
<asrwt>0</asrwt>
<pdfrwt beam="1">  1        1 0.37437783E+00 0.12161385E+04</pdfrwt>
<pdfrwt beam="2">  1       -2 0.11946439E+00 0.12161385E+04</pdfrwt>
<totfact> 0.69671518E-01</totfact>
</mgrwt>
</event>
<event>
12    3  0.1092576E-007  0.5163006E+03  0.7818608E-02  0.1009610E+00
         -2   -1    0    0    0  501 -0.00000000000E+00  0.00000000000E+00  0.23060699755E+03  0.23060699755E+03  0.00000000000E+00 0.  1.
          1   -1    0    0  501    0  0.00000000000E+00 -0.00000000000E+00 -0.16596090273E+04  0.16596090273E+04  0.00000000000E+00 0. -1.
        -24    2    1    2    0    0  0.34344851148E+03  0.11670771765E+03 -0.10035991420E+04  0.10701949800E+04  0.80799047658E+02 0.  0.
    5000000    2    1    2    0    0 -0.34344851148E+03 -0.11670771765E+03 -0.42540288780E+03  0.82002104486E+03  0.59990776430E+03 0.  0.
        -24    2    4    4    0    0 -0.41037375016E+03 -0.27148001187E+03 -0.39710291729E+03  0.63725667297E+03  0.79355709722E+02 0.  0.
         24    2    4    4    0    0  0.66925238683E+02  0.15477229421E+03 -0.28299970512E+02  0.18276437188E+03  0.64563741146E+02 0.  0.
         11    1    5    5    0    0 -0.19440180185E+03 -0.13949641881E+03 -0.24247101340E+03  0.34065158705E+03  0.00000000000E+00 0. -1.
        -12    1    5    5    0    0 -0.21597194831E+03 -0.13198359306E+03 -0.15463190389E+03  0.29660508592E+03  0.00000000000E+00 0.  1.
         15    1    3    3    0    0  0.25174427551E+03  0.47079553870E+02 -0.71402312412E+03  0.75856696748E+03  0.17770000000E+01 0. -1.
        -16    1    3    3    0    0  0.91704235966E+02  0.69628163783E+02 -0.28957601786E+03  0.31162801255E+03  0.00000000000E+00 0.  1.
          4    1    6    6  502    0  0.14701355827E+02  0.23940879896E+02 -0.31042794827E+02  0.41868254132E+02  0.00000000000E+00 0. -1.
         -3    1    6    6    0  502  0.52223882856E+02  0.13083141432E+03  0.27428243154E+01  0.14089611775E+03  0.00000000000E+00 0.  1.
<mgrwt>
<rscale>  0 0.51630061E+03</rscale>
<asrwt>0</asrwt>
<pdfrwt beam="1">  1        1 0.25532446E+00 0.51630061E+03</pdfrwt>
<pdfrwt beam="2">  1       -2 0.35478001E-01 0.51630061E+03</pdfrwt>
<totfact> 0.35393815E+01</totfact>
</mgrwt>
</event>
<event>
12    3  0.1092576E-007  0.7657774E+03  0.7818608E-02  0.9610918E-01
         -2   -1    0    0    0  501 -0.00000000000E+00  0.00000000000E+00  0.39924758052E+03  0.39924758052E+03  0.00000000000E+00 0.  1.
          1   -1    0    0  501    0  0.00000000000E+00 -0.00000000000E+00 -0.26061560936E+04  0.26061560936E+04  0.00000000000E+00 0. -1.
        -24    2    1    2    0    0  0.60881393533E+03  0.38918162051E+03 -0.18722123538E+04  0.20083343613E+04  0.78173317006E+02 0.  0.
    5000000    2    1    2    0    0 -0.60881393533E+03 -0.38918162051E+03 -0.33469615924E+03  0.99706931277E+03  0.60000746151E+03 0.  0.
        -24    2    4    4    0    0 -0.46692412083E+03 -0.10684808245E+03 -0.44039888020E+03  0.65450517199E+03  0.70648419313E+02 0.  0.
         24    2    4    4    0    0 -0.14188981450E+03 -0.28233353805E+03  0.10570272096E+03  0.34256414078E+03  0.79574990804E+02 0.  0.
         11    1    5    5    0    0 -0.27360731691E+03 -0.98094260197E+02 -0.26411527631E+03  0.39273442290E+03  0.00000000000E+00 0. -1.
        -12    1    5    5    0    0 -0.19331680392E+03 -0.87538222559E+01 -0.17628360388E+03  0.26177074909E+03  0.00000000000E+00 0.  1.
         15    1    3    3    0    0  0.51836545581E+03  0.32613989507E+03 -0.16563473233E+04  0.17659443904E+04  0.17770000000E+01 0. -1.
        -16    1    3    3    0    0  0.90448479520E+02  0.63041725437E+02 -0.21586503056E+03  0.24238997094E+03  0.00000000000E+00 0.  1.
          4    1    6    6  502    0 -0.24703668859E+02 -0.73333059387E+01  0.16546745791E+02  0.30624229416E+02  0.00000000000E+00 0. -1.
         -3    1    6    6    0  502 -0.11718614564E+03 -0.27500023211E+03  0.89155975168E+02  0.31193991136E+03  0.00000000000E+00 0.  1.
<mgrwt>
<rscale>  0 0.76577737E+03</rscale>
<asrwt>0</asrwt>
<pdfrwt beam="1">  1        1 0.40094709E+00 0.76577737E+03</pdfrwt>
<pdfrwt beam="2">  1       -2 0.61422705E-01 0.76577737E+03</pdfrwt>
<totfact> 0.26104245E+00</totfact>
</mgrwt>
</event>
<event>
12    3  0.1092576E-007  0.5141423E+03  0.7818608E-02  0.1010152E+00
         -4   -1    0    0    0  501 -0.00000000000E+00  0.00000000000E+00  0.74748724002E+03  0.74748724002E+03  0.00000000000E+00 0.  1.
          3   -1    0    0  501    0  0.00000000000E+00 -0.00000000000E+00 -0.61097706443E+03  0.61097706443E+03  0.00000000000E+00 0. -1.
        -24    2    1    2    0    0 -0.31246487813E+03  0.23858213812E+03  0.42618795476E+03  0.58518172657E+03  0.79030017328E+02 0.  0.
    5000000    2    1    2    0    0  0.31246487813E+03 -0.23858213812E+03 -0.28967777916E+03  0.77328257788E+03  0.59958068083E+03 0.  0.
        -24    2    4    4    0    0 -0.11847294785E+03 -0.12259359596E+03 -0.25700244074E+03  0.31854916023E+03  0.79738847459E+02 0.  0.
         24    2    4    4    0    0  0.43093782597E+03 -0.11598854216E+03 -0.32675338427E+02  0.45473341765E+03  0.80957097440E+02 0.  0.
         13    1    5    5    0    0 -0.41413695062E+02 -0.98711538487E+02 -0.15781659544E+03  0.19069645976E+03  0.00000000000E+00 0. -1.
        -14    1    5    5    0    0 -0.77059252784E+02 -0.23882057473E+02 -0.99185845295E+02  0.12785270046E+03  0.00000000000E+00 0.  1.
         15    1    3    3    0    0 -0.22189073232E+03  0.18561973880E+03  0.35699401529E+03  0.45949762698E+03  0.17770000000E+01 0. -1.
        -16    1    3    3    0    0 -0.90574145804E+02  0.52962399316E+02  0.69193939473E+02  0.12568409959E+03  0.00000000000E+00 0.  1.
          2    1    6    6  502    0  0.26609493727E+03 -0.67699540139E+02 -0.59326033369E+02  0.28090803052E+03  0.00000000000E+00 0. -1.
         -1    1    6    6    0  502  0.16484288870E+03 -0.48289002019E+02  0.26650694942E+02  0.17382538713E+03  0.00000000000E+00 0.  1.
<mgrwt>
<rscale>  0 0.51414232E+03</rscale>
<asrwt>0</asrwt>
<pdfrwt beam="1">  1        3 0.93996471E-01 0.51414232E+03</pdfrwt>
<pdfrwt beam="2">  1       -4 0.11499804E+00 0.51414232E+03</pdfrwt>
<totfact> 0.13439739E+00</totfact>
</mgrwt>
</event>
<event>
12    3  0.1092576E-007  0.6393050E+03  0.7818608E-02  0.9827057E-01
          1   -1    0    0  501    0  0.00000000000E+00  0.00000000000E+00  0.73780137410E+03  0.73780137410E+03  0.00000000000E+00 0. -1.
         -2   -1    0    0    0  501 -0.00000000000E+00 -0.00000000000E+00 -0.57191521684E+03  0.57191521684E+03  0.00000000000E+00 0.  1.
        -24    2    1    2    0    0 -0.31415417752E+02  0.50249115564E+03  0.37259850785E+01  0.50980733413E+03  0.80033399254E+02 0.  0.
    5000000    2    1    2    0    0  0.31415417752E+02 -0.50249115564E+03  0.16216017219E+03  0.79990925681E+03  0.60006216988E+03 0.  0.
        -24    2    4    4    0    0 -0.25942139892E+03 -0.33090622719E+03  0.14737922581E+03  0.45273376423E+03  0.80304617949E+02 0.  0.
         24    2    4    4    0    0  0.29083681667E+03 -0.17158492845E+03  0.14780946378E+02  0.34717549258E+03  0.79277390673E+02 0.  0.
         13    1    5    5    0    0 -0.61891568223E+02 -0.54434144798E+02  0.59830943806E+02  0.10184981185E+03  0.00000000000E+00 0. -1.
        -14    1    5    5    0    0 -0.19752983070E+03 -0.27647208239E+03  0.87548282002E+02  0.35088395238E+03  0.00000000000E+00 0.  1.
         15    1    3    3    0    0 -0.71420946949E+01  0.46418432305E+03 -0.68818038712E+00  0.46424317615E+03  0.17770000000E+01 0. -1.
        -16    1    3    3    0    0 -0.24273323057E+02  0.38306832594E+02  0.44141654656E+01  0.45564157979E+02  0.00000000000E+00 0.  1.
          2    1    6    6  502    0  0.15838576893E+03 -0.47606775182E+02  0.40136905056E+01  0.16543447813E+03  0.00000000000E+00 0. -1.
         -1    1    6    6    0  502  0.13245104774E+03 -0.12397815327E+03  0.10767255872E+02  0.18174101446E+03  0.00000000000E+00 0.  1.
<mgrwt>
<rscale>  0 0.63930505E+03</rscale>
<asrwt>0</asrwt>
<pdfrwt beam="1">  1        1 0.11350790E+00 0.63930505E+03</pdfrwt>
<pdfrwt beam="2">  1       -2 0.87986956E-01 0.63930505E+03</pdfrwt>
<totfact> 0.25272099E+01</totfact>
</mgrwt>
</event>
<event>
12    3  0.1092576E-007  0.1080377E+04  0.7818608E-02  0.9224531E-01
         -2   -1    0    0    0  501 -0.00000000000E+00  0.00000000000E+00  0.47394950783E+03  0.47394950783E+03  0.00000000000E+00 0.  1.
          1   -1    0    0  501    0  0.00000000000E+00 -0.00000000000E+00 -0.25674935859E+04  0.25674935859E+04  0.00000000000E+00 0. -1.
        -24    2    1    2    0    0 -0.41963148073E+03 -0.91983935239E+03 -0.78859589749E+03  0.12850074811E+04  0.84650593822E+02 0.  0.
    5000000    2    1    2    0    0  0.41963148073E+03  0.91983935239E+03 -0.13049481806E+04  0.17564356126E+04  0.59998441112E+03 0.  0.
        -24    2    4    4    0    0  0.53668373927E+03  0.66466075262E+03 -0.79882423442E+03  0.11723630173E+04  0.80694081846E+02 0.  0.
         24    2    4    4    0    0 -0.11705225853E+03  0.25517859977E+03 -0.50612394614E+03  0.58407259531E+03  0.78498399519E+02 0.  0.
         11    1    5    5    0    0  0.41770616818E+03  0.47208819001E+03 -0.61638991026E+03  0.88163610609E+03  0.00000000000E+00 0. -1.
        -12    1    5    5    0    0  0.11897757109E+03  0.19257256260E+03 -0.18243432415E+03  0.29072691124E+03  0.00000000000E+00 0.  1.
         15    1    3    3    0    0 -0.86014748903E+02 -0.28014158070E+03 -0.22183364792E+03  0.36754750352E+03  0.17770000000E+01 0. -1.
        -16    1    3    3    0    0 -0.33361673183E+03 -0.63969777169E+03 -0.56676224957E+03  0.91745997754E+03  0.00000000000E+00 0.  1.
          4    1    6    6  502    0 -0.16036661391E+02  0.10758134178E+01 -0.15152190103E+02  0.22088928177E+02  0.00000000000E+00 0. -1.
         -3    1    6    6    0  502 -0.10101559714E+03  0.25410278635E+03 -0.49097175603E+03  0.56198366713E+03  0.00000000000E+00 0.  1.
<mgrwt>
<rscale>  0 0.10803773E+04</rscale>
<asrwt>0</asrwt>
<pdfrwt beam="1">  1        1 0.39499901E+00 0.10803773E+04</pdfrwt>
<pdfrwt beam="2">  1       -2 0.72915310E-01 0.10803773E+04</pdfrwt>
<totfact> 0.18242616E+00</totfact>
</mgrwt>
</event>
<event>
12    3  0.1092576E-007  0.3659837E+03  0.7818608E-02  0.1056239E+00
         -4   -1    0    0    0  501 -0.00000000000E+00  0.00000000000E+00  0.76588636440E+03  0.76588636440E+03  0.00000000000E+00 0.  1.
          3   -1    0    0  501    0  0.00000000000E+00 -0.00000000000E+00 -0.55525644482E+03  0.55525644482E+03  0.00000000000E+00 0. -1.
        -24    2    1    2    0    0  0.30955760280E+03  0.89593487799E+02  0.48455859832E+03  0.58713656688E+03  0.77970574294E+02 0.  0.
    5000000    2    1    2    0    0 -0.30955760280E+03 -0.89593487799E+02 -0.27392867874E+03  0.73400624233E+03  0.59989610788E+03 0.  0.
        -24    2    4    4    0    0 -0.54810253399E+02 -0.12533933590E+03 -0.40490603297E+03  0.43473345016E+03  0.79562328751E+02 0.  0.
         24    2    4    4    0    0 -0.25474734940E+03  0.35745848097E+02  0.13097735423E+03  0.29927279217E+03  0.78963023816E+02 0.  0.
         13    1    5    5    0    0 -0.49973229850E+02 -0.45739741383E+02 -0.10958239259E+03  0.12883224910E+03  0.00000000000E+00 0. -1.
        -14    1    5    5    0    0 -0.48370235490E+01 -0.79599594514E+02 -0.29532364038E+03  0.30590120106E+03  0.00000000000E+00 0.  1.
         15    1    3    3    0    0  0.16459172221E+03  0.39942338897E+02  0.18609274803E+03  0.25163365048E+03  0.17770000000E+01 0. -1.
        -16    1    3    3    0    0  0.14496588059E+03  0.49651148902E+02  0.29846585029E+03  0.33550291640E+03  0.00000000000E+00 0.  1.
          4    1    6    6  502    0 -0.22245911935E+03  0.13926043840E+02  0.83907810057E+02  0.23816489050E+03  0.00000000000E+00 0. -1.
         -3    1    6    6    0  502 -0.32288230046E+02  0.21819804258E+02  0.47069544173E+02  0.61107901666E+02  0.00000000000E+00 0.  1.
<mgrwt>
<rscale>  0 0.36598366E+03</rscale>
<asrwt>0</asrwt>
<pdfrwt beam="1">  1        3 0.85424069E-01 0.36598366E+03</pdfrwt>
<pdfrwt beam="2">  1       -4 0.11782867E+00 0.36598366E+03</pdfrwt>
<totfact> 0.15723372E+00</totfact>
</mgrwt>
</event>
<event>
12    3  0.1092576E-007  0.1555877E+04  0.7818608E-02  0.8848122E-01
          1   -1    0    0  501    0  0.00000000000E+00  0.00000000000E+00  0.77102677948E+03  0.77102677948E+03  0.00000000000E+00 0. -1.
         -2   -1    0    0    0  501 -0.00000000000E+00 -0.00000000000E+00 -0.31778547660E+04  0.31778547660E+04  0.00000000000E+00 0.  1.
        -24    2    1    2    0    0 -0.97378076769E+03  0.11468705965E+04 -0.12632032753E+04  0.19661195739E+04  0.79890647724E+02 0.  0.
    5000000    2    1    2    0    0  0.97378076769E+03 -0.11468705965E+04 -0.11436247112E+04  0.19827619715E+04  0.59992200087E+03 0.  0.
        -24    2    4    4    0    0 -0.45186842621E+02 -0.19384702684E+02 -0.93300929386E+02  0.13369605440E+03  0.82170275008E+02 0.  0.
         24    2    4    4    0    0  0.10189676103E+04 -0.11274858938E+04 -0.10503237818E+04  0.18490659171E+04  0.79657314151E+02 0.  0.
         11    1    5    5    0    0 -0.87566588724E+01  0.26424618219E+02 -0.60512441530E+02  0.66608521246E+02  0.00000000000E+00 0. -1.
        -12    1    5    5    0    0 -0.36430183749E+02 -0.45809320903E+02 -0.32788487856E+02  0.67087533159E+02  0.00000000000E+00 0.  1.
         15    1    3    3    0    0 -0.85612406532E+03  0.99870738830E+03 -0.11367591894E+04  0.17385595978E+04  0.17770000000E+01 0. -1.
        -16    1    3    3    0    0 -0.11765670237E+03  0.14816320818E+03 -0.12644408588E+03  0.22755997611E+03  0.00000000000E+00 0.  1.
          2    1    6    6  502    0  0.22111756853E+03 -0.28030804426E+03 -0.27594104594E+03  0.45123058365E+03  0.00000000000E+00 0. -1.
         -1    1    6    6    0  502  0.79785004178E+03 -0.84717784954E+03 -0.77438273588E+03  0.13978353335E+04  0.00000000000E+00 0.  1.
<mgrwt>
<rscale>  0 0.15558773E+04</rscale>
<asrwt>0</asrwt>
<pdfrwt beam="1">  1        1 0.11861951E+00 0.15558773E+04</pdfrwt>
<pdfrwt beam="2">  1       -2 0.48890073E+00 0.15558773E+04</pdfrwt>
<totfact> 0.37512908E-02</totfact>
</mgrwt>
</event>
<event>
12    3  0.1092576E-007  0.6052465E+03  0.7818608E-02  0.9894581E-01
          1   -1    0    0  501    0  0.00000000000E+00  0.00000000000E+00  0.43504946354E+03  0.43504946354E+03  0.00000000000E+00 0. -1.
         -2   -1    0    0    0  501 -0.00000000000E+00 -0.00000000000E+00 -0.11904080527E+04  0.11904080527E+04  0.00000000000E+00 0.  1.
        -24    2    1    2    0    0 -0.12035419360E+03 -0.55031463591E+03 -0.51664003259E+03  0.76859323612E+03  0.80543832331E+02 0.  0.
    5000000    2    1    2    0    0  0.12035419360E+03  0.55031463591E+03 -0.23871855659E+03  0.85686428013E+03  0.59991542311E+03 0.  0.
        -24    2    4    4    0    0 -0.94337953642E+02  0.23479793505E+03 -0.36123366759E+03  0.44820464398E+03  0.79799251141E+02 0.  0.
         24    2    4    4    0    0  0.21469214724E+03  0.31551670086E+03  0.12251511100E+03  0.40865963615E+03  0.79682113349E+02 0.  0.
         13    1    5    5    0    0  0.60865601682E+01  0.89000180105E+01 -0.47852274425E+02  0.49051979602E+02  0.00000000000E+00 0. -1.
        -14    1    5    5    0    0 -0.10042451381E+03  0.22589791704E+03 -0.31338139317E+03  0.39915266438E+03  0.00000000000E+00 0.  1.
         15    1    3    3    0    0 -0.85001142167E+02 -0.23807965091E+03 -0.19840576339E+03  0.32136446447E+03  0.17770000000E+01 0. -1.
        -16    1    3    3    0    0 -0.35353051430E+02 -0.31223498500E+03 -0.31823426920E+03  0.44722877166E+03  0.00000000000E+00 0.  1.
          2    1    6    6  502    0  0.74427359648E+02  0.67240547008E+02  0.55849257072E+01  0.10045852090E+03  0.00000000000E+00 0. -1.
         -1    1    6    6    0  502  0.14026478759E+03  0.24827615385E+03  0.11693018529E+03  0.30820111525E+03  0.00000000000E+00 0.  1.
<mgrwt>
<rscale>  0 0.60524647E+03</rscale>
<asrwt>0</asrwt>
<pdfrwt beam="1">  1        1 0.66930687E-01 0.60524647E+03</pdfrwt>
<pdfrwt beam="2">  1       -2 0.18313970E+00 0.60524647E+03</pdfrwt>
<totfact> 0.84081562E+00</totfact>
</mgrwt>
</event>
<event>
12    3  0.1092576E-007  0.8989310E+03  0.7818608E-02  0.9426919E-01
         -2   -1    0    0    0  501 -0.00000000000E+00  0.00000000000E+00  0.92741699770E+03  0.92741699770E+03  0.00000000000E+00 0.  1.
          1   -1    0    0  501    0  0.00000000000E+00 -0.00000000000E+00 -0.12087314039E+04  0.12087314039E+04  0.00000000000E+00 0. -1.
        -24    2    1    2    0    0  0.67008247030E+03  0.48411239994E+03 -0.64531588136E+03  0.10517271869E+04  0.79511986936E+02 0.  0.
    5000000    2    1    2    0    0 -0.67008247030E+03 -0.48411239994E+03  0.36400147516E+03  0.10844212147E+04  0.60008079812E+03 0.  0.
        -24    2    4    4    0    0 -0.49911680773E+03 -0.58253759564E+03  0.15635889003E+03  0.78697587016E+03  0.80095440849E+02 0.  0.
         24    2    4    4    0    0 -0.17096566258E+03  0.98425195697E+02  0.20764258513E+03  0.29744534457E+03  0.80259036384E+02 0.  0.
         13    1    5    5    0    0 -0.26115087586E+03 -0.36546120636E+03  0.92494279285E+02  0.45860316726E+03  0.00000000000E+00 0. -1.
        -14    1    5    5    0    0 -0.23796593186E+03 -0.21707638928E+03  0.63864610747E+02  0.32837270290E+03  0.00000000000E+00 0.  1.
         15    1    3    3    0    0  0.36965748122E+03  0.30390137283E+03 -0.40465777432E+03  0.62670070199E+03  0.17770000000E+01 0. -1.
        -16    1    3    3    0    0  0.30042498908E+03  0.18021102711E+03 -0.24065810705E+03  0.42502648487E+03  0.00000000000E+00 0.  1.
          4    1    6    6  502    0 -0.24219870274E+02  0.19414413591E+02  0.85084248942E+02  0.90569591968E+02  0.00000000000E+00 0. -1.
         -3    1    6    6    0  502 -0.14674579230E+03  0.79010782106E+02  0.12255833619E+03  0.20687575261E+03  0.00000000000E+00 0.  1.
<mgrwt>
<rscale>  0 0.89893101E+03</rscale>
<asrwt>0</asrwt>
<pdfrwt beam="1">  1        1 0.18595868E+00 0.89893101E+03</pdfrwt>
<pdfrwt beam="2">  1       -2 0.14267954E+00 0.89893101E+03</pdfrwt>
<totfact> 0.31834100E+00</totfact>
</mgrwt>
</event>
<event>
12    3  0.1092576E-007  0.1375528E+03  0.7818608E-02  0.1216660E+00
          1   -1    0    0  501    0  0.00000000000E+00  0.00000000000E+00  0.64932050807E+03  0.64932050807E+03  0.00000000000E+00 0. -1.
         -2   -1    0    0    0  501 -0.00000000000E+00 -0.00000000000E+00 -0.32700844983E+03  0.32700844983E+03  0.00000000000E+00 0.  1.
        -24    2    1    2    0    0  0.45281111875E+02  0.89307607832E+02 -0.15661523567E+03  0.20218483617E+03  0.79524512097E+02 0.  0.
    5000000    2    1    2    0    0 -0.45281111875E+02 -0.89307607832E+02  0.47892729392E+03  0.77414412173E+03  0.59991794475E+03 0.  0.
        -24    2    4    4    0    0  0.84073296615E-01 -0.26047952661E+02 -0.12794415930E+03  0.15690425096E+03  0.87009960143E+02 0.  0.
         24    2    4    4    0    0 -0.45365185171E+02 -0.63259655171E+02  0.60687145322E+03  0.61723987076E+03  0.81439016021E+02 0.  0.
         11    1    5    5    0    0  0.12873329013E+02  0.14805806103E+02 -0.10783912165E+03  0.10960935477E+03  0.00000000000E+00 0. -1.
        -12    1    5    5    0    0 -0.12789255716E+02 -0.40853758764E+02 -0.20105037649E+02  0.47294896192E+02  0.00000000000E+00 0.  1.
         15    1    3    3    0    0  0.16418028776E+02  0.86245332186E+02 -0.74725396340E+02  0.11530330255E+03  0.17770000000E+01 0. -1.
        -16    1    3    3    0    0  0.28863083099E+02  0.30622756463E+01 -0.81889839333E+02  0.86881533619E+02  0.00000000000E+00 0.  1.
          2    1    6    6  502    0  0.96583225000E+01  0.26171507471E+01  0.24967372153E+03  0.24987416812E+03  0.00000000000E+00 0. -1.
         -1    1    6    6    0  502 -0.55023507671E+02 -0.65876805918E+02  0.35719773169E+03  0.36736570264E+03  0.00000000000E+00 0.  1.
<mgrwt>
<rscale>  0 0.13755280E+03</rscale>
<asrwt>0</asrwt>
<pdfrwt beam="1">  1        1 0.99895463E-01 0.13755280E+03</pdfrwt>
<pdfrwt beam="2">  1       -2 0.50308992E-01 0.13755280E+03</pdfrwt>
<totfact> 0.10901104E+02</totfact>
</mgrwt>
</event>
<event>
12    3  0.1092576E-007  0.4708491E+03  0.7818608E-02  0.1021681E+00
         -2   -1    0    0    0  501 -0.00000000000E+00  0.00000000000E+00  0.10169513765E+04  0.10169513765E+04  0.00000000000E+00 0.  1.
          1   -1    0    0  501    0  0.00000000000E+00 -0.00000000000E+00 -0.90744711084E+03  0.90744711084E+03  0.00000000000E+00 0. -1.
        -24    2    1    2    0    0 -0.16470817317E+03  0.24270187532E+03 -0.76553694055E+03  0.82365653557E+03  0.79563173963E+02 0.  0.
    5000000    2    1    2    0    0  0.16470817317E+03 -0.24270187532E+03  0.87504120616E+03  0.11007419517E+04  0.59991895221E+03 0.  0.
        -24    2    4    4    0    0 -0.35973605396E+02  0.16965543638E+03  0.35410338580E+03  0.40203781502E+03  0.78537440063E+02 0.  0.
         24    2    4    4    0    0  0.20068177857E+03 -0.41235731170E+03  0.52093782036E+03  0.69870413671E+03  0.80619657734E+02 0.  0.
         11    1    5    5    0    0 -0.40446588614E+02  0.39909185503E+02  0.14709746204E+03  0.15769062419E+03  0.00000000000E+00 0. -1.
        -12    1    5    5    0    0  0.44729832181E+01  0.12974625087E+03  0.20700592376E+03  0.24434719083E+03  0.00000000000E+00 0.  1.
         15    1    3    3    0    0 -0.75869753162E+02  0.10122341930E+03 -0.43900950078E+03  0.45687514658E+03  0.17770000000E+01 0. -1.
        -16    1    3    3    0    0 -0.88838420009E+02  0.14147845602E+03 -0.32652743977E+03  0.36678138899E+03  0.00000000000E+00 0.  1.
          2    1    6    6  502    0  0.19923160921E+03 -0.37972052447E+03  0.50454498629E+03  0.66215296873E+03  0.00000000000E+00 0. -1.
         -1    1    6    6    0  502  0.14501693582E+01 -0.32636787224E+02  0.16392834074E+02  0.36551167977E+02  0.00000000000E+00 0.  1.
<mgrwt>
<rscale>  0 0.47084914E+03</rscale>
<asrwt>0</asrwt>
<pdfrwt beam="1">  1        1 0.13960725E+00 0.47084914E+03</pdfrwt>
<pdfrwt beam="2">  1       -2 0.15645406E+00 0.47084914E+03</pdfrwt>
<totfact> 0.45255930E+00</totfact>
</mgrwt>
</event>
<event>
12    3  0.1092576E-007  0.7322854E+03  0.7818608E-02  0.9663559E-01
         -4   -1    0    0    0  501 -0.00000000000E+00  0.00000000000E+00  0.90242288874E+03  0.90242288874E+03  0.00000000000E+00 0.  1.
          3   -1    0    0  501    0  0.00000000000E+00 -0.00000000000E+00 -0.11827018825E+04  0.11827018825E+04  0.00000000000E+00 0. -1.
        -24    2    1    2    0    0 -0.15461677573E+03  0.62246731134E+03  0.57068851684E+03  0.86223364267E+03  0.79934787587E+02 0.  0.
    5000000    2    1    2    0    0  0.15461677573E+03 -0.62246731134E+03 -0.85096751059E+03  0.12228911286E+04  0.59995425428E+03 0.  0.
        -24    2    4    4    0    0  0.50291258254E+02  0.70550511790E+02 -0.31589532364E+03  0.33743156659E+03  0.81016179022E+02 0.  0.
         24    2    4    4    0    0  0.10432551747E+03 -0.69301782313E+03 -0.53507218695E+03  0.88545956198E+03  0.81110257552E+02 0.  0.
         13    1    5    5    0    0 -0.20548231685E+02  0.26721828436E+02 -0.11795075620E+03  0.12267300775E+03  0.00000000000E+00 0. -1.
        -14    1    5    5    0    0  0.70839489939E+02  0.43828683353E+02 -0.19794456744E+03  0.21475855885E+03  0.00000000000E+00 0.  1.
         15    1    3    3    0    0 -0.79390864728E+02  0.45434310791E+03  0.38661748143E+03  0.60183619348E+03  0.17770000000E+01 0. -1.
        -16    1    3    3    0    0 -0.75225910997E+02  0.16812420343E+03  0.18407103541E+03  0.26039744919E+03  0.00000000000E+00 0.  1.
          2    1    6    6  502    0  0.17612410146E+01 -0.12035442955E+03 -0.12605311401E+03  0.17429193393E+03  0.00000000000E+00 0. -1.
         -1    1    6    6    0  502  0.10256427646E+03 -0.57266339358E+03 -0.40901907294E+03  0.71116762805E+03  0.00000000000E+00 0.  1.
<mgrwt>
<rscale>  0 0.73228535E+03</rscale>
<asrwt>0</asrwt>
<pdfrwt beam="1">  1        3 0.18195414E+00 0.73228535E+03</pdfrwt>
<pdfrwt beam="2">  1       -4 0.13883429E+00 0.73228535E+03</pdfrwt>
<totfact> 0.15839314E-01</totfact>
</mgrwt>
</event>
<event>
12    3  0.1092576E-007  0.4808638E+03  0.7818608E-02  0.1018898E+00
         -2   -1    0    0    0  501 -0.00000000000E+00  0.00000000000E+00  0.30006050547E+03  0.30006050547E+03  0.00000000000E+00 0.  1.
          1   -1    0    0  501    0  0.00000000000E+00 -0.00000000000E+00 -0.19677845732E+04  0.19677845732E+04  0.00000000000E+00 0. -1.
        -24    2    1    2    0    0 -0.35922213323E+02  0.37792026840E+03  0.66914953426E+02  0.39352196249E+03  0.79169370932E+02 0.  0.
    5000000    2    1    2    0    0  0.35922213323E+02 -0.37792026840E+03 -0.17346390211E+04  0.18743231162E+04  0.60000039623E+03 0.  0.
        -24    2    4    4    0    0  0.18648461077E+03 -0.37636598769E+03 -0.66487240886E+03  0.79058970640E+03  0.80925255986E+02 0.  0.
         24    2    4    4    0    0 -0.15056239744E+03 -0.15542807109E+01 -0.10697666123E+04  0.10837334098E+04  0.86058395281E+02 0.  0.
         13    1    5    5    0    0  0.51974576341E+02 -0.12904277077E+03 -0.29125618173E+03  0.32277477700E+03  0.00000000000E+00 0. -1.
        -14    1    5    5    0    0  0.13451003443E+03 -0.24732321692E+03 -0.37361622713E+03  0.46781492939E+03  0.00000000000E+00 0.  1.
         15    1    3    3    0    0 -0.53160876354E+02  0.29276657984E+03  0.29808340066E+02  0.29904856447E+03  0.17770000000E+01 0. -1.
        -16    1    3    3    0    0  0.17238663031E+02  0.85153688563E+02  0.37106613360E+02  0.94473398023E+02  0.00000000000E+00 0.  1.
          2    1    6    6  502    0 -0.16602905785E+02  0.14077655380E+02 -0.39617665221E+03  0.39677421365E+03  0.00000000000E+00 0. -1.
         -1    1    6    6    0  502 -0.13395949166E+03 -0.15631936091E+02 -0.67358996006E+03  0.68695919612E+03  0.00000000000E+00 0.  1.
<mgrwt>
<rscale>  0 0.48086382E+03</rscale>
<asrwt>0</asrwt>
<pdfrwt beam="1">  1        1 0.30273609E+00 0.48086382E+03</pdfrwt>
<pdfrwt beam="2">  1       -2 0.46163154E-01 0.48086382E+03</pdfrwt>
<totfact> 0.13351980E+01</totfact>
</mgrwt>
</event>
<event>
12    3  0.1092576E-007  0.1462336E+04  0.7818608E-02  0.8909893E-01
         -2   -1    0    0    0  501 -0.00000000000E+00  0.00000000000E+00  0.14174274867E+04  0.14174274867E+04  0.00000000000E+00 0.  1.
          1   -1    0    0  501    0  0.00000000000E+00 -0.00000000000E+00 -0.15774754625E+04  0.15774754625E+04  0.00000000000E+00 0. -1.
        -24    2    1    2    0    0 -0.70402294226E+03 -0.12476470049E+04 -0.13237820874E+03  0.14415495220E+04  0.90937793175E+02 0.  0.
    5000000    2    1    2    0    0  0.70402294226E+03  0.12476470049E+04 -0.27669767110E+02  0.15533534272E+04  0.59989157484E+03 0.  0.
        -24    2    4    4    0    0  0.68851159619E+03  0.12383633934E+04 -0.12261964534E+03  0.14244481280E+04  0.80154723832E+02 0.  0.
         24    2    4    4    0    0  0.15511346072E+02  0.92836115398E+01  0.94949878233E+02  0.12890529918E+03  0.85289562550E+02 0.  0.
         13    1    5    5    0    0  0.23469250304E+03  0.46950605798E+03 -0.76659530160E+02  0.53046507239E+03  0.00000000000E+00 0. -1.
        -14    1    5    5    0    0  0.45381909315E+03  0.76885733541E+03 -0.45960115183E+02  0.89398305560E+03  0.00000000000E+00 0.  1.
         15    1    3    3    0    0 -0.52481940854E+03 -0.10001156943E+04 -0.11831065358E+03  0.11356352328E+04  0.17770000000E+01 0. -1.
        -16    1    3    3    0    0 -0.17920353373E+03 -0.24753131065E+03 -0.14067555162E+02  0.30591428924E+03  0.00000000000E+00 0.  1.
          4    1    6    6  502    0 -0.27825651085E+02  0.12619394667E+01  0.44006144474E+01  0.28199729733E+02  0.00000000000E+00 0. -1.
         -3    1    6    6    0  502  0.43336997156E+02  0.80216720731E+01  0.90549263786E+02  0.10070556945E+03  0.00000000000E+00 0.  1.
<mgrwt>
<rscale>  0 0.14623356E+04</rscale>
<asrwt>0</asrwt>
<pdfrwt beam="1">  1        1 0.24268853E+00 0.14623356E+04</pdfrwt>
<pdfrwt beam="2">  1       -2 0.21806577E+00 0.14623356E+04</pdfrwt>
<totfact> 0.48781411E-01</totfact>
</mgrwt>
</event>
<event>
12    3  0.1092576E-007  0.3106282E+03  0.7818608E-02  0.1080045E+00
         -2   -1    0    0    0  501 -0.00000000000E+00  0.00000000000E+00  0.70440008510E+03  0.70440008510E+03  0.00000000000E+00 0.  1.
          1   -1    0    0  501    0  0.00000000000E+00 -0.00000000000E+00 -0.28265476608E+03  0.28265476608E+03  0.00000000000E+00 0. -1.
        -24    2    1    2    0    0 -0.44301111672E+02 -0.13698426767E+03  0.32225187639E+03  0.36186506668E+03  0.79829672175E+02 0.  0.
    5000000    2    1    2    0    0  0.44301111672E+02  0.13698426767E+03  0.99493442632E+02  0.62518978450E+03  0.60019667063E+03 0.  0.
        -24    2    4    4    0    0 -0.10071992605E+03 -0.12843479243E+03  0.22465581601E+03  0.28876531564E+03  0.79215986017E+02 0.  0.
         24    2    4    4    0    0  0.14502103772E+03  0.26541906010E+03 -0.12516237338E+03  0.33642446886E+03  0.77700866746E+02 0.  0.
         11    1    5    5    0    0 -0.37856787512E+02 -0.30557852786E+02  0.18490149958E+02  0.52046175393E+02  0.00000000000E+00 0. -1.
        -12    1    5    5    0    0 -0.62863138538E+02 -0.97876939640E+02  0.20616566606E+03  0.23671914025E+03  0.00000000000E+00 0.  1.
         15    1    3    3    0    0 -0.30885740801E+02 -0.87900044450E+02  0.11275851482E+03  0.14628050859E+03  0.17770000000E+01 0. -1.
        -16    1    3    3    0    0 -0.13415370872E+02 -0.49084223219E+02  0.20949336157E+03  0.21558455809E+03  0.00000000000E+00 0.  1.
          4    1    6    6  502    0  0.65932118014E+02  0.50046418667E+02 -0.36231819761E+02  0.90357251897E+02  0.00000000000E+00 0. -1.
         -3    1    6    6    0  502  0.79088919709E+02  0.21537264143E+03 -0.88930553621E+02  0.24606721696E+03  0.00000000000E+00 0.  1.
<mgrwt>
<rscale>  0 0.31062824E+03</rscale>
<asrwt>0</asrwt>
<pdfrwt beam="1">  1        1 0.43485349E-01 0.31062824E+03</pdfrwt>
<pdfrwt beam="2">  1       -2 0.10836924E+00 0.31062824E+03</pdfrwt>
<totfact> 0.59196452E+01</totfact>
</mgrwt>
</event>
<event>
12    3  0.1092576E-007  0.1417095E+04  0.7818608E-02  0.8941536E-01
         -2   -1    0    0    0  501 -0.00000000000E+00  0.00000000000E+00  0.32008180976E+04  0.32008180976E+04  0.00000000000E+00 0.  1.
          1   -1    0    0  501    0  0.00000000000E+00 -0.00000000000E+00 -0.74511231930E+03  0.74511231930E+03  0.00000000000E+00 0. -1.
        -24    2    1    2    0    0 -0.13559582930E+04  0.37773163643E+02  0.41057794851E+03  0.14195315228E+04  0.80285665181E+02 0.  0.
    5000000    2    1    2    0    0  0.13559582930E+04 -0.37773163643E+02  0.20451278298E+04  0.25263988942E+04  0.60007818470E+03 0.  0.
        -24    2    4    4    0    0  0.34850892868E+03 -0.26364330079E+03  0.69639112566E+03  0.82600801492E+03  0.79764512078E+02 0.  0.
         24    2    4    4    0    0  0.10074493643E+04  0.22587013714E+03  0.13487367042E+04  0.17003908792E+04  0.79163782566E+02 0.  0.
         11    1    5    5    0    0  0.73230992391E+02 -0.84702431182E+02  0.13228289784E+03  0.17330910292E+03  0.00000000000E+00 0. -1.
        -12    1    5    5    0    0  0.27527793629E+03 -0.17894086961E+03  0.56410822783E+03  0.65269891200E+03  0.00000000000E+00 0.  1.
         15    1    3    3    0    0 -0.61105229690E+03 -0.19242984767E+02  0.16732736486E+03  0.63384288808E+03  0.17770000000E+01 0. -1.
        -16    1    3    3    0    0 -0.74490599613E+03  0.57016148410E+02  0.24325058365E+03  0.78568863470E+03  0.00000000000E+00 0.  1.
          2    1    6    6  502    0  0.42871530676E+03  0.56360075732E+02  0.55610209638E+03  0.70443084400E+03  0.00000000000E+00 0. -1.
         -1    1    6    6    0  502  0.57873405758E+03  0.16951006141E+03  0.79263460779E+03  0.99596003524E+03  0.00000000000E+00 0.  1.
<mgrwt>
<rscale>  0 0.14170952E+04</rscale>
<asrwt>0</asrwt>
<pdfrwt beam="1">  1        1 0.11463267E+00 0.14170952E+04</pdfrwt>
<pdfrwt beam="2">  1       -2 0.49243355E+00 0.14170952E+04</pdfrwt>
<totfact> 0.38192115E-02</totfact>
</mgrwt>
</event>
<event>
12    3  0.1092576E-007  0.6886218E+03  0.7818608E-02  0.9736891E-01
          1   -1    0    0  501    0  0.00000000000E+00  0.00000000000E+00  0.26126974066E+03  0.26126974066E+03  0.00000000000E+00 0. -1.
         -2   -1    0    0    0  501 -0.00000000000E+00 -0.00000000000E+00 -0.19851664472E+04  0.19851664472E+04  0.00000000000E+00 0.  1.
        -24    2    1    2    0    0  0.45941300951E+03  0.33489813072E+03 -0.97286293822E+03  0.11296393589E+04  0.80035700849E+02 0.  0.
    5000000    2    1    2    0    0 -0.45941300951E+03 -0.33489813072E+03 -0.75103376831E+03  0.11167968289E+04  0.59997196991E+03 0.  0.
        -24    2    4    4    0    0 -0.10535125468E+03 -0.41999201330E+03 -0.50643262217E+03  0.67113160653E+03  0.80320946100E+02 0.  0.
         24    2    4    4    0    0 -0.35406175483E+03  0.85093882585E+02 -0.24460114614E+03  0.44566522239E+03  0.78657960008E+02 0.  0.
         13    1    5    5    0    0 -0.11268779993E+03 -0.40315943266E+03 -0.46416683261E+03  0.62504953154E+03  0.00000000000E+00 0. -1.
        -14    1    5    5    0    0  0.73365452462E+01 -0.16832580646E+02 -0.42265789564E+02  0.46082074984E+02  0.00000000000E+00 0.  1.
         15    1    3    3    0    0  0.32560249893E+03  0.20431417138E+03 -0.70482158956E+03  0.80283117700E+03  0.17770000000E+01 0. -1.
        -16    1    3    3    0    0  0.13381051058E+03  0.13058395934E+03 -0.26804134866E+03  0.32680818192E+03  0.00000000000E+00 0.  1.
          4    1    6    6  502    0 -0.22128542654E+03  0.23493155276E+02 -0.17748874656E+03  0.28464262418E+03  0.00000000000E+00 0. -1.
         -3    1    6    6    0  502 -0.13277632829E+03  0.61600727309E+02 -0.67112399584E+02  0.16102259822E+03  0.00000000000E+00 0.  1.
<mgrwt>
<rscale>  0 0.68862178E+03</rscale>
<asrwt>0</asrwt>
<pdfrwt beam="1">  1        1 0.40195344E-01 0.68862178E+03</pdfrwt>
<pdfrwt beam="2">  1       -2 0.30541023E+00 0.68862178E+03</pdfrwt>
<totfact> 0.28464780E+00</totfact>
</mgrwt>
</event>
<event>
12    3  0.1092576E-007  0.6284854E+03  0.7818608E-02  0.9848009E-01
         -2   -1    0    0    0  501 -0.00000000000E+00  0.00000000000E+00  0.41450458457E+03  0.41450458457E+03  0.00000000000E+00 0.  1.
          1   -1    0    0  501    0  0.00000000000E+00 -0.00000000000E+00 -0.14983409169E+04  0.14983409169E+04  0.00000000000E+00 0. -1.
        -24    2    1    2    0    0  0.47266875605E+03 -0.40491414415E+03 -0.16102875667E+03  0.64832629951E+03  0.83818333838E+02 0.  0.
    5000000    2    1    2    0    0 -0.47266875605E+03  0.40491414415E+03 -0.92280757569E+03  0.12645192020E+04  0.60005314212E+03 0.  0.
        -24    2    4    4    0    0 -0.26073049457E+03  0.27473320146E+03 -0.94632150106E+02  0.39734620683E+03  0.73959728623E+02 0.  0.
         24    2    4    4    0    0 -0.21193826147E+03  0.13018094268E+03 -0.82817542558E+03  0.86717299516E+03  0.65188675990E+02 0.  0.
         11    1    5    5    0    0 -0.11030557484E+03  0.84794977277E+02 -0.63940641618E+02  0.15312058537E+03  0.00000000000E+00 0. -1.
        -12    1    5    5    0    0 -0.15042491973E+03  0.18993822419E+03 -0.30691508489E+02  0.24422562146E+03  0.00000000000E+00 0.  1.
         15    1    3    3    0    0  0.56798693210E+02 -0.83507286807E+02 -0.10225378439E+02  0.10152474867E+03  0.17770000000E+01 0. -1.
        -16    1    3    3    0    0  0.41587006284E+03 -0.32140685734E+03 -0.15080337823E+03  0.54680155084E+03  0.00000000000E+00 0.  1.
          2    1    6    6  502    0 -0.10710223989E+03  0.59649424555E+02 -0.29973331756E+03  0.32383484262E+03  0.00000000000E+00 0. -1.
         -1    1    6    6    0  502 -0.10483602158E+03  0.70531518129E+02 -0.52844210802E+03  0.54333815254E+03  0.00000000000E+00 0.  1.
<mgrwt>
<rscale>  0 0.62848540E+03</rscale>
<asrwt>0</asrwt>
<pdfrwt beam="1">  1        1 0.23051399E+00 0.62848540E+03</pdfrwt>
<pdfrwt beam="2">  1       -2 0.63769936E-01 0.62848540E+03</pdfrwt>
<totfact> 0.13739441E+01</totfact>
</mgrwt>
</event>
<event>
12    3  0.1092576E-007  0.1087045E+04  0.7818608E-02  0.9217911E-01
         -2   -1    0    0    0  501 -0.00000000000E+00  0.00000000000E+00  0.75948697960E+03  0.75948697960E+03  0.00000000000E+00 0.  1.
          1   -1    0    0  501    0  0.00000000000E+00 -0.00000000000E+00 -0.15906882724E+04  0.15906882724E+04  0.00000000000E+00 0. -1.
        -24    2    1    2    0    0 -0.77258583070E+02  0.10123960556E+04 -0.40071769484E+03  0.10947079744E+04  0.83043459099E+02 0.  0.
    5000000    2    1    2    0    0  0.77258583070E+02 -0.10123960556E+04 -0.43048359799E+03  0.12554672776E+04  0.59997274518E+03 0.  0.
        -24    2    4    4    0    0 -0.14391945093E+03 -0.88359406477E+03 -0.40565145973E+03  0.98608831371E+03  0.79785813193E+02 0.  0.
         24    2    4    4    0    0  0.22117803400E+03 -0.12880199087E+03 -0.24832138255E+02  0.26937896393E+03  0.80241607319E+02 0.  0.
         11    1    5    5    0    0 -0.10745493515E+03 -0.41295623757E+03 -0.18854044060E+03  0.46650499995E+03  0.00000000000E+00 0. -1.
        -12    1    5    5    0    0 -0.36464515777E+02 -0.47063782720E+03 -0.21711101914E+03  0.51958331376E+03  0.00000000000E+00 0.  1.
         15    1    3    3    0    0 -0.71533891586E+02  0.73982608338E+03 -0.32877145106E+03  0.81274445926E+03  0.17770000000E+01 0. -1.
        -16    1    3    3    0    0 -0.57246914841E+01  0.27256997227E+03 -0.71946243782E+02  0.28196351514E+03  0.00000000000E+00 0.  1.
          4    1    6    6  502    0  0.14717941274E+01 -0.91174881568E+01 -0.16667779142E+02  0.19055435701E+02  0.00000000000E+00 0. -1.
         -3    1    6    6    0  502  0.21970623987E+03 -0.11968450271E+03 -0.81643591138E+01  0.25032352823E+03  0.00000000000E+00 0.  1.
<mgrwt>
<rscale>  0 0.10870452E+04</rscale>
<asrwt>0</asrwt>
<pdfrwt beam="1">  1        1 0.24472127E+00 0.10870452E+04</pdfrwt>
<pdfrwt beam="2">  1       -2 0.11684415E+00 0.10870452E+04</pdfrwt>
<totfact> 0.27911400E+00</totfact>
</mgrwt>
</event>
<event>
12    3  0.1092576E-007  0.1064627E+04  0.7818608E-02  0.9240371E-01
         -2   -1    0    0    0  501 -0.00000000000E+00  0.00000000000E+00  0.15164290873E+04  0.15164290873E+04  0.00000000000E+00 0.  1.
          1   -1    0    0  501    0  0.00000000000E+00 -0.00000000000E+00 -0.80695601839E+03  0.80695601839E+03  0.00000000000E+00 0. -1.
        -24    2    1    2    0    0  0.75860142237E+03 -0.67532129932E+03  0.46002553899E+03  0.11175262233E+04  0.75540637018E+02 0.  0.
    5000000    2    1    2    0    0 -0.75860142237E+03  0.67532129932E+03  0.24944752996E+03  0.12058588825E+04  0.60028043352E+03 0.  0.
        -24    2    4    4    0    0 -0.72115153060E+03  0.39489266997E+03  0.77465104754E+01  0.82586369129E+03  0.77402049669E+02 0.  0.
         24    2    4    4    0    0 -0.37449891768E+02  0.28042862936E+03  0.24170101948E+03  0.37999519116E+03  0.77034095910E+02 0.  0.
         13    1    5    5    0    0 -0.16759993265E+03  0.11770274895E+03 -0.22605078341E+02  0.20604529624E+03  0.00000000000E+00 0. -1.
        -14    1    5    5    0    0 -0.55355159795E+03  0.27718992101E+03  0.30351588816E+02  0.61981839506E+03  0.00000000000E+00 0.  1.
         15    1    3    3    0    0  0.40418931869E+03 -0.30927961708E+03  0.22943407078E+03  0.55827057727E+03  0.17770000000E+01 0. -1.
        -16    1    3    3    0    0  0.35441210368E+03 -0.36604168224E+03  0.23059146821E+03  0.55925564601E+03  0.00000000000E+00 0.  1.
          4    1    6    6  502    0  0.90082616232E+01  0.10718483228E+03  0.53939005449E+02  0.12032935368E+03  0.00000000000E+00 0. -1.
         -3    1    6    6    0  502 -0.46458153392E+02  0.17324379708E+03  0.18776201403E+03  0.25966583748E+03  0.00000000000E+00 0.  1.
<mgrwt>
<rscale>  0 0.10646271E+04</rscale>
<asrwt>0</asrwt>
<pdfrwt beam="1">  1        1 0.12414708E+00 0.10646271E+04</pdfrwt>
<pdfrwt beam="2">  1       -2 0.23329678E+00 0.10646271E+04</pdfrwt>
<totfact> 0.15457925E+00</totfact>
</mgrwt>
</event>
<event>
12    3  0.1092576E-007  0.5481787E+03  0.7818608E-02  0.1001916E+00
          1   -1    0    0  501    0  0.00000000000E+00  0.00000000000E+00  0.11741733569E+04  0.11741733569E+04  0.00000000000E+00 0. -1.
         -2   -1    0    0    0  501 -0.00000000000E+00 -0.00000000000E+00 -0.37152151674E+03  0.37152151674E+03  0.00000000000E+00 0.  1.
        -24    2    1    2    0    0 -0.37518072842E+03 -0.15621299064E+03 -0.61714382070E+02  0.41788093559E+03  0.75184665634E+02 0.  0.
    5000000    2    1    2    0    0  0.37518072842E+03  0.15621299064E+03  0.86436622223E+03  0.11278139381E+04  0.59972680056E+03 0.  0.
        -24    2    4    4    0    0  0.49681295141E+03  0.18700119609E+03  0.49802242963E+03  0.73226433986E+03  0.79951028760E+02 0.  0.
         24    2    4    4    0    0 -0.12163222298E+03 -0.30788205456E+02  0.36634379260E+03  0.39554959819E+03  0.80680846456E+02 0.  0.
         13    1    5    5    0    0  0.16019421602E-01 -0.38056998337E+01  0.67976129867E+00  0.38659647268E+01  0.00000000000E+00 0. -1.
        -14    1    5    5    0    0  0.49679693198E+03  0.19080689593E+03  0.49734266833E+03  0.72839837514E+03  0.00000000000E+00 0.  1.
         15    1    3    3    0    0 -0.71967625793E+02 -0.60299776695E+02 -0.28463548853E+02  0.98126110563E+02  0.17770000000E+01 0. -1.
        -16    1    3    3    0    0 -0.30321310263E+03 -0.95913213943E+02 -0.33250833217E+02  0.31975482502E+03  0.00000000000E+00 0.  1.
          4    1    6    6  502    0  0.84515590211E+01 -0.15250565754E+02  0.31756802655E+02  0.36228484934E+02  0.00000000000E+00 0. -1.
         -3    1    6    6    0  502 -0.13008378200E+03 -0.15537639702E+02  0.33458698995E+03  0.35932111326E+03  0.00000000000E+00 0.  1.
<mgrwt>
<rscale>  0 0.54817872E+03</rscale>
<asrwt>0</asrwt>
<pdfrwt beam="1">  1        1 0.18064205E+00 0.54817872E+03</pdfrwt>
<pdfrwt beam="2">  1       -2 0.57157157E-01 0.54817872E+03</pdfrwt>
<totfact> 0.29503962E+01</totfact>
</mgrwt>
</event>
<event>
12    3  0.1092576E-007  0.9485662E+03  0.7818608E-02  0.9366828E-01
         -2   -1    0    0    0  501 -0.00000000000E+00  0.00000000000E+00  0.98900699349E+03  0.98900699349E+03  0.00000000000E+00 0.  1.
          1   -1    0    0  501    0  0.00000000000E+00 -0.00000000000E+00 -0.11936044624E+04  0.11936044624E+04  0.00000000000E+00 0. -1.
        -24    2    1    2    0    0 -0.71028298421E+03 -0.47440413007E+03 -0.62074675206E+03  0.10589258841E+04  0.80226564131E+02 0.  0.
    5000000    2    1    2    0    0  0.71028298421E+03  0.47440413007E+03  0.41614928313E+03  0.11236855718E+04  0.59993986541E+03 0.  0.
        -24    2    4    4    0    0  0.15478545416E+03 -0.12981737745E+03  0.68720160733E+02  0.22870123320E+03  0.82284295396E+02 0.  0.
         24    2    4    4    0    0  0.55549753005E+03  0.60422150752E+03  0.34742912240E+03  0.89498433858E+03  0.81417658878E+02 0.  0.
         13    1    5    5    0    0  0.11657481922E+03 -0.45302723225E+02  0.33384710422E+02  0.12944714790E+03  0.00000000000E+00 0. -1.
        -14    1    5    5    0    0  0.38210634940E+02 -0.84514654227E+02  0.35335450310E+02  0.99254085308E+02  0.00000000000E+00 0.  1.
         15    1    3    3    0    0 -0.23770719201E+03 -0.11437186485E+03 -0.18861464008E+03  0.32429041426E+03  0.17770000000E+01 0. -1.
        -16    1    3    3    0    0 -0.47257579220E+03 -0.36003226522E+03 -0.43213211198E+03  0.73463546987E+03  0.00000000000E+00 0.  1.
          2    1    6    6  502    0  0.35839955172E+03  0.36644067094E+03  0.17724340567E+03  0.54235065118E+03  0.00000000000E+00 0. -1.
         -1    1    6    6    0  502  0.19709797833E+03  0.23778083659E+03  0.17018571673E+03  0.35263368740E+03  0.00000000000E+00 0.  1.
<mgrwt>
<rscale>  0 0.94856620E+03</rscale>
<asrwt>0</asrwt>
<pdfrwt beam="1">  1        1 0.18363146E+00 0.94856620E+03</pdfrwt>
<pdfrwt beam="2">  1       -2 0.15215492E+00 0.94856620E+03</pdfrwt>
<totfact> 0.27388788E+00</totfact>
</mgrwt>
</event>
<event>
12    3  0.1092576E-007  0.7105147E+03  0.7818608E-02  0.9699418E-01
         -2   -1    0    0    0  501 -0.00000000000E+00  0.00000000000E+00  0.12179527448E+04  0.12179527448E+04  0.00000000000E+00 0.  1.
          1   -1    0    0  501    0  0.00000000000E+00 -0.00000000000E+00 -0.49429314763E+03  0.49429314763E+03  0.00000000000E+00 0. -1.
        -24    2    1    2    0    0  0.59336519730E+03  0.18303196852E+03  0.71309415698E+02  0.63001354283E+03  0.79051075364E+02 0.  0.
    5000000    2    1    2    0    0 -0.59336519730E+03 -0.18303196852E+03  0.65235018143E+03  0.10822323495E+04  0.60006927961E+03 0.  0.
        -24    2    4    4    0    0 -0.71979623765E+02 -0.25386897543E+03  0.41890353677E+03  0.50121054320E+03  0.78110899214E+02 0.  0.
         24    2    4    4    0    0 -0.52138557354E+03  0.70837006909E+02  0.23344664466E+03  0.58102180635E+03  0.78918981925E+02 0.  0.
         13    1    5    5    0    0 -0.14560466760E+02 -0.88396532654E+02  0.81774293368E+02  0.12129711140E+03  0.00000000000E+00 0. -1.
        -14    1    5    5    0    0 -0.57419157005E+02 -0.16547244278E+03  0.33712924340E+03  0.37991343181E+03  0.00000000000E+00 0.  1.
         15    1    3    3    0    0  0.25250714958E+03  0.44316640481E+02  0.72396398285E+01  0.25647494093E+03  0.17770000000E+01 0. -1.
        -16    1    3    3    0    0  0.34085804772E+03  0.13871532804E+03  0.64069775870E+02  0.37353860190E+03  0.00000000000E+00 0.  1.
          2    1    6    6  502    0 -0.98248342943E+02  0.44790186128E+02  0.41940886410E+02  0.11583581319E+03  0.00000000000E+00 0. -1.
         -1    1    6    6    0  502 -0.42313723059E+03  0.26046820781E+02  0.19150575825E+03  0.46518599316E+03  0.00000000000E+00 0.  1.
<mgrwt>
<rscale>  0 0.71051475E+03</rscale>
<asrwt>0</asrwt>
<pdfrwt beam="1">  1        1 0.76045100E-01 0.71051475E+03</pdfrwt>
<pdfrwt beam="2">  1       -2 0.18737734E+00 0.71051475E+03</pdfrwt>
<totfact> 0.65391495E+00</totfact>
</mgrwt>
</event>
<event>
12    3  0.1092576E-007  0.8540006E+03  0.7818608E-02  0.9484983E-01
         -2   -1    0    0    0  501 -0.00000000000E+00  0.00000000000E+00  0.49047288555E+03  0.49047288555E+03  0.00000000000E+00 0.  1.
          1   -1    0    0  501    0  0.00000000000E+00 -0.00000000000E+00 -0.15344167962E+04  0.15344167962E+04  0.00000000000E+00 0. -1.
        -24    2    1    2    0    0 -0.30329109164E+03 -0.69727722430E+03 -0.41383588108E+03  0.86939426471E+03  0.80032726048E+02 0.  0.
    5000000    2    1    2    0    0  0.30329109164E+03  0.69727722430E+03 -0.63010802954E+03  0.11554954170E+04  0.59996042874E+03 0.  0.
        -24    2    4    4    0    0  0.74608334037E+02 -0.78865097366E+02 -0.10919179957E+02  0.13349294083E+03  0.76909230080E+02 0.  0.
         24    2    4    4    0    0  0.22868275760E+03  0.77614232167E+03 -0.61918884958E+03  0.10220024762E+04  0.80009516708E+02 0.  0.
         13    1    5    5    0    0  0.84241491248E+01 -0.64738979967E+02 -0.77597687180E+01  0.65744321627E+02  0.00000000000E+00 0. -1.
        -14    1    5    5    0    0  0.66184184912E+02 -0.14126117399E+02 -0.31594112385E+01  0.67748619208E+02  0.00000000000E+00 0.  1.
         15    1    3    3    0    0 -0.85166266846E+02 -0.11986715188E+03 -0.70233321485E+02  0.16296411962E+03  0.17770000000E+01 0. -1.
        -16    1    3    3    0    0 -0.21812482479E+03 -0.57741007242E+03 -0.34360255959E+03  0.70643014508E+03  0.00000000000E+00 0.  1.
          2    1    6    6  502    0  0.24020697452E+02  0.15265587787E+03 -0.88726242343E+02  0.17819415544E+03  0.00000000000E+00 0. -1.
         -1    1    6    6    0  502  0.20466206015E+03  0.62348644380E+03 -0.53046260724E+03  0.84380832074E+03  0.00000000000E+00 0.  1.
<mgrwt>
<rscale>  0 0.85400059E+03</rscale>
<asrwt>0</asrwt>
<pdfrwt beam="1">  1        1 0.23606412E+00 0.85400059E+03</pdfrwt>
<pdfrwt beam="2">  1       -2 0.75457367E-01 0.85400059E+03</pdfrwt>
<totfact> 0.87258725E+00</totfact>
</mgrwt>
</event>
<event>
12    3  0.1092576E-007  0.4961224E+03  0.7818608E-02  0.1014796E+00
          1   -1    0    0  501    0  0.00000000000E+00  0.00000000000E+00  0.14555713285E+04  0.14555713285E+04  0.00000000000E+00 0. -1.
         -2   -1    0    0    0  501 -0.00000000000E+00 -0.00000000000E+00 -0.19922020121E+03  0.19922020121E+03  0.00000000000E+00 0.  1.
        -24    2    1    2    0    0 -0.29489976018E+03  0.15640720210E+03  0.66455544566E+03  0.74830600355E+03  0.83059335199E+02 0.  0.
    5000000    2    1    2    0    0  0.29489976018E+03 -0.15640720210E+03  0.59179568166E+03  0.90648552619E+03  0.60005399669E+03 0.  0.
        -24    2    4    4    0    0  0.44038505763E+03 -0.21923982301E+03  0.50221093393E+03  0.70760580993E+03  0.80529877120E+02 0.  0.
         24    2    4    4    0    0 -0.14548529744E+03  0.62832620912E+02  0.89584747729E+02  0.19887971627E+03  0.80086231622E+02 0.  0.
         13    1    5    5    0    0  0.28062995985E+03 -0.15974600915E+03  0.37518239118E+03  0.49500887715E+03  0.00000000000E+00 0. -1.
        -14    1    5    5    0    0  0.15975509777E+03 -0.59493813867E+02  0.12702854274E+03  0.21259693278E+03  0.00000000000E+00 0.  1.
         15    1    3    3    0    0 -0.18828973979E+03  0.82353466813E+02  0.48496345292E+03  0.52671418056E+03  0.17770000000E+01 0. -1.
        -16    1    3    3    0    0 -0.10661002039E+03  0.74053735289E+02  0.17959199274E+03  0.22159182299E+03  0.00000000000E+00 0.  1.
          2    1    6    6  502    0 -0.72607067735E+02  0.53223021537E+02  0.87198748058E+02  0.12533195111E+03  0.00000000000E+00 0. -1.
         -1    1    6    6    0  502 -0.72878229706E+02  0.96095993753E+01  0.23859996710E+01  0.73547765157E+02  0.00000000000E+00 0.  1.
<mgrwt>
<rscale>  0 0.49612241E+03</rscale>
<asrwt>0</asrwt>
<pdfrwt beam="1">  1        1 0.22393404E+00 0.49612241E+03</pdfrwt>
<pdfrwt beam="2">  1       -2 0.30649263E-01 0.49612241E+03</pdfrwt>
<totfact> 0.64077141E+01</totfact>
</mgrwt>
</event>
<event>
12    3  0.1092576E-007  0.6627109E+03  0.7818608E-02  0.9783216E-01
         -2   -1    0    0    0  501 -0.00000000000E+00  0.00000000000E+00  0.24498108033E+03  0.24498108033E+03  0.00000000000E+00 0.  1.
          1   -1    0    0  501    0  0.00000000000E+00 -0.00000000000E+00 -0.25817791815E+04  0.25817791815E+04  0.00000000000E+00 0. -1.
        -24    2    1    2    0    0  0.37933287854E+01  0.53636548924E+03 -0.17451902191E+04  0.18279105018E+04  0.88688074016E+02 0.  0.
    5000000    2    1    2    0    0 -0.37933287854E+01 -0.53636548924E+03 -0.59160788206E+03  0.99884976000E+03  0.59999885794E+03 0.  0.
        -24    2    4    4    0    0 -0.20268166802E+03 -0.53345772448E+03 -0.49054724894E+03  0.75691361524E+03  0.81391738741E+02 0.  0.
         24    2    4    4    0    0  0.19888833924E+03 -0.29077647619E+01 -0.10106063312E+03  0.24193614475E+03  0.93567195054E+02 0.  0.
         11    1    5    5    0    0 -0.70738864834E+02 -0.15775930489E+03 -0.19765823056E+03  0.26260381068E+03  0.00000000000E+00 0. -1.
        -12    1    5    5    0    0 -0.13194280319E+03 -0.37569841959E+03 -0.29288901839E+03  0.49430980456E+03  0.00000000000E+00 0.  1.
         15    1    3    3    0    0  0.31946073992E+02  0.37185663846E+03 -0.11054010941E+04  0.11667101816E+04  0.17770000000E+01 0. -1.
        -16    1    3    3    0    0 -0.28152745207E+02  0.16450885079E+03 -0.63978912499E+03  0.66120032026E+03  0.00000000000E+00 0.  1.
          4    1    6    6  502    0  0.13507602290E+03  0.35580134100E+02 -0.39184540913E+02  0.14507551879E+03  0.00000000000E+00 0. -1.
         -3    1    6    6    0  502  0.63812316335E+02 -0.38487898862E+02 -0.61876092207E+02  0.96860625962E+02  0.00000000000E+00 0.  1.
<mgrwt>
<rscale>  0 0.66271090E+03</rscale>
<asrwt>0</asrwt>
<pdfrwt beam="1">  1        1 0.39719681E+00 0.66271090E+03</pdfrwt>
<pdfrwt beam="2">  1       -2 0.37689396E-01 0.66271090E+03</pdfrwt>
<totfact> 0.74178430E+00</totfact>
</mgrwt>
</event>
<event>
12    3  0.1092576E-007  0.7030388E+03  0.7818608E-02  0.9712049E-01
          1   -1    0    0  501    0  0.00000000000E+00  0.00000000000E+00  0.96175204686E+03  0.96175204686E+03  0.00000000000E+00 0. -1.
         -2   -1    0    0    0  501 -0.00000000000E+00 -0.00000000000E+00 -0.58526220653E+03  0.58526220653E+03  0.00000000000E+00 0.  1.
        -24    2    1    2    0    0 -0.46231443972E+03 -0.38835730323E+03 -0.18824235465E+02  0.60849674172E+03  0.73197654947E+02 0.  0.
    5000000    2    1    2    0    0  0.46231443972E+03  0.38835730323E+03  0.39531407580E+03  0.93851751167E+03  0.59998822075E+03 0.  0.
        -24    2    4    4    0    0  0.11665261946E+03 -0.12471995555E+03 -0.19531006859E+02  0.18949268447E+03  0.79769143774E+02 0.  0.
         24    2    4    4    0    0  0.34566182026E+03  0.51307725879E+03  0.41484508266E+03  0.74902482720E+03  0.78812319420E+02 0.  0.
         11    1    5    5    0    0 -0.73027809804E+01 -0.19348567805E+02  0.11803962394E+02  0.23812417230E+02  0.00000000000E+00 0. -1.
        -12    1    5    5    0    0  0.12395540044E+03 -0.10537138775E+03 -0.31334969252E+02  0.16568026724E+03  0.00000000000E+00 0.  1.
         15    1    3    3    0    0 -0.22446179468E+03 -0.17697246717E+03 -0.44362798423E+02  0.28926383635E+03  0.17770000000E+01 0. -1.
        -16    1    3    3    0    0 -0.23785264503E+03 -0.21138483606E+03  0.25538562958E+02  0.31923290536E+03  0.00000000000E+00 0.  1.
          4    1    6    6  502    0  0.27294659280E+03  0.40658266788E+03  0.36503887068E+03  0.61078857672E+03  0.00000000000E+00 0. -1.
         -3    1    6    6    0  502  0.72715227453E+02  0.10649459091E+03  0.49806211979E+02  0.13823625048E+03  0.00000000000E+00 0.  1.
<mgrwt>
<rscale>  0 0.70303883E+03</rscale>
<asrwt>0</asrwt>
<pdfrwt beam="1">  1        1 0.14796185E+00 0.70303883E+03</pdfrwt>
<pdfrwt beam="2">  1       -2 0.90040339E-01 0.70303883E+03</pdfrwt>
<totfact> 0.15441014E+01</totfact>
</mgrwt>
</event>
<event>
12    3  0.1092576E-007  0.7321002E+03  0.7818608E-02  0.9663858E-01
          1   -1    0    0  501    0  0.00000000000E+00  0.00000000000E+00  0.16045315954E+04  0.16045315954E+04  0.00000000000E+00 0. -1.
         -2   -1    0    0    0  501 -0.00000000000E+00 -0.00000000000E+00 -0.34915020112E+03  0.34915020112E+03  0.00000000000E+00 0.  1.
        -24    2    1    2    0    0 -0.37747086916E+03 -0.49488802150E+03  0.45114822850E+03  0.77287790604E+03  0.80044504353E+02 0.  0.
    5000000    2    1    2    0    0  0.37747086916E+03  0.49488802150E+03  0.80423316580E+03  0.11808038905E+04  0.60009035317E+03 0.  0.
        -24    2    4    4    0    0  0.13756014802E+03  0.56594287277E+03  0.65023172476E+03  0.87655138914E+03  0.79541890596E+02 0.  0.
         24    2    4    4    0    0  0.23991072115E+03 -0.71054851272E+02  0.15400144104E+03  0.30425250136E+03  0.79039197436E+02 0.  0.
         11    1    5    5    0    0  0.12650159552E+03  0.39604813306E+03  0.49173081096E+03  0.64393786022E+03  0.00000000000E+00 0. -1.
        -12    1    5    5    0    0  0.11058552493E+02  0.16989473970E+03  0.15850091379E+03  0.23261352892E+03  0.00000000000E+00 0.  1.
         15    1    3    3    0    0 -0.26783038775E+03 -0.40449292293E+03  0.33864889912E+03  0.59163660798E+03  0.17770000000E+01 0. -1.
        -16    1    3    3    0    0 -0.10964048142E+03 -0.90395098565E+02  0.11249932937E+03  0.18124129805E+03  0.00000000000E+00 0.  1.
          4    1    6    6  502    0  0.16531246748E+03 -0.58202779829E+02  0.14605375901E+03  0.22813915930E+03  0.00000000000E+00 0. -1.
         -3    1    6    6    0  502  0.74598253669E+02 -0.12852071443E+02  0.79476820339E+01  0.76113342067E+02  0.00000000000E+00 0.  1.
<mgrwt>
<rscale>  0 0.73210024E+03</rscale>
<asrwt>0</asrwt>
<pdfrwt beam="1">  1        1 0.24685101E+00 0.73210024E+03</pdfrwt>
<pdfrwt beam="2">  1       -2 0.53715416E-01 0.73210024E+03</pdfrwt>
<totfact> 0.16436794E+01</totfact>
</mgrwt>
</event>
<event>
12    3  0.1092576E-007  0.1071945E+04  0.7818608E-02  0.9232976E-01
          1   -1    0    0  501    0  0.00000000000E+00  0.00000000000E+00  0.30976923006E+04  0.30976923006E+04  0.00000000000E+00 0. -1.
         -2   -1    0    0    0  501 -0.00000000000E+00 -0.00000000000E+00 -0.52439092752E+03  0.52439092752E+03  0.00000000000E+00 0.  1.
        -24    2    1    2    0    0 -0.74640042750E+03  0.68702872634E+03  0.29914058133E+03  0.10606472102E+04  0.79783131317E+02 0.  0.
    5000000    2    1    2    0    0  0.74640042750E+03 -0.68702872634E+03  0.22741607918E+04  0.25614360180E+04  0.60002091495E+03 0.  0.
        -24    2    4    4    0    0 -0.17729363058E+02 -0.21998984389E+03  0.23002678915E+03  0.32833504710E+03  0.78623900313E+02 0.  0.
         24    2    4    4    0    0  0.76412979056E+03 -0.46703888245E+03  0.20441340026E+04  0.22331009709E+04  0.78971329690E+02 0.  0.
         11    1    5    5    0    0  0.57176386329E+01 -0.20259064502E+03  0.18347140429E+03  0.27338144968E+03  0.00000000000E+00 0. -1.
        -12    1    5    5    0    0 -0.23447001691E+02 -0.17399198875E+02  0.46555384864E+02  0.54953597422E+02  0.00000000000E+00 0.  1.
         15    1    3    3    0    0 -0.16502019616E+03  0.18896171946E+03  0.95782326850E+02  0.26854349448E+03  0.17770000000E+01 0. -1.
        -16    1    3    3    0    0 -0.58138023134E+03  0.49806700688E+03  0.20335825448E+03  0.79210371568E+03  0.00000000000E+00 0.  1.
          2    1    6    6  502    0  0.48897826062E+03 -0.30294303675E+03  0.12170249863E+04  0.13461144231E+04  0.00000000000E+00 0. -1.
         -1    1    6    6    0  502  0.27515152994E+03 -0.16409584569E+03  0.82710901635E+03  0.88698654777E+03  0.00000000000E+00 0.  1.
<mgrwt>
<rscale>  0 0.10719447E+04</rscale>
<asrwt>0</asrwt>
<pdfrwt beam="1">  1        1 0.47656804E+00 0.10719447E+04</pdfrwt>
<pdfrwt beam="2">  1       -2 0.80675529E-01 0.10719447E+04</pdfrwt>
<totfact> 0.61214809E-01</totfact>
</mgrwt>
</event>
<event>
12    3  0.1092576E-007  0.4717044E+03  0.7818608E-02  0.1021440E+00
          1   -1    0    0  501    0  0.00000000000E+00  0.00000000000E+00  0.32711847065E+04  0.32711847065E+04  0.00000000000E+00 0. -1.
         -2   -1    0    0    0  501 -0.00000000000E+00 -0.00000000000E+00 -0.10881594426E+03  0.10881594426E+03  0.00000000000E+00 0.  1.
        -24    2    1    2    0    0  0.69259531861E+02 -0.42239793488E+03  0.14945805229E+04  0.15566840891E+04  0.79230776051E+02 0.  0.
    5000000    2    1    2    0    0 -0.69259531861E+02  0.42239793488E+03  0.16677882394E+04  0.18233165616E+04  0.59979060875E+03 0.  0.
        -24    2    4    4    0    0 -0.62908648230E+02  0.62833701224E+01  0.13999190517E+01  0.10479165143E+03  0.83560467167E+02 0.  0.
         24    2    4    4    0    0 -0.63508836301E+01  0.41611456476E+03  0.16663883203E+04  0.17185249102E+04  0.57325109094E+02 0.  0.
         13    1    5    5    0    0 -0.61457593895E+02  0.27685569644E+02  0.25915563130E+02  0.72215947173E+02  0.00000000000E+00 0. -1.
        -14    1    5    5    0    0 -0.14510543358E+01 -0.21402199521E+02 -0.24515644078E+02  0.32575704253E+02  0.00000000000E+00 0.  1.
         15    1    3    3    0    0 -0.13222469737E+02 -0.15260236155E+03  0.52867327443E+03  0.55041884350E+03  0.17770000000E+01 0. -1.
        -16    1    3    3    0    0  0.82482001598E+02 -0.26979557332E+03  0.96590724842E+03  0.10062652456E+04  0.00000000000E+00 0.  1.
          4    1    6    6  502    0  0.21754426217E+02  0.13663162682E+03  0.60237210157E+03  0.61805631236E+03  0.00000000000E+00 0. -1.
         -3    1    6    6    0  502 -0.28105309847E+02  0.27948293793E+03  0.10640162188E+04  0.11004685978E+04  0.00000000000E+00 0.  1.
<mgrwt>
<rscale>  0 0.47170442E+03</rscale>
<asrwt>0</asrwt>
<pdfrwt beam="1">  1        1 0.50325911E+00 0.47170442E+03</pdfrwt>
<pdfrwt beam="2">  1       -2 0.16740917E-01 0.47170442E+03</pdfrwt>
<totfact> 0.10862610E+01</totfact>
</mgrwt>
</event>
<event>
12    3  0.1092576E-007  0.4201684E+03  0.7818608E-02  0.1037012E+00
         -2   -1    0    0    0  501 -0.00000000000E+00  0.00000000000E+00  0.25911054229E+03  0.25911054229E+03  0.00000000000E+00 0.  1.
          1   -1    0    0  501    0  0.00000000000E+00 -0.00000000000E+00 -0.12424873658E+04  0.12424873658E+04  0.00000000000E+00 0. -1.
        -24    2    1    2    0    0 -0.16179971750E+03 -0.26762094286E+03 -0.69539196845E+03  0.76619369909E+03  0.75383533393E+02 0.  0.
    5000000    2    1    2    0    0  0.16179971750E+03  0.26762094286E+03 -0.28798485506E+03  0.73540420899E+03  0.60006995944E+03 0.  0.
        -24    2    4    4    0    0 -0.13177908821E+03  0.97339104703E+02 -0.33705587187E+03  0.38317566395E+03  0.79851733134E+02 0.  0.
         24    2    4    4    0    0  0.29357880571E+03  0.17028183816E+03  0.49071016808E+02  0.35222854505E+03  0.80452244754E+02 0.  0.
         11    1    5    5    0    0 -0.25767237320E+02 -0.93179706871E+01 -0.26463212042E+02  0.38093000517E+02  0.00000000000E+00 0. -1.
        -12    1    5    5    0    0 -0.10601185089E+03  0.10665707539E+03 -0.31059265983E+03  0.34508266343E+03  0.00000000000E+00 0.  1.
         15    1    3    3    0    0 -0.64515549508E+02 -0.71833665826E+02 -0.28929467698E+03  0.30498672026E+03  0.17770000000E+01 0. -1.
        -16    1    3    3    0    0 -0.97284167995E+02 -0.19578727703E+03 -0.40609729146E+03  0.46120697883E+03  0.00000000000E+00 0.  1.
          2    1    6    6  502    0  0.21593407691E+03  0.85085473696E+02  0.17703170613E+02  0.23276697715E+03  0.00000000000E+00 0. -1.
         -1    1    6    6    0  502  0.77644728805E+02  0.85196364459E+02  0.31367846196E+02  0.11946156789E+03  0.00000000000E+00 0.  1.
<mgrwt>
<rscale>  0 0.42016835E+03</rscale>
<asrwt>0</asrwt>
<pdfrwt beam="1">  1        1 0.19115191E+00 0.42016835E+03</pdfrwt>
<pdfrwt beam="2">  1       -2 0.39863159E-01 0.42016835E+03</pdfrwt>
<totfact> 0.55392197E+01</totfact>
</mgrwt>
</event>
<event>
12    3  0.1092576E-007  0.1205171E+04  0.7818608E-02  0.9108343E-01
         -2   -1    0    0    0  501 -0.00000000000E+00  0.00000000000E+00  0.60583261531E+03  0.60583261531E+03  0.00000000000E+00 0.  1.
          1   -1    0    0  501    0  0.00000000000E+00 -0.00000000000E+00 -0.25611931077E+04  0.25611931077E+04  0.00000000000E+00 0. -1.
        -24    2    1    2    0    0 -0.77587178406E+03 -0.84880210636E+03 -0.63503990190E+03  0.13161704281E+04  0.81159581286E+02 0.  0.
    5000000    2    1    2    0    0  0.77587178406E+03  0.84880210636E+03 -0.13203205905E+04  0.18508552950E+04  0.59998068312E+03 0.  0.
        -24    2    4    4    0    0  0.50194208998E+03  0.83606735802E+03 -0.82927196044E+03  0.12825722072E+04  0.79655466828E+02 0.  0.
         24    2    4    4    0    0  0.27392969408E+03  0.12734748331E+02 -0.49104863008E+03  0.56828308780E+03  0.81346540551E+02 0.  0.
         13    1    5    5    0    0  0.21823942814E+03  0.31998956345E+03 -0.28759368677E+03  0.48242294450E+03  0.00000000000E+00 0. -1.
        -14    1    5    5    0    0  0.28370266184E+03  0.51607779457E+03 -0.54167827367E+03  0.80014926267E+03  0.00000000000E+00 0.  1.
         15    1    3    3    0    0 -0.25879570787E+03 -0.34094710568E+03 -0.23167684838E+03  0.48672113893E+03  0.17770000000E+01 0. -1.
        -16    1    3    3    0    0 -0.51707607619E+03 -0.50785500068E+03 -0.40336305352E+03  0.82944928912E+03  0.00000000000E+00 0.  1.
          2    1    6    6  502    0  0.97673161853E+02 -0.25465224600E+02 -0.22803211747E+03  0.24937355676E+03  0.00000000000E+00 0. -1.
         -1    1    6    6    0  502  0.17625653223E+03  0.38199972931E+02 -0.26301651261E+03  0.31890953104E+03  0.00000000000E+00 0.  1.
<mgrwt>
<rscale>  0 0.12051707E+04</rscale>
<asrwt>0</asrwt>
<pdfrwt beam="1">  1        1 0.39402971E+00 0.12051707E+04</pdfrwt>
<pdfrwt beam="2">  1       -2 0.93205018E-01 0.12051707E+04</pdfrwt>
<totfact> 0.10373372E+00</totfact>
</mgrwt>
</event>
<event>
12    3  0.1092576E-007  0.1019701E+04  0.7818608E-02  0.9287197E-01
          1   -1    0    0  501    0  0.00000000000E+00  0.00000000000E+00  0.27334369784E+04  0.27334369784E+04  0.00000000000E+00 0. -1.
         -2   -1    0    0    0  501 -0.00000000000E+00 -0.00000000000E+00 -0.55061939676E+03  0.55061939676E+03  0.00000000000E+00 0.  1.
        -24    2    1    2    0    0 -0.46435355151E+03 -0.83173697514E+03  0.18944902622E+04  0.21220052798E+04  0.80015231084E+02 0.  0.
    5000000    2    1    2    0    0  0.46435355151E+03  0.83173697514E+03  0.28832731946E+03  0.11620510954E+04  0.59984955494E+03 0.  0.
        -24    2    4    4    0    0 -0.36735267984E+01 -0.66696048285E+02  0.26360229656E+00  0.10549629984E+03  0.81655019058E+02 0.  0.
         24    2    4    4    0    0  0.46802707830E+03  0.89843302343E+03  0.28806371716E+03  0.10565547956E+04  0.84238276784E+02 0.  0.
         13    1    5    5    0    0 -0.11453372604E+02 -0.20006682647E+02  0.38348057685E+02  0.44743945096E+02  0.00000000000E+00 0. -1.
        -14    1    5    5    0    0  0.77798458056E+01 -0.46689365638E+02 -0.38084455388E+02  0.60752354742E+02  0.00000000000E+00 0.  1.
         15    1    3    3    0    0 -0.27691507400E+03 -0.49844887455E+03  0.10457109464E+04  0.11910700147E+04  0.17770000000E+01 0. -1.
        -16    1    3    3    0    0 -0.18743847750E+03 -0.33328810059E+03  0.84877931577E+03  0.93093526505E+03  0.00000000000E+00 0.  1.
          2    1    6    6  502    0  0.39168506441E+03  0.80908471607E+03  0.25004132944E+03  0.93303586956E+03  0.00000000000E+00 0. -1.
         -1    1    6    6    0  502  0.76342013897E+02  0.89348307362E+02  0.38022387721E+02  0.12351892601E+03  0.00000000000E+00 0.  1.
<mgrwt>
<rscale>  0 0.10197011E+04</rscale>
<asrwt>0</asrwt>
<pdfrwt beam="1">  1        1 0.42052876E+00 0.10197011E+04</pdfrwt>
<pdfrwt beam="2">  1       -2 0.84710678E-01 0.10197011E+04</pdfrwt>
<totfact> 0.10061116E+00</totfact>
</mgrwt>
</event>
<event>
12    3  0.1092576E-007  0.6102098E+03  0.7818608E-02  0.9884448E-01
          1   -1    0    0  501    0  0.00000000000E+00  0.00000000000E+00  0.10956821693E+04  0.10956821693E+04  0.00000000000E+00 0. -1.
         -2   -1    0    0    0  501 -0.00000000000E+00 -0.00000000000E+00 -0.49909588801E+03  0.49909588801E+03  0.00000000000E+00 0.  1.
        -24    2    1    2    0    0 -0.33716136234E+03 -0.46754532566E+03  0.48014341693E+03  0.75474170843E+03  0.82588920651E+02 0.  0.
    5000000    2    1    2    0    0  0.33716136234E+03  0.46754532566E+03  0.11644286439E+03  0.84003634891E+03  0.59985474161E+03 0.  0.
        -24    2    4    4    0    0  0.36825250258E+03  0.36901304508E+03 -0.14474775657E+03  0.54687130282E+03  0.79597586119E+02 0.  0.
         24    2    4    4    0    0 -0.31091140240E+02  0.98532280578E+02  0.26119062096E+03  0.29316504610E+03  0.83963887837E+02 0.  0.
         11    1    5    5    0    0  0.13652922874E+03  0.11712329986E+03 -0.86824542586E+02  0.19974132989E+03  0.00000000000E+00 0. -1.
        -12    1    5    5    0    0  0.23172327384E+03  0.25188974522E+03 -0.57923213984E+02  0.34712997293E+03  0.00000000000E+00 0.  1.
         15    1    3    3    0    0 -0.19672031552E+03 -0.32251341299E+03  0.27793776951E+03  0.46900569884E+03  0.17770000000E+01 0. -1.
        -16    1    3    3    0    0 -0.14044104682E+03 -0.14503191267E+03  0.20220564742E+03  0.28573600959E+03  0.00000000000E+00 0.  1.
          4    1    6    6  502    0 -0.24340359900E+02  0.50205246328E+01  0.13409496276E+02  0.28239571138E+02  0.00000000000E+00 0. -1.
         -3    1    6    6    0  502 -0.67507803398E+01  0.93511755945E+02  0.24778112468E+03  0.26492547496E+03  0.00000000000E+00 0.  1.
<mgrwt>
<rscale>  0 0.61020979E+03</rscale>
<asrwt>0</asrwt>
<pdfrwt beam="1">  1        1 0.16856649E+00 0.61020979E+03</pdfrwt>
<pdfrwt beam="2">  1       -2 0.76783983E-01 0.61020979E+03</pdfrwt>
<totfact> 0.17700894E+01</totfact>
</mgrwt>
</event>
<event>
12    3  0.1092576E-007  0.2686763E+03  0.7818608E-02  0.1102040E+00
         -2   -1    0    0    0  501 -0.00000000000E+00  0.00000000000E+00  0.13524179411E+03  0.13524179411E+03  0.00000000000E+00 0.  1.
          1   -1    0    0  501    0  0.00000000000E+00 -0.00000000000E+00 -0.21033674452E+04  0.21033674452E+04  0.00000000000E+00 0. -1.
        -24    2    1    2    0    0 -0.13887792236E+03  0.11838824720E+03 -0.29709460695E+02  0.20127944795E+03  0.79548159737E+02 0.  0.
    5000000    2    1    2    0    0  0.13887792236E+03 -0.11838824720E+03 -0.19384161904E+04  0.20373297913E+04  0.59996041300E+03 0.  0.
        -24    2    4    4    0    0 -0.33253538728E+02  0.60962006692E+02 -0.35805193180E+02  0.11691873834E+03  0.86981695881E+02 0.  0.
         24    2    4    4    0    0  0.17213146109E+03 -0.17935025390E+03 -0.19026109972E+04  0.19204110530E+04  0.79083831231E+02 0.  0.
         13    1    5    5    0    0 -0.36705831301E+02 -0.88378880694E+00  0.12050761550E+02  0.38643498653E+02  0.00000000000E+00 0. -1.
        -14    1    5    5    0    0  0.34522925735E+01  0.61845795499E+02 -0.47855954729E+02  0.78275239687E+02  0.00000000000E+00 0.  1.
         15    1    3    3    0    0 -0.11480931089E+03  0.98679383258E+02 -0.55110032683E+02  0.16111819257E+03  0.17770000000E+01 0. -1.
        -16    1    3    3    0    0 -0.24068611470E+02  0.19708863947E+02  0.25400571987E+02  0.40161255377E+02  0.00000000000E+00 0.  1.
          4    1    6    6  502    0  0.13648245779E+03 -0.10000360206E+03 -0.14175426414E+04  0.14276047499E+04  0.00000000000E+00 0. -1.
         -3    1    6    6    0  502  0.35649003300E+02 -0.79346651833E+02 -0.48506835575E+03  0.49280630307E+03  0.00000000000E+00 0.  1.
<mgrwt>
<rscale>  0 0.26867634E+03</rscale>
<asrwt>0</asrwt>
<pdfrwt beam="1">  1        1 0.32359500E+00 0.26867634E+03</pdfrwt>
<pdfrwt beam="2">  1       -2 0.20806429E-01 0.26867634E+03</pdfrwt>
<totfact> 0.50265393E+01</totfact>
</mgrwt>
</event>
<event>
12    3  0.1092576E-007  0.6969896E+03  0.7818608E-02  0.9722394E-01
          1   -1    0    0  501    0  0.00000000000E+00  0.00000000000E+00  0.44531788424E+03  0.44531788424E+03  0.00000000000E+00 0. -1.
         -2   -1    0    0    0  501 -0.00000000000E+00 -0.00000000000E+00 -0.12603919504E+04  0.12603919504E+04  0.00000000000E+00 0.  1.
        -24    2    1    2    0    0  0.26325640453E+03 -0.54571088656E+03 -0.52391702567E+03  0.80467489269E+03  0.76865641872E+02 0.  0.
    5000000    2    1    2    0    0 -0.26325640453E+03  0.54571088656E+03 -0.29115704048E+03  0.90103494194E+03  0.59998936502E+03 0.  0.
        -24    2    4    4    0    0 -0.28148267592E+03  0.62178674272E+03 -0.35123020508E+03  0.77173417656E+03  0.79747928206E+02 0.  0.
         24    2    4    4    0    0  0.18226271397E+02 -0.76075856161E+02  0.60073164597E+02  0.12930076537E+03  0.83607236302E+02 0.  0.
         13    1    5    5    0    0 -0.24655203734E+03  0.51917392178E+03 -0.26341687855E+03  0.63223248894E+03  0.00000000000E+00 0. -1.
        -14    1    5    5    0    0 -0.34930638588E+02  0.10261282094E+03 -0.87813326528E+02  0.13950168762E+03  0.00000000000E+00 0.  1.
         15    1    3    3    0    0  0.12514001276E+03 -0.18659993284E+03 -0.16804612855E+03  0.28057479712E+03  0.17770000000E+01 0. -1.
        -16    1    3    3    0    0  0.13811639177E+03 -0.35911095372E+03 -0.35587089712E+03  0.52410009557E+03  0.00000000000E+00 0.  1.
          2    1    6    6  502    0 -0.21139030484E+02 -0.49722730570E+02  0.61557232581E+02  0.81905441993E+02  0.00000000000E+00 0. -1.
         -1    1    6    6    0  502  0.39365301882E+02 -0.26353125591E+02 -0.14840679833E+01  0.47395323382E+02  0.00000000000E+00 0.  1.
<mgrwt>
<rscale>  0 0.69698958E+03</rscale>
<asrwt>0</asrwt>
<pdfrwt beam="1">  1        1 0.68510446E-01 0.69698958E+03</pdfrwt>
<pdfrwt beam="2">  1       -2 0.19390645E+00 0.69698958E+03</pdfrwt>
<totfact> 0.68282252E+00</totfact>
</mgrwt>
</event>
<event>
12    3  0.1092576E-007  0.6038503E+03  0.7818608E-02  0.9897450E-01
         -2   -1    0    0    0  501 -0.00000000000E+00  0.00000000000E+00  0.28151022594E+04  0.28151022594E+04  0.00000000000E+00 0.  1.
          1   -1    0    0  501    0  0.00000000000E+00 -0.00000000000E+00 -0.17229913076E+03  0.17229913076E+03  0.00000000000E+00 0. -1.
        -24    2    1    2    0    0 -0.12045457724E+03  0.50543569395E+03  0.60941036270E+03  0.80455367434E+03  0.77143235800E+02 0.  0.
    5000000    2    1    2    0    0  0.12045457724E+03 -0.50543569395E+03  0.20333927660E+04  0.21828477159E+04  0.60013620454E+03 0.  0.
        -24    2    4    4    0    0  0.25386007772E+03 -0.48235289780E+03  0.10367174012E+04  0.11739176495E+04  0.78679225920E+02 0.  0.
         24    2    4    4    0    0 -0.13340550047E+03 -0.23082796147E+02  0.99667536475E+03  0.10089300664E+04  0.79045892887E+02 0.  0.
         11    1    5    5    0    0  0.88893325699E+02 -0.13993824976E+03  0.24676373290E+03  0.29728282320E+03  0.00000000000E+00 0. -1.
        -12    1    5    5    0    0  0.16496675202E+03 -0.34241464805E+03  0.78995366834E+03  0.87663482625E+03  0.00000000000E+00 0.  1.
         15    1    3    3    0    0 -0.33292815408E+02  0.30323853852E+03  0.34924913572E+03  0.46372420611E+03  0.17770000000E+01 0. -1.
        -16    1    3    3    0    0 -0.87161761836E+02  0.20219715543E+03  0.26016122698E+03  0.34082946823E+03  0.00000000000E+00 0.  1.
          4    1    6    6  502    0 -0.11940909592E+03 -0.26189858314E+02  0.97681815896E+03  0.98443799019E+03  0.00000000000E+00 0. -1.
         -3    1    6    6    0  502 -0.13996404555E+02  0.31070621668E+01  0.19857205793E+02  0.24492076222E+02  0.00000000000E+00 0.  1.
<mgrwt>
<rscale>  0 0.60385035E+03</rscale>
<asrwt>0</asrwt>
<pdfrwt beam="1">  1        1 0.26507561E-01 0.60385035E+03</pdfrwt>
<pdfrwt beam="2">  1       -2 0.43309262E+00 0.60385035E+03</pdfrwt>
<totfact> 0.77674354E-01</totfact>
</mgrwt>
</event>
<event>
12    3  0.1092576E-007  0.1698221E+04  0.7818608E-02  0.8762379E-01
         -2   -1    0    0    0  501 -0.00000000000E+00  0.00000000000E+00  0.82758937374E+03  0.82758937374E+03  0.00000000000E+00 0.  1.
          1   -1    0    0  501    0  0.00000000000E+00 -0.00000000000E+00 -0.36830446196E+04  0.36830446196E+04  0.00000000000E+00 0. -1.
        -24    2    1    2    0    0  0.15971548210E+04 -0.46972755407E+03 -0.98603883695E+03  0.19365209741E+04  0.79330937726E+02 0.  0.
    5000000    2    1    2    0    0 -0.15971548210E+04  0.46972755407E+03 -0.18694164090E+04  0.25741130193E+04  0.59982716574E+03 0.  0.
        -24    2    4    4    0    0 -0.27286366426E+03 -0.93430627303E+02 -0.16815045200E+03  0.34440324929E+03  0.84588191988E+02 0.  0.
         24    2    4    4    0    0 -0.13242911568E+04  0.56315818138E+03 -0.17012659570E+04  0.22297097700E+04  0.80034974274E+02 0.  0.
         11    1    5    5    0    0 -0.44529983041E+02 -0.17521455094E+02  0.47735314140E+01  0.48090616345E+02  0.00000000000E+00 0. -1.
        -12    1    5    5    0    0 -0.22833368121E+03 -0.75909172208E+02 -0.17292398342E+03  0.29631263295E+03  0.00000000000E+00 0.  1.
         15    1    3    3    0    0  0.99365647345E+03 -0.33217070224E+03 -0.62019092395E+03  0.12175099599E+04  0.17770000000E+01 0. -1.
        -16    1    3    3    0    0  0.60349834756E+03 -0.13755685183E+03 -0.36584791300E+03  0.71901101413E+03  0.00000000000E+00 0.  1.
          4    1    6    6  502    0 -0.99609281414E+03  0.38551844052E+03 -0.12597212203E+04  0.16515819433E+04  0.00000000000E+00 0. -1.
         -3    1    6    6    0  502 -0.32819834262E+03  0.17763974086E+03 -0.44154473662E+03  0.57812782675E+03  0.00000000000E+00 0.  1.
<mgrwt>
<rscale>  0 0.16982214E+04</rscale>
<asrwt>0</asrwt>
<pdfrwt beam="1">  1        1 0.56662225E+00 0.16982214E+04</pdfrwt>
<pdfrwt beam="2">  1       -2 0.12732144E+00 0.16982214E+04</pdfrwt>
<totfact> 0.66961516E-02</totfact>
</mgrwt>
</event>
<event>
12    3  0.1092576E-007  0.2437366E+04  0.7818608E-02  0.8425645E-01
         -2   -1    0    0    0  501 -0.00000000000E+00  0.00000000000E+00  0.21592403063E+04  0.21592403063E+04  0.00000000000E+00 0.  1.
          1   -1    0    0  501    0  0.00000000000E+00 -0.00000000000E+00 -0.32256633539E+04  0.32256633539E+04  0.00000000000E+00 0. -1.
        -24    2    1    2    0    0  0.38324478362E+03 -0.24017361738E+04  0.42376232728E+03  0.24700456085E+04  0.79608952163E+02 0.  0.
    5000000    2    1    2    0    0 -0.38324478362E+03  0.24017361738E+04 -0.14901853748E+04  0.29148580517E+04  0.60044300123E+03 0.  0.
        -24    2    4    4    0    0 -0.20839088067E+03  0.82017558625E+03 -0.83677558671E+03  0.11928985599E+04  0.81846443596E+02 0.  0.
         24    2    4    4    0    0 -0.17485390295E+03  0.15815605875E+04 -0.65340978809E+03  0.17219594918E+04  0.79324402095E+02 0.  0.
         13    1    5    5    0    0 -0.20945325638E+03  0.82151964172E+03 -0.83210723982E+03  0.11879257750E+04  0.00000000000E+00 0. -1.
        -14    1    5    5    0    0  0.10623757156E+01 -0.13440554675E+01 -0.46683468913E+01  0.49727849298E+01  0.00000000000E+00 0.  1.
         15    1    3    3    0    0  0.14417073442E+03 -0.77629190590E+03  0.16947231873E+03  0.80755083331E+03  0.17770000000E+01 0. -1.
        -16    1    3    3    0    0  0.23907404920E+03 -0.16254442679E+04  0.25429000855E+03  0.16624947752E+04  0.00000000000E+00 0.  1.
          4    1    6    6  502    0 -0.14563518140E+03  0.10138712530E+04 -0.43986224800E+03  0.11147301561E+04  0.00000000000E+00 0. -1.
         -3    1    6    6    0  502 -0.29218721553E+02  0.56768933449E+03 -0.21354754009E+03  0.60722933564E+03  0.00000000000E+00 0.  1.
<mgrwt>
<rscale>  0 0.24373658E+04</rscale>
<asrwt>0</asrwt>
<pdfrwt beam="1">  1        1 0.49625590E+00 0.24373658E+04</pdfrwt>
<pdfrwt beam="2">  1       -2 0.33219082E+00 0.24373658E+04</pdfrwt>
<totfact> 0.60443063E-03</totfact>
</mgrwt>
</event>
<event>
12    3  0.1092576E-007  0.1438445E+04  0.7818608E-02  0.8926451E-01
          1   -1    0    0  501    0  0.00000000000E+00  0.00000000000E+00  0.12237195748E+04  0.12237195748E+04  0.00000000000E+00 0. -1.
         -2   -1    0    0    0  501 -0.00000000000E+00 -0.00000000000E+00 -0.19651317272E+04  0.19651317272E+04  0.00000000000E+00 0.  1.
        -24    2    1    2    0    0  0.73531954998E+03 -0.12269281981E+04 -0.79219108516E+03  0.16368703101E+04  0.75697113647E+02 0.  0.
    5000000    2    1    2    0    0 -0.73531954998E+03  0.12269281981E+04  0.50778932726E+02  0.15519809918E+04  0.60001571246E+03 0.  0.
        -24    2    4    4    0    0 -0.19718813163E+03  0.18615460485E+03 -0.20603074052E+03  0.34975047439E+03  0.79624318743E+02 0.  0.
         24    2    4    4    0    0 -0.53813141836E+03  0.10407735932E+04  0.25680967324E+03  0.12022305174E+04  0.81313670699E+02 0.  0.
         13    1    5    5    0    0 -0.69334305590E+02  0.48685926845E+02 -0.11010924632E+03  0.13893023980E+03  0.00000000000E+00 0. -1.
        -14    1    5    5    0    0 -0.12785382604E+03  0.13746867800E+03 -0.95921494197E+02  0.21082023459E+03  0.00000000000E+00 0.  1.
         15    1    3    3    0    0  0.23806479870E+03 -0.41664851159E+03 -0.22688165134E+03  0.53080059536E+03  0.17770000000E+01 0. -1.
        -16    1    3    3    0    0  0.49725475128E+03 -0.81027968647E+03 -0.56530943382E+03  0.11060697148E+04  0.00000000000E+00 0.  1.
          4    1    6    6  502    0 -0.29314686312E+03  0.64367023415E+03  0.17363630995E+03  0.72828292705E+03  0.00000000000E+00 0. -1.
         -3    1    6    6    0  502 -0.24498455523E+03  0.39710335906E+03  0.83173363292E+02  0.47394759039E+03  0.00000000000E+00 0.  1.
<mgrwt>
<rscale>  0 0.14384446E+04</rscale>
<asrwt>0</asrwt>
<pdfrwt beam="1">  1        1 0.18826455E+00 0.14384446E+04</pdfrwt>
<pdfrwt beam="2">  1       -2 0.30232795E+00 0.14384446E+04</pdfrwt>
<totfact> 0.26362237E-01</totfact>
</mgrwt>
</event>
<event>
12    3  0.1092576E-007  0.1113685E+04  0.7818608E-02  0.9191955E-01
         -2   -1    0    0    0  501 -0.00000000000E+00  0.00000000000E+00  0.14987852070E+04  0.14987852070E+04  0.00000000000E+00 0.  1.
          1   -1    0    0  501    0  0.00000000000E+00 -0.00000000000E+00 -0.89700184095E+03  0.89700184095E+03  0.00000000000E+00 0. -1.
        -24    2    1    2    0    0 -0.99899375384E+03 -0.28406501370E+03 -0.25235017665E+02  0.10421925957E+04  0.82747497026E+02 0.  0.
    5000000    2    1    2    0    0  0.99899375384E+03  0.28406501370E+03  0.62701838374E+03  0.13535944522E+04  0.60032027734E+03 0.  0.
        -24    2    4    4    0    0  0.14461143432E+03 -0.16226893941E+03  0.16253620663E+03  0.28124323206E+03  0.73729651304E+02 0.  0.
         24    2    4    4    0    0  0.85438231953E+03  0.44633395311E+03  0.46448217712E+03  0.10723512202E+04  0.70783479470E+02 0.  0.
         13    1    5    5    0    0  0.10962801112E+03 -0.90310571126E+02  0.68248178040E+02  0.15758208618E+03  0.00000000000E+00 0. -1.
        -14    1    5    5    0    0  0.34983423194E+02 -0.71958368288E+02  0.94288028586E+02  0.12366114588E+03  0.00000000000E+00 0.  1.
         15    1    3    3    0    0 -0.18975926909E+03 -0.68795935535E+02  0.24527547168E+02  0.20333769757E+03  0.17770000000E+01 0. -1.
        -16    1    3    3    0    0 -0.80923448475E+03 -0.21526907816E+03 -0.49762564832E+02  0.83885489817E+03  0.00000000000E+00 0.  1.
          4    1    6    6  502    0  0.48577862820E+03  0.21761817112E+03  0.27207355092E+03  0.59779809395E+03  0.00000000000E+00 0. -1.
         -3    1    6    6    0  502  0.36860369132E+03  0.22871578199E+03  0.19240862620E+03  0.47455312624E+03  0.00000000000E+00 0.  1.
<mgrwt>
<rscale>  0 0.11136853E+04</rscale>
<asrwt>0</asrwt>
<pdfrwt beam="1">  1        1 0.13800028E+00 0.11136853E+04</pdfrwt>
<pdfrwt beam="2">  1       -2 0.23058234E+00 0.11136853E+04</pdfrwt>
<totfact> 0.13410596E+00</totfact>
</mgrwt>
</event>
<event>
12    3  0.1092576E-007  0.7939860E+03  0.7818608E-02  0.9568763E-01
         -2   -1    0    0    0  501 -0.00000000000E+00  0.00000000000E+00  0.56250885113E+03  0.56250885113E+03  0.00000000000E+00 0.  1.
          1   -1    0    0  501    0  0.00000000000E+00 -0.00000000000E+00 -0.17096666402E+04  0.17096666402E+04  0.00000000000E+00 0. -1.
        -24    2    1    2    0    0  0.54840155587E+03 -0.42160707036E+03  0.12227367835E+03  0.70692107969E+03  0.79308084306E+02 0.  0.
    5000000    2    1    2    0    0 -0.54840155587E+03  0.42160707036E+03 -0.12694314674E+04  0.15652544116E+04  0.60005694266E+03 0.  0.
        -24    2    4    4    0    0 -0.15100410644E+02  0.33864961458E+03 -0.33414583485E+03  0.48241972380E+03  0.78509662505E+02 0.  0.
         24    2    4    4    0    0 -0.53330114523E+03  0.82957455785E+02 -0.93528563253E+03  0.10828346878E+04  0.80496557367E+02 0.  0.
         11    1    5    5    0    0  0.28208993531E+02  0.12662913148E+03 -0.14958669740E+03  0.19800723293E+03  0.00000000000E+00 0. -1.
        -12    1    5    5    0    0 -0.43309404175E+02  0.21202048310E+03 -0.18455913745E+03  0.28441249087E+03  0.00000000000E+00 0.  1.
         15    1    3    3    0    0  0.24120776157E+03 -0.23526859826E+03  0.56206191284E+02  0.34160619320E+03  0.17770000000E+01 0. -1.
        -16    1    3    3    0    0  0.30719379430E+03 -0.18633847211E+03  0.66067487063E+02  0.36531488649E+03  0.00000000000E+00 0.  1.
          4    1    6    6  502    0 -0.26165500651E+03  0.81137313861E+02 -0.45999305262E+03  0.53538791039E+03  0.00000000000E+00 0. -1.
         -3    1    6    6    0  502 -0.27164613872E+03  0.18201419240E+01 -0.47529257991E+03  0.54744677743E+03  0.00000000000E+00 0.  1.
<mgrwt>
<rscale>  0 0.79398598E+03</rscale>
<asrwt>0</asrwt>
<pdfrwt beam="1">  1        1 0.26302564E+00 0.79398598E+03</pdfrwt>
<pdfrwt beam="2">  1       -2 0.86539824E-01 0.79398598E+03</pdfrwt>
<totfact> 0.49098306E+00</totfact>
</mgrwt>
</event>
<event>
12    3  0.1092576E-007  0.5560357E+03  0.7818608E-02  0.1000106E+00
         -2   -1    0    0    0  501 -0.00000000000E+00  0.00000000000E+00  0.27773045225E+03  0.27773045225E+03  0.00000000000E+00 0.  1.
          1   -1    0    0  501    0  0.00000000000E+00 -0.00000000000E+00 -0.11731510775E+04  0.11731510775E+04  0.00000000000E+00 0. -1.
        -24    2    1    2    0    0 -0.37035954785E+03  0.16207459551E+03 -0.40175219312E+03  0.57503614092E+03  0.76337209100E+02 0.  0.
    5000000    2    1    2    0    0  0.37035954785E+03 -0.16207459551E+03 -0.49366843217E+03  0.87584538887E+03  0.59996854508E+03 0.  0.
        -24    2    4    4    0    0 -0.12881504304E+03 -0.15139798787E+03 -0.18259465146E+03  0.28222029239E+03  0.82418569828E+02 0.  0.
         24    2    4    4    0    0  0.49917459089E+03 -0.10676607632E+02 -0.31107378071E+03  0.59362509647E+03  0.79590175148E+02 0.  0.
         13    1    5    5    0    0 -0.72882992063E+02 -0.51420237735E+02 -0.12618037160E+03  0.15452332367E+03  0.00000000000E+00 0. -1.
        -14    1    5    5    0    0 -0.55932050972E+02 -0.99977750139E+02 -0.56414279857E+02  0.12769696872E+03  0.00000000000E+00 0.  1.
         15    1    3    3    0    0 -0.13846761218E+03  0.43040778061E+02 -0.99260642726E+02  0.17573167365E+03  0.17770000000E+01 0. -1.
        -16    1    3    3    0    0 -0.23189193567E+03  0.11903381744E+03 -0.30249155039E+03  0.39930446727E+03  0.00000000000E+00 0.  1.
          2    1    6    6  502    0  0.17727997993E+03 -0.31578635216E+02 -0.14267025074E+03  0.22973942181E+03  0.00000000000E+00 0. -1.
         -1    1    6    6    0  502  0.32189461096E+03  0.20902027584E+02 -0.16840352996E+03  0.36388567467E+03  0.00000000000E+00 0.  1.
<mgrwt>
<rscale>  0 0.55603567E+03</rscale>
<asrwt>0</asrwt>
<pdfrwt beam="1">  1        1 0.18048478E+00 0.55603567E+03</pdfrwt>
<pdfrwt beam="2">  1       -2 0.42727762E-01 0.55603567E+03</pdfrwt>
<totfact> 0.53170716E+01</totfact>
</mgrwt>
</event>
<event>
12    3  0.1092576E-007  0.9068298E+03  0.7818608E-02  0.9417084E-01
          3   -1    0    0  501    0  0.00000000000E+00  0.00000000000E+00  0.49846333834E+03  0.49846333834E+03  0.00000000000E+00 0. -1.
         -4   -1    0    0    0  501 -0.00000000000E+00 -0.00000000000E+00 -0.20281219793E+04  0.20281219793E+04  0.00000000000E+00 0.  1.
        -24    2    1    2    0    0 -0.40666051107E+03 -0.71637776270E+03 -0.11952284461E+04  0.14538208218E+04  0.80337246995E+02 0.  0.
    5000000    2    1    2    0    0  0.40666051107E+03  0.71637776270E+03 -0.33443019478E+03  0.10727644958E+04  0.60034176777E+03 0.  0.
        -24    2    4    4    0    0 -0.12322048126E+03  0.17371586778E+03 -0.19064462376E+03  0.29677611948E+03  0.79813550270E+02 0.  0.
         24    2    4    4    0    0  0.52988099233E+03  0.54266189492E+03 -0.14378557102E+03  0.77598837633E+03  0.78916864676E+02 0.  0.
         13    1    5    5    0    0 -0.10302582182E+03  0.79440604505E+02 -0.12266144272E+03  0.17880424809E+03  0.00000000000E+00 0. -1.
        -14    1    5    5    0    0 -0.20194659441E+02  0.94275263274E+02 -0.67983181039E+02  0.11797187139E+03  0.00000000000E+00 0.  1.
         15    1    3    3    0    0 -0.11292807237E+03 -0.26470652462E+03 -0.38115372722E+03  0.47760194221E+03  0.17770000000E+01 0. -1.
        -16    1    3    3    0    0 -0.29373243870E+03 -0.45167123808E+03 -0.81407471892E+03  0.97621887958E+03  0.00000000000E+00 0.  1.
          2    1    6    6  502    0  0.37485599079E+03  0.34575895069E+03 -0.12254143105E+03  0.52448323914E+03  0.00000000000E+00 0. -1.
         -1    1    6    6    0  502  0.15502500154E+03  0.19690294423E+03 -0.21244139971E+02  0.25150513719E+03  0.00000000000E+00 0.  1.
<mgrwt>
<rscale>  0 0.90682977E+03</rscale>
<asrwt>0</asrwt>
<pdfrwt beam="1">  1        3 0.76686665E-01 0.90682977E+03</pdfrwt>
<pdfrwt beam="2">  1       -4 0.31201878E+00 0.90682977E+03</pdfrwt>
<totfact> 0.94598425E-02</totfact>
</mgrwt>
</event>
<event>
12    3  0.1092576E-007  0.1049847E+04  0.7818608E-02  0.9255502E-01
         -2   -1    0    0    0  501 -0.00000000000E+00  0.00000000000E+00  0.85547840618E+03  0.85547840618E+03  0.00000000000E+00 0.  1.
          1   -1    0    0  501    0  0.00000000000E+00 -0.00000000000E+00 -0.17156884719E+04  0.17156884719E+04  0.00000000000E+00 0. -1.
        -24    2    1    2    0    0  0.89092654006E+03 -0.53648725768E+03 -0.88819321072E+03  0.13701892308E+04  0.83442622709E+02 0.  0.
    5000000    2    1    2    0    0 -0.89092654006E+03  0.53648725768E+03  0.27983144946E+02  0.12009776473E+04  0.59999631287E+03 0.  0.
        -24    2    4    4    0    0 -0.27247554754E+03  0.23207357467E+03 -0.25997644167E+03  0.44951150990E+03  0.79823425402E+02 0.  0.
         24    2    4    4    0    0 -0.61845099252E+03  0.30441368301E+03  0.28795958662E+03  0.75146613739E+03  0.81432865397E+02 0.  0.
         13    1    5    5    0    0 -0.12025208154E+03  0.15073594860E+03 -0.11834387071E+03  0.22624579786E+03  0.00000000000E+00 0. -1.
        -14    1    5    5    0    0 -0.15222346601E+03  0.81337626068E+02 -0.14163257096E+03  0.22326571204E+03  0.00000000000E+00 0.  1.
         15    1    3    3    0    0  0.12820624632E+03 -0.10377863460E+03 -0.16793773652E+03  0.23539984637E+03  0.17770000000E+01 0. -1.
        -16    1    3    3    0    0  0.76272029375E+03 -0.43270862307E+03 -0.72025547420E+03  0.11347893845E+04  0.00000000000E+00 0.  1.
          2    1    6    6  502    0 -0.51226332908E+03  0.27861942501E+03  0.26121905563E+03  0.63896627246E+03  0.00000000000E+00 0. -1.
         -1    1    6    6    0  502 -0.10618766344E+03  0.25794257999E+02  0.26740530985E+02  0.11249986493E+03  0.00000000000E+00 0.  1.
<mgrwt>
<rscale>  0 0.10498469E+04</rscale>
<asrwt>0</asrwt>
<pdfrwt beam="1">  1        1 0.26395207E+00 0.10498469E+04</pdfrwt>
<pdfrwt beam="2">  1       -2 0.13161206E+00 0.10498469E+04</pdfrwt>
<totfact> 0.17078531E+00</totfact>
</mgrwt>
</event>
<event>
12    3  0.1092576E-007  0.9118051E+03  0.7818608E-02  0.9410944E-01
          1   -1    0    0  501    0  0.00000000000E+00  0.00000000000E+00  0.92635074895E+03  0.92635074895E+03  0.00000000000E+00 0. -1.
         -2   -1    0    0    0  501 -0.00000000000E+00 -0.00000000000E+00 -0.94015714133E+03  0.94015714133E+03  0.00000000000E+00 0.  1.
        -24    2    1    2    0    0 -0.56936765668E+03  0.59615547486E+03 -0.13715540965E+03  0.83946155142E+03  0.79392765641E+02 0.  0.
    5000000    2    1    2    0    0  0.56936765668E+03 -0.59615547486E+03  0.12334901728E+03  0.10270463389E+04  0.60002360239E+03 0.  0.
        -24    2    4    4    0    0  0.65018518950E+03 -0.61305443457E+03  0.14844794904E+03  0.90944666701E+03  0.80497988519E+02 0.  0.
         24    2    4    4    0    0 -0.80817532821E+02  0.16898959713E+02 -0.25098931759E+02  0.11759967185E+03  0.79891664108E+02 0.  0.
         11    1    5    5    0    0  0.24272220968E+03 -0.27805761366E+03  0.43931433269E+02  0.37169890828E+03  0.00000000000E+00 0. -1.
        -12    1    5    5    0    0  0.40746297982E+03 -0.33499682091E+03  0.10451651577E+03  0.53774775872E+03  0.00000000000E+00 0.  1.
         15    1    3    3    0    0 -0.33814623823E+03  0.38376935097E+03 -0.51824294850E+02  0.51411157198E+03  0.17770000000E+01 0. -1.
        -16    1    3    3    0    0 -0.23122141845E+03  0.21238612389E+03 -0.85331114801E+02  0.32534997944E+03  0.00000000000E+00 0.  1.
          4    1    6    6  502    0 -0.68022778337E+02 -0.12814199910E+02 -0.42137426262E+02  0.81036194284E+02  0.00000000000E+00 0. -1.
         -3    1    6    6    0  502 -0.12794754484E+02  0.29713159622E+02  0.17038494504E+02  0.36563477570E+02  0.00000000000E+00 0.  1.
<mgrwt>
<rscale>  0 0.91180509E+03</rscale>
<asrwt>0</asrwt>
<pdfrwt beam="1">  1        1 0.14251550E+00 0.91180509E+03</pdfrwt>
<pdfrwt beam="2">  1       -2 0.14463956E+00 0.91180509E+03</pdfrwt>
<totfact> 0.50322113E+00</totfact>
</mgrwt>
</event>
<event>
12    3  0.1092576E-007  0.8098178E+03  0.7818608E-02  0.9545914E-01
         -2   -1    0    0    0  501 -0.00000000000E+00  0.00000000000E+00  0.42368513849E+03  0.42368513849E+03  0.00000000000E+00 0.  1.
          1   -1    0    0  501    0  0.00000000000E+00 -0.00000000000E+00 -0.16517512199E+04  0.16517512199E+04  0.00000000000E+00 0. -1.
        -24    2    1    2    0    0  0.20478983078E+03  0.68059992151E+03 -0.72362708424E+03  0.10172331801E+04  0.77279090025E+02 0.  0.
    5000000    2    1    2    0    0 -0.20478983078E+03 -0.68059992151E+03 -0.50443899714E+03  0.10582031782E+04  0.60015009506E+03 0.  0.
        -24    2    4    4    0    0  0.10790693070E+03 -0.54169732273E+03 -0.41462546660E+03  0.69559113402E+03  0.82781960767E+02 0.  0.
         24    2    4    4    0    0 -0.31269676148E+03 -0.13890259879E+03 -0.89813530542E+02  0.36261204420E+03  0.79673256139E+02 0.  0.
         11    1    5    5    0    0  0.41469264869E+02 -0.81403748454E+02 -0.46787510674E+02  0.10264181091E+03  0.00000000000E+00 0. -1.
        -12    1    5    5    0    0  0.66437665827E+02 -0.46029357427E+03 -0.36783795593E+03  0.59294932311E+03  0.00000000000E+00 0.  1.
         15    1    3    3    0    0  0.51807821443E+02  0.10585400054E+03 -0.90818985863E+02  0.14879639013E+03  0.17770000000E+01 0. -1.
        -16    1    3    3    0    0  0.15298200934E+03  0.57474592098E+03 -0.63280809837E+03  0.86843679000E+03  0.00000000000E+00 0.  1.
          2    1    6    6  502    0 -0.30618902780E+03 -0.11706514646E+03 -0.89580211741E+02  0.33982434227E+03  0.00000000000E+00 0. -1.
         -1    1    6    6    0  502 -0.65077336746E+01 -0.21837452329E+02 -0.23331880108E+00  0.22787701934E+02  0.00000000000E+00 0.  1.
<mgrwt>
<rscale>  0 0.80981785E+03</rscale>
<asrwt>0</asrwt>
<pdfrwt beam="1">  1        1 0.25411558E+00 0.80981785E+03</pdfrwt>
<pdfrwt beam="2">  1       -2 0.65182328E-01 0.80981785E+03</pdfrwt>
<totfact> 0.10056132E+01</totfact>
</mgrwt>
</event>
<event>
12    3  0.1092576E-007  0.8157590E+03  0.7818608E-02  0.9537483E-01
          1   -1    0    0  501    0  0.00000000000E+00  0.00000000000E+00  0.25792364609E+04  0.25792364609E+04  0.00000000000E+00 0. -1.
         -2   -1    0    0    0  501 -0.00000000000E+00 -0.00000000000E+00 -0.33215513870E+03  0.33215513870E+03  0.00000000000E+00 0.  1.
        -24    2    1    2    0    0 -0.47261571570E+03  0.53152634029E+03  0.34629431066E+03  0.79507619554E+03  0.79627520119E+02 0.  0.
    5000000    2    1    2    0    0  0.47261571570E+03 -0.53152634029E+03  0.19007870116E+04  0.21163154041E+04  0.59992812991E+03 0.  0.
        -24    2    4    4    0    0  0.38712369511E+03 -0.12315870358E+02  0.72811011215E+03  0.82862057938E+03  0.80319942574E+02 0.  0.
         24    2    4    4    0    0  0.85492020591E+02 -0.51921046994E+03  0.11726768994E+04  0.12876948247E+04  0.78092595475E+02 0.  0.
         11    1    5    5    0    0  0.33057843414E+03 -0.11299801175E+02  0.67178636648E+03  0.74880351816E+03  0.00000000000E+00 0. -1.
        -12    1    5    5    0    0  0.56545260970E+02 -0.10160691829E+01  0.56323745673E+02  0.79817061217E+02  0.00000000000E+00 0.  1.
         15    1    3    3    0    0 -0.73164524396E+02  0.12942755359E+03  0.80189101847E+02  0.16893190653E+03  0.17770000000E+01 0. -1.
        -16    1    3    3    0    0 -0.39945119131E+03  0.40209878670E+03  0.26610520881E+03  0.62614428901E+03  0.00000000000E+00 0.  1.
          4    1    6    6  502    0  0.22108708063E+02 -0.43394028117E+02  0.15538948974E+03  0.16284265464E+03  0.00000000000E+00 0. -1.
         -3    1    6    6    0  502  0.63383312528E+02 -0.47581644182E+03  0.10172874097E+04  0.11248521701E+04  0.00000000000E+00 0.  1.
<mgrwt>
<rscale>  0 0.81575900E+03</rscale>
<asrwt>0</asrwt>
<pdfrwt beam="1">  1        1 0.39680560E+00 0.81575900E+03</pdfrwt>
<pdfrwt beam="2">  1       -2 0.51100792E-01 0.81575900E+03</pdfrwt>
<totfact> 0.39635757E+00</totfact>
</mgrwt>
</event>
<event>
12    3  0.1092576E-007  0.5901154E+03  0.7818608E-02  0.9926128E-01
         -2   -1    0    0    0  501 -0.00000000000E+00  0.00000000000E+00  0.49714650857E+03  0.49714650857E+03  0.00000000000E+00 0.  1.
          1   -1    0    0  501    0  0.00000000000E+00 -0.00000000000E+00 -0.82049251888E+03  0.82049251888E+03  0.00000000000E+00 0. -1.
        -24    2    1    2    0    0  0.19597806543E+03 -0.41997575913E+03 -0.30328865648E+03  0.55943057514E+03  0.78686205028E+02 0.  0.
    5000000    2    1    2    0    0 -0.19597806543E+03  0.41997575913E+03 -0.20057353830E+02  0.75820845232E+03  0.59974221073E+03 0.  0.
        -24    2    4    4    0    0  0.99438645912E+02 -0.79367574617E+02  0.68406732698E+02  0.16591964961E+03  0.81624707334E+02 0.  0.
         24    2    4    4    0    0 -0.29541671134E+03  0.49934333375E+03 -0.88464086528E+02  0.59228880271E+03  0.79783036458E+02 0.  0.
         11    1    5    5    0    0  0.55143245193E+02 -0.29632276378E+02 -0.96180831636E+01  0.63335273091E+02  0.00000000000E+00 0. -1.
        -12    1    5    5    0    0  0.44295400719E+02 -0.49735298239E+02  0.78024815862E+02  0.10258437652E+03  0.00000000000E+00 0.  1.
         15    1    3    3    0    0  0.15559352406E+03 -0.28736754367E+03 -0.24778788734E+03  0.41011150279E+03  0.17770000000E+01 0. -1.
        -16    1    3    3    0    0  0.40384541368E+02 -0.13260821546E+03 -0.55500769141E+02  0.14931907234E+03  0.00000000000E+00 0.  1.
          2    1    6    6  502    0 -0.17708870429E+03  0.22123552993E+03 -0.39885359270E+02  0.28617548947E+03  0.00000000000E+00 0. -1.
         -1    1    6    6    0  502 -0.11832800706E+03  0.27810780382E+03 -0.48578727258E+02  0.30611331324E+03  0.00000000000E+00 0.  1.
<mgrwt>
<rscale>  0 0.59011538E+03</rscale>
<asrwt>0</asrwt>
<pdfrwt beam="1">  1        1 0.12622962E+00 0.59011538E+03</pdfrwt>
<pdfrwt beam="2">  1       -2 0.76484080E-01 0.59011538E+03</pdfrwt>
<totfact> 0.29501532E+01</totfact>
</mgrwt>
</event>
<event>
12    3  0.1092576E-007  0.6658042E+03  0.7818608E-02  0.9777567E-01
          1   -1    0    0  501    0  0.00000000000E+00  0.00000000000E+00  0.19086865518E+04  0.19086865518E+04  0.00000000000E+00 0. -1.
         -2   -1    0    0    0  501 -0.00000000000E+00 -0.00000000000E+00 -0.24155998776E+03  0.24155998776E+03  0.00000000000E+00 0.  1.
        -24    2    1    2    0    0 -0.32862932149E+03 -0.43077556478E+03  0.64846052498E+03  0.84971978381E+03  0.89206728363E+02 0.  0.
    5000000    2    1    2    0    0  0.32862932149E+03  0.43077556478E+03  0.10186660391E+04  0.13005267558E+04  0.60010376198E+03 0.  0.
        -24    2    4    4    0    0 -0.61365619067E+01 -0.12885317647E+03  0.18322136142E+03  0.23784935468E+03  0.79758697089E+02 0.  0.
         24    2    4    4    0    0  0.33476588340E+03  0.55962874125E+03  0.83544467764E+03  0.10626774011E+04  0.77864784338E+02 0.  0.
         13    1    5    5    0    0  0.12096259557E+02 -0.25567518163E+02  0.10011032991E+03  0.10402930181E+03  0.00000000000E+00 0. -1.
        -14    1    5    5    0    0 -0.18232821463E+02 -0.10328565831E+03  0.83111031508E+02  0.13382005287E+03  0.00000000000E+00 0.  1.
         15    1    3    3    0    0 -0.28379347284E+03 -0.37138549068E+03  0.50500663380E+03  0.68811392649E+03  0.17770000000E+01 0. -1.
        -16    1    3    3    0    0 -0.44835848648E+02 -0.59390074092E+02  0.14345389118E+03  0.16160585732E+03  0.00000000000E+00 0.  1.
          2    1    6    6  502    0  0.10465053643E+03  0.24852520090E+03  0.35334945645E+03  0.44449111198E+03  0.00000000000E+00 0. -1.
         -1    1    6    6    0  502  0.23011534697E+03  0.31110354035E+03  0.48209522119E+03  0.61818628909E+03  0.00000000000E+00 0.  1.
<mgrwt>
<rscale>  0 0.66580423E+03</rscale>
<asrwt>0</asrwt>
<pdfrwt beam="1">  1        1 0.29364407E+00 0.66580423E+03</pdfrwt>
<pdfrwt beam="2">  1       -2 0.37163076E-01 0.66580423E+03</pdfrwt>
<totfact> 0.21592472E+01</totfact>
</mgrwt>
</event>
<event>
12    3  0.1092576E-007  0.1692318E+04  0.7818608E-02  0.8765758E-01
         -2   -1    0    0    0  501 -0.00000000000E+00  0.00000000000E+00  0.20502308565E+04  0.20502308565E+04  0.00000000000E+00 0.  1.
          1   -1    0    0  501    0  0.00000000000E+00 -0.00000000000E+00 -0.20049463040E+04  0.20049463040E+04  0.00000000000E+00 0. -1.
        -24    2    1    2    0    0 -0.13258984304E+03 -0.16380783120E+04  0.11305403473E+04  0.19963666724E+04  0.80484726193E+02 0.  0.
    5000000    2    1    2    0    0  0.13258984304E+03  0.16380783120E+04 -0.10852557948E+04  0.20588104881E+04  0.60003321825E+03 0.  0.
        -24    2    4    4    0    0 -0.20332105256E+03  0.33688630876E+03 -0.21223056584E+03  0.45428047298E+03  0.80604588024E+02 0.  0.
         24    2    4    4    0    0  0.33591089561E+03  0.13011920032E+04 -0.87302522896E+03  0.16045300151E+04  0.80042238245E+02 0.  0.
         13    1    5    5    0    0 -0.12898689517E+03  0.25354490566E+03 -0.18499726524E+03  0.33933261920E+03  0.00000000000E+00 0. -1.
        -14    1    5    5    0    0 -0.74334157394E+02  0.83341403100E+02 -0.27233300604E+02  0.11494785378E+03  0.00000000000E+00 0.  1.
         15    1    3    3    0    0 -0.10633174521E+03 -0.93509277162E+03  0.67783754319E+03  0.11598154268E+04  0.17770000000E+01 0. -1.
        -16    1    3    3    0    0 -0.26258097836E+02 -0.70298554036E+03  0.45270280410E+03  0.83655124559E+03  0.00000000000E+00 0.  1.
          4    1    6    6  502    0  0.15244403092E+03  0.61235792203E+03 -0.45719982554E+03  0.77926445300E+03  0.00000000000E+00 0. -1.
         -3    1    6    6    0  502  0.18346686468E+03  0.68883408120E+03 -0.41582540342E+03  0.82526556210E+03  0.00000000000E+00 0.  1.
<mgrwt>
<rscale>  0 0.16923184E+04</rscale>
<asrwt>0</asrwt>
<pdfrwt beam="1">  1        1 0.30845327E+00 0.16923184E+04</pdfrwt>
<pdfrwt beam="2">  1       -2 0.31542014E+00 0.16923184E+04</pdfrwt>
<totfact> 0.60906737E-02</totfact>
</mgrwt>
</event>
<event>
12    3  0.1092576E-007  0.1104639E+04  0.7818608E-02  0.9200682E-01
          1   -1    0    0  501    0  0.00000000000E+00  0.00000000000E+00  0.28624676551E+04  0.28624676551E+04  0.00000000000E+00 0. -1.
         -2   -1    0    0    0  501 -0.00000000000E+00 -0.00000000000E+00 -0.43289403826E+03  0.43289403826E+03  0.00000000000E+00 0.  1.
        -24    2    1    2    0    0  0.11561900520E+03  0.10210290674E+04  0.10100491981E+04  0.14430790818E+04  0.80060870346E+02 0.  0.
    5000000    2    1    2    0    0 -0.11561900520E+03 -0.10210290674E+04  0.14195244187E+04  0.18522826115E+04  0.60002765508E+03 0.  0.
        -24    2    4    4    0    0 -0.14257842153E+03 -0.10745751964E+01  0.14567961119E+03  0.21826734515E+03  0.78027712041E+02 0.  0.
         24    2    4    4    0    0  0.26959416332E+02 -0.10199544922E+04  0.12738448075E+04  0.16340152664E+04  0.79317846954E+02 0.  0.
         13    1    5    5    0    0 -0.10513174004E+03  0.29666548476E+02  0.74727132061E+02  0.13235154373E+03  0.00000000000E+00 0. -1.
        -14    1    5    5    0    0 -0.37446681487E+02 -0.30741123672E+02  0.70952479130E+02  0.85915801420E+02  0.00000000000E+00 0.  1.
         15    1    3    3    0    0  0.69577206896E+02  0.76393277246E+03  0.70960011990E+03  0.10449735673E+04  0.17770000000E+01 0. -1.
        -16    1    3    3    0    0  0.46041798301E+02  0.25709629493E+03  0.30044907820E+03  0.39810551446E+03  0.00000000000E+00 0.  1.
          2    1    6    6  502    0  0.54509697087E+02 -0.73842041884E+03  0.91248997809E+03  0.11751059451E+04  0.00000000000E+00 0. -1.
         -1    1    6    6    0  502 -0.27550280755E+02 -0.28153407335E+03  0.36135482944E+03  0.45890932131E+03  0.00000000000E+00 0.  1.
<mgrwt>
<rscale>  0 0.11046388E+04</rscale>
<asrwt>0</asrwt>
<pdfrwt beam="1">  1        1 0.44037963E+00 0.11046388E+04</pdfrwt>
<pdfrwt beam="2">  1       -2 0.66599085E-01 0.11046388E+04</pdfrwt>
<totfact> 0.13777201E+00</totfact>
</mgrwt>
</event>
<event>
12    3  0.1092576E-007  0.5742191E+03  0.7818608E-02  0.9960386E-01
         -2   -1    0    0    0  501 -0.00000000000E+00  0.00000000000E+00  0.55194349967E+03  0.55194349967E+03  0.00000000000E+00 0.  1.
          1   -1    0    0  501    0  0.00000000000E+00 -0.00000000000E+00 -0.11870785219E+04  0.11870785219E+04  0.00000000000E+00 0. -1.
        -24    2    1    2    0    0  0.24503374372E+03  0.41978961956E+03 -0.80909110119E+03  0.94716136513E+03  0.78875733400E+02 0.  0.
    5000000    2    1    2    0    0 -0.24503374372E+03 -0.41978961956E+03  0.17395607899E+03  0.79186065642E+03  0.60043127960E+03 0.  0.
        -24    2    4    4    0    0 -0.47342956384E+02 -0.43991268560E+03 -0.82772404467E+02  0.45728678929E+03  0.80594107972E+02 0.  0.
         24    2    4    4    0    0 -0.19769078733E+03  0.20123066046E+02  0.25672848345E+03  0.33457386713E+03  0.80892355439E+02 0.  0.
         11    1    5    5    0    0 -0.67483076866E+02 -0.30672457881E+03 -0.44088387696E+02  0.31713990421E+03  0.00000000000E+00 0. -1.
        -12    1    5    5    0    0  0.20140120482E+02 -0.13318810679E+03 -0.38684016771E+02  0.14014688508E+03  0.00000000000E+00 0.  1.
         15    1    3    3    0    0  0.46190080010E+02  0.83098676564E+02 -0.22497201653E+03  0.24424266516E+03  0.17770000000E+01 0. -1.
        -16    1    3    3    0    0  0.19884366371E+03  0.33669094299E+03 -0.58411908467E+03  0.70291869996E+03  0.00000000000E+00 0.  1.
          2    1    6    6  502    0 -0.16083313641E+03 -0.16407763625E+02  0.17998770664E+03  0.24193405510E+03  0.00000000000E+00 0. -1.
         -1    1    6    6    0  502 -0.36857650926E+02  0.36530829671E+02  0.76740776815E+02  0.92639812038E+02  0.00000000000E+00 0.  1.
<mgrwt>
<rscale>  0 0.57421907E+03</rscale>
<asrwt>0</asrwt>
<pdfrwt beam="1">  1        1 0.18262746E+00 0.57421907E+03</pdfrwt>
<pdfrwt beam="2">  1       -2 0.84914385E-01 0.57421907E+03</pdfrwt>
<totfact> 0.12171296E+01</totfact>
</mgrwt>
</event>
<event>
12    3  0.1092576E-007  0.6707432E+03  0.7818608E-02  0.9768616E-01
          1   -1    0    0  501    0  0.00000000000E+00  0.00000000000E+00  0.30554896847E+03  0.30554896847E+03  0.00000000000E+00 0. -1.
         -2   -1    0    0    0  501 -0.00000000000E+00 -0.00000000000E+00 -0.17412531835E+04  0.17412531835E+04  0.00000000000E+00 0.  1.
        -24    2    1    2    0    0 -0.38414661808E+03 -0.45167188762E+03 -0.44406273281E+03  0.74498066400E+03  0.78919964587E+02 0.  0.
    5000000    2    1    2    0    0  0.38414661808E+03  0.45167188762E+03 -0.99164148217E+03  0.13018214879E+04  0.59984184502E+03 0.  0.
        -24    2    4    4    0    0  0.39654030387E+03  0.13250668019E+03 -0.83450063356E+03  0.93679919282E+03  0.79994920860E+02 0.  0.
         24    2    4    4    0    0 -0.12393685798E+02  0.31916520743E+03 -0.15714084861E+03  0.36502229511E+03  0.80796018142E+02 0.  0.
         13    1    5    5    0    0  0.19661873002E+03  0.97464115467E+02 -0.49108143191E+03  0.53788395734E+03  0.00000000000E+00 0. -1.
        -14    1    5    5    0    0  0.19992157385E+03  0.35042564726E+02 -0.34341920165E+03  0.39891523547E+03  0.00000000000E+00 0.  1.
         15    1    3    3    0    0 -0.95951467148E+02 -0.13648582927E+03 -0.16597462592E+03  0.23534187859E+03  0.17770000000E+01 0. -1.
        -16    1    3    3    0    0 -0.28819515093E+03 -0.31518605835E+03 -0.27808810689E+03  0.50963878541E+03  0.00000000000E+00 0.  1.
          2    1    6    6  502    0 -0.35291139710E+02  0.13428862267E+03 -0.96586164901E+02  0.16913836339E+03  0.00000000000E+00 0. -1.
         -1    1    6    6    0  502  0.22897453913E+02  0.18487658476E+03 -0.60554683711E+02  0.19588393172E+03  0.00000000000E+00 0.  1.
<mgrwt>
<rscale>  0 0.67074317E+03</rscale>
<asrwt>0</asrwt>
<pdfrwt beam="1">  1        1 0.47007535E-01 0.67074317E+03</pdfrwt>
<pdfrwt beam="2">  1       -2 0.26788510E+00 0.67074317E+03</pdfrwt>
<totfact> 0.39120112E+00</totfact>
</mgrwt>
</event>
<event>
12    3  0.1092576E-007  0.6982390E+03  0.7818608E-02  0.9720248E-01
          1   -1    0    0  501    0  0.00000000000E+00  0.00000000000E+00  0.94750144414E+03  0.94750144414E+03  0.00000000000E+00 0. -1.
         -2   -1    0    0    0  501 -0.00000000000E+00 -0.00000000000E+00 -0.67877063968E+03  0.67877063968E+03  0.00000000000E+00 0.  1.
        -24    2    1    2    0    0 -0.12462063063E+03  0.65016921109E+03 -0.69766018173E+02  0.67082577066E+03  0.83003690647E+02 0.  0.
    5000000    2    1    2    0    0  0.12462063063E+03 -0.65016921109E+03  0.33849682263E+03  0.95544631317E+03  0.60003937686E+03 0.  0.
        -24    2    4    4    0    0 -0.93800376351E+02 -0.23755021746E+03  0.39685039048E+03  0.47854624402E+03  0.79294759138E+02 0.  0.
         24    2    4    4    0    0  0.21842100699E+03 -0.41261899363E+03 -0.58353567848E+02  0.47690006914E+03  0.77886885095E+02 0.  0.
         13    1    5    5    0    0 -0.12101051183E+02 -0.13442161804E+03  0.18141746274E+03  0.22611479966E+03  0.00000000000E+00 0. -1.
        -14    1    5    5    0    0 -0.81699325168E+02 -0.10312859942E+03  0.21543292774E+03  0.25243144437E+03  0.00000000000E+00 0.  1.
         15    1    3    3    0    0 -0.10227926488E+03  0.45680611628E+03 -0.13932895468E+02  0.46832697893E+03  0.17770000000E+01 0. -1.
        -16    1    3    3    0    0 -0.22341365753E+02  0.19336309481E+03 -0.55833122705E+02  0.20249879173E+03  0.00000000000E+00 0.  1.
          4    1    6    6  502    0  0.88631363835E+02 -0.14982135755E+03  0.15122196587E+02  0.17473018819E+03  0.00000000000E+00 0. -1.
         -3    1    6    6    0  502  0.12978964315E+03 -0.26279763608E+03 -0.73475764435E+02  0.30216988095E+03  0.00000000000E+00 0.  1.
<mgrwt>
<rscale>  0 0.69823905E+03</rscale>
<asrwt>0</asrwt>
<pdfrwt beam="1">  1        1 0.14576945E+00 0.69823905E+03</pdfrwt>
<pdfrwt beam="2">  1       -2 0.10442625E+00 0.69823905E+03</pdfrwt>
<totfact> 0.11193966E+01</totfact>
</mgrwt>
</event>
<event>
12    3  0.1092576E-007  0.3719347E+03  0.7818608E-02  0.1053956E+00
          1   -1    0    0  501    0  0.00000000000E+00  0.00000000000E+00  0.19687813177E+04  0.19687813177E+04  0.00000000000E+00 0. -1.
         -2   -1    0    0    0  501 -0.00000000000E+00 -0.00000000000E+00 -0.10688248782E+03  0.10688248782E+03  0.00000000000E+00 0.  1.
        -24    2    1    2    0    0  0.19889733865E+03  0.15463552278E+03  0.59975092648E+03  0.65565653649E+03  0.81926941807E+02 0.  0.
    5000000    2    1    2    0    0 -0.19889733865E+03 -0.15463552278E+03  0.12621479034E+04  0.14200072690E+04  0.59994251209E+03 0.  0.
        -24    2    4    4    0    0  0.61628586847E+02 -0.18993939551E+03  0.12111853276E+03  0.24633350056E+03  0.78329035728E+02 0.  0.
         24    2    4    4    0    0 -0.26052592550E+03  0.35303872729E+02  0.11410293706E+04  0.11736737685E+04  0.80261876654E+02 0.  0.
         13    1    5    5    0    0 -0.73457968632E+01 -0.86641734305E+02  0.28886130316E+02  0.91625102344E+02  0.00000000000E+00 0. -1.
        -14    1    5    5    0    0  0.68974383710E+02 -0.10329766120E+03  0.92232402445E+02  0.15470839822E+03  0.00000000000E+00 0.  1.
         15    1    3    3    0    0  0.45514798761E+02  0.81407542996E+02  0.24883143431E+03  0.26574240421E+03  0.17770000000E+01 0. -1.
        -16    1    3    3    0    0  0.15338253989E+03  0.73227979782E+02  0.35091949217E+03  0.38991413228E+03  0.00000000000E+00 0.  1.
          4    1    6    6  502    0 -0.15838267681E+03 -0.78388735591E+01  0.55326393884E+03  0.57554105525E+03  0.00000000000E+00 0. -1.
         -3    1    6    6    0  502 -0.10214324869E+03  0.43142746288E+02  0.58776543179E+03  0.59813271321E+03  0.00000000000E+00 0.  1.
<mgrwt>
<rscale>  0 0.37193468E+03</rscale>
<asrwt>0</asrwt>
<pdfrwt beam="1">  1        1 0.30288941E+00 0.37193468E+03</pdfrwt>
<pdfrwt beam="2">  1       -2 0.16443461E-01 0.37193468E+03</pdfrwt>
<totfact> 0.89507824E+01</totfact>
</mgrwt>
</event>
<event>
12    3  0.1092576E-007  0.5188249E+03  0.7818608E-02  0.1008979E+00
          1   -1    0    0  501    0  0.00000000000E+00  0.00000000000E+00  0.76259585112E+03  0.76259585112E+03  0.00000000000E+00 0. -1.
         -2   -1    0    0    0  501 -0.00000000000E+00 -0.00000000000E+00 -0.45395930439E+03  0.45395930439E+03  0.00000000000E+00 0.  1.
        -24    2    1    2    0    0  0.29823580153E+03 -0.24955327430E+03  0.30655089249E+03  0.50159252672E+03  0.80001144650E+02 0.  0.
    5000000    2    1    2    0    0 -0.29823580153E+03  0.24955327430E+03  0.20856542358E+01  0.71496262879E+03  0.59995481545E+03 0.  0.
        -24    2    4    4    0    0  0.47031344448E+02 -0.11626820471E+03 -0.11979178606E+03  0.19143941707E+03  0.81047736641E+02 0.  0.
         24    2    4    4    0    0 -0.34526714598E+03  0.36582147900E+03  0.12187744029E+03  0.52352321172E+03  0.78661846953E+02 0.  0.
         13    1    5    5    0    0  0.45224777471E+02 -0.23660984990E+02 -0.68926693364E+02  0.85767195163E+02  0.00000000000E+00 0. -1.
        -14    1    5    5    0    0  0.18065669775E+01 -0.92607219716E+02 -0.50865092691E+02  0.10567222190E+03  0.00000000000E+00 0.  1.
         15    1    3    3    0    0  0.14007015219E+03 -0.92252833342E+02  0.88468387260E+02  0.18963134252E+03  0.17770000000E+01 0. -1.
        -16    1    3    3    0    0  0.15816564935E+03 -0.15730044096E+03  0.21808250523E+03  0.31196118420E+03  0.00000000000E+00 0.  1.
          4    1    6    6  502    0 -0.27761603991E+03  0.30132460342E+03  0.67067446993E+02  0.41516891103E+03  0.00000000000E+00 0. -1.
         -3    1    6    6    0  502 -0.67651106076E+02  0.64496875581E+02  0.54809993298E+02  0.10835430069E+03  0.00000000000E+00 0.  1.
<mgrwt>
<rscale>  0 0.51882487E+03</rscale>
<asrwt>0</asrwt>
<pdfrwt beam="1">  1        1 0.11732244E+00 0.51882487E+03</pdfrwt>
<pdfrwt beam="2">  1       -2 0.69839893E-01 0.51882487E+03</pdfrwt>
<totfact> 0.40749216E+01</totfact>
</mgrwt>
</event>
<event>
12    3  0.1092576E-007  0.5407073E+03  0.7818608E-02  0.1003668E+00
         -2   -1    0    0    0  501 -0.00000000000E+00  0.00000000000E+00  0.24150659791E+03  0.24150659791E+03  0.00000000000E+00 0.  1.
          1   -1    0    0  501    0  0.00000000000E+00 -0.00000000000E+00 -0.14898890658E+04  0.14898890658E+04  0.00000000000E+00 0. -1.
        -24    2    1    2    0    0 -0.68296856545E+02 -0.39997297709E+03 -0.20619606123E+03  0.46226587528E+03  0.80808915162E+02 0.  0.
    5000000    2    1    2    0    0  0.68296856545E+02  0.39997297709E+03 -0.10421864067E+04  0.12691297884E+04  0.59991255250E+03 0.  0.
        -24    2    4    4    0    0  0.10442818904E+03  0.52591667655E+03 -0.95840596322E+03  0.11008963811E+04  0.77053580603E+02 0.  0.
         24    2    4    4    0    0 -0.36131332496E+02 -0.12594369946E+03 -0.83780443444E+02  0.16823340732E+03  0.64156278046E+02 0.  0.
         11    1    5    5    0    0  0.39844641013E+02  0.21032623728E+03 -0.46120471466E+03  0.50846288983E+03  0.00000000000E+00 0. -1.
        -12    1    5    5    0    0  0.64583548028E+02  0.31559043927E+03 -0.49720124855E+03  0.59243349129E+03  0.00000000000E+00 0.  1.
         15    1    3    3    0    0 -0.70742703795E+02 -0.32131576889E+03 -0.13329105923E+03  0.35499016560E+03  0.17770000000E+01 0. -1.
        -16    1    3    3    0    0  0.24458472500E+01 -0.78657208202E+02 -0.72905001998E+02  0.10727570968E+03  0.00000000000E+00 0.  1.
          4    1    6    6  502    0 -0.97181962531E+01 -0.96485088159E+00 -0.26493996416E+02  0.28236609600E+02  0.00000000000E+00 0. -1.
         -3    1    6    6    0  502 -0.26413136243E+02 -0.12497884858E+03 -0.57286447028E+02  0.13999679772E+03  0.00000000000E+00 0.  1.
<mgrwt>
<rscale>  0 0.54070734E+03</rscale>
<asrwt>0</asrwt>
<pdfrwt beam="1">  1        1 0.22921370E+00 0.54070734E+03</pdfrwt>
<pdfrwt beam="2">  1       -2 0.37154861E-01 0.54070734E+03</pdfrwt>
<totfact> 0.41999715E+01</totfact>
</mgrwt>
</event>
<event>
12    3  0.1092576E-007  0.3017457E+03  0.7818608E-02  0.1084371E+00
          1   -1    0    0  501    0  0.00000000000E+00  0.00000000000E+00  0.40458007784E+04  0.40458007784E+04  0.00000000000E+00 0. -1.
         -2   -1    0    0    0  501 -0.00000000000E+00 -0.00000000000E+00 -0.39243327360E+02  0.39243327360E+02  0.00000000000E+00 0.  1.
        -24    2    1    2    0    0  0.37350566357E+02  0.12256644686E+03  0.41864310411E+03  0.44506684361E+03  0.80030294020E+02 0.  0.
    5000000    2    1    2    0    0 -0.37350566357E+02 -0.12256644686E+03  0.35879143469E+04  0.36399772621E+04  0.59990625047E+03 0.  0.
        -24    2    4    4    0    0 -0.20526779453E+03 -0.16224551546E+03  0.78614420580E+03  0.83175589742E+03  0.73052623598E+02 0.  0.
         24    2    4    4    0    0  0.16791722817E+03  0.39679068606E+02  0.28017701411E+04  0.28082213647E+04  0.80129180826E+02 0.  0.
         11    1    5    5    0    0 -0.17195584360E+03 -0.11498886792E+03  0.68147659338E+03  0.71218087535E+03  0.00000000000E+00 0. -1.
        -12    1    5    5    0    0 -0.33311950926E+02 -0.47256647545E+02  0.10466761243E+03  0.11957502207E+03  0.00000000000E+00 0.  1.
         15    1    3    3    0    0  0.20172172265E+02  0.13000014614E+03  0.34980696553E+03  0.37373122079E+03  0.17770000000E+01 0. -1.
        -16    1    3    3    0    0  0.17178394092E+02 -0.74336992859E+01  0.68836138583E+02  0.71335622824E+02  0.00000000000E+00 0.  1.
          4    1    6    6  502    0  0.48349534662E+02 -0.22984202655E+02  0.97631600204E+03  0.97778263787E+03  0.00000000000E+00 0. -1.
         -3    1    6    6    0  502  0.11956769351E+03  0.62663271261E+02  0.18254541390E+04  0.18304387268E+04  0.00000000000E+00 0.  1.
<mgrwt>
<rscale>  0 0.30174571E+03</rscale>
<asrwt>0</asrwt>
<pdfrwt beam="1">  1        1 0.62243056E+00 0.30174571E+03</pdfrwt>
<pdfrwt beam="2">  1       -2 0.60374382E-02 0.30174571E+03</pdfrwt>
<totfact> 0.14581045E+01</totfact>
</mgrwt>
</event>
<event>
12    3  0.1092576E-007  0.3747520E+03  0.7818608E-02  0.1052891E+00
         -2   -1    0    0    0  501 -0.00000000000E+00  0.00000000000E+00  0.88869218169E+02  0.88869218169E+02  0.00000000000E+00 0.  1.
          1   -1    0    0  501    0  0.00000000000E+00 -0.00000000000E+00 -0.17505195600E+04  0.17505195600E+04  0.00000000000E+00 0. -1.
        -24    2    1    2    0    0 -0.14967570847E+03  0.95828587845E+01 -0.33072978029E+03  0.37180165278E+03  0.79747304378E+02 0.  0.
    5000000    2    1    2    0    0  0.14967570847E+03 -0.95828587845E+01 -0.13309205616E+04  0.14675871254E+04  0.59997314988E+03 0.  0.
        -24    2    4    4    0    0 -0.97963650609E+02  0.22046208964E+03 -0.71450592016E+03  0.75835527744E+03  0.79897478549E+02 0.  0.
         24    2    4    4    0    0  0.24763935908E+03 -0.23004494842E+03 -0.61641464142E+03  0.70923184797E+03  0.93791649747E+02 0.  0.
         13    1    5    5    0    0 -0.80927726859E+02  0.84626410227E+02 -0.31686181333E+03  0.33780517319E+03  0.00000000000E+00 0. -1.
        -14    1    5    5    0    0 -0.17035923750E+02  0.13583567941E+03 -0.39764410682E+03  0.42055010426E+03  0.00000000000E+00 0.  1.
         15    1    3    3    0    0 -0.68827800995E+02 -0.81803807518E+00 -0.24068851886E+03  0.25034387593E+03  0.17770000000E+01 0. -1.
        -16    1    3    3    0    0 -0.80847907475E+02  0.10400896860E+02 -0.90041261426E+02  0.12145777685E+03  0.00000000000E+00 0.  1.
          4    1    6    6  502    0  0.22062987802E+03 -0.16748605008E+03 -0.53963083422E+03  0.60657279636E+03  0.00000000000E+00 0. -1.
         -3    1    6    6    0  502  0.27009481056E+02 -0.62558898347E+02 -0.76783807199E+02  0.10265905161E+03  0.00000000000E+00 0.  1.
<mgrwt>
<rscale>  0 0.37475198E+03</rscale>
<asrwt>0</asrwt>
<pdfrwt beam="1">  1        1 0.26931072E+00 0.37475198E+03</pdfrwt>
<pdfrwt beam="2">  1       -2 0.13672186E-01 0.37475198E+03</pdfrwt>
<totfact> 0.16935018E+02</totfact>
</mgrwt>
</event>
<event>
12    3  0.1092576E-007  0.6744603E+03  0.7818608E-02  0.9761934E-01
         -2   -1    0    0    0  501 -0.00000000000E+00  0.00000000000E+00  0.73842002307E+03  0.73842002307E+03  0.00000000000E+00 0.  1.
          1   -1    0    0  501    0  0.00000000000E+00 -0.00000000000E+00 -0.15536009257E+04  0.15536009257E+04  0.00000000000E+00 0. -1.
        -24    2    1    2    0    0  0.27186067402E+03  0.48164510679E+03  0.49624599933E+03  0.74743444672E+03  0.80671713177E+02 0.  0.
    5000000    2    1    2    0    0 -0.27186067402E+03 -0.48164510679E+03 -0.13114269019E+04  0.15445865020E+04  0.60001392330E+03 0.  0.
        -24    2    4    4    0    0  0.12775381109E+03 -0.34965990397E+03 -0.58813541435E+03  0.70392874639E+03  0.10502061552E+03 0.  0.
         24    2    4    4    0    0 -0.39961448511E+03 -0.13198520283E+03 -0.72329148759E+03  0.84065775565E+03  0.80268646643E+02 0.  0.
         13    1    5    5    0    0  0.30445050877E+02 -0.67469035662E+02 -0.20687056501E+03  0.21971436585E+03  0.00000000000E+00 0. -1.
        -14    1    5    5    0    0  0.97308760213E+02 -0.28219086830E+03 -0.38126484935E+03  0.48421438053E+03  0.00000000000E+00 0.  1.
         15    1    3    3    0    0  0.10965036418E+03  0.15414930337E+03  0.12665189715E+03  0.22765998962E+03  0.17770000000E+01 0. -1.
        -16    1    3    3    0    0  0.16221030984E+03  0.32749580343E+03  0.36959410218E+03  0.51977445709E+03  0.00000000000E+00 0.  1.
          4    1    6    6  502    0 -0.64401679679E+02 -0.32237805173E+02 -0.18714720361E+03  0.20052662728E+03  0.00000000000E+00 0. -1.
         -3    1    6    6    0  502 -0.33521280543E+03 -0.99747397653E+02 -0.53614428398E+03  0.64013112837E+03  0.00000000000E+00 0.  1.
<mgrwt>
<rscale>  0 0.67446025E+03</rscale>
<asrwt>0</asrwt>
<pdfrwt beam="1">  1        1 0.23901553E+00 0.67446025E+03</pdfrwt>
<pdfrwt beam="2">  1       -2 0.11360308E+00 0.67446025E+03</pdfrwt>
<totfact> 0.33543550E+00</totfact>
</mgrwt>
</event>
<event>
12    3  0.1092576E-007  0.6152622E+03  0.7818608E-02  0.9874238E-01
         -2   -1    0    0    0  501 -0.00000000000E+00  0.00000000000E+00  0.38167354919E+03  0.38167354919E+03  0.00000000000E+00 0.  1.
          1   -1    0    0  501    0  0.00000000000E+00 -0.00000000000E+00 -0.16465488404E+04  0.16465488404E+04  0.00000000000E+00 0. -1.
        -24    2    1    2    0    0  0.17991607457E+03  0.46907820467E+03  0.35720094868E+02  0.51049678280E+03  0.83227904518E+02 0.  0.
    5000000    2    1    2    0    0 -0.17991607457E+03 -0.46907820467E+03 -0.13005953860E+04  0.15177256068E+04  0.59961529602E+03 0.  0.
        -24    2    4    4    0    0 -0.34113060184E+01  0.97535410897E+02 -0.58142231440E+02  0.13847087618E+03  0.79176202777E+02 0.  0.
         24    2    4    4    0    0 -0.17650476855E+03 -0.56661361557E+03 -0.12424531546E+04  0.13792547306E+04  0.80304718184E+02 0.  0.
         11    1    5    5    0    0 -0.23503868985E+02 -0.23604960537E+01 -0.13669137424E+02  0.27291924022E+02  0.00000000000E+00 0. -1.
        -12    1    5    5    0    0  0.20092562967E+02  0.99895906951E+02 -0.44473094016E+02  0.11117895216E+03  0.00000000000E+00 0.  1.
         15    1    3    3    0    0  0.75602422939E+02  0.98048140471E+02  0.75453606156E+01  0.12405343365E+03  0.17770000000E+01 0. -1.
        -16    1    3    3    0    0  0.10431365163E+03  0.37103006420E+03  0.28174734252E+02  0.38644334916E+03  0.00000000000E+00 0.  1.
          4    1    6    6  502    0 -0.83683326423E+02 -0.35432114948E+03 -0.68937053192E+03  0.77960124832E+03  0.00000000000E+00 0. -1.
         -3    1    6    6    0  502 -0.92821442125E+02 -0.21229246609E+03 -0.55308262267E+03  0.59965348225E+03  0.00000000000E+00 0.  1.
<mgrwt>
<rscale>  0 0.61526219E+03</rscale>
<asrwt>0</asrwt>
<pdfrwt beam="1">  1        1 0.25331521E+00 0.61526219E+03</pdfrwt>
<pdfrwt beam="2">  1       -2 0.58719008E-01 0.61526219E+03</pdfrwt>
<totfact> 0.13015334E+01</totfact>
</mgrwt>
</event>
<event>
12    3  0.1092576E-007  0.1093135E+04  0.7818608E-02  0.9211909E-01
         -2   -1    0    0    0  501 -0.00000000000E+00  0.00000000000E+00  0.11984073559E+04  0.11984073559E+04  0.00000000000E+00 0.  1.
          1   -1    0    0  501    0  0.00000000000E+00 -0.00000000000E+00 -0.15257841776E+04  0.15257841776E+04  0.00000000000E+00 0. -1.
        -24    2    1    2    0    0 -0.86232981806E+03  0.64412314454E+03  0.55008588945E+03  0.12113495316E+04  0.79157194334E+02 0.  0.
    5000000    2    1    2    0    0  0.86232981806E+03 -0.64412314454E+03 -0.87746271114E+03  0.15128420019E+04  0.60020227667E+03 0.  0.
        -24    2    4    4    0    0  0.28550577763E+03 -0.72851999698E+02 -0.56154567781E+03  0.63889221746E+03  0.77645053568E+02 0.  0.
         24    2    4    4    0    0  0.57682404043E+03 -0.57127114484E+03 -0.31591703333E+03  0.87394978447E+03  0.70056828986E+02 0.  0.
         11    1    5    5    0    0  0.16754979703E+03 -0.34055265091E+02 -0.24408043269E+03  0.29800663279E+03  0.00000000000E+00 0. -1.
        -12    1    5    5    0    0  0.11795598060E+03 -0.38796734607E+02 -0.31746524512E+03  0.34088558467E+03  0.00000000000E+00 0.  1.
         15    1    3    3    0    0 -0.28397025608E+03  0.25845251238E+03  0.18740691271E+03  0.42727194637E+03  0.17770000000E+01 0. -1.
        -16    1    3    3    0    0 -0.57835956198E+03  0.38567063216E+03  0.36267897674E+03  0.78407758520E+03  0.00000000000E+00 0.  1.
          2    1    6    6  502    0  0.86835147676E+02 -0.78249583391E+02 -0.72067341994E+02  0.13732094507E+03  0.00000000000E+00 0. -1.
         -1    1    6    6    0  502  0.48998889275E+03 -0.49302156145E+03 -0.24384969134E+03  0.73662883940E+03  0.00000000000E+00 0.  1.
<mgrwt>
<rscale>  0 0.10931350E+04</rscale>
<asrwt>0</asrwt>
<pdfrwt beam="1">  1        1 0.23473603E+00 0.10931350E+04</pdfrwt>
<pdfrwt beam="2">  1       -2 0.18437036E+00 0.10931350E+04</pdfrwt>
<totfact> 0.91930732E-01</totfact>
</mgrwt>
</event>
<event>
12    3  0.1092576E-007  0.3924932E+03  0.7818608E-02  0.1046410E+00
          1   -1    0    0  501    0  0.00000000000E+00  0.00000000000E+00  0.10383468344E+04  0.10383468344E+04  0.00000000000E+00 0. -1.
         -2   -1    0    0    0  501 -0.00000000000E+00 -0.00000000000E+00 -0.21275300216E+03  0.21275300216E+03  0.00000000000E+00 0.  1.
        -24    2    1    2    0    0 -0.23146661817E+03  0.13553346121E+03  0.19822851670E+03  0.34244140692E+03  0.77623823048E+02 0.  0.
    5000000    2    1    2    0    0  0.23146661817E+03 -0.13553346121E+03  0.62736531552E+03  0.90865842961E+03  0.60010564750E+03 0.  0.
        -24    2    4    4    0    0 -0.11087704800E+03  0.32546435775E+02 -0.34394347171E+02  0.14182481981E+03  0.74688139238E+02 0.  0.
         24    2    4    4    0    0  0.34234366616E+03 -0.16807989699E+03  0.66175966269E+03  0.76683360980E+03  0.68248783354E+02 0.  0.
         13    1    5    5    0    0 -0.88837885222E+02  0.89059544121E+01  0.67107162333E+01  0.89535018775E+02  0.00000000000E+00 0. -1.
        -14    1    5    5    0    0 -0.22039162775E+02  0.23640481362E+02 -0.41105063404E+02  0.52289801035E+02  0.00000000000E+00 0.  1.
         15    1    3    3    0    0 -0.15275272120E+03  0.12558079377E+03  0.15997623679E+03  0.25436093188E+03  0.17770000000E+01 0. -1.
        -16    1    3    3    0    0 -0.78713896967E+02  0.99526674379E+01  0.38252279907E+02  0.88080475038E+02  0.00000000000E+00 0.  1.
          2    1    6    6  502    0  0.12410271295E+03 -0.28835216215E+02  0.19116294659E+03  0.22973076678E+03  0.00000000000E+00 0. -1.
         -1    1    6    6    0  502  0.21824095321E+03 -0.13924468077E+03  0.47059671610E+03  0.53710284303E+03  0.00000000000E+00 0.  1.
<mgrwt>
<rscale>  0 0.39249324E+03</rscale>
<asrwt>0</asrwt>
<pdfrwt beam="1">  1        1 0.15974566E+00 0.39249324E+03</pdfrwt>
<pdfrwt beam="2">  1       -2 0.32731232E-01 0.39249324E+03</pdfrwt>
<totfact> 0.11360180E+02</totfact>
</mgrwt>
</event>
<event>
12    3  0.1092576E-007  0.7817970E+03  0.7818608E-02  0.9586745E-01
         -2   -1    0    0    0  501 -0.00000000000E+00  0.00000000000E+00  0.13844213201E+04  0.13844213201E+04  0.00000000000E+00 0.  1.
          1   -1    0    0  501    0  0.00000000000E+00 -0.00000000000E+00 -0.67678747126E+03  0.67678747126E+03  0.00000000000E+00 0. -1.
        -24    2    1    2    0    0  0.64874878682E+03 -0.16321950322E+03  0.91770085033E+03  0.11384051594E+04  0.79220336212E+02 0.  0.
    5000000    2    1    2    0    0 -0.64874878682E+03  0.16321950322E+03 -0.21006700152E+03  0.92280363189E+03  0.59993566594E+03 0.  0.
        -24    2    4    4    0    0 -0.18366498939E+03  0.33915150025E+03 -0.63542029731E+02  0.39866242228E+03  0.78342638119E+02 0.  0.
         24    2    4    4    0    0 -0.46508379743E+03 -0.17593199704E+03 -0.14652497179E+03  0.52414120961E+03  0.77456013540E+02 0.  0.
         11    1    5    5    0    0 -0.65626442099E+02  0.20055046071E+03 -0.24110674772E+02  0.21238795124E+03  0.00000000000E+00 0. -1.
        -12    1    5    5    0    0 -0.11803854729E+03  0.13860103954E+03 -0.39431354959E+02  0.18627447105E+03  0.00000000000E+00 0.  1.
         15    1    3    3    0    0  0.46180559361E+02  0.37960562835E+01  0.43361775939E+02  0.63485868095E+02  0.17770000000E+01 0. -1.
        -16    1    3    3    0    0  0.60256822746E+03 -0.16701555950E+03  0.87433907439E+03  0.10749192913E+04  0.00000000000E+00 0.  1.
          4    1    6    6  502    0 -0.35308877134E+03 -0.11483619232E+03 -0.78268599609E+02  0.37945356132E+03  0.00000000000E+00 0. -1.
         -3    1    6    6    0  502 -0.11199502609E+03 -0.61095804715E+02 -0.68256372184E+02  0.14468764829E+03  0.00000000000E+00 0.  1.
<mgrwt>
<rscale>  0 0.78179704E+03</rscale>
<asrwt>0</asrwt>
<pdfrwt beam="1">  1        1 0.10412115E+00 0.78179704E+03</pdfrwt>
<pdfrwt beam="2">  1       -2 0.21298790E+00 0.78179704E+03</pdfrwt>
<totfact> 0.28197387E+00</totfact>
</mgrwt>
</event>
<event>
12    3  0.1092576E-007  0.1075341E+04  0.7818608E-02  0.9229565E-01
          1   -1    0    0  501    0  0.00000000000E+00  0.00000000000E+00  0.15925522842E+04  0.15925522842E+04  0.00000000000E+00 0. -1.
         -2   -1    0    0    0  501 -0.00000000000E+00 -0.00000000000E+00 -0.81011806969E+03  0.81011806969E+03  0.00000000000E+00 0.  1.
        -24    2    1    2    0    0 -0.70801596598E+03  0.74410006567E+03  0.10920005654E+03  0.10358564844E+04  0.78118423717E+02 0.  0.
    5000000    2    1    2    0    0  0.70801596598E+03 -0.74410006567E+03  0.67323415800E+03  0.13668138695E+04  0.59997033810E+03 0.  0.
        -24    2    4    4    0    0  0.51116339192E+02 -0.34027727725E+03  0.42551622576E+03  0.55316497371E+03  0.80783192646E+02 0.  0.
         24    2    4    4    0    0  0.65689962678E+03 -0.40382278842E+03  0.24771793225E+03  0.81364889581E+03  0.77912691990E+02 0.  0.
         13    1    5    5    0    0  0.59897600084E+02 -0.31636024996E+03  0.36060725847E+03  0.48343471649E+03  0.00000000000E+00 0. -1.
        -14    1    5    5    0    0 -0.87812608926E+01 -0.23917027288E+02  0.64908967287E+02  0.69730257216E+02  0.00000000000E+00 0.  1.
         15    1    3    3    0    0 -0.48820447028E+02  0.35303660366E+02  0.21278516593E+02  0.63919617338E+02  0.17770000000E+01 0. -1.
        -16    1    3    3    0    0 -0.65919551895E+03  0.70879640530E+03  0.87921539947E+02  0.97193686706E+03  0.00000000000E+00 0.  1.
          4    1    6    6  502    0  0.51747431728E+03 -0.35384615451E+03  0.19782632539E+03  0.65735989011E+03  0.00000000000E+00 0. -1.
         -3    1    6    6    0  502  0.13942530951E+03 -0.49976633912E+02  0.49891606851E+02  0.15628900570E+03  0.00000000000E+00 0.  1.
<mgrwt>
<rscale>  0 0.10753415E+04</rscale>
<asrwt>0</asrwt>
<pdfrwt beam="1">  1        1 0.24500804E+00 0.10753415E+04</pdfrwt>
<pdfrwt beam="2">  1       -2 0.12463355E+00 0.10753415E+04</pdfrwt>
<totfact> 0.23717020E+00</totfact>
</mgrwt>
</event>
<event>
12    3  0.1693683E-007  0.1253298E+04  0.7818608E-02  0.9067443E-01
         -2   -1    0    0    0  501 -0.00000000000E+00  0.00000000000E+00  0.14980041628E+04  0.14980041628E+04  0.00000000000E+00 0.  1.
          1   -1    0    0  501    0  0.00000000000E+00 -0.00000000000E+00 -0.17997068592E+04  0.17997068592E+04  0.00000000000E+00 0. -1.
        -24    2    1    2    0    0  0.10286804936E+04  0.60072978971E+03 -0.11977458442E+04  0.16908738962E+04  0.73481884311E+02 0.  0.
    5000000    2    1    2    0    0 -0.10286804936E+04 -0.60072978971E+03  0.89604314783E+03  0.16068371259E+04  0.59997698970E+03 0.  0.
        -24    2    4    4    0    0 -0.56994057790E+03 -0.62644553334E+03  0.69359961878E+03  0.10974632521E+04  0.77967236495E+02 0.  0.
         24    2    4    4    0    0 -0.45873991568E+03  0.25715743629E+02  0.20244352905E+03  0.50937387376E+03  0.85876371067E+02 0.  0.
         11    1    5    5    0    0 -0.18483741667E+03 -0.21812218925E+03  0.28073633574E+03  0.40069321213E+03  0.00000000000E+00 0. -1.
        -12    1    5    5    0    0 -0.38510316123E+03 -0.40832334409E+03  0.41286328304E+03  0.69677003997E+03  0.00000000000E+00 0.  1.
         15    1    3    3    0    0  0.64121120202E+03  0.41072803917E+03 -0.78738495737E+03  0.10953664029E+04  0.17770000000E+01 0. -1.
        -16    1    3    3    0    0  0.38746929156E+03  0.19000175054E+03 -0.41036088684E+03  0.59550749328E+03  0.00000000000E+00 0.  1.
          2    1    6    6  502    0 -0.10245949949E+03  0.39569170200E+02  0.62281082596E+02  0.12626401512E+03  0.00000000000E+00 0. -1.
         -1    1    6    6    0  502 -0.35628041619E+03 -0.13853426571E+02  0.14016244645E+03  0.38310985864E+03  0.00000000000E+00 0.  1.
<mgrwt>
<rscale>  0 0.12532978E+04</rscale>
<asrwt>0</asrwt>
<pdfrwt beam="1">  1        1 0.27687798E+00 0.12532978E+04</pdfrwt>
<pdfrwt beam="2">  1       -2 0.23046218E+00 0.12532978E+04</pdfrwt>
<totfact> 0.29401662E-01</totfact>
</mgrwt>
</event>
<event>
12    3  0.1092576E-007  0.7184813E+03  0.7818608E-02  0.9686138E-01
          1   -1    0    0  501    0  0.00000000000E+00  0.00000000000E+00  0.19074821471E+04  0.19074821471E+04  0.00000000000E+00 0. -1.
         -2   -1    0    0    0  501 -0.00000000000E+00 -0.00000000000E+00 -0.31655997602E+03  0.31655997602E+03  0.00000000000E+00 0.  1.
        -24    2    1    2    0    0  0.51725287077E+03  0.31695462561E+03  0.31209187526E+03  0.68672826467E+03  0.78635894275E+02 0.  0.
    5000000    2    1    2    0    0 -0.51725287077E+03 -0.31695462561E+03  0.12788302958E+04  0.15373138584E+04  0.59993016832E+03 0.  0.
        -24    2    4    4    0    0 -0.38352491852E+03  0.89073661670E+02  0.76681785234E+03  0.86559127355E+03  0.78823561438E+02 0.  0.
         24    2    4    4    0    0 -0.13372795225E+03 -0.40602828728E+03  0.51201244345E+03  0.67172258488E+03  0.79450321019E+02 0.  0.
         13    1    5    5    0    0 -0.27749646623E+03  0.64711352064E+02  0.62467595562E+03  0.68659441986E+03  0.00000000000E+00 0. -1.
        -14    1    5    5    0    0 -0.10602845229E+03  0.24362309606E+02  0.14214189672E+03  0.17899685369E+03  0.00000000000E+00 0.  1.
         15    1    3    3    0    0  0.24963778294E+03  0.18070368645E+03  0.19327609188E+03  0.36377417499E+03  0.17770000000E+01 0. -1.
        -16    1    3    3    0    0  0.26761508784E+03  0.13625093916E+03  0.11881578338E+03  0.32295408968E+03  0.00000000000E+00 0.  1.
          4    1    6    6  502    0 -0.33661031609E+02 -0.22841400082E+03  0.26635453778E+03  0.35249221355E+03  0.00000000000E+00 0. -1.
         -1    1    6    6    0  502 -0.10006692064E+03 -0.17761428646E+03  0.24565790567E+03  0.31923037133E+03  0.00000000000E+00 0.  1.
<mgrwt>
<rscale>  0 0.71848129E+03</rscale>
<asrwt>0</asrwt>
<pdfrwt beam="1">  1        1 0.29345878E+00 0.71848129E+03</pdfrwt>
<pdfrwt beam="2">  1       -2 0.48701536E-01 0.71848129E+03</pdfrwt>
<totfact> 0.12597007E+01</totfact>
</mgrwt>
</event>
<event>
12    3  0.1092576E-007  0.1105111E+04  0.7818608E-02  0.9200224E-01
         -2   -1    0    0    0  501 -0.00000000000E+00  0.00000000000E+00  0.87689111249E+03  0.87689111249E+03  0.00000000000E+00 0.  1.
          1   -1    0    0  501    0  0.00000000000E+00 -0.00000000000E+00 -0.15947414406E+04  0.15947414406E+04  0.00000000000E+00 0. -1.
        -24    2    1    2    0    0  0.10745527984E+04  0.96131292262E+02 -0.58521128354E+03  0.12299482416E+04  0.79971800504E+02 0.  0.
    5000000    2    1    2    0    0 -0.10745527984E+04 -0.96131292262E+02 -0.13263904459E+03  0.12416843115E+04  0.60023484692E+03 0.  0.
        -24    2    4    4    0    0 -0.51690776294E+03  0.11414245200E+03 -0.30473721122E+03  0.61627375595E+03  0.81892854623E+02 0.  0.
         24    2    4    4    0    0 -0.55764503542E+03 -0.21027374426E+03  0.17209816663E+03  0.62541055554E+03  0.79608736840E+02 0.  0.
         11    1    5    5    0    0 -0.20153100669E+03  0.13131791531E+02 -0.86700650750E+02  0.21978214997E+03  0.00000000000E+00 0. -1.
        -12    1    5    5    0    0 -0.31537675625E+03  0.10101066047E+03 -0.21803656047E+03  0.39649160597E+03  0.00000000000E+00 0.  1.
         15    1    3    3    0    0  0.40144802999E+03  0.54373629542E+02 -0.25864189436E+03  0.48064102990E+03  0.17770000000E+01 0. -1.
        -16    1    3    3    0    0  0.67310476836E+03  0.41757662720E+02 -0.32656938918E+03  0.74930721172E+03  0.00000000000E+00 0.  1.
          4    1    6    6  502    0 -0.45356848968E+03 -0.15229588547E+03  0.10947661423E+03  0.49081925454E+03  0.00000000000E+00 0. -1.
         -3    1    6    6    0  502 -0.10407654573E+03 -0.57977858788E+02  0.62621552394E+02  0.13459130100E+03  0.00000000000E+00 0.  1.
<mgrwt>
<rscale>  0 0.11051114E+04</rscale>
<asrwt>0</asrwt>
<pdfrwt beam="1">  1        1 0.24534484E+00 0.11051114E+04</pdfrwt>
<pdfrwt beam="2">  1       -2 0.13490633E+00 0.11051114E+04</pdfrwt>
<totfact> 0.19258251E+00</totfact>
</mgrwt>
</event>
<event>
12    3  0.1092576E-007  0.5775394E+03  0.7818608E-02  0.9953132E-01
         -2   -1    0    0    0  501 -0.00000000000E+00  0.00000000000E+00  0.40366016586E+03  0.40366016586E+03  0.00000000000E+00 0.  1.
          1   -1    0    0  501    0  0.00000000000E+00 -0.00000000000E+00 -0.92845117286E+03  0.92845117286E+03  0.00000000000E+00 0. -1.
        -24    2    1    2    0    0  0.41966114819E+03 -0.26994795972E+02 -0.40576321328E+03  0.58981810102E+03  0.79983802926E+02 0.  0.
    5000000    2    1    2    0    0 -0.41966114819E+03  0.26994795972E+02 -0.11902779373E+03  0.74229323770E+03  0.59998953053E+03 0.  0.
        -24    2    4    4    0    0 -0.15139529368E+03  0.29416187739E+03 -0.13769708927E+02  0.34083781462E+03  0.80802635666E+02 0.  0.
         24    2    4    4    0    0 -0.26826585450E+03 -0.26716708142E+03 -0.10525808480E+03  0.40145542308E+03  0.82111961492E+02 0.  0.
         13    1    5    5    0    0 -0.24850481862E+02  0.13476820059E+03 -0.52586672982E+01  0.13714105119E+03  0.00000000000E+00 0. -1.
        -14    1    5    5    0    0 -0.12654481182E+03  0.15939367680E+03 -0.85110416287E+01  0.20369676343E+03  0.00000000000E+00 0.  1.
         15    1    3    3    0    0  0.30993878243E+03  0.15156415831E+02 -0.30250180224E+03  0.43336158561E+03  0.17770000000E+01 0. -1.
        -16    1    3    3    0    0  0.10972236575E+03 -0.42151211803E+02 -0.10326141104E+03  0.15645651541E+03  0.00000000000E+00 0.  1.
          2    1    6    6  502    0 -0.17539550943E+03 -0.22332179150E+03 -0.66205030934E+02  0.29158071508E+03  0.00000000000E+00 0. -1.
         -1    1    6    6    0  502 -0.92870345075E+02 -0.43845289923E+02 -0.39053053866E+02  0.10987470800E+03  0.00000000000E+00 0.  1.
<mgrwt>
<rscale>  0 0.57753943E+03</rscale>
<asrwt>0</asrwt>
<pdfrwt beam="1">  1        1 0.14283864E+00 0.57753943E+03</pdfrwt>
<pdfrwt beam="2">  1       -2 0.62101565E-01 0.57753943E+03</pdfrwt>
<totfact> 0.37849327E+01</totfact>
</mgrwt>
</event>
<event>
12    3  0.1092576E-007  0.9365312E+03  0.7818608E-02  0.9381034E-01
          1   -1    0    0  501    0  0.00000000000E+00  0.00000000000E+00  0.10832027418E+04  0.10832027418E+04  0.00000000000E+00 0. -1.
         -2   -1    0    0    0  501 -0.00000000000E+00 -0.00000000000E+00 -0.95460137971E+03  0.95460137971E+03  0.00000000000E+00 0.  1.
        -24    2    1    2    0    0 -0.83385304532E+03 -0.13721964887E+03  0.43933062353E+03  0.95569435980E+03  0.78741217701E+02 0.  0.
    5000000    2    1    2    0    0  0.83385304532E+03  0.13721964887E+03 -0.31072926141E+03  0.10821097617E+04  0.60022389932E+03 0.  0.
        -24    2    4    4    0    0  0.13437873635E+03  0.27635446924E+03 -0.86620387009E+02  0.32895295054E+03  0.79230769129E+02 0.  0.
         24    2    4    4    0    0  0.69947430897E+03 -0.13913482037E+03 -0.22410887440E+03  0.75315681119E+03  0.91638351729E+02 0.  0.
         11    1    5    5    0    0  0.60391397496E+02  0.16457316619E+03 -0.12433286412E+02  0.17574423044E+03  0.00000000000E+00 0. -1.
        -12    1    5    5    0    0  0.73987338854E+02  0.11178130304E+03 -0.74187100597E+02  0.15320872010E+03  0.00000000000E+00 0.  1.
         15    1    3    3    0    0 -0.51241790766E+03 -0.87056619140E+02  0.31280184838E+03  0.60662931112E+03  0.17770000000E+01 0. -1.
        -16    1    3    3    0    0 -0.32143513766E+03 -0.50163029730E+02  0.12652877515E+03  0.34906504869E+03  0.00000000000E+00 0.  1.
          4    1    6    6  502    0  0.49777272603E+03 -0.13938034053E+03 -0.17273233071E+03  0.54501470089E+03  0.00000000000E+00 0. -1.
         -3    1    6    6    0  502  0.20170158294E+03  0.24552016900E+00 -0.51376543691E+02  0.20814211030E+03  0.00000000000E+00 0.  1.
<mgrwt>
<rscale>  0 0.93653123E+03</rscale>
<asrwt>0</asrwt>
<pdfrwt beam="1">  1        1 0.16664658E+00 0.93653123E+03</pdfrwt>
<pdfrwt beam="2">  1       -2 0.14686175E+00 0.93653123E+03</pdfrwt>
<totfact> 0.36382791E+00</totfact>
</mgrwt>
</event>
<event>
12    3  0.1092576E-007  0.9782771E+03  0.7818608E-02  0.9332696E-01
         -2   -1    0    0    0  501 -0.00000000000E+00  0.00000000000E+00  0.98933077210E+03  0.98933077210E+03  0.00000000000E+00 0.  1.
          1   -1    0    0  501    0  0.00000000000E+00 -0.00000000000E+00 -0.10164365767E+04  0.10164365767E+04  0.00000000000E+00 0. -1.
        -24    2    1    2    0    0 -0.85979164689E+03 -0.26336815533E+03  0.13473878760E+03  0.91271820371E+03  0.79344295338E+02 0.  0.
    5000000    2    1    2    0    0  0.85979164689E+03  0.26336815533E+03 -0.16184459222E+03  0.10930491451E+04  0.59996524923E+03 0.  0.
        -24    2    4    4    0    0  0.63762107172E+03 -0.76610749657E+02  0.17949169405E+01  0.64738164760E+03  0.81669687456E+02 0.  0.
         24    2    4    4    0    0  0.22217057517E+03  0.33997890499E+03 -0.16363950917E+03  0.44566749751E+03  0.83043416771E+02 0.  0.
         13    1    5    5    0    0  0.60113908459E+03 -0.66722523047E+02 -0.17207936715E+02  0.60507537315E+03  0.00000000000E+00 0. -1.
        -14    1    5    5    0    0  0.36481987133E+02 -0.98882266100E+01  0.19002853656E+02  0.42306274449E+02  0.00000000000E+00 0.  1.
         15    1    3    3    0    0 -0.48908121043E+03 -0.17017873048E+03  0.43056556817E+02  0.51963280835E+03  0.17770000000E+01 0. -1.
        -16    1    3    3    0    0 -0.37071043646E+03 -0.93189424854E+02  0.91682230785E+02  0.39308539536E+03  0.00000000000E+00 0.  1.
          2    1    6    6  502    0  0.21861540614E+03  0.28720840414E+03 -0.15119723148E+03  0.39133357384E+03  0.00000000000E+00 0. -1.
         -1    1    6    6    0  502  0.35551690221E+01  0.52770500851E+02 -0.12442277690E+02  0.54333923666E+02  0.00000000000E+00 0.  1.
<mgrwt>
<rscale>  0 0.97827705E+03</rscale>
<asrwt>0</asrwt>
<pdfrwt beam="1">  1        1 0.15637486E+00 0.97827705E+03</pdfrwt>
<pdfrwt beam="2">  1       -2 0.15220473E+00 0.97827705E+03</pdfrwt>
<totfact> 0.37053647E+00</totfact>
</mgrwt>
</event>
<event>
12    3  0.1092576E-007  0.7762851E+03  0.7818608E-02  0.9594992E-01
          1   -1    0    0  501    0  0.00000000000E+00  0.00000000000E+00  0.36238903761E+04  0.36238903761E+04  0.00000000000E+00 0. -1.
         -2   -1    0    0    0  501 -0.00000000000E+00 -0.00000000000E+00 -0.21398489473E+03  0.21398489473E+03  0.00000000000E+00 0.  1.
        -24    2    1    2    0    0 -0.57570484648E+03  0.46891116295E+03  0.20040195757E+04  0.21385026007E+04  0.76060266594E+02 0.  0.
    5000000    2    1    2    0    0  0.57570484648E+03 -0.46891116295E+03  0.14058859056E+04  0.16993726702E+04  0.60003211865E+03 0.  0.
        -24    2    4    4    0    0  0.29351596500E+03 -0.65163500809E+02  0.14484957967E+03  0.34318076951E+03  0.79960842195E+02 0.  0.
         24    2    4    4    0    0  0.28218888148E+03 -0.40374766214E+03  0.12610363260E+04  0.13561919006E+04  0.80006977492E+02 0.  0.
         13    1    5    5    0    0  0.86229682753E+02  0.10089391267E+02  0.65730258412E+02  0.10889362183E+03  0.00000000000E+00 0. -1.
        -14    1    5    5    0    0  0.20728628225E+03 -0.75252892076E+02  0.79119321254E+02  0.23428714768E+03  0.00000000000E+00 0.  1.
         15    1    3    3    0    0 -0.41370220158E+03  0.29238984774E+03  0.13374255011E+04  0.14301578456E+04  0.17770000000E+01 0. -1.
        -16    1    3    3    0    0 -0.16200264490E+03  0.17652131521E+03  0.66659407466E+03  0.70834475508E+03  0.00000000000E+00 0.  1.
          4    1    6    6  502    0  0.19557062084E+03 -0.33718009157E+03  0.98807791080E+03  0.10621846542E+04  0.00000000000E+00 0. -1.
         -1    1    6    6    0  502  0.86618260643E+02 -0.66567570561E+02  0.27295841517E+03  0.29400724641E+03  0.00000000000E+00 0.  1.
<mgrwt>
<rscale>  0 0.77628513E+03</rscale>
<asrwt>0</asrwt>
<pdfrwt beam="1">  1        1 0.55752155E+00 0.77628513E+03</pdfrwt>
<pdfrwt beam="2">  1       -2 0.32920756E-01 0.77628513E+03</pdfrwt>
<totfact> 0.16278090E+00</totfact>
</mgrwt>
</event>
<event>
12    3  0.1092576E-007  0.1184228E+04  0.7818608E-02  0.9126775E-01
         -2   -1    0    0    0  501 -0.00000000000E+00  0.00000000000E+00  0.19575689325E+04  0.19575689325E+04  0.00000000000E+00 0.  1.
          1   -1    0    0  501    0  0.00000000000E+00 -0.00000000000E+00 -0.79257062385E+03  0.79257062385E+03  0.00000000000E+00 0. -1.
        -24    2    1    2    0    0  0.94711929939E+03 -0.57498650887E+03  0.12762926784E+03  0.11180338962E+04  0.77885238537E+02 0.  0.
    5000000    2    1    2    0    0 -0.94711929939E+03  0.57498650887E+03  0.10373690409E+04  0.16321056602E+04  0.59999158862E+03 0.  0.
        -24    2    4    4    0    0 -0.86196516812E+03  0.23189027647E+03  0.70573405897E+03  0.11409161669E+04  0.82898049373E+02 0.  0.
         24    2    4    4    0    0 -0.85154131275E+02  0.34309623240E+03  0.33163498189E+03  0.49118949326E+03  0.79492806714E+02 0.  0.
         11    1    5    5    0    0 -0.26367019106E+03  0.10944809785E+03  0.23805180516E+03  0.37171160558E+03  0.00000000000E+00 0. -1.
        -12    1    5    5    0    0 -0.59829497706E+03  0.12244217862E+03  0.46768225381E+03  0.76920456135E+03  0.00000000000E+00 0.  1.
         15    1    3    3    0    0  0.14318341980E+03 -0.58529424079E+02  0.29436855471E+02  0.15747022378E+03  0.17770000000E+01 0. -1.
        -16    1    3    3    0    0  0.80393587959E+03 -0.51645708479E+03  0.98192412364E+02  0.96056367242E+03  0.00000000000E+00 0.  1.
          4    1    6    6  502    0 -0.88193346050E+02  0.19605918190E+03  0.18734468724E+03  0.28515837868E+03  0.00000000000E+00 0. -1.
         -3    1    6    6    0  502  0.30392147750E+01  0.14703705049E+03  0.14429029465E+03  0.20603111458E+03  0.00000000000E+00 0.  1.
<mgrwt>
<rscale>  0 0.11842278E+04</rscale>
<asrwt>0</asrwt>
<pdfrwt beam="1">  1        1 0.12193394E+00 0.11842278E+04</pdfrwt>
<pdfrwt beam="2">  1       -2 0.30116445E+00 0.11842278E+04</pdfrwt>
<totfact> 0.60579640E-01</totfact>
</mgrwt>
</event>
<event>
12    3  0.1092576E-007  0.1387099E+04  0.7818608E-02  0.8963211E-01
         -2   -1    0    0    0  501 -0.00000000000E+00  0.00000000000E+00  0.79778744775E+03  0.79778744775E+03  0.00000000000E+00 0.  1.
          1   -1    0    0  501    0  0.00000000000E+00 -0.00000000000E+00 -0.28064048378E+04  0.28064048378E+04  0.00000000000E+00 0. -1.
        -24    2    1    2    0    0 -0.23885760755E+02 -0.13503050965E+04 -0.15488735178E+04  0.20565227014E+04  0.79887818801E+02 0.  0.
    5000000    2    1    2    0    0  0.23885760755E+02  0.13503050965E+04 -0.45974387223E+03  0.15476695842E+04  0.60001860849E+03 0.  0.
        -24    2    4    4    0    0  0.22854366527E+03  0.69819368727E+03 -0.43779375745E+03  0.85884418734E+03  0.79014759309E+02 0.  0.
         24    2    4    4    0    0 -0.20465790451E+03  0.65211140928E+03 -0.21950114776E+02  0.68882539688E+03  0.82852108339E+02 0.  0.
         11    1    5    5    0    0  0.10502819695E+03  0.44081862509E+03 -0.25772216250E+03  0.52131822856E+03  0.00000000000E+00 0. -1.
        -12    1    5    5    0    0  0.12351546831E+03  0.25737506218E+03 -0.18007159495E+03  0.33752595878E+03  0.00000000000E+00 0.  1.
         15    1    3    3    0    0  0.19224245244E+02 -0.74459122611E+03 -0.88809883874E+03  0.11590980850E+04  0.17770000000E+01 0. -1.
        -16    1    3    3    0    0 -0.43110005999E+02 -0.60571387044E+03 -0.66077467910E+03  0.89742461633E+03  0.00000000000E+00 0.  1.
          4    1    6    6  502    0 -0.13439855755E+03  0.43017929107E+03 -0.53735561102E+02  0.45387741216E+03  0.00000000000E+00 0. -1.
         -3    1    6    6    0  502 -0.70259346959E+02  0.22193211820E+03  0.31785446325E+02  0.23494798472E+03  0.00000000000E+00 0.  1.
<mgrwt>
<rscale>  0 0.13870985E+04</rscale>
<asrwt>0</asrwt>
<pdfrwt beam="1">  1        1 0.43175459E+00 0.13870985E+04</pdfrwt>
<pdfrwt beam="2">  1       -2 0.12273653E+00 0.13870985E+04</pdfrwt>
<totfact> 0.35021218E-01</totfact>
</mgrwt>
</event>
<event>
12    3  0.1092576E-007  0.5455465E+03  0.7818608E-02  0.1002530E+00
         -2   -1    0    0    0  501 -0.00000000000E+00  0.00000000000E+00  0.19322100421E+03  0.19322100421E+03  0.00000000000E+00 0.  1.
          1   -1    0    0  501    0  0.00000000000E+00 -0.00000000000E+00 -0.17530647974E+04  0.17530647974E+04  0.00000000000E+00 0. -1.
        -24    2    1    2    0    0 -0.39844768673E+03  0.12336347530E+03 -0.68995328530E+03  0.81017170855E+03  0.79771895713E+02 0.  0.
    5000000    2    1    2    0    0  0.39844768673E+03 -0.12336347530E+03 -0.86989050792E+03  0.11361140931E+04  0.60005552297E+03 0.  0.
        -24    2    4    4    0    0  0.43625204159E+03  0.93071545654E+02 -0.37309670891E+03  0.58715102831E+03  0.81037148526E+02 0.  0.
         24    2    4    4    0    0 -0.37804354861E+02 -0.21643502096E+03 -0.49679379902E+03  0.54896306478E+03  0.79265883033E+02 0.  0.
         13    1    5    5    0    0  0.17569877168E+03  0.56174684507E+02 -0.20051108327E+03  0.27245246937E+03  0.00000000000E+00 0. -1.
        -14    1    5    5    0    0  0.26055326991E+03  0.36896861146E+02 -0.17258562564E+03  0.31469855894E+03  0.00000000000E+00 0.  1.
         15    1    3    3    0    0 -0.10727960637E+03  0.41977500124E+02 -0.26186093117E+03  0.28608622732E+03  0.17770000000E+01 0. -1.
        -16    1    3    3    0    0 -0.29116808036E+03  0.81385975179E+02 -0.42809235413E+03  0.52408548123E+03  0.00000000000E+00 0.  1.
          2    1    6    6  502    0 -0.13642556308E+02 -0.18854194167E+03 -0.45771314376E+03  0.49521258574E+03  0.00000000000E+00 0. -1.
         -1    1    6    6    0  502 -0.24161798554E+02 -0.27893079291E+02 -0.39080655258E+02  0.53750479040E+02  0.00000000000E+00 0.  1.
<mgrwt>
<rscale>  0 0.54554652E+03</rscale>
<asrwt>0</asrwt>
<pdfrwt beam="1">  1        1 0.26970227E+00 0.54554652E+03</pdfrwt>
<pdfrwt beam="2">  1       -2 0.29726309E-01 0.54554652E+03</pdfrwt>
<totfact> 0.42486205E+01</totfact>
</mgrwt>
</event>
<event>
12    3  0.1092576E-007  0.5963139E+03  0.7818608E-02  0.9913083E-01
         -2   -1    0    0    0  501 -0.00000000000E+00  0.00000000000E+00  0.53455243448E+03  0.53455243448E+03  0.00000000000E+00 0.  1.
          1   -1    0    0  501    0  0.00000000000E+00 -0.00000000000E+00 -0.74400877472E+03  0.74400877472E+03  0.00000000000E+00 0. -1.
        -24    2    1    2    0    0 -0.14338950493E+03 -0.42895984390E+03 -0.25502207651E+03  0.52566810824E+03  0.81997577501E+02 0.  0.
    5000000    2    1    2    0    0  0.14338950493E+03  0.42895984390E+03  0.45565736268E+02  0.75289310096E+03  0.60017054855E+03 0.  0.
        -24    2    4    4    0    0  0.36875676655E+03  0.26425714079E+03  0.75692844527E+02  0.46675488427E+03  0.79481607611E+02 0.  0.
         24    2    4    4    0    0 -0.22536726162E+03  0.16470270311E+03 -0.30127108259E+02  0.28613821668E+03  0.55227288276E+02 0.  0.
         13    1    5    5    0    0  0.24849008446E+03  0.14172580424E+03  0.22212097540E+02  0.28692665080E+03  0.00000000000E+00 0. -1.
        -14    1    5    5    0    0  0.12026668209E+03  0.12253133654E+03  0.53480746987E+02  0.17982823348E+03  0.00000000000E+00 0.  1.
         15    1    3    3    0    0 -0.10428045139E+03 -0.24557197559E+03 -0.18863577515E+03  0.32675161994E+03  0.17770000000E+01 0. -1.
        -16    1    3    3    0    0 -0.39109053537E+02 -0.18338786830E+03 -0.66386301359E+02  0.19891648830E+03  0.00000000000E+00 0.  1.
          4    1    6    6  502    0 -0.72669057361E+02  0.69855691383E+02  0.11996784768E+02  0.10151124254E+03  0.00000000000E+00 0. -1.
         -3    1    6    6    0  502 -0.15269820426E+03  0.94847011726E+02 -0.42123893027E+02  0.18462697415E+03  0.00000000000E+00 0.  1.
<mgrwt>
<rscale>  0 0.59631389E+03</rscale>
<asrwt>0</asrwt>
<pdfrwt beam="1">  1        1 0.11446289E+00 0.59631389E+03</pdfrwt>
<pdfrwt beam="2">  1       -2 0.82238837E-01 0.59631389E+03</pdfrwt>
<totfact> 0.29223646E+01</totfact>
</mgrwt>
</event>
<event>
12    3  0.1092576E-007  0.6769184E+03  0.7818608E-02  0.9757540E-01
          1   -1    0    0  501    0  0.00000000000E+00  0.00000000000E+00  0.56713817045E+03  0.56713817045E+03  0.00000000000E+00 0. -1.
         -2   -1    0    0    0  501 -0.00000000000E+00 -0.00000000000E+00 -0.92724167004E+03  0.92724167004E+03  0.00000000000E+00 0.  1.
        -24    2    1    2    0    0  0.32756170286E+03  0.45387984806E+03 -0.36653111835E+03  0.67383900425E+03  0.80064706792E+02 0.  0.
    5000000    2    1    2    0    0 -0.32756170286E+03 -0.45387984806E+03  0.64276187599E+01  0.82054083625E+03  0.59995196809E+03 0.  0.
        -24    2    4    4    0    0 -0.15253208662E+03  0.10763767941E+03  0.87015085874E+02  0.22096224937E+03  0.80004893604E+02 0.  0.
         24    2    4    4    0    0 -0.17502961624E+03 -0.56151752746E+03 -0.80587467114E+02  0.59957858688E+03  0.84040715023E+02 0.  0.
         11    1    5    5    0    0 -0.13713043161E+03  0.54746854577E+02  0.57407649378E+02  0.15842225717E+03  0.00000000000E+00 0. -1.
        -12    1    5    5    0    0 -0.15401655002E+02  0.52890824828E+02  0.29607436496E+02  0.62539992194E+02  0.00000000000E+00 0.  1.
         15    1    3    3    0    0  0.17918528801E+03  0.28330932514E+03 -0.17848035829E+03  0.37977616721E+03  0.17770000000E+01 0. -1.
        -16    1    3    3    0    0  0.14837641485E+03  0.17057052291E+03 -0.18805076006E+03  0.29406283704E+03  0.00000000000E+00 0.  1.
          4    1    6    6  502    0 -0.55941146970E+02 -0.11832529818E+03  0.11954395344E+02  0.13142753015E+03  0.00000000000E+00 0. -1.
         -3    1    6    6    0  502 -0.11908846927E+03 -0.44319222928E+03 -0.92541862459E+02  0.46815105673E+03  0.00000000000E+00 0.  1.
<mgrwt>
<rscale>  0 0.67691843E+03</rscale>
<asrwt>0</asrwt>
<pdfrwt beam="1">  1        1 0.87252027E-01 0.67691843E+03</pdfrwt>
<pdfrwt beam="2">  1       -2 0.14265256E+00 0.67691843E+03</pdfrwt>
<totfact> 0.11426029E+01</totfact>
</mgrwt>
</event>
<event>
12    3  0.1092576E-007  0.9510042E+03  0.7818608E-02  0.9363978E-01
         -2   -1    0    0    0  501 -0.00000000000E+00  0.00000000000E+00  0.43596136026E+03  0.43596136026E+03  0.00000000000E+00 0.  1.
          1   -1    0    0  501    0  0.00000000000E+00 -0.00000000000E+00 -0.28780526148E+04  0.28780526148E+04  0.00000000000E+00 0. -1.
        -24    2    1    2    0    0  0.20124244677E+03 -0.87854510873E+03 -0.37297116277E+03  0.97870229367E+03  0.80066603100E+02 0.  0.
    5000000    2    1    2    0    0 -0.20124244677E+03  0.87854510873E+03 -0.20691200918E+04  0.23353116814E+04  0.60006888318E+03 0.  0.
        -24    2    4    4    0    0 -0.32654878446E+03  0.51250772648E+03 -0.16462680541E+04  0.17566225936E+04  0.78905969107E+02 0.  0.
         24    2    4    4    0    0  0.12530633769E+03  0.36603738225E+03 -0.42285203768E+03  0.57868908781E+03  0.79951054492E+02 0.  0.
         11    1    5    5    0    0 -0.12793310626E+03  0.23913562662E+03 -0.63843089507E+03  0.69364741431E+03  0.00000000000E+00 0. -1.
        -12    1    5    5    0    0 -0.19861567821E+03  0.27337209986E+03 -0.10078371590E+04  0.10629751793E+04  0.00000000000E+00 0.  1.
         15    1    3    3    0    0  0.80131688641E+02 -0.44135789719E+03 -0.22264963618E+03  0.50079326988E+03  0.17770000000E+01 0. -1.
        -16    1    3    3    0    0  0.12111075813E+03 -0.43718721154E+03 -0.15032152659E+03  0.47790902380E+03  0.00000000000E+00 0.  1.
          4    1    6    6  502    0  0.55294334824E+02  0.24198277575E+03 -0.22591548968E+03  0.33563512287E+03  0.00000000000E+00 0. -1.
         -3    1    6    6    0  502  0.70012002870E+02  0.12405460650E+03 -0.19693654799E+03  0.24305396495E+03  0.00000000000E+00 0.  1.
<mgrwt>
<rscale>  0 0.95100417E+03</rscale>
<asrwt>0</asrwt>
<pdfrwt beam="1">  1        1 0.44277732E+00 0.95100417E+03</pdfrwt>
<pdfrwt beam="2">  1       -2 0.67070980E-01 0.95100417E+03</pdfrwt>
<totfact> 0.13522580E+00</totfact>
</mgrwt>
</event>
<event>
12    3  0.1092576E-007  0.8198814E+03  0.7818608E-02  0.9531677E-01
         -2   -1    0    0    0  501 -0.00000000000E+00  0.00000000000E+00  0.71310112089E+03  0.71310112089E+03  0.00000000000E+00 0.  1.
          1   -1    0    0  501    0  0.00000000000E+00 -0.00000000000E+00 -0.10438300910E+04  0.10438300910E+04  0.00000000000E+00 0. -1.
        -24    2    1    2    0    0 -0.67037689455E+03 -0.25711577183E+03  0.95037252961E+02  0.72886384371E+03  0.81833503802E+02 0.  0.
    5000000    2    1    2    0    0  0.67037689455E+03  0.25711577183E+03 -0.42576622308E+03  0.10280673682E+04  0.60010993654E+03 0.  0.
        -24    2    4    4    0    0  0.33706206288E+03  0.42748141145E+03 -0.30163962723E+03  0.62729427757E+03  0.78488563402E+02 0.  0.
         24    2    4    4    0    0  0.33331483167E+03 -0.17036563962E+03 -0.12412659585E+03  0.40077309062E+03  0.71333233433E+02 0.  0.
         13    1    5    5    0    0  0.11639106517E+03  0.12351937807E+03 -0.56996251829E+02  0.17903209079E+03  0.00000000000E+00 0. -1.
        -14    1    5    5    0    0  0.22067099771E+03  0.30396203338E+03 -0.24464337540E+03  0.44826218678E+03  0.00000000000E+00 0.  1.
         15    1    3    3    0    0 -0.37255661141E+03 -0.11369543676E+03  0.20814813285E+02  0.39007883206E+03  0.17770000000E+01 0. -1.
        -16    1    3    3    0    0 -0.29782028314E+03 -0.14342033508E+03  0.74222439676E+02  0.33878501165E+03  0.00000000000E+00 0.  1.
          4    1    6    6  502    0  0.61401214656E+01 -0.25655529393E+01  0.76845800592E+01  0.10165427890E+02  0.00000000000E+00 0. -1.
         -3    1    6    6    0  502  0.32717471020E+03 -0.16780008668E+03 -0.13181117591E+03  0.39060766273E+03  0.00000000000E+00 0.  1.
<mgrwt>
<rscale>  0 0.81988137E+03</rscale>
<asrwt>0</asrwt>
<pdfrwt beam="1">  1        1 0.16058924E+00 0.81988137E+03</pdfrwt>
<pdfrwt beam="2">  1       -2 0.10970787E+00 0.81988137E+03</pdfrwt>
<totfact> 0.82457220E+00</totfact>
</mgrwt>
</event>
<event>
12    3  0.1092576E-007  0.1042779E+04  0.7818608E-02  0.9262831E-01
         -2   -1    0    0    0  501 -0.00000000000E+00  0.00000000000E+00  0.54875556140E+03  0.54875556140E+03  0.00000000000E+00 0.  1.
          1   -1    0    0  501    0  0.00000000000E+00 -0.00000000000E+00 -0.21085275211E+04  0.21085275211E+04  0.00000000000E+00 0. -1.
        -24    2    1    2    0    0  0.82997220965E+03 -0.53075149807E+03 -0.84433978423E+03  0.13000366478E+04  0.81453009704E+02 0.  0.
    5000000    2    1    2    0    0 -0.82997220965E+03  0.53075149807E+03 -0.71543217551E+03  0.13572464348E+04  0.59976967701E+03 0.  0.
        -24    2    4    4    0    0 -0.14271295384E+03  0.36370716921E+03 -0.89805032016E+02  0.40961276584E+03  0.84070101926E+02 0.  0.
         24    2    4    4    0    0 -0.68725925581E+03  0.16704432887E+03 -0.62562714350E+03  0.94763366894E+03  0.79819517191E+02 0.  0.
         11    1    5    5    0    0 -0.12792815199E+03  0.31612085297E+03 -0.10616112234E+03  0.35716689327E+03  0.00000000000E+00 0. -1.
        -12    1    5    5    0    0 -0.14784801855E+02  0.47586316236E+02  0.16356090323E+02  0.52445872569E+02  0.00000000000E+00 0.  1.
         15    1    3    3    0    0  0.68426054063E+03 -0.46208869980E+03 -0.67669636724E+03  0.10675483994E+04  0.17770000000E+01 0. -1.
        -16    1    3    3    0    0  0.14571166902E+03 -0.68662798278E+02 -0.16764341699E+03  0.23248824834E+03  0.00000000000E+00 0.  1.
          2    1    6    6  502    0 -0.40044498445E+03  0.11303080564E+03 -0.41533720931E+03  0.58790913076E+03  0.00000000000E+00 0. -1.
         -1    1    6    6    0  502 -0.28681427136E+03  0.54013523225E+02 -0.21028993419E+03  0.35972453818E+03  0.00000000000E+00 0.  1.
<mgrwt>
<rscale>  0 0.10427791E+04</rscale>
<asrwt>0</asrwt>
<pdfrwt beam="1">  1        1 0.32438884E+00 0.10427791E+04</pdfrwt>
<pdfrwt beam="2">  1       -2 0.84423934E-01 0.10427791E+04</pdfrwt>
<totfact> 0.27097054E+00</totfact>
</mgrwt>
</event>
<event>
12    3  0.1092576E-007  0.8034698E+03  0.7818608E-02  0.9555008E-01
         -2   -1    0    0    0  501 -0.00000000000E+00  0.00000000000E+00  0.18121191238E+03  0.18121191238E+03  0.00000000000E+00 0.  1.
          1   -1    0    0  501    0  0.00000000000E+00 -0.00000000000E+00 -0.45861861340E+04  0.45861861340E+04  0.00000000000E+00 0. -1.
        -24    2    1    2    0    0  0.67036091042E+03  0.18791192792E+03 -0.30548120835E+04  0.31341264407E+04  0.78594133675E+02 0.  0.
    5000000    2    1    2    0    0 -0.67036091042E+03 -0.18791192792E+03 -0.13501621382E+04  0.16332716057E+04  0.59995307807E+03 0.  0.
        -24    2    4    4    0    0 -0.40620857748E+03 -0.39451402211E+03 -0.78868960239E+03  0.97441793706E+03  0.82536689316E+02 0.  0.
         24    2    4    4    0    0 -0.26415233293E+03  0.20660209419E+03 -0.56147253577E+03  0.65885366867E+03  0.79849032397E+02 0.  0.
         13    1    5    5    0    0 -0.30786507255E+03 -0.33964067880E+03 -0.65743381471E+03  0.80147109387E+03  0.00000000000E+00 0. -1.
        -14    1    5    5    0    0 -0.98343504933E+02 -0.54873343317E+02 -0.13125578768E+03  0.17294684319E+03  0.00000000000E+00 0.  1.
         15    1    3    3    0    0  0.27794819125E+03  0.38287563371E+02 -0.12013257135E+04  0.12336562577E+04  0.17770000000E+01 0. -1.
        -16    1    3    3    0    0  0.39241271916E+03  0.14962436455E+03 -0.18534863700E+04  0.19004701830E+04  0.00000000000E+00 0.  1.
          2    1    6    6  502    0 -0.23625128217E+03  0.18602173419E+03 -0.53998851885E+03  0.61806662619E+03  0.00000000000E+00 0. -1.
         -1    1    6    6    0  502 -0.27901050761E+02  0.20580359995E+02 -0.21484016925E+02  0.40787042481E+02  0.00000000000E+00 0.  1.
<mgrwt>
<rscale>  0 0.80346983E+03</rscale>
<asrwt>0</asrwt>
<pdfrwt beam="1">  1        1 0.70556711E+00 0.80346983E+03</pdfrwt>
<pdfrwt beam="2">  1       -2 0.27878755E-01 0.80346983E+03</pdfrwt>
<totfact> 0.30247115E-01</totfact>
</mgrwt>
</event>
<event>
12    3  0.1336704E-007  0.1444770E+04  0.7818608E-02  0.8922035E-01
          1   -1    0    0  501    0  0.00000000000E+00  0.00000000000E+00  0.18294276066E+04  0.18294276066E+04  0.00000000000E+00 0. -1.
         -2   -1    0    0    0  501 -0.00000000000E+00 -0.00000000000E+00 -0.11868557836E+04  0.11868557836E+04  0.00000000000E+00 0.  1.
        -24    2    1    2    0    0  0.13951551688E+04 -0.12297930905E+03  0.13067527790E+03  0.14089292163E+04  0.80147694064E+02 0.  0.
    5000000    2    1    2    0    0 -0.13951551688E+04  0.12297930905E+03  0.51189654516E+03  0.16073541739E+04  0.59997292609E+03 0.  0.
        -24    2    4    4    0    0 -0.13746397723E+04  0.37584113759E+02  0.54687066297E+03  0.14823381743E+04  0.84922739889E+02 0.  0.
         24    2    4    4    0    0 -0.20515396456E+02  0.85395195290E+02 -0.34974117806E+02  0.12501599961E+03  0.81808253684E+02 0.  0.
         13    1    5    5    0    0 -0.62836834848E+03 -0.24607597141E+02  0.25678175205E+03  0.67925634586E+03  0.00000000000E+00 0. -1.
        -14    1    5    5    0    0 -0.74627142385E+03  0.62191710900E+02  0.29008891092E+03  0.80308182846E+03  0.00000000000E+00 0.  1.
         15    1    3    3    0    0  0.87339952617E+03 -0.84387396379E+02  0.43595660663E+02  0.87855091164E+03  0.17770000000E+01 0. -1.
        -16    1    3    3    0    0  0.52175564261E+03 -0.38591912670E+02  0.87079617241E+02  0.53037830467E+03  0.00000000000E+00 0.  1.
          2    1    6    6  502    0 -0.41113662071E+01 -0.11859938244E+02 -0.22281272061E+02  0.25573747318E+02  0.00000000000E+00 0. -1.
         -1    1    6    6    0  502 -0.16404030248E+02  0.97255133534E+02 -0.12692845745E+02  0.99442252288E+02  0.00000000000E+00 0.  1.
<mgrwt>
<rscale>  0 0.14447695E+04</rscale>
<asrwt>0</asrwt>
<pdfrwt beam="1">  1        1 0.28145040E+00 0.14447695E+04</pdfrwt>
<pdfrwt beam="2">  1       -2 0.18259320E+00 0.14447695E+04</pdfrwt>
<totfact> 0.56340132E-01</totfact>
</mgrwt>
</event>
<event>
12    3  0.1092576E-007  0.1271060E+04  0.7818608E-02  0.9052835E-01
         -2   -1    0    0    0  501 -0.00000000000E+00  0.00000000000E+00  0.16900203025E+04  0.16900203025E+04  0.00000000000E+00 0.  1.
          1   -1    0    0  501    0  0.00000000000E+00 -0.00000000000E+00 -0.12935132388E+04  0.12935132388E+04  0.00000000000E+00 0. -1.
        -24    2    1    2    0    0  0.74042872818E+02 -0.12433030434E+04 -0.49042462024E+03  0.13409958318E+04  0.80428279085E+02 0.  0.
    5000000    2    1    2    0    0 -0.74042872818E+02  0.12433030434E+04  0.88693168388E+03  0.16425377095E+04  0.59999792539E+03 0.  0.
        -24    2    4    4    0    0 -0.97857092527E+02  0.11840998730E+04  0.94632143957E+03  0.15210133599E+04  0.79302297027E+02 0.  0.
         24    2    4    4    0    0  0.23814219709E+02  0.59203170400E+02 -0.59389755691E+02  0.12152434955E+03  0.84669309709E+02 0.  0.
         11    1    5    5    0    0 -0.30967459458E+02  0.55697487364E+03  0.39749465756E+03  0.68496860965E+03  0.00000000000E+00 0. -1.
        -12    1    5    5    0    0 -0.66889633069E+02  0.62712499936E+03  0.54882678201E+03  0.83604475029E+03  0.00000000000E+00 0.  1.
         15    1    3    3    0    0  0.87960336534E+02 -0.11794216901E+04 -0.46296685411E+03  0.12700842529E+04  0.17770000000E+01 0. -1.
        -16    1    3    3    0    0 -0.13917463716E+02 -0.63881353334E+02 -0.27457766125E+02  0.70911578890E+02  0.00000000000E+00 0.  1.
          4    1    6    6  502    0  0.31680107439E+02 -0.12007867910E+02 -0.24675725558E+02  0.41913118840E+02  0.00000000000E+00 0. -1.
         -3    1    6    6    0  502 -0.78658877302E+01  0.71211038310E+02 -0.34714030133E+02  0.79611230709E+02  0.00000000000E+00 0.  1.
<mgrwt>
<rscale>  0 0.12710596E+04</rscale>
<asrwt>0</asrwt>
<pdfrwt beam="1">  1        1 0.19900204E+00 0.12710596E+04</pdfrwt>
<pdfrwt beam="2">  1       -2 0.26000312E+00 0.12710596E+04</pdfrwt>
<totfact> 0.43293960E-01</totfact>
</mgrwt>
</event>
<event>
12    3  0.1092576E-007  0.7759904E+03  0.7818608E-02  0.9595435E-01
          1   -1    0    0  501    0  0.00000000000E+00  0.00000000000E+00  0.16954189401E+04  0.16954189401E+04  0.00000000000E+00 0. -1.
         -2   -1    0    0    0  501 -0.00000000000E+00 -0.00000000000E+00 -0.66269371990E+03  0.66269371990E+03  0.00000000000E+00 0.  1.
        -24    2    1    2    0    0  0.56228026033E+03  0.49272052330E+03 -0.21821391085E+03  0.78211627011E+03  0.71804901262E+02 0.  0.
    5000000    2    1    2    0    0 -0.56228026033E+03 -0.49272052330E+03  0.12509391310E+04  0.15759963899E+04  0.59998608826E+03 0.  0.
        -24    2    4    4    0    0 -0.23157693860E+03 -0.39194614365E+02  0.57298620671E+02  0.25440066841E+03  0.79198938549E+02 0.  0.
         24    2    4    4    0    0 -0.33070332173E+03 -0.45352590894E+03  0.11936405104E+04  0.13215957215E+04  0.82384136498E+02 0.  0.
         13    1    5    5    0    0 -0.87121445247E+02 -0.62107528892E+00 -0.14860368605E+02  0.88381912808E+02  0.00000000000E+00 0. -1.
        -14    1    5    5    0    0 -0.14445549335E+03 -0.38573539076E+02  0.72158989275E+02  0.16601875560E+03  0.00000000000E+00 0.  1.
         15    1    3    3    0    0  0.39592428748E+03  0.31769305135E+03 -0.12129684059E+03  0.52192048969E+03  0.17770000000E+01 0. -1.
        -16    1    3    3    0    0  0.16635597285E+03  0.17502747195E+03 -0.96917070267E+02  0.26019578042E+03  0.00000000000E+00 0.  1.
          2    1    6    6  502    0 -0.27964038833E+02 -0.10964248226E+02  0.47013984019E+02  0.55789935476E+02  0.00000000000E+00 0. -1.
         -1    1    6    6    0  502 -0.30273928289E+03 -0.44256166071E+03  0.11466265263E+04  0.12658057860E+04  0.00000000000E+00 0.  1.
<mgrwt>
<rscale>  0 0.77599044E+03</rscale>
<asrwt>0</asrwt>
<pdfrwt beam="1">  1        1 0.26083368E+00 0.77599044E+03</pdfrwt>
<pdfrwt beam="2">  1       -2 0.10195288E+00 0.77599044E+03</pdfrwt>
<totfact> 0.34332673E+00</totfact>
</mgrwt>
</event>
<event>
12    3  0.1092576E-007  0.6400882E+03  0.7818608E-02  0.9825558E-01
          1   -1    0    0  501    0  0.00000000000E+00  0.00000000000E+00  0.10445580698E+04  0.10445580698E+04  0.00000000000E+00 0. -1.
         -2   -1    0    0    0  501 -0.00000000000E+00 -0.00000000000E+00 -0.40871722007E+03  0.40871722007E+03  0.00000000000E+00 0.  1.
        -24    2    1    2    0    0 -0.49852896569E+03  0.97935853941E+02  0.18996505342E+03  0.54948080630E+03  0.87862812671E+02 0.  0.
    5000000    2    1    2    0    0  0.49852896569E+03 -0.97935853941E+02  0.44587579629E+03  0.90379448356E+03  0.59993056405E+03 0.  0.
        -24    2    4    4    0    0 -0.10860905022E+03 -0.91322474136E+02  0.16173234317E+03  0.22876117139E+03  0.77708446361E+02 0.  0.
         24    2    4    4    0    0  0.60713801591E+03 -0.66133798043E+01  0.28414345312E+03  0.67503331218E+03  0.79196991382E+02 0.  0.
         13    1    5    5    0    0 -0.78484339675E+02 -0.15482652609E+02  0.85519085705E+02  0.11710259658E+03  0.00000000000E+00 0. -1.
        -14    1    5    5    0    0 -0.30124710543E+02 -0.75839821528E+02  0.76213257464E+02  0.11165857481E+03  0.00000000000E+00 0.  1.
         15    1    3    3    0    0 -0.22934089627E+03  0.71123261338E+02  0.12737304493E+03  0.27181393509E+03  0.17770000000E+01 0. -1.
        -16    1    3    3    0    0 -0.26918806941E+03  0.26812592603E+02  0.62592008490E+02  0.27766687120E+03  0.00000000000E+00 0.  1.
          2    1    6    6  502    0  0.32518472057E+03  0.11604258012E+02  0.11172390176E+03  0.34403777630E+03  0.00000000000E+00 0. -1.
         -1    1    6    6    0  502  0.28195329534E+03 -0.18217637816E+02  0.17241955136E+03  0.33099553588E+03  0.00000000000E+00 0.  1.
<mgrwt>
<rscale>  0 0.64008822E+03</rscale>
<asrwt>0</asrwt>
<pdfrwt beam="1">  1        1 0.16070124E+00 0.64008822E+03</pdfrwt>
<pdfrwt beam="2">  1       -2 0.62879573E-01 0.64008822E+03</pdfrwt>
<totfact> 0.29739252E+01</totfact>
</mgrwt>
</event>
<event>
12    3  0.1092576E-007  0.7031530E+03  0.7818608E-02  0.9711855E-01
         -2   -1    0    0    0  501 -0.00000000000E+00  0.00000000000E+00  0.95595132589E+03  0.95595132589E+03  0.00000000000E+00 0.  1.
          1   -1    0    0  501    0  0.00000000000E+00 -0.00000000000E+00 -0.17672020575E+04  0.17672020575E+04  0.00000000000E+00 0. -1.
        -24    2    1    2    0    0  0.39652563912E+03 -0.53619007908E+03  0.69717412916E+03  0.96815485858E+03  0.80868290680E+02 0.  0.
    5000000    2    1    2    0    0 -0.39652563912E+03  0.53619007908E+03 -0.15084248608E+04  0.17549985249E+04  0.59995156313E+03 0.  0.
        -24    2    4    4    0    0 -0.76455178899E+02  0.71136705436E+00  0.10640137619E+02  0.11093454938E+03  0.79670328813E+02 0.  0.
         24    2    4    4    0    0 -0.32007046022E+03  0.53547871202E+03 -0.15190649984E+04  0.16440639755E+04  0.78773951477E+02 0.  0.
         11    1    5    5    0    0 -0.62103162470E+02  0.35946508827E+02  0.13415377925E+01  0.71768753712E+02  0.00000000000E+00 0. -1.
        -12    1    5    5    0    0 -0.14352016429E+02 -0.35235141773E+02  0.92985998265E+01  0.39165795665E+02  0.00000000000E+00 0.  1.
         15    1    3    3    0    0  0.17004538769E+03 -0.17226316508E+03  0.27807130754E+03  0.36866901378E+03  0.17770000000E+01 0. -1.
        -16    1    3    3    0    0  0.22648025143E+03 -0.36392691400E+03  0.41910282163E+03  0.59948584480E+03  0.00000000000E+00 0.  1.
          2    1    6    6  502    0 -0.70595881621E+02  0.81791970864E+02 -0.20616275893E+03  0.23275907752E+03  0.00000000000E+00 0. -1.
         -3    1    6    6    0  502 -0.24947457860E+03  0.45368674116E+03 -0.13129022395E+04  0.14113048980E+04  0.00000000000E+00 0.  1.
<mgrwt>
<rscale>  0 0.70315296E+03</rscale>
<asrwt>0</asrwt>
<pdfrwt beam="1">  1        1 0.27187724E+00 0.70315296E+03</pdfrwt>
<pdfrwt beam="2">  1       -2 0.14706944E+00 0.70315296E+03</pdfrwt>
<totfact> 0.12477393E+00</totfact>
</mgrwt>
</event>
<event>
12    3  0.1092576E-007  0.9340173E+03  0.7818608E-02  0.9384029E-01
         -2   -1    0    0    0  501 -0.00000000000E+00  0.00000000000E+00  0.82863314163E+03  0.82863314163E+03  0.00000000000E+00 0.  1.
          1   -1    0    0  501    0  0.00000000000E+00 -0.00000000000E+00 -0.11525830523E+04  0.11525830523E+04  0.00000000000E+00 0. -1.
        -24    2    1    2    0    0  0.53079242635E+03 -0.69506926776E+03 -0.27233912258E+03  0.91937017819E+03  0.78810151676E+02 0.  0.
    5000000    2    1    2    0    0 -0.53079242635E+03  0.69506926776E+03 -0.51610788138E+02  0.10618460158E+04  0.59999283409E+03 0.  0.
        -24    2    4    4    0    0 -0.29395376670E+03  0.47268199642E+02 -0.17817081126E+03  0.35601898568E+03  0.79759516828E+02 0.  0.
         24    2    4    4    0    0 -0.23683865965E+03  0.64780106811E+03  0.12656002312E+03  0.70582703012E+03  0.80222081963E+02 0.  0.
         11    1    5    5    0    0 -0.11263392467E+03 -0.47018471679E+01 -0.10387878564E+03  0.15329484812E+03  0.00000000000E+00 0. -1.
        -12    1    5    5    0    0 -0.18131984203E+03  0.51970046810E+02 -0.74292025617E+02  0.20272413756E+03  0.00000000000E+00 0.  1.
         15    1    3    3    0    0  0.21000565141E+03 -0.22435904972E+03 -0.11816539041E+03  0.32925001752E+03  0.17770000000E+01 0. -1.
        -16    1    3    3    0    0  0.32078677494E+03 -0.47071021803E+03 -0.15417373216E+03  0.59012016067E+03  0.00000000000E+00 0.  1.
          4    1    6    6  502    0 -0.42331365419E+02  0.11316811053E+03  0.53851669640E+02  0.13228366514E+03  0.00000000000E+00 0. -1.
         -3    1    6    6    0  502 -0.19450729423E+03  0.53463295759E+03  0.72708353483E+02  0.57354336498E+03  0.00000000000E+00 0.  1.
<mgrwt>
<rscale>  0 0.93401732E+03</rscale>
<asrwt>0</asrwt>
<pdfrwt beam="1">  1        1 0.17732047E+00 0.93401732E+03</pdfrwt>
<pdfrwt beam="2">  1       -2 0.12748202E+00 0.93401732E+03</pdfrwt>
<totfact> 0.46536618E+00</totfact>
</mgrwt>
</event>
<event>
12    3  0.1092576E-007  0.1172518E+04  0.7818608E-02  0.9137257E-01
          3   -1    0    0  501    0  0.00000000000E+00  0.00000000000E+00  0.27654652395E+04  0.27654652395E+04  0.00000000000E+00 0. -1.
         -4   -1    0    0    0  501 -0.00000000000E+00 -0.00000000000E+00 -0.54647483791E+03  0.54647483791E+03  0.00000000000E+00 0.  1.
        -24    2    1    2    0    0 -0.31477554395E+03 -0.11097120041E+04  0.11173557240E+04  0.16077750190E+04  0.76891629306E+02 0.  0.
    5000000    2    1    2    0    0  0.31477554395E+03  0.11097120041E+04  0.11016346777E+04  0.17041650584E+04  0.60002933939E+03 0.  0.
        -24    2    4    4    0    0  0.29803593407E+03  0.57679543693E+03  0.93346973456E+03  0.11398583569E+04  0.79955828116E+02 0.  0.
         24    2    4    4    0    0  0.16739609880E+02  0.53291656721E+03  0.16816494310E+03  0.56430670150E+03  0.76696304501E+02 0.  0.
         11    1    5    5    0    0  0.38699995807E+02  0.13839174462E+03  0.17908228506E+03  0.22960929745E+03  0.00000000000E+00 0. -1.
        -12    1    5    5    0    0  0.25933593826E+03  0.43840369231E+03  0.75438744950E+03  0.91024905948E+03  0.00000000000E+00 0.  1.
         15    1    3    3    0    0 -0.24059344848E+03 -0.94891615066E+03  0.94229097418E+03  0.13587650666E+04  0.17770000000E+01 0. -1.
        -16    1    3    3    0    0 -0.74182095469E+02 -0.16079585349E+03  0.17506474978E+03  0.24900995241E+03  0.00000000000E+00 0.  1.
          2    1    6    6  502    0 -0.16647807094E+02  0.31930493694E+03  0.12797132953E+03  0.34439723201E+03  0.00000000000E+00 0. -1.
         -1    1    6    6    0  502  0.33387416974E+02  0.21361163027E+03  0.40193613568E+02  0.21990946949E+03  0.00000000000E+00 0.  1.
<mgrwt>
<rscale>  0 0.11725180E+04</rscale>
<asrwt>0</asrwt>
<pdfrwt beam="1">  1        3 0.42545618E+00 0.11725180E+04</pdfrwt>
<pdfrwt beam="2">  1       -4 0.84073054E-01 0.11725180E+04</pdfrwt>
<totfact> 0.22485305E-02</totfact>
</mgrwt>
</event>
<event>
12    3  0.1092576E-007  0.8356622E+03  0.7818608E-02  0.9509785E-01
          1   -1    0    0  501    0  0.00000000000E+00  0.00000000000E+00  0.27949226121E+04  0.27949226121E+04  0.00000000000E+00 0. -1.
         -2   -1    0    0    0  501 -0.00000000000E+00 -0.00000000000E+00 -0.89132169099E+03  0.89132169099E+03  0.00000000000E+00 0.  1.
        -24    2    1    2    0    0 -0.47405102622E+03 -0.55692083491E+03 -0.63833231981E+03  0.97399017529E+03  0.79394705324E+02 0.  0.
    5000000    2    1    2    0    0  0.47405102622E+03  0.55692083491E+03  0.25419332410E+04  0.27122541278E+04  0.60001055048E+03 0.  0.
        -24    2    4    4    0    0  0.47254239397E+03  0.11318824907E+03  0.13817782725E+04  0.14675595493E+04  0.91169856313E+02 0.  0.
         24    2    4    4    0    0  0.15086322410E+01  0.44373258583E+03  0.11601549685E+04  0.12446945785E+04  0.80025990675E+02 0.  0.
         11    1    5    5    0    0  0.42423584295E+03  0.76024917639E+02  0.11571064762E+04  0.12347676849E+04  0.00000000000E+00 0. -1.
        -12    1    5    5    0    0  0.48306551027E+02  0.37163331432E+02  0.22467179631E+03  0.23279186440E+03  0.00000000000E+00 0.  1.
         15    1    3    3    0    0 -0.27183368707E+03 -0.26042443061E+03 -0.34094746742E+03  0.50790035515E+03  0.17770000000E+01 0. -1.
        -16    1    3    3    0    0 -0.20221733914E+03 -0.29649640429E+03 -0.29738485239E+03  0.46608982014E+03  0.00000000000E+00 0.  1.
          2    1    6    6  502    0 -0.61660244229E+01  0.32492919903E+03  0.93716109291E+03  0.99191124518E+03  0.00000000000E+00 0. -1.
         -1    1    6    6    0  502  0.76746566639E+01  0.11880338681E+03  0.22299387558E+03  0.25278333335E+03  0.00000000000E+00 0.  1.
<mgrwt>
<rscale>  0 0.83566222E+03</rscale>
<asrwt>0</asrwt>
<pdfrwt beam="1">  1        1 0.42998809E+00 0.83566222E+03</pdfrwt>
<pdfrwt beam="2">  1       -2 0.13712642E+00 0.83566222E+03</pdfrwt>
<totfact> 0.29297924E-01</totfact>
</mgrwt>
</event>
<event>
12    3  0.1092576E-007  0.9367531E+03  0.7818608E-02  0.9380770E-01
         -2   -1    0    0    0  501 -0.00000000000E+00  0.00000000000E+00  0.24740400714E+03  0.24740400714E+03  0.00000000000E+00 0.  1.
          1   -1    0    0  501    0  0.00000000000E+00 -0.00000000000E+00 -0.37947648156E+04  0.37947648156E+04  0.00000000000E+00 0. -1.
        -24    2    1    2    0    0  0.50486362905E+03  0.70985825972E+03 -0.17572875502E+04  0.19629441292E+04  0.79398282109E+02 0.  0.
    5000000    2    1    2    0    0 -0.50486362905E+03 -0.70985825972E+03 -0.17900732582E+04  0.20792246936E+04  0.60002251932E+03 0.  0.
        -24    2    4    4    0    0 -0.53667791833E+03 -0.36553667345E+03 -0.14405950206E+04  0.15811785185E+04  0.56313818538E+02 0.  0.
         24    2    4    4    0    0  0.31814289275E+02 -0.34432158627E+03 -0.34947823756E+03  0.49804617506E+03  0.79658334095E+02 0.  0.
         13    1    5    5    0    0 -0.40988951123E+03 -0.30706618093E+03 -0.11339531482E+04  0.12442462752E+04  0.00000000000E+00 0. -1.
        -14    1    5    5    0    0 -0.12678840710E+03 -0.58470492524E+02 -0.30664187243E+03  0.33693224333E+03  0.00000000000E+00 0.  1.
         15    1    3    3    0    0  0.70056836409E+02  0.62117271321E+02 -0.16212365955E+03  0.18722647900E+03  0.17770000000E+01 0. -1.
        -16    1    3    3    0    0  0.43480679264E+03  0.64774098840E+03 -0.15951638907E+04  0.17757176502E+04  0.00000000000E+00 0.  1.
          2    1    6    6  502    0  0.39314844978E+02 -0.22684142813E+03 -0.27541914455E+03  0.35896851636E+03  0.00000000000E+00 0. -1.
         -1    1    6    6    0  502 -0.75005557030E+01 -0.11748015814E+03 -0.74059093008E+02  0.13907765870E+03  0.00000000000E+00 0.  1.
<mgrwt>
<rscale>  0 0.93675306E+03</rscale>
<asrwt>0</asrwt>
<pdfrwt beam="1">  1        1 0.58380997E+00 0.93675306E+03</pdfrwt>
<pdfrwt beam="2">  1       -2 0.38062155E-01 0.93675306E+03</pdfrwt>
<totfact> 0.87068082E-01</totfact>
</mgrwt>
</event>
<event>
12    3  0.1092576E-007  0.4024483E+03  0.7818608E-02  0.1042935E+00
          1   -1    0    0  501    0  0.00000000000E+00  0.00000000000E+00  0.10844414860E+04  0.10844414860E+04  0.00000000000E+00 0. -1.
         -2   -1    0    0    0  501 -0.00000000000E+00 -0.00000000000E+00 -0.34660973232E+03  0.34660973232E+03  0.00000000000E+00 0.  1.
        -24    2    1    2    0    0  0.34135967602E+03  0.17036830015E+03 -0.21847760648E+02  0.39053397466E+03  0.80546102384E+02 0.  0.
    5000000    2    1    2    0    0 -0.34135967602E+03 -0.17036830015E+03  0.75967951428E+03  0.10405172436E+04  0.60000948635E+03 0.  0.
        -24    2    4    4    0    0 -0.20509571748E+03 -0.15764384937E+03  0.82525343695E+03  0.86878368947E+03  0.82619775583E+02 0.  0.
         24    2    4    4    0    0 -0.13626395854E+03 -0.12724450782E+02 -0.65573922665E+02  0.17173355414E+03  0.80390896488E+02 0.  0.
         11    1    5    5    0    0 -0.13899187461E+03 -0.12852630569E+03  0.47851015603E+03  0.51459665942E+03  0.00000000000E+00 0. -1.
        -12    1    5    5    0    0 -0.66103842869E+02 -0.29117543678E+02  0.34674328092E+03  0.35418703005E+03  0.00000000000E+00 0.  1.
         15    1    3    3    0    0  0.23099895541E+02  0.30085436221E+02  0.14903570097E+02  0.40792312722E+02  0.17770000000E+01 0. -1.
        -16    1    3    3    0    0  0.31825978048E+03  0.14028286393E+03 -0.36751330745E+02  0.34974166194E+03  0.00000000000E+00 0.  1.
          2    1    6    6  502    0 -0.90453668166E+02 -0.45497341046E+02 -0.32131990562E+02  0.10622776918E+03  0.00000000000E+00 0. -1.
         -1    1    6    6    0  502 -0.45810290374E+02  0.32772890264E+02 -0.33441932103E+02  0.65505784960E+02  0.00000000000E+00 0.  1.
<mgrwt>
<rscale>  0 0.40244834E+03</rscale>
<asrwt>0</asrwt>
<pdfrwt beam="1">  1        1 0.16683715E+00 0.40244834E+03</pdfrwt>
<pdfrwt beam="2">  1       -2 0.53324575E-01 0.40244834E+03</pdfrwt>
<totfact> 0.40508709E+01</totfact>
</mgrwt>
</event>
<event>
12    3  0.1092576E-007  0.1197241E+04  0.7818608E-02  0.9115274E-01
         -2   -1    0    0    0  501 -0.00000000000E+00  0.00000000000E+00  0.64624526368E+03  0.64624526368E+03  0.00000000000E+00 0.  1.
          1   -1    0    0  501    0  0.00000000000E+00 -0.00000000000E+00 -0.27309785769E+04  0.27309785769E+04  0.00000000000E+00 0. -1.
        -24    2    1    2    0    0 -0.58428336720E+03 -0.99283118816E+03 -0.34270431425E+03  0.12042936883E+04  0.76001442386E+02 0.  0.
    5000000    2    1    2    0    0  0.58428336720E+03  0.99283118816E+03 -0.17420289990E+04  0.21729301523E+04  0.59988298207E+03 0.  0.
        -24    2    4    4    0    0  0.58893415164E+03  0.59863485535E+03 -0.86657118061E+03  0.12093997432E+04  0.80591579728E+02 0.  0.
         24    2    4    4    0    0 -0.46507844378E+01  0.39419633281E+03 -0.87545781839E+03  0.96353040915E+03  0.80944913297E+02 0.  0.
         13    1    5    5    0    0  0.48189264657E+03  0.47030117796E+03 -0.65050846958E+03  0.93625049522E+03  0.00000000000E+00 0. -1.
        -14    1    5    5    0    0  0.10704150507E+03  0.12833367739E+03 -0.21606271104E+03  0.27314924796E+03  0.00000000000E+00 0.  1.
         15    1    3    3    0    0 -0.37211287876E+03 -0.55986229578E+03 -0.20718769700E+03  0.70345126646E+03  0.17770000000E+01 0. -1.
        -16    1    3    3    0    0 -0.21217048844E+03 -0.43296889238E+03 -0.13551661725E+03  0.50084242181E+03  0.00000000000E+00 0.  1.
          2    1    6    6  502    0 -0.25996399957E+02  0.34502475190E+03 -0.71425491580E+03  0.79364852232E+03  0.00000000000E+00 0. -1.
         -3    1    6    6    0  502  0.21345615519E+02  0.49171580903E+02 -0.16120290259E+03  0.16988188683E+03  0.00000000000E+00 0.  1.
<mgrwt>
<rscale>  0 0.11972415E+04</rscale>
<asrwt>0</asrwt>
<pdfrwt beam="1">  1        1 0.42015055E+00 0.11972415E+04</pdfrwt>
<pdfrwt beam="2">  1       -2 0.99422348E-01 0.11972415E+04</pdfrwt>
<totfact> 0.67862040E-01</totfact>
</mgrwt>
</event>
<event>
12    3  0.1092576E-007  0.6364322E+03  0.7818608E-02  0.9832577E-01
         -2   -1    0    0    0  501 -0.00000000000E+00  0.00000000000E+00  0.59743077704E+03  0.59743077704E+03  0.00000000000E+00 0.  1.
          1   -1    0    0  501    0  0.00000000000E+00 -0.00000000000E+00 -0.94256083794E+03  0.94256083794E+03  0.00000000000E+00 0. -1.
        -24    2    1    2    0    0 -0.49744829804E+03 -0.96842778395E+02 -0.52460885574E+03  0.73415440767E+03  0.83276105972E+02 0.  0.
    5000000    2    1    2    0    0  0.49744829804E+03  0.96842778395E+02  0.17947879484E+03  0.80583720731E+03  0.60027296619E+03 0.  0.
        -24    2    4    4    0    0  0.20728987499E+03  0.32449886307E+03  0.16686493634E+03  0.42741931046E+03  0.81084866444E+02 0.  0.
         24    2    4    4    0    0  0.29015842304E+03 -0.22765608468E+03  0.12613858505E+02  0.37841789685E+03  0.83796132820E+02 0.  0.
         11    1    5    5    0    0  0.65973810881E+02  0.11749268588E+03  0.18115135374E+02  0.13596041000E+03  0.00000000000E+00 0. -1.
        -12    1    5    5    0    0  0.14131606411E+03  0.20700617719E+03  0.14874980096E+03  0.29145890046E+03  0.00000000000E+00 0.  1.
         15    1    3    3    0    0 -0.18481251060E+03 -0.75172718849E+02 -0.22255937250E+03  0.29890204708E+03  0.17770000000E+01 0. -1.
        -16    1    3    3    0    0 -0.31263578744E+03 -0.21670059546E+02 -0.30204948324E+03  0.43525236058E+03  0.00000000000E+00 0.  1.
          4    1    6    6  502    0  0.72797744344E+02 -0.95854045147E+02 -0.20409620329E+02  0.12208219426E+03  0.00000000000E+00 0. -1.
         -3    1    6    6    0  502  0.21736067870E+03 -0.13180203953E+03  0.33023478834E+02  0.25633570259E+03  0.00000000000E+00 0.  1.
<mgrwt>
<rscale>  0 0.63643218E+03</rscale>
<asrwt>0</asrwt>
<pdfrwt beam="1">  1        1 0.14500936E+00 0.63643218E+03</pdfrwt>
<pdfrwt beam="2">  1       -2 0.91912428E-01 0.63643218E+03</pdfrwt>
<totfact> 0.15372113E+01</totfact>
</mgrwt>
</event>
<event>
12    3  0.1092576E-007  0.4711205E+03  0.7818608E-02  0.1021604E+00
          1   -1    0    0  501    0  0.00000000000E+00  0.00000000000E+00  0.65700354942E+03  0.65700354942E+03  0.00000000000E+00 0. -1.
         -2   -1    0    0    0  501 -0.00000000000E+00 -0.00000000000E+00 -0.42116199351E+03  0.42116199351E+03  0.00000000000E+00 0.  1.
        -24    2    1    2    0    0 -0.20952352943E+03  0.25884642276E+03 -0.26105683340E+02  0.34366814091E+03  0.80775642448E+02 0.  0.
    5000000    2    1    2    0    0  0.20952352943E+03 -0.25884642276E+03  0.26194723925E+03  0.73449740203E+03  0.59997374732E+03 0.  0.
        -24    2    4    4    0    0  0.16918151191E+03  0.11731612573E+03 -0.62427794631E+02  0.22938076236E+03  0.79579188672E+02 0.  0.
         24    2    4    4    0    0  0.40342017522E+02 -0.37616254848E+03  0.32437503388E+03  0.50511663967E+03  0.82449474304E+02 0.  0.
         11    1    5    5    0    0  0.12382895094E+03  0.40812660342E+02 -0.24348247690E+02  0.13263528754E+03  0.00000000000E+00 0. -1.
        -12    1    5    5    0    0  0.45352560966E+02  0.76503465384E+02 -0.38079546941E+02  0.96745474815E+02  0.00000000000E+00 0.  1.
         15    1    3    3    0    0 -0.13433409308E+03  0.13026847354E+03  0.18858124093E+02  0.18808059531E+03  0.17770000000E+01 0. -1.
        -16    1    3    3    0    0 -0.75189436353E+02  0.12857794922E+03 -0.44963807433E+02  0.15558754559E+03  0.00000000000E+00 0.  1.
          2    1    6    6  502    0 -0.23415113266E+02 -0.15183892981E+03  0.13951048477E+03  0.20752470574E+03  0.00000000000E+00 0. -1.
         -1    1    6    6    0  502  0.63757130787E+02 -0.22432361867E+03  0.18486454911E+03  0.29759193393E+03  0.00000000000E+00 0.  1.
<mgrwt>
<rscale>  0 0.47112047E+03</rscale>
<asrwt>0</asrwt>
<pdfrwt beam="1">  1        1 0.10107747E+00 0.47112047E+03</pdfrwt>
<pdfrwt beam="2">  1       -2 0.64794153E-01 0.47112047E+03</pdfrwt>
<totfact> 0.60214754E+01</totfact>
</mgrwt>
</event>
<event>
12    3  0.1092576E-007  0.1551352E+04  0.7818608E-02  0.8851005E-01
          1   -1    0    0  501    0  0.00000000000E+00  0.00000000000E+00  0.23343566493E+04  0.23343566493E+04  0.00000000000E+00 0. -1.
         -2   -1    0    0    0  501 -0.00000000000E+00 -0.00000000000E+00 -0.11880320992E+04  0.11880320992E+04  0.00000000000E+00 0.  1.
        -24    2    1    2    0    0  0.14308319890E+04 -0.47738872158E+03 -0.41082393072E+02  0.15110247906E+04  0.79548616562E+02 0.  0.
    5000000    2    1    2    0    0 -0.14308319890E+04  0.47738872158E+03  0.11874069432E+04  0.20113639579E+04  0.60039116407E+03 0.  0.
        -24    2    4    4    0    0 -0.69956474016E+03  0.50124540167E+03  0.47291620054E+03  0.98526168774E+03  0.80331078945E+02 0.  0.
         24    2    4    4    0    0 -0.73126724889E+03 -0.23856680088E+02  0.71449074268E+03  0.10261022701E+04  0.84070904129E+02 0.  0.
         11    1    5    5    0    0 -0.39488868943E+03  0.27220006411E+03  0.21889486573E+03  0.52720481237E+03  0.00000000000E+00 0. -1.
        -12    1    5    5    0    0 -0.30467605073E+03  0.22904533755E+03  0.25402133481E+03  0.45805687538E+03  0.00000000000E+00 0.  1.
         15    1    3    3    0    0  0.66761488614E+03 -0.18369603294E+03 -0.47880199754E+01  0.69244490869E+03  0.17770000000E+01 0. -1.
        -16    1    3    3    0    0  0.76321710291E+03 -0.29369268864E+03 -0.36294373097E+02  0.81857988190E+03  0.00000000000E+00 0.  1.
          4    1    6    6  502    0 -0.26147756347E+03 -0.40064364330E+01  0.31247391561E+03  0.40746351452E+03  0.00000000000E+00 0. -1.
         -3    1    6    6    0  502 -0.46978968542E+03 -0.19850243655E+02  0.40201682707E+03  0.61863875562E+03  0.00000000000E+00 0.  1.
<mgrwt>
<rscale>  0 0.15513515E+04</rscale>
<asrwt>0</asrwt>
<pdfrwt beam="1">  1        1 0.35913179E+00 0.15513515E+04</pdfrwt>
<pdfrwt beam="2">  1       -2 0.18277417E+00 0.15513515E+04</pdfrwt>
<totfact> 0.25156635E-01</totfact>
</mgrwt>
</event>
<event>
12    3  0.1092576E-007  0.1060195E+04  0.7818608E-02  0.9244881E-01
          1   -1    0    0  501    0  0.00000000000E+00  0.00000000000E+00  0.44632702822E+04  0.44632702822E+04  0.00000000000E+00 0. -1.
         -2   -1    0    0    0  501 -0.00000000000E+00 -0.00000000000E+00 -0.53684498599E+03  0.53684498599E+03  0.00000000000E+00 0.  1.
        -24    2    1    2    0    0  0.10135406772E+04 -0.39481484340E+02  0.13095117116E+03  0.10258840367E+04  0.80413652381E+02 0.  0.
    5000000    2    1    2    0    0 -0.10135406772E+04  0.39481484340E+02  0.37954741250E+04  0.39742312314E+04  0.60005546018E+03 0.  0.
        -24    2    4    4    0    0 -0.67800362376E+03  0.22605259678E+03  0.30290287129E+04  0.31132511813E+04  0.80803986751E+02 0.  0.
         24    2    4    4    0    0 -0.33553705349E+03 -0.18657111244E+03  0.76644541212E+03  0.86098005010E+03  0.80337927822E+02 0.  0.
         13    1    5    5    0    0 -0.66900117789E+03  0.22101426091E+03  0.29227351206E+04  0.30064581263E+04  0.00000000000E+00 0. -1.
        -14    1    5    5    0    0 -0.90024458709E+01  0.50383358649E+01  0.10629359225E+03  0.10679305508E+03  0.00000000000E+00 0.  1.
         15    1    3    3    0    0  0.69275763220E+02  0.16528140846E+02  0.15831162614E+02  0.72980094877E+02  0.17770000000E+01 0. -1.
        -16    1    3    3    0    0  0.94426491403E+03 -0.56009625186E+02  0.11512000855E+03  0.95290394183E+03  0.00000000000E+00 0.  1.
          4    1    6    6  502    0 -0.46528083125E+02 -0.44556258212E+01  0.58104692312E+02  0.74571243717E+02  0.00000000000E+00 0. -1.
         -3    1    6    6    0  502 -0.28900897036E+03 -0.18211548662E+03  0.70834071980E+03  0.78640880638E+03  0.00000000000E+00 0.  1.
<mgrwt>
<rscale>  0 0.10601952E+04</rscale>
<asrwt>0</asrwt>
<pdfrwt beam="1">  1        1 0.68665694E+00 0.10601952E+04</pdfrwt>
<pdfrwt beam="2">  1       -2 0.82591539E-01 0.10601952E+04</pdfrwt>
<totfact> 0.41799117E-02</totfact>
</mgrwt>
</event>
<event>
12    3  0.1092576E-007  0.7940520E+03  0.7818608E-02  0.9568667E-01
         -2   -1    0    0    0  501 -0.00000000000E+00  0.00000000000E+00  0.18561875791E+04  0.18561875791E+04  0.00000000000E+00 0.  1.
          1   -1    0    0  501    0  0.00000000000E+00 -0.00000000000E+00 -0.53509843343E+03  0.53509843343E+03  0.00000000000E+00 0. -1.
        -24    2    1    2    0    0 -0.61009308849E+03  0.30721956817E+03 -0.10878880273E+03  0.69684768601E+03  0.84641917557E+02 0.  0.
    5000000    2    1    2    0    0  0.61009308849E+03 -0.30721956817E+03  0.14298779484E+04  0.16944383265E+04  0.59997737903E+03 0.  0.
        -24    2    4    4    0    0  0.70564719650E+03 -0.19508128553E+03  0.12253429493E+04  0.14296669892E+04  0.80546152684E+02 0.  0.
         24    2    4    4    0    0 -0.95554108009E+02 -0.11213828264E+03  0.20453499912E+03  0.26477133733E+03  0.81016746519E+02 0.  0.
         13    1    5    5    0    0  0.14249279616E+03 -0.64155381934E+02  0.30683819175E+03  0.34433963743E+03  0.00000000000E+00 0. -1.
        -14    1    5    5    0    0  0.56315440034E+03 -0.13092590359E+03  0.91850475752E+03  0.10853273517E+04  0.00000000000E+00 0.  1.
         15    1    3    3    0    0 -0.27031995057E+03  0.17998355210E+03 -0.67373171026E+02  0.33167643360E+03  0.17770000000E+01 0. -1.
        -16    1    3    3    0    0 -0.33977313792E+03  0.12723601608E+03 -0.41415631702E+02  0.36517125241E+03  0.00000000000E+00 0.  1.
          4    1    6    6  502    0 -0.19928167725E+02 -0.82476287601E+02  0.83833616162E+02  0.11927927349E+03  0.00000000000E+00 0. -1.
         -3    1    6    6    0  502 -0.75625940284E+02 -0.29661995044E+02  0.12070138295E+03  0.14549206384E+03  0.00000000000E+00 0.  1.
<mgrwt>
<rscale>  0 0.79405205E+03</rscale>
<asrwt>0</asrwt>
<pdfrwt beam="1">  1        1 0.82322837E-01 0.79405205E+03</pdfrwt>
<pdfrwt beam="2">  1       -2 0.28556732E+00 0.79405205E+03</pdfrwt>
<totfact> 0.14250841E+00</totfact>
</mgrwt>
</event>
<event>
12    3  0.1092576E-007  0.4583031E+03  0.7818608E-02  0.1025275E+00
         -2   -1    0    0    0  501 -0.00000000000E+00  0.00000000000E+00  0.38020560205E+03  0.38020560205E+03  0.00000000000E+00 0.  1.
          1   -1    0    0  501    0  0.00000000000E+00 -0.00000000000E+00 -0.14468681640E+04  0.14468681640E+04  0.00000000000E+00 0. -1.
        -24    2    1    2    0    0 -0.15515543182E+03  0.37734632953E+03 -0.10188528423E+04  0.11004854974E+04  0.80893481143E+02 0.  0.
    5000000    2    1    2    0    0  0.15515543182E+03 -0.37734632953E+03 -0.47809719637E+02  0.72658826864E+03  0.59931734699E+03 0.  0.
        -24    2    4    4    0    0  0.10902902281E+00 -0.32333679823E+03 -0.27728149497E+03  0.43368201066E+03  0.81537487920E+02 0.  0.
         24    2    4    4    0    0  0.15504640279E+03 -0.54009531295E+02  0.22947177533E+03  0.29290625798E+03  0.78615289878E+02 0.  0.
         11    1    5    5    0    0  0.38766963906E+02 -0.11226477081E+03 -0.10406735541E+03  0.15791222473E+03  0.00000000000E+00 0. -1.
        -12    1    5    5    0    0 -0.38657934883E+02 -0.21107202742E+03 -0.17321413956E+03  0.27576978593E+03  0.00000000000E+00 0.  1.
         15    1    3    3    0    0 -0.89790624812E+02  0.24337879015E+03 -0.54214908180E+03  0.60101944763E+03  0.17770000000E+01 0. -1.
        -16    1    3    3    0    0 -0.65364807004E+02  0.13396753938E+03 -0.47670376048E+03  0.49946604975E+03  0.00000000000E+00 0.  1.
          2    1    6    6  502    0  0.11306382628E+03 -0.93098701746E+01  0.18552384762E+03  0.21746080229E+03  0.00000000000E+00 0. -1.
         -1    1    6    6    0  502  0.41982576510E+02 -0.44699661120E+02  0.43947927707E+02  0.75445455691E+02  0.00000000000E+00 0.  1.
<mgrwt>
<rscale>  0 0.45830309E+03</rscale>
<asrwt>0</asrwt>
<pdfrwt beam="1">  1        1 0.22259511E+00 0.45830309E+03</pdfrwt>
<pdfrwt beam="2">  1       -2 0.58493168E-01 0.45830309E+03</pdfrwt>
<totfact> 0.18415107E+01</totfact>
</mgrwt>
</event>
<event>
12    3  0.1092576E-007  0.7904087E+03  0.7818608E-02  0.9574005E-01
         -2   -1    0    0    0  501 -0.00000000000E+00  0.00000000000E+00  0.51206375666E+03  0.51206375666E+03  0.00000000000E+00 0.  1.
          1   -1    0    0  501    0  0.00000000000E+00 -0.00000000000E+00 -0.13559665004E+04  0.13559665004E+04  0.00000000000E+00 0. -1.
        -24    2    1    2    0    0  0.13098019246E+03  0.67805272542E+03 -0.60779058899E+03  0.92326532072E+03  0.78090608335E+02 0.  0.
    5000000    2    1    2    0    0 -0.13098019246E+03 -0.67805272542E+03 -0.23611215480E+03  0.94476493639E+03  0.59993376812E+03 0.  0.
        -24    2    4    4    0    0 -0.31210380731E+03 -0.62400200654E+03 -0.13107409207E+03  0.71439329907E+03  0.79937959878E+02 0.  0.
         24    2    4    4    0    0  0.18112361485E+03 -0.54050718875E+02 -0.10503806272E+03  0.23037163733E+03  0.79440874840E+02 0.  0.
         11    1    5    5    0    0 -0.24631111718E+03 -0.46297377106E+03 -0.13062902579E+03  0.54044224623E+03  0.00000000000E+00 0. -1.
        -12    1    5    5    0    0 -0.65792690133E+02 -0.16102823548E+03 -0.44506628650E+00  0.17395105283E+03  0.00000000000E+00 0.  1.
         15    1    3    3    0    0 -0.63292225557E+01  0.53161307301E+02 -0.65090496481E+02  0.84297770512E+02  0.17770000000E+01 0. -1.
        -16    1    3    3    0    0  0.13730941501E+03  0.62489141812E+03 -0.54270009251E+03  0.83896755021E+03  0.00000000000E+00 0.  1.
          2    1    6    6  502    0  0.13968421304E+03 -0.43882248315E+02 -0.11544344877E+03  0.18645246299E+03  0.00000000000E+00 0. -1.
         -1    1    6    6    0  502  0.41439401810E+02 -0.10168470560E+02  0.10405386044E+02  0.43919174339E+02  0.00000000000E+00 0.  1.
<mgrwt>
<rscale>  0 0.79040868E+03</rscale>
<asrwt>0</asrwt>
<pdfrwt beam="1">  1        1 0.20861023E+00 0.79040868E+03</pdfrwt>
<pdfrwt beam="2">  1       -2 0.78779040E-01 0.79040868E+03</pdfrwt>
<totfact> 0.10613152E+01</totfact>
</mgrwt>
</event>
<event>
12    3  0.1092576E-007  0.4470921E+03  0.7818608E-02  0.1028593E+00
          1   -1    0    0  501    0  0.00000000000E+00  0.00000000000E+00  0.38018003602E+03  0.38018003602E+03  0.00000000000E+00 0. -1.
         -2   -1    0    0    0  501 -0.00000000000E+00 -0.00000000000E+00 -0.93921939034E+03  0.93921939034E+03  0.00000000000E+00 0.  1.
        -24    2    1    2    0    0 -0.13197619385E+03 -0.40169522582E+03 -0.35523679503E+03  0.55759122299E+03  0.77058557099E+02 0.  0.
    5000000    2    1    2    0    0  0.13197619385E+03  0.40169522582E+03 -0.20380255929E+03  0.76180820337E+03  0.60003290357E+03 0.  0.
        -24    2    4    4    0    0 -0.22808599724E+02  0.20108791529E+03  0.18815598338E+03  0.28812285679E+03  0.81581398750E+02 0.  0.
         24    2    4    4    0    0  0.15478479357E+03  0.20060731053E+03 -0.39195854267E+03  0.47368534658E+03  0.80899215326E+02 0.  0.
         11    1    5    5    0    0 -0.19461447316E+02  0.20429432926E+02  0.60900423641E+02  0.67119082688E+02  0.00000000000E+00 0. -1.
        -12    1    5    5    0    0 -0.33471524082E+01  0.18065848237E+03  0.12725555974E+03  0.22100377410E+03  0.00000000000E+00 0.  1.
         15    1    3    3    0    0 -0.17081263937E+02 -0.12554549868E+03 -0.14167675059E+03  0.19007604058E+03  0.17770000000E+01 0. -1.
        -16    1    3    3    0    0 -0.11489492991E+03 -0.27614972714E+03 -0.21356004444E+03  0.36751518241E+03  0.00000000000E+00 0.  1.
          4    1    6    6  502    0  0.51737575491E+02  0.11273638773E+03 -0.23984830958E+03  0.27002496448E+03  0.00000000000E+00 0. -1.
         -3    1    6    6    0  502  0.10304721808E+03  0.87870922796E+02 -0.15211023309E+03  0.20366038210E+03  0.00000000000E+00 0.  1.
<mgrwt>
<rscale>  0 0.44709207E+03</rscale>
<asrwt>0</asrwt>
<pdfrwt beam="1">  1        1 0.58489237E-01 0.44709207E+03</pdfrwt>
<pdfrwt beam="2">  1       -2 0.14449529E+00 0.44709207E+03</pdfrwt>
<totfact> 0.19498802E+01</totfact>
</mgrwt>
</event>
<event>
12    3  0.1092576E-007  0.5543951E+03  0.7818608E-02  0.1000482E+00
          1   -1    0    0  501    0  0.00000000000E+00  0.00000000000E+00  0.80160421836E+03  0.80160421836E+03  0.00000000000E+00 0. -1.
         -2   -1    0    0    0  501 -0.00000000000E+00 -0.00000000000E+00 -0.43890365630E+03  0.43890365630E+03  0.00000000000E+00 0.  1.
        -24    2    1    2    0    0  0.16542438031E+03 -0.39621820742E+03  0.51347240667E+02  0.43968146577E+03  0.79556010004E+02 0.  0.
    5000000    2    1    2    0    0 -0.16542438031E+03  0.39621820742E+03  0.31135332139E+03  0.80082640889E+03  0.60002329366E+03 0.  0.
        -24    2    4    4    0    0  0.25475722232E+02 -0.11358487754E+03 -0.42121650880E+02  0.14661088951E+03  0.78549236917E+02 0.  0.
         24    2    4    4    0    0 -0.19090010254E+03  0.50980308496E+03  0.35347497227E+03  0.65421551938E+03  0.81922861198E+02 0.  0.
         11    1    5    5    0    0  0.38780067857E+02 -0.65136477619E+02 -0.56277282384E+02  0.94412853427E+02  0.00000000000E+00 0. -1.
        -12    1    5    5    0    0 -0.13304345625E+02 -0.48448399923E+02  0.14155631504E+02  0.52198036082E+02  0.00000000000E+00 0.  1.
         15    1    3    3    0    0  0.84765500560E+02 -0.12633326860E+03 -0.58256245841E+01  0.15225761219E+03  0.17770000000E+01 0. -1.
        -16    1    3    3    0    0  0.80658879745E+02 -0.26988493882E+03  0.57172865251E+02  0.28742385358E+03  0.00000000000E+00 0.  1.
          2    1    6    6  502    0 -0.73643491371E+02  0.29648738317E+03  0.17194406211E+03  0.35056082595E+03  0.00000000000E+00 0. -1.
         -1    1    6    6    0  502 -0.11725661117E+03  0.21331570180E+03  0.18153091016E+03  0.30365469343E+03  0.00000000000E+00 0.  1.
<mgrwt>
<rscale>  0 0.55439514E+03</rscale>
<asrwt>0</asrwt>
<pdfrwt beam="1">  1        1 0.12332373E+00 0.55439514E+03</pdfrwt>
<pdfrwt beam="2">  1       -2 0.67523640E-01 0.55439514E+03</pdfrwt>
<totfact> 0.40374383E+01</totfact>
</mgrwt>
</event>
<event>
12    3  0.1092576E-007  0.9888884E+03  0.7818608E-02  0.9320816E-01
          1   -1    0    0  501    0  0.00000000000E+00  0.00000000000E+00  0.12249094688E+04  0.12249094688E+04  0.00000000000E+00 0. -1.
         -2   -1    0    0    0  501 -0.00000000000E+00 -0.00000000000E+00 -0.99634137510E+03  0.99634137510E+03  0.00000000000E+00 0.  1.
        -24    2    1    2    0    0 -0.91343036573E+03 -0.16030861478E+03  0.53695753671E+03  0.10747268593E+04  0.81612136234E+02 0.  0.
    5000000    2    1    2    0    0  0.91343036573E+03  0.16030861478E+03 -0.30838944296E+03  0.11465239847E+04  0.59946585718E+03 0.  0.
        -24    2    4    4    0    0  0.94566648647E+03  0.69678296034E+02 -0.35115873124E+03  0.10142608711E+04  0.79199062602E+02 0.  0.
         24    2    4    4    0    0 -0.32236120741E+02  0.90630318748E+02  0.42769288278E+02  0.13226311360E+03  0.80070575391E+02 0.  0.
         13    1    5    5    0    0  0.45567420043E+03  0.61564758518E+02 -0.14009900947E+03  0.48068381383E+03  0.00000000000E+00 0. -1.
        -14    1    5    5    0    0  0.48999228604E+03  0.81135375166E+01 -0.21105972177E+03  0.53357705725E+03  0.00000000000E+00 0.  1.
         15    1    3    3    0    0 -0.48463700541E+03 -0.94313423162E+02  0.33148080188E+03  0.59468540300E+03  0.17770000000E+01 0. -1.
        -16    1    3    3    0    0 -0.42879336031E+03 -0.65995191620E+02  0.20547673483E+03  0.48004145625E+03  0.00000000000E+00 0.  1.
          4    1    6    6  502    0 -0.28503001057E+02  0.37675514061E+02  0.60076582421E+02  0.76426835499E+02  0.00000000000E+00 0. -1.
         -3    1    6    6    0  502 -0.37331196844E+01  0.52954804687E+02 -0.17307294143E+02  0.55836278105E+02  0.00000000000E+00 0.  1.
<mgrwt>
<rscale>  0 0.98888840E+03</rscale>
<asrwt>0</asrwt>
<pdfrwt beam="1">  1        1 0.18844761E+00 0.98888840E+03</pdfrwt>
<pdfrwt beam="2">  1       -2 0.15328329E+00 0.98888840E+03</pdfrwt>
<totfact> 0.25360774E+00</totfact>
</mgrwt>
</event>
<event>
12    3  0.1092576E-007  0.5779809E+03  0.7818608E-02  0.9952172E-01
          1   -1    0    0  501    0  0.00000000000E+00  0.00000000000E+00  0.31066240382E+04  0.31066240382E+04  0.00000000000E+00 0. -1.
         -2   -1    0    0    0  501 -0.00000000000E+00 -0.00000000000E+00 -0.21351455798E+03  0.21351455798E+03  0.00000000000E+00 0.  1.
        -24    2    1    2    0    0 -0.10226419729E+03  0.53164453161E+03  0.21627152045E+04  0.22309001120E+04  0.80463529328E+02 0.  0.
    5000000    2    1    2    0    0  0.10226419729E+03 -0.53164453161E+03  0.73039427567E+03  0.10892384842E+04  0.59988399171E+03 0.  0.
        -24    2    4    4    0    0  0.96661745247E+02 -0.59867880512E+02  0.56670437615E+03  0.58342226241E+03  0.79372729648E+02 0.  0.
         24    2    4    4    0    0  0.56024520467E+01 -0.47177665110E+03  0.16368989952E+03  0.50581622180E+03  0.80318559748E+02 0.  0.
         13    1    5    5    0    0 -0.61329527140E+01 -0.30594319847E+02  0.15167276659E+03  0.15484913187E+03  0.00000000000E+00 0. -1.
        -14    1    5    5    0    0  0.10279469796E+03 -0.29273560664E+02  0.41503160956E+03  0.42857313053E+03  0.00000000000E+00 0.  1.
         15    1    3    3    0    0 -0.92591835833E+02  0.49718466576E+03  0.19168619129E+04  0.19824551927E+04  0.17770000000E+01 0. -1.
        -16    1    3    3    0    0 -0.96723614603E+01  0.34459865849E+02  0.24585329160E+03  0.24844491930E+03  0.00000000000E+00 0.  1.
          2    1    6    6  502    0 -0.28078996088E+02 -0.13477549707E+03  0.69851739029E+02  0.15437658526E+03  0.00000000000E+00 0. -1.
         -1    1    6    6    0  502  0.33681448135E+02 -0.33700115403E+03  0.93838160489E+02  0.35143963654E+03  0.00000000000E+00 0.  1.
<mgrwt>
<rscale>  0 0.57798091E+03</rscale>
<asrwt>0</asrwt>
<pdfrwt beam="1">  1        1 0.47794213E+00 0.57798091E+03</pdfrwt>
<pdfrwt beam="2">  1       -2 0.32848396E-01 0.57798091E+03</pdfrwt>
<totfact> 0.41981042E+00</totfact>
</mgrwt>
</event>
<event>
12    3  0.1092576E-007  0.1401841E+04  0.7818608E-02  0.8952487E-01
          1   -1    0    0  501    0  0.00000000000E+00  0.00000000000E+00  0.14924632888E+04  0.14924632888E+04  0.00000000000E+00 0. -1.
         -2   -1    0    0    0  501 -0.00000000000E+00 -0.00000000000E+00 -0.13862487673E+04  0.13862487673E+04  0.00000000000E+00 0.  1.
        -24    2    1    2    0    0  0.70654487426E+03 -0.11419735011E+04 -0.24277305648E+03  0.13670234489E+04  0.80654921122E+02 0.  0.
    5000000    2    1    2    0    0 -0.70654487426E+03  0.11419735011E+04  0.34898757797E+03  0.15116886072E+04  0.60008414318E+03 0.  0.
        -24    2    4    4    0    0  0.47158870236E+02  0.38020296156E+03  0.12590336090E+03  0.41246534218E+03  0.86589555897E+02 0.  0.
         24    2    4    4    0    0 -0.75370374450E+03  0.76177053954E+03  0.22308421707E+03  0.10992232650E+04  0.10080440966E+03 0.  0.
         13    1    5    5    0    0  0.10426308488E+02  0.17391211424E+03  0.13657263972E+02  0.17475884026E+03  0.00000000000E+00 0. -1.
        -14    1    5    5    0    0  0.36732561749E+02  0.20629084732E+03  0.11224609693E+03  0.23770650192E+03  0.00000000000E+00 0.  1.
         15    1    3    3    0    0  0.29054297547E+03 -0.51942058773E+03 -0.76785073419E+02  0.60009338672E+03  0.17770000000E+01 0. -1.
        -16    1    3    3    0    0  0.41600189878E+03 -0.62255291338E+03 -0.16598798306E+03  0.76693006217E+03  0.00000000000E+00 0.  1.
          2    1    6    6  502    0 -0.32715513368E+03  0.26330981964E+03  0.10053448548E+03  0.43182140450E+03  0.00000000000E+00 0. -1.
         -1    1    6    6    0  502 -0.42654861081E+03  0.49846071990E+03  0.12254973159E+03  0.66740186049E+03  0.00000000000E+00 0.  1.
<mgrwt>
<rscale>  0 0.14018410E+04</rscale>
<asrwt>0</asrwt>
<pdfrwt beam="1">  1        1 0.22960974E+00 0.14018410E+04</pdfrwt>
<pdfrwt beam="2">  1       -2 0.21326904E+00 0.14018410E+04</pdfrwt>
<totfact> 0.60343681E-01</totfact>
</mgrwt>
</event>
<event>
12    3  0.1092576E-007  0.4257307E+03  0.7818608E-02  0.1035217E+00
         -2   -1    0    0    0  501 -0.00000000000E+00  0.00000000000E+00  0.35931288174E+03  0.35931288174E+03  0.00000000000E+00 0.  1.
          1   -1    0    0  501    0  0.00000000000E+00 -0.00000000000E+00 -0.17448861621E+04  0.17448861621E+04  0.00000000000E+00 0. -1.
        -24    2    1    2    0    0  0.21138178828E+03  0.28885976011E+02 -0.14467668238E+04  0.14646715177E+04  0.81312681386E+02 0.  0.
    5000000    2    1    2    0    0 -0.21138178828E+03 -0.28885976011E+02  0.61193543517E+02  0.63952752612E+03  0.59977841480E+03 0.  0.
        -24    2    4    4    0    0 -0.31080777227E+03  0.19141487354E+03  0.83174654714E+02  0.38278176105E+03  0.79766711645E+02 0.  0.
         24    2    4    4    0    0  0.99425983993E+02 -0.22030084955E+03 -0.21981111197E+02  0.25674576507E+03  0.83768896524E+02 0.  0.
         13    1    5    5    0    0 -0.22850016130E+03  0.97170225263E+02  0.49280712422E+02  0.25314613370E+03  0.00000000000E+00 0. -1.
        -14    1    5    5    0    0 -0.82307610971E+02  0.94244648279E+02  0.33893942291E+02  0.12963562734E+03  0.00000000000E+00 0.  1.
         15    1    3    3    0    0  0.29764622894E+02  0.29947612753E+02 -0.40421267484E+03  0.40641584186E+03  0.17770000000E+01 0. -1.
        -16    1    3    3    0    0  0.18161716538E+03 -0.10616367416E+01 -0.10425541490E+04  0.10582556758E+04  0.00000000000E+00 0.  1.
          2    1    6    6  502    0  0.74929834934E+02 -0.21682855167E+03 -0.28464179607E+02  0.23116944111E+03  0.00000000000E+00 0. -1.
         -1    1    6    6    0  502  0.24496149059E+02 -0.34722978841E+01  0.64830684103E+01  0.25576323960E+02  0.00000000000E+00 0.  1.
<mgrwt>
<rscale>  0 0.42573072E+03</rscale>
<asrwt>0</asrwt>
<pdfrwt beam="1">  1        1 0.26844402E+00 0.42573072E+03</pdfrwt>
<pdfrwt beam="2">  1       -2 0.55278905E-01 0.42573072E+03</pdfrwt>
<totfact> 0.13180496E+01</totfact>
</mgrwt>
</event>
<event>
12    3  0.1092576E-007  0.1054214E+04  0.7818608E-02  0.9251004E-01
         -2   -1    0    0    0  501 -0.00000000000E+00  0.00000000000E+00  0.44901532361E+03  0.44901532361E+03  0.00000000000E+00 0.  1.
          1   -1    0    0  501    0  0.00000000000E+00 -0.00000000000E+00 -0.28279402719E+04  0.28279402719E+04  0.00000000000E+00 0. -1.
        -24    2    1    2    0    0  0.75006470053E+03  0.72358207077E+03 -0.98815658172E+03  0.14383505214E+04  0.78934936294E+02 0.  0.
    5000000    2    1    2    0    0 -0.75006470053E+03 -0.72358207077E+03 -0.13907683666E+04  0.18386050742E+04  0.60005324860E+03 0.  0.
        -24    2    4    4    0    0 -0.16663845245E+03 -0.99913839753E+02 -0.71922689543E+03  0.74922708112E+03  0.79389815313E+02 0.  0.
         24    2    4    4    0    0 -0.58342624809E+03 -0.62366823102E+03 -0.67154147118E+03  0.10893779931E+04  0.80176149331E+02 0.  0.
         11    1    5    5    0    0 -0.10608506307E+03 -0.18807501751E+02 -0.40601339636E+03  0.42006504348E+03  0.00000000000E+00 0. -1.
        -12    1    5    5    0    0 -0.60553389379E+02 -0.81106338002E+02 -0.31321349907E+03  0.32916203765E+03  0.00000000000E+00 0.  1.
         15    1    3    3    0    0  0.63915187494E+03  0.60538875922E+03 -0.87057072676E+03  0.12381063028E+04  0.17770000000E+01 0. -1.
        -16    1    3    3    0    0  0.11091282560E+03  0.11819331156E+03 -0.11758585496E+03  0.20024421856E+03  0.00000000000E+00 0.  1.
          4    1    6    6  502    0 -0.27697792088E+03 -0.34865539277E+03 -0.32635525251E+03  0.55207345744E+03  0.00000000000E+00 0. -1.
         -3    1    6    6    0  502 -0.30644832720E+03 -0.27501283825E+03 -0.34518621868E+03  0.53730453563E+03  0.00000000000E+00 0.  1.
<mgrwt>
<rscale>  0 0.10542143E+04</rscale>
<asrwt>0</asrwt>
<pdfrwt beam="1">  1        1 0.43506773E+00 0.10542143E+04</pdfrwt>
<pdfrwt beam="2">  1       -2 0.69079281E-01 0.10542143E+04</pdfrwt>
<totfact> 0.13552519E+00</totfact>
</mgrwt>
</event>
<event>
12    3  0.1092576E-007  0.7862295E+03  0.7818608E-02  0.9580166E-01
          1   -1    0    0  501    0  0.00000000000E+00  0.00000000000E+00  0.76630240492E+03  0.76630240492E+03  0.00000000000E+00 0. -1.
         -2   -1    0    0    0  501 -0.00000000000E+00 -0.00000000000E+00 -0.10521116797E+04  0.10521116797E+04  0.00000000000E+00 0.  1.
        -24    2    1    2    0    0  0.51568862512E+03  0.58471789158E+03 -0.28679707977E+03  0.83466718497E+03  0.81160174289E+02 0.  0.
    5000000    2    1    2    0    0 -0.51568862512E+03 -0.58471789158E+03  0.98780496613E+00  0.98374689967E+03  0.59993934363E+03 0.  0.
        -24    2    4    4    0    0 -0.15486217876E+03 -0.12686853200E+03  0.26682999544E+03  0.33796438154E+03  0.54256408871E+02 0.  0.
         24    2    4    4    0    0 -0.36082644637E+03 -0.45784935958E+03 -0.26584219048E+03  0.64578251812E+03  0.80877870952E+02 0.  0.
         11    1    5    5    0    0 -0.31259060162E+02 -0.25103190757E+02  0.94951602971E+02  0.10306845267E+03  0.00000000000E+00 0. -1.
        -12    1    5    5    0    0 -0.12360311859E+03 -0.10176534124E+03  0.17187839247E+03  0.23489592888E+03  0.00000000000E+00 0.  1.
         15    1    3    3    0    0  0.78983120320E+02  0.13873238242E+03 -0.57103056172E+02  0.16955507654E+03  0.17770000000E+01 0. -1.
        -16    1    3    3    0    0  0.43670550481E+03  0.44598550916E+03 -0.22969402359E+03  0.66511210843E+03  0.00000000000E+00 0.  1.
          2    1    6    6  502    0 -0.13752025790E+03 -0.23907745865E+03 -0.13071513776E+03  0.30521516968E+03  0.00000000000E+00 0. -1.
         -1    1    6    6    0  502 -0.22330618847E+03 -0.21877190093E+03 -0.13512705272E+03  0.34056734844E+03  0.00000000000E+00 0.  1.
<mgrwt>
<rscale>  0 0.78622950E+03</rscale>
<asrwt>0</asrwt>
<pdfrwt beam="1">  1        1 0.11789268E+00 0.78622950E+03</pdfrwt>
<pdfrwt beam="2">  1       -2 0.16186333E+00 0.78622950E+03</pdfrwt>
<totfact> 0.51596601E+00</totfact>
</mgrwt>
</event>
<event>
12    3  0.1092576E-007  0.6927702E+03  0.7818608E-02  0.9729677E-01
          1   -1    0    0  501    0  0.00000000000E+00  0.00000000000E+00  0.86572215149E+03  0.86572215149E+03  0.00000000000E+00 0. -1.
         -2   -1    0    0    0  501 -0.00000000000E+00 -0.00000000000E+00 -0.95904258784E+03  0.95904258784E+03  0.00000000000E+00 0.  1.
        -24    2    1    2    0    0  0.24612819087E+03 -0.62639499437E+03  0.41012524863E+03  0.79214159082E+03  0.79597770315E+02 0.  0.
    5000000    2    1    2    0    0 -0.24612819087E+03  0.62639499437E+03 -0.50344568497E+03  0.10326231485E+04  0.59991935607E+03 0.  0.
        -24    2    4    4    0    0 -0.13101245981E+03  0.55065097684E+03 -0.75619943597E+02  0.57677224216E+03  0.81037525468E+02 0.  0.
         24    2    4    4    0    0 -0.11511573106E+03  0.75744017528E+02 -0.42782574138E+03  0.45585090634E+03  0.76002605862E+02 0.  0.
         11    1    5    5    0    0 -0.10290942680E+03  0.39067172887E+03 -0.89360293760E+02  0.41376323176E+03  0.00000000000E+00 0. -1.
        -12    1    5    5    0    0 -0.28103033009E+02  0.15997924798E+03  0.13740350164E+02  0.16300901040E+03  0.00000000000E+00 0.  1.
         15    1    3    3    0    0  0.83781703488E+02 -0.24495199031E+03  0.20142132381E+03  0.32801609536E+03  0.17770000000E+01 0. -1.
        -16    1    3    3    0    0  0.16234648738E+03 -0.38144300406E+03  0.20870392481E+03  0.46412549547E+03  0.00000000000E+00 0.  1.
          2    1    6    6  502    0 -0.58873751172E+02  0.10973183026E+02 -0.96264488929E+02  0.11337275313E+03  0.00000000000E+00 0. -1.
         -1    1    6    6    0  502 -0.56241979889E+02  0.64770834502E+02 -0.33156125245E+03  0.34247815321E+03  0.00000000000E+00 0.  1.
<mgrwt>
<rscale>  0 0.69277016E+03</rscale>
<asrwt>0</asrwt>
<pdfrwt beam="1">  1        1 0.13318802E+00 0.69277016E+03</pdfrwt>
<pdfrwt beam="2">  1       -2 0.14754501E+00 0.69277016E+03</pdfrwt>
<totfact> 0.54979251E+00</totfact>
</mgrwt>
</event>
<event>
12    3  0.1092576E-007  0.4594291E+03  0.7818608E-02  0.1024947E+00
          1   -1    0    0  501    0  0.00000000000E+00  0.00000000000E+00  0.85341216822E+03  0.85341216822E+03  0.00000000000E+00 0. -1.
         -2   -1    0    0    0  501 -0.00000000000E+00 -0.00000000000E+00 -0.43579073268E+03  0.43579073268E+03  0.00000000000E+00 0.  1.
        -24    2    1    2    0    0  0.10315207948E+03  0.40482124250E+03  0.35757928646E+03  0.55546817555E+03  0.78494318730E+02 0.  0.
    5000000    2    1    2    0    0 -0.10315207948E+03 -0.40482124250E+03  0.60042149087E+02  0.73373472534E+03  0.60020079776E+03 0.  0.
        -24    2    4    4    0    0  0.55785181969E+02 -0.53362807515E+02  0.26691406020E+03  0.28853130989E+03  0.77766480609E+02 0.  0.
         24    2    4    4    0    0 -0.15893726145E+03 -0.35145843498E+03 -0.20687191111E+03  0.44520341545E+03  0.81400300507E+02 0.  0.
         11    1    5    5    0    0  0.74885239736E+02 -0.38911809096E+02  0.22425538290E+03  0.23960885789E+03  0.00000000000E+00 0. -1.
        -12    1    5    5    0    0 -0.19100057767E+02 -0.14450998419E+02  0.42658677296E+02  0.48922452009E+02  0.00000000000E+00 0.  1.
         15    1    3    3    0    0  0.35368033038E+02  0.28368838797E+03  0.25144450409E+03  0.38073284019E+03  0.17770000000E+01 0. -1.
        -16    1    3    3    0    0  0.67784046446E+02  0.12113285453E+03  0.10613478236E+03  0.17473533537E+03  0.00000000000E+00 0.  1.
          4    1    6    6  502    0 -0.96727309747E+02 -0.22373851228E+03 -0.17371850347E+03  0.29932125347E+03  0.00000000000E+00 0. -1.
         -3    1    6    6    0  502 -0.62209951706E+02 -0.12771992270E+03 -0.33153407635E+02  0.14588216198E+03  0.00000000000E+00 0.  1.
<mgrwt>
<rscale>  0 0.45942912E+03</rscale>
<asrwt>0</asrwt>
<pdfrwt beam="1">  1        1 0.13129418E+00 0.45942912E+03</pdfrwt>
<pdfrwt beam="2">  1       -2 0.67044728E-01 0.45942912E+03</pdfrwt>
<totfact> 0.37541713E+01</totfact>
</mgrwt>
</event>
<event>
12    3  0.1092576E-007  0.7442818E+03  0.7818608E-02  0.9644364E-01
          3   -1    0    0  501    0  0.00000000000E+00  0.00000000000E+00  0.14180283281E+03  0.14180283281E+03  0.00000000000E+00 0. -1.
         -4   -1    0    0    0  501 -0.00000000000E+00 -0.00000000000E+00 -0.40476712853E+04  0.40476712853E+04  0.00000000000E+00 0.  1.
        -24    2    1    2    0    0  0.51421610019E+03  0.37325541821E+03 -0.15829983617E+04  0.17076549669E+04  0.80398182950E+02 0.  0.
    5000000    2    1    2    0    0 -0.51421610019E+03 -0.37325541821E+03 -0.23228700908E+04  0.24818191512E+04  0.59996919575E+03 0.  0.
        -24    2    4    4    0    0 -0.53979464899E+03 -0.48793220792E+03 -0.19348810918E+04  0.20687541803E+04  0.80764573077E+02 0.  0.
         24    2    4    4    0    0  0.25578548796E+02  0.11467678971E+03 -0.38798899895E+03  0.41306497096E+03  0.79260196004E+02 0.  0.
         11    1    5    5    0    0 -0.12383452837E+03 -0.10966580730E+03 -0.35047840093E+03  0.38755217614E+03  0.00000000000E+00 0. -1.
        -12    1    5    5    0    0 -0.41596012061E+03 -0.37826640062E+03 -0.15844026909E+04  0.16812020041E+04  0.00000000000E+00 0.  1.
         15    1    3    3    0    0  0.25705845654E+03  0.22528704463E+03 -0.78039558700E+03  0.85197049979E+03  0.17770000000E+01 0. -1.
        -16    1    3    3    0    0  0.25715764365E+03  0.14796837358E+03 -0.80260277470E+03  0.85568446709E+03  0.00000000000E+00 0.  1.
          2    1    6    6  502    0 -0.68284123719E+01  0.45634723887E+02 -0.56664976232E+02  0.73075815228E+02  0.00000000000E+00 0. -1.
         -1    1    6    6    0  502  0.32406961168E+02  0.69042065820E+02 -0.33132402271E+03  0.33998915573E+03  0.00000000000E+00 0.  1.
<mgrwt>
<rscale>  0 0.74428182E+03</rscale>
<asrwt>0</asrwt>
<pdfrwt beam="1">  1        3 0.21815821E-01 0.74428182E+03</pdfrwt>
<pdfrwt beam="2">  1       -4 0.62271865E+00 0.74428182E+03</pdfrwt>
<totfact> 0.51397909E-03</totfact>
</mgrwt>
</event>
<event>
12    3  0.1092576E-007  0.1323804E+04  0.7818608E-02  0.9010899E-01
          1   -1    0    0  501    0  0.00000000000E+00  0.00000000000E+00  0.19819908346E+04  0.19819908346E+04  0.00000000000E+00 0. -1.
         -2   -1    0    0    0  501 -0.00000000000E+00 -0.00000000000E+00 -0.11138990530E+04  0.11138990530E+04  0.00000000000E+00 0.  1.
        -24    2    1    2    0    0  0.10937010155E+04 -0.72368189904E+03  0.99496399800E+03  0.16481159927E+04  0.80221978573E+02 0.  0.
    5000000    2    1    2    0    0 -0.10937010155E+04  0.72368189904E+03 -0.12687221642E+03  0.14477738948E+04  0.60004607229E+03 0.  0.
        -24    2    4    4    0    0 -0.86661436452E+03  0.47182280237E+03 -0.33103594235E+03  0.10437920272E+04  0.79245108699E+02 0.  0.
         24    2    4    4    0    0 -0.22708665099E+03  0.25185909667E+03  0.20416372593E+03  0.40398186763E+03  0.80728995743E+02 0.  0.
         13    1    5    5    0    0 -0.94998153286E+02  0.81585828864E+02 -0.42441125404E+02  0.13222006552E+03  0.00000000000E+00 0. -1.
        -14    1    5    5    0    0 -0.77161621123E+03  0.39023697351E+03 -0.28859481694E+03  0.91157196167E+03  0.00000000000E+00 0.  1.
         15    1    3    3    0    0  0.95963109484E+02 -0.39971366752E+02  0.90124631644E+02  0.13759446028E+03  0.17770000000E+01 0. -1.
        -16    1    3    3    0    0  0.99773790602E+03 -0.68371053229E+03  0.90483936635E+03  0.15105215324E+04  0.00000000000E+00 0.  1.
          2    1    6    6  502    0 -0.52377149211E+02  0.99300934623E+02  0.37481950177E+02  0.11835935943E+03  0.00000000000E+00 0. -1.
         -1    1    6    6    0  502 -0.17470950178E+03  0.15255816204E+03  0.16668177576E+03  0.28562250819E+03  0.00000000000E+00 0.  1.
<mgrwt>
<rscale>  0 0.13238039E+04</rscale>
<asrwt>0</asrwt>
<pdfrwt beam="1">  1        1 0.30492167E+00 0.13238039E+04</pdfrwt>
<pdfrwt beam="2">  1       -2 0.17136909E+00 0.13238039E+04</pdfrwt>
<totfact> 0.53897823E-01</totfact>
</mgrwt>
</event>
<event>
12    3  0.1092576E-007  0.3533849E+03  0.7818608E-02  0.1061234E+00
          1   -1    0    0  501    0  0.00000000000E+00  0.00000000000E+00  0.23267275675E+04  0.23267275675E+04  0.00000000000E+00 0. -1.
         -2   -1    0    0    0  501 -0.00000000000E+00 -0.00000000000E+00 -0.13675345042E+03  0.13675345042E+03  0.00000000000E+00 0.  1.
        -24    2    1    2    0    0  0.91887626668E+02  0.79357886673E+02  0.16217796835E+04  0.16282454519E+04  0.79201639365E+02 0.  0.
    5000000    2    1    2    0    0 -0.91887626668E+02 -0.79357886673E+02  0.56819443356E+03  0.83523556602E+03  0.60002710463E+03 0.  0.
        -24    2    4    4    0    0 -0.31070244803E+03 -0.12677371639E+03  0.20348766681E+03  0.40096466953E+03  0.82206139007E+02 0.  0.
         24    2    4    4    0    0  0.21881482136E+03  0.47415829713E+02  0.36470676676E+03  0.43427089649E+03  0.73837652064E+02 0.  0.
         13    1    5    5    0    0 -0.21271176004E+03 -0.45653873737E+02  0.11575309877E+03  0.24643325449E+03  0.00000000000E+00 0. -1.
        -14    1    5    5    0    0 -0.97990687994E+02 -0.81119842649E+02  0.87734568036E+02  0.15453141504E+03  0.00000000000E+00 0.  1.
         15    1    3    3    0    0  0.76765046064E+02  0.32166153943E+02  0.13009660315E+04  0.13036269814E+04  0.17770000000E+01 0. -1.
        -16    1    3    3    0    0  0.15122580604E+02  0.47191732730E+02  0.32081365201E+03  0.32461847051E+03  0.00000000000E+00 0.  1.
          4    1    6    6  502    0  0.14421231063E+03  0.54703700850E+02  0.28986624893E+03  0.32834757147E+03  0.00000000000E+00 0. -1.
         -3    1    6    6    0  502  0.74602510735E+02 -0.72878711373E+01  0.74840517832E+02  0.10592332502E+03  0.00000000000E+00 0.  1.
<mgrwt>
<rscale>  0 0.35338489E+03</rscale>
<asrwt>0</asrwt>
<pdfrwt beam="1">  1        1 0.35795806E+00 0.35338489E+03</pdfrwt>
<pdfrwt beam="2">  1       -2 0.21038994E-01 0.35338489E+03</pdfrwt>
<totfact> 0.34281111E+01</totfact>
</mgrwt>
</event>
<event>
12    3  0.1092576E-007  0.1352327E+04  0.7818608E-02  0.8989069E-01
          1   -1    0    0  501    0  0.00000000000E+00  0.00000000000E+00  0.32031735515E+04  0.32031735515E+04  0.00000000000E+00 0. -1.
         -2   -1    0    0    0  501 -0.00000000000E+00 -0.00000000000E+00 -0.10836460926E+04  0.10836460926E+04  0.00000000000E+00 0.  1.
        -24    2    1    2    0    0 -0.28987840502E+03  0.12924614716E+04  0.24583296423E+04  0.27937436186E+04  0.84454905623E+02 0.  0.
    5000000    2    1    2    0    0  0.28987840502E+03 -0.12924614716E+04 -0.33880218346E+03  0.14930760255E+04  0.60000246083E+03 0.  0.
        -24    2    4    4    0    0  0.32358338388E+03 -0.64876921765E+03  0.58252448462E+02  0.73158564144E+03  0.78844777302E+02 0.  0.
         24    2    4    4    0    0 -0.33704978857E+02 -0.64369225398E+03 -0.39705463192E+03  0.76149038405E+03  0.82094341053E+02 0.  0.
         11    1    5    5    0    0  0.20785728684E+03 -0.49384521083E+03  0.37962238556E+02  0.53714883925E+03  0.00000000000E+00 0. -1.
        -12    1    5    5    0    0  0.11572609704E+03 -0.15492400682E+03  0.20290209906E+02  0.19443680219E+03  0.00000000000E+00 0.  1.
         15    1    3    3    0    0 -0.22625761559E+03  0.10986567963E+04  0.21270713888E+04  0.24047193424E+04  0.17770000000E+01 0. -1.
        -16    1    3    3    0    0 -0.63620789434E+02  0.19380467532E+03  0.33125825349E+03  0.38902427627E+03  0.00000000000E+00 0.  1.
          4    1    6    6  502    0 -0.58705429424E+02 -0.53683174356E+03 -0.32915530759E+03  0.63243803242E+03  0.00000000000E+00 0. -1.
         -3    1    6    6    0  502  0.25000450567E+02 -0.10686051042E+03 -0.67899324335E+02  0.12905235163E+03  0.00000000000E+00 0.  1.
<mgrwt>
<rscale>  0 0.13523266E+04</rscale>
<asrwt>0</asrwt>
<pdfrwt beam="1">  1        1 0.49279593E+00 0.13523266E+04</pdfrwt>
<pdfrwt beam="2">  1       -2 0.16671478E+00 0.13523266E+04</pdfrwt>
<totfact> 0.80685019E-02</totfact>
</mgrwt>
</event>
<event>
12    3  0.1092576E-007  0.7268559E+03  0.7818608E-02  0.9672376E-01
          1   -1    0    0  501    0  0.00000000000E+00  0.00000000000E+00  0.28582981846E+04  0.28582981846E+04  0.00000000000E+00 0. -1.
         -2   -1    0    0    0  501 -0.00000000000E+00 -0.00000000000E+00 -0.21754781470E+03  0.21754781470E+03  0.00000000000E+00 0.  1.
        -24    2    1    2    0    0 -0.26074616519E+03  0.60414127721E+03  0.13926211017E+04  0.15423522109E+04  0.80508162775E+02 0.  0.
    5000000    2    1    2    0    0  0.26074616519E+03 -0.60414127721E+03  0.12481292682E+04  0.15334937883E+04  0.60066736487E+03 0.  0.
        -24    2    4    4    0    0  0.28590070917E+03 -0.64543997590E+03  0.12530747618E+04  0.14404620273E+04  0.80015719983E+02 0.  0.
         24    2    4    4    0    0 -0.25154543980E+02  0.41298698689E+02 -0.49454936510E+01  0.93031760987E+02  0.79322865862E+02 0.  0.
         13    1    5    5    0    0  0.18848180465E+03 -0.42630579072E+03  0.74795093665E+03  0.88130166318E+03  0.00000000000E+00 0. -1.
        -14    1    5    5    0    0  0.97418904527E+02 -0.21913418519E+03  0.50512382517E+03  0.55916036415E+03  0.00000000000E+00 0.  1.
         15    1    3    3    0    0 -0.77677514713E+02  0.20832701012E+03  0.55794015359E+03  0.60061161507E+03  0.17770000000E+01 0. -1.
        -16    1    3    3    0    0 -0.18306865048E+03  0.39581426709E+03  0.83468094809E+03  0.94174059588E+03  0.00000000000E+00 0.  1.
          2    1    6    6  502    0  0.36661611723E+01 -0.20672823023E+02 -0.12232407347E+02  0.24298932877E+02  0.00000000000E+00 0. -1.
         -1    1    6    6    0  502 -0.28820705152E+02  0.61971521712E+02  0.72869136957E+01  0.68732828110E+02  0.00000000000E+00 0.  1.
<mgrwt>
<rscale>  0 0.72685594E+03</rscale>
<asrwt>0</asrwt>
<pdfrwt beam="1">  1        1 0.43973815E+00 0.72685594E+03</pdfrwt>
<pdfrwt beam="2">  1       -2 0.33468897E-01 0.72685594E+03</pdfrwt>
<totfact> 0.59083584E+00</totfact>
</mgrwt>
</event>
<event>
12    3  0.1092576E-007  0.6183267E+03  0.7818608E-02  0.9868097E-01
         -4   -1    0    0    0  501 -0.00000000000E+00  0.00000000000E+00  0.40241741893E+03  0.40241741893E+03  0.00000000000E+00 0.  1.
          3   -1    0    0  501    0  0.00000000000E+00 -0.00000000000E+00 -0.23325184828E+04  0.23325184828E+04  0.00000000000E+00 0. -1.
        -24    2    1    2    0    0  0.59507248121E+03 -0.91580088604E+02 -0.17682174007E+04  0.18695909491E+04  0.79242476907E+02 0.  0.
    5000000    2    1    2    0    0 -0.59507248121E+03  0.91580088604E+02 -0.16188366311E+03  0.86534495261E+03  0.60009782211E+03 0.  0.
        -24    2    4    4    0    0 -0.46699613250E+03  0.73145846979E+02  0.16348705469E+03  0.50655417669E+03  0.80208566665E+02 0.  0.
         24    2    4    4    0    0 -0.12807634871E+03  0.18434241625E+02 -0.32537071780E+03  0.35879077592E+03  0.78239021728E+02 0.  0.
         11    1    5    5    0    0 -0.25452842756E+03  0.78228796648E+02  0.10388785544E+03  0.28582713582E+03  0.00000000000E+00 0. -1.
        -12    1    5    5    0    0 -0.21246770494E+03 -0.50829496692E+01  0.59599199249E+02  0.22072704087E+03  0.00000000000E+00 0.  1.
         15    1    3    3    0    0  0.48013271861E+03 -0.42592685260E+02 -0.13797293281E+04  0.14615052997E+04  0.17770000000E+01 0. -1.
        -16    1    3    3    0    0  0.11493976260E+03 -0.48987403343E+02 -0.38848807260E+03  0.40808564942E+03  0.00000000000E+00 0.  1.
          2    1    6    6  502    0 -0.10979058598E+03 -0.16911358531E+02 -0.22877208910E+03  0.25431601516E+03  0.00000000000E+00 0. -1.
         -3    1    6    6    0  502 -0.18285762736E+02  0.35345600156E+02 -0.96598628698E+02  0.10447476076E+03  0.00000000000E+00 0.  1.
<mgrwt>
<rscale>  0 0.61832672E+03</rscale>
<asrwt>0</asrwt>
<pdfrwt beam="1">  1        3 0.35884900E+00 0.61832672E+03</pdfrwt>
<pdfrwt beam="2">  1       -4 0.61910372E-01 0.61832672E+03</pdfrwt>
<totfact> 0.10668119E-01</totfact>
</mgrwt>
</event>
<event>
12    3  0.1092576E-007  0.7175866E+03  0.7818608E-02  0.9687621E-01
          1   -1    0    0  501    0  0.00000000000E+00  0.00000000000E+00  0.63231875972E+03  0.63231875972E+03  0.00000000000E+00 0. -1.
         -2   -1    0    0    0  501 -0.00000000000E+00 -0.00000000000E+00 -0.12356304324E+04  0.12356304324E+04  0.00000000000E+00 0.  1.
        -24    2    1    2    0    0 -0.29901151613E+03  0.53100727456E+03 -0.78145102904E+03  0.99419802960E+03  0.79921204106E+02 0.  0.
    5000000    2    1    2    0    0  0.29901151613E+03 -0.53100727456E+03  0.17813935632E+03  0.87375116255E+03  0.60027564617E+03 0.  0.
        -24    2    4    4    0    0  0.61935910957E+01  0.96600874034E+02  0.12061217571E+03  0.17414959404E+03  0.80066814227E+02 0.  0.
         24    2    4    4    0    0  0.29281792504E+03 -0.62760814859E+03  0.57527180614E+02  0.69960156851E+03  0.80614221821E+02 0.  0.
         11    1    5    5    0    0  0.42604703321E+02  0.42841856582E+02  0.63872720279E+02  0.87922180457E+02  0.00000000000E+00 0. -1.
        -12    1    5    5    0    0 -0.36411112225E+02  0.53759017452E+02  0.56739455428E+02  0.86227413583E+02  0.00000000000E+00 0.  1.
         15    1    3    3    0    0 -0.22743589327E+03  0.46066625016E+03 -0.66838818576E+03  0.84302218487E+03  0.17770000000E+01 0. -1.
        -16    1    3    3    0    0 -0.71575622859E+02  0.70341024395E+02 -0.11306284328E+03  0.15117584474E+03  0.00000000000E+00 0.  1.
          2    1    6    6  502    0  0.77452250008E+02 -0.10504057868E+03 -0.71616668455E+01  0.13070448987E+03  0.00000000000E+00 0. -1.
         -1    1    6    6    0  502  0.21536567503E+03 -0.52256756991E+03  0.64688847459E+02  0.56889707865E+03  0.00000000000E+00 0.  1.
<mgrwt>
<rscale>  0 0.71758657E+03</rscale>
<asrwt>0</asrwt>
<pdfrwt beam="1">  1        1 0.97279809E-01 0.71758657E+03</pdfrwt>
<pdfrwt beam="2">  1       -2 0.19009699E+00 0.71758657E+03</pdfrwt>
<totfact> 0.44266111E+00</totfact>
</mgrwt>
</event>
<event>
12    3  0.1092576E-007  0.4303346E+03  0.7818608E-02  0.1033754E+00
         -4   -1    0    0    0  501 -0.00000000000E+00  0.00000000000E+00  0.53957909731E+03  0.53957909731E+03  0.00000000000E+00 0.  1.
          1   -1    0    0  501    0  0.00000000000E+00 -0.00000000000E+00 -0.72397837744E+03  0.72397837744E+03  0.00000000000E+00 0. -1.
        -24    2    1    2    0    0  0.32846250508E+03 -0.26475731082E+03  0.15346560919E+03  0.45602685793E+03  0.80154544947E+02 0.  0.
    5000000    2    1    2    0    0 -0.32846250508E+03  0.26475731082E+03 -0.33786488932E+03  0.80753061681E+03  0.59997413508E+03 0.  0.
        -24    2    4    4    0    0 -0.87750675895E+02  0.66553650546E+02 -0.44711694353E+03  0.46733512102E+03  0.79743241925E+02 0.  0.
         24    2    4    4    0    0 -0.24071182919E+03  0.19820366027E+03  0.10925205420E+03  0.34019549578E+03  0.81056081502E+02 0.  0.
         13    1    5    5    0    0 -0.71453310369E+02  0.33034938150E+02 -0.39782488474E+03  0.40553855750E+03  0.00000000000E+00 0. -1.
        -14    1    5    5    0    0 -0.16297365526E+02  0.33518712395E+02 -0.49292058781E+02  0.61796563518E+02  0.00000000000E+00 0.  1.
         15    1    3    3    0    0  0.17280639720E+03 -0.17735367495E+03  0.61209844345E+02  0.25508073174E+03  0.17770000000E+01 0. -1.
        -16    1    3    3    0    0  0.15565610789E+03 -0.87403635865E+02  0.92255764847E+02  0.20094612619E+03  0.00000000000E+00 0.  1.
          2    1    6    6  502    0 -0.14874500572E+03  0.80403010354E+02  0.83373562183E+02  0.18852286777E+03  0.00000000000E+00 0. -1.
         -1    1    6    6    0  502 -0.91966823466E+02  0.11780064992E+03  0.25878492021E+02  0.15167262802E+03  0.00000000000E+00 0.  1.
<mgrwt>
<rscale>  0 0.43033456E+03</rscale>
<asrwt>0</asrwt>
<pdfrwt beam="1">  1        1 0.11138129E+00 0.43033456E+03</pdfrwt>
<pdfrwt beam="2">  1       -4 0.83012168E-01 0.43033456E+03</pdfrwt>
<totfact> 0.16235392E+01</totfact>
</mgrwt>
</event>
<event>
12    3  0.1092576E-007  0.7861821E+03  0.7818608E-02  0.9580236E-01
          1   -1    0    0  501    0  0.00000000000E+00  0.00000000000E+00  0.14836520609E+04  0.14836520609E+04  0.00000000000E+00 0. -1.
         -2   -1    0    0    0  501 -0.00000000000E+00 -0.00000000000E+00 -0.50052348525E+03  0.50052348525E+03  0.00000000000E+00 0.  1.
        -24    2    1    2    0    0  0.28321910419E+03 -0.69734681001E+03  0.49401370289E+03  0.90444164042E+03  0.86368442578E+02 0.  0.
    5000000    2    1    2    0    0 -0.28321910419E+03  0.69734681001E+03  0.48911487278E+03  0.10797339058E+04  0.60007192408E+03 0.  0.
        -24    2    4    4    0    0 -0.25764456447E+03  0.68761888068E+03  0.18140142805E+03  0.76076510575E+03  0.81588120244E+02 0.  0.
         24    2    4    4    0    0 -0.25574539722E+02  0.97279293286E+01  0.30771344473E+03  0.31896880001E+03  0.79403032809E+02 0.  0.
         11    1    5    5    0    0 -0.57613954084E+02  0.23597509501E+03  0.85983481022E+02  0.25767571127E+03  0.00000000000E+00 0. -1.
        -12    1    5    5    0    0 -0.20003061039E+03  0.45164378567E+03  0.95417947027E+02  0.50308939448E+03  0.00000000000E+00 0.  1.
         15    1    3    3    0    0  0.10612543703E+03 -0.25250735122E+03  0.23008494151E+03  0.35772169188E+03  0.17770000000E+01 0. -1.
        -16    1    3    3    0    0  0.17709366717E+03 -0.44483945879E+03  0.26392876138E+03  0.54671994854E+03  0.00000000000E+00 0.  1.
          2    1    6    6  502    0  0.68548168954E+01 -0.30422779635E+02  0.91035494735E+02  0.96228869562E+02  0.00000000000E+00 0. -1.
         -1    1    6    6    0  502 -0.32429356617E+02  0.40150708964E+02  0.21667795000E+03  0.22273993045E+03  0.00000000000E+00 0.  1.
<mgrwt>
<rscale>  0 0.78618213E+03</rscale>
<asrwt>0</asrwt>
<pdfrwt beam="1">  1        1 0.22825416E+00 0.78618213E+03</pdfrwt>
<pdfrwt beam="2">  1       -2 0.77003613E-01 0.78618213E+03</pdfrwt>
<totfact> 0.91134723E+00</totfact>
</mgrwt>
</event>
<event>
12    3  0.1092576E-007  0.6364053E+03  0.7818608E-02  0.9832628E-01
          1   -1    0    0  501    0  0.00000000000E+00  0.00000000000E+00  0.23113261473E+04  0.23113261473E+04  0.00000000000E+00 0. -1.
         -2   -1    0    0    0  501 -0.00000000000E+00 -0.00000000000E+00 -0.19777726315E+03  0.19777726315E+03  0.00000000000E+00 0.  1.
        -24    2    1    2    0    0 -0.15541683139E+03  0.49519538576E+03  0.58029493646E+03  0.78275271698E+03  0.81158740236E+02 0.  0.
    5000000    2    1    2    0    0  0.15541683139E+03 -0.49519538576E+03  0.15332539477E+04  0.17263506935E+04  0.60003848806E+03 0.  0.
        -24    2    4    4    0    0  0.19642046764E+03 -0.60315664509E+03  0.13642820885E+04  0.15063911499E+04  0.74630695725E+02 0.  0.
         24    2    4    4    0    0 -0.41003636256E+02  0.10796125933E+03  0.16897185923E+03  0.21995954364E+03  0.80583992974E+02 0.  0.
         11    1    5    5    0    0  0.12246628857E+03 -0.34524574712E+03  0.87015817549E+03  0.94412280351E+03  0.00000000000E+00 0. -1.
        -12    1    5    5    0    0  0.73954179076E+02 -0.25791089797E+03  0.49412391300E+03  0.56226834634E+03  0.00000000000E+00 0.  1.
         15    1    3    3    0    0 -0.82929214647E+02  0.32183197204E+03  0.31704950037E+03  0.45932190921E+03  0.17770000000E+01 0. -1.
        -16    1    3    3    0    0 -0.72487616740E+02  0.17336341372E+03  0.26324543608E+03  0.32343080777E+03  0.00000000000E+00 0.  1.
          4    1    6    6  502    0 -0.41400707881E+02  0.81050698509E+02  0.17021310191E+03  0.19301744585E+03  0.00000000000E+00 0. -1.
         -3    1    6    6    0  502  0.39707162492E+00  0.26910560821E+02 -0.12412426824E+01  0.26942097784E+02  0.00000000000E+00 0.  1.
<mgrwt>
<rscale>  0 0.63640530E+03</rscale>
<asrwt>0</asrwt>
<pdfrwt beam="1">  1        1 0.35558862E+00 0.63640530E+03</pdfrwt>
<pdfrwt beam="2">  1       -2 0.30427273E-01 0.63640530E+03</pdfrwt>
<totfact> 0.17035235E+01</totfact>
</mgrwt>
</event>
<event>
12    3  0.1092576E-007  0.1269267E+04  0.7818608E-02  0.9054298E-01
         -2   -1    0    0    0  501 -0.00000000000E+00  0.00000000000E+00  0.85589210385E+03  0.85589210385E+03  0.00000000000E+00 0.  1.
          1   -1    0    0  501    0  0.00000000000E+00 -0.00000000000E+00 -0.24421354770E+04  0.24421354770E+04  0.00000000000E+00 0. -1.
        -24    2    1    2    0    0 -0.12299619537E+04 -0.29740788111E+03 -0.12485446689E+03  0.12739486782E+04  0.78094439900E+02 0.  0.
    5000000    2    1    2    0    0  0.12299619537E+04  0.29740788111E+03 -0.14613889062E+04  0.20240789026E+04  0.59998334435E+03 0.  0.
        -24    2    4    4    0    0  0.74764047360E+03  0.20375233525E+03 -0.45631588710E+03  0.90279619187E+03  0.79595749550E+02 0.  0.
         24    2    4    4    0    0  0.48232148009E+03  0.93655545861E+02 -0.10050730191E+04  0.11212827107E+04  0.75483589025E+02 0.  0.
         11    1    5    5    0    0  0.78800677987E+02  0.30239511469E+01 -0.28477546230E+02  0.83843078253E+02  0.00000000000E+00 0. -1.
        -12    1    5    5    0    0  0.66883979561E+03  0.20072838410E+03 -0.42783834087E+03  0.81895311361E+03  0.00000000000E+00 0.  1.
         15    1    3    3    0    0 -0.50562807592E+03 -0.13769016884E+03 -0.87294085070E+02  0.53126429277E+03  0.17770000000E+01 0. -1.
        -16    1    3    3    0    0 -0.72433387777E+03 -0.15971771227E+03 -0.37560381818E+02  0.74268438544E+03  0.00000000000E+00 0.  1.
          4    1    6    6  502    0  0.15544409066E+03 -0.40727178357E+00 -0.35689618290E+03  0.38927871321E+03  0.00000000000E+00 0. -1.
         -3    1    6    6    0  502  0.32687738942E+03  0.94062817644E+02 -0.64817683624E+03  0.73200399754E+03  0.00000000000E+00 0.  1.
<mgrwt>
<rscale>  0 0.12692670E+04</rscale>
<asrwt>0</asrwt>
<pdfrwt beam="1">  1        1 0.37571315E+00 0.12692670E+04</pdfrwt>
<pdfrwt beam="2">  1       -2 0.13167571E+00 0.12692670E+04</pdfrwt>
<totfact> 0.53372123E-01</totfact>
</mgrwt>
</event>
<event>
12    3  0.1092576E-007  0.6077519E+03  0.7818608E-02  0.9889453E-01
         -2   -1    0    0    0  501 -0.00000000000E+00  0.00000000000E+00  0.13686827713E+04  0.13686827713E+04  0.00000000000E+00 0.  1.
          1   -1    0    0  501    0  0.00000000000E+00 -0.00000000000E+00 -0.67579211010E+03  0.67579211010E+03  0.00000000000E+00 0. -1.
        -24    2    1    2    0    0 -0.28132422154E+03 -0.44375300507E+03 -0.41946846122E+03  0.67572699472E+03  0.67772666333E+02 0.  0.
    5000000    2    1    2    0    0  0.28132422154E+03  0.44375300507E+03  0.11123591224E+04  0.13687478867E+04  0.60005659144E+03 0.  0.
        -24    2    4    4    0    0 -0.11849738831E+03  0.78567483293E+02  0.58824915757E+03  0.61083456094E+03  0.82869228233E+02 0.  0.
         24    2    4    4    0    0  0.39982160985E+03  0.36518552178E+03  0.52410996486E+03  0.75791332575E+03  0.80768614342E+02 0.  0.
         13    1    5    5    0    0 -0.63047692954E+02  0.36022158501E+02  0.14560398131E+03  0.16270564485E+03  0.00000000000E+00 0. -1.
        -14    1    5    5    0    0 -0.55449695359E+02  0.42545324792E+02  0.44264517626E+03  0.44812891610E+03  0.00000000000E+00 0.  1.
         15    1    3    3    0    0 -0.15354316445E+03 -0.22108737275E+03 -0.25533372252E+03  0.37101697714E+03  0.17770000000E+01 0. -1.
        -16    1    3    3    0    0 -0.12778105709E+03 -0.22266563232E+03 -0.16413473870E+03  0.30471001758E+03  0.00000000000E+00 0.  1.
          4    1    6    6  502    0  0.46741848218E+02  0.82382546531E+02  0.10185143188E+03  0.13908773679E+03  0.00000000000E+00 0. -1.
         -3    1    6    6    0  502  0.35307976163E+03  0.28280297525E+03  0.42225853297E+03  0.61882558896E+03  0.00000000000E+00 0.  1.
<mgrwt>
<rscale>  0 0.60775190E+03</rscale>
<asrwt>0</asrwt>
<pdfrwt beam="1">  1        1 0.10396802E+00 0.60775190E+03</pdfrwt>
<pdfrwt beam="2">  1       -2 0.21056658E+00 0.60775190E+03</pdfrwt>
<totfact> 0.30071943E+00</totfact>
</mgrwt>
</event>
<event>
12    3  0.1092576E-007  0.1155575E+04  0.7818608E-02  0.9152656E-01
         -4   -1    0    0    0  501 -0.00000000000E+00  0.00000000000E+00  0.96537788134E+03  0.96537788134E+03  0.00000000000E+00 0.  1.
          3   -1    0    0  501    0  0.00000000000E+00 -0.00000000000E+00 -0.16790504184E+04  0.16790504184E+04  0.00000000000E+00 0. -1.
        -24    2    1    2    0    0  0.11234522389E+04 -0.17902039600E+03 -0.73752995319E+03  0.13580462660E+04  0.78396386448E+02 0.  0.
    5000000    2    1    2    0    0 -0.11234522389E+04  0.17902039600E+03  0.23857416132E+02  0.12863820337E+04  0.60001360415E+03 0.  0.
        -24    2    4    4    0    0 -0.54236855170E+03 -0.32027143688E+02 -0.25200701352E+03  0.60459406951E+03  0.82686578235E+02 0.  0.
         24    2    4    4    0    0 -0.58108368721E+03  0.21104753969E+03  0.27586442966E+03  0.68178796424E+03  0.80835197042E+02 0.  0.
         11    1    5    5    0    0 -0.53387583624E+03 -0.19293970431E+02 -0.24377870454E+03  0.58721692977E+03  0.00000000000E+00 0. -1.
        -12    1    5    5    0    0 -0.84927154576E+01 -0.12733173257E+02 -0.82283089850E+01  0.17377139747E+02  0.00000000000E+00 0.  1.
         15    1    3    3    0    0  0.10431954232E+04 -0.17537194722E+03 -0.66281830358E+03  0.12483362016E+04  0.17770000000E+01 0. -1.
        -16    1    3    3    0    0  0.80256815689E+02 -0.36484487841E+01 -0.74711649612E+02  0.10971006440E+03  0.00000000000E+00 0.  1.
          4    1    6    6  502    0 -0.29554634478E+03  0.15009010905E+03  0.14281531866E+03  0.36093059997E+03  0.00000000000E+00 0. -1.
         -3    1    6    6    0  502 -0.28553734242E+03  0.60957430641E+02  0.13304911100E+03  0.32085736427E+03  0.00000000000E+00 0.  1.
<mgrwt>
<rscale>  0 0.11555749E+04</rscale>
<asrwt>0</asrwt>
<pdfrwt beam="1">  1        3 0.25831545E+00 0.11555749E+04</pdfrwt>
<pdfrwt beam="2">  1       -4 0.14851967E+00 0.11555749E+04</pdfrwt>
<totfact> 0.44148881E-02</totfact>
</mgrwt>
</event>
<event>
12    3  0.1092576E-007  0.5874396E+03  0.7818608E-02  0.9931813E-01
          1   -1    0    0  501    0  0.00000000000E+00  0.00000000000E+00  0.15580626753E+04  0.15580626753E+04  0.00000000000E+00 0. -1.
         -2   -1    0    0    0  501 -0.00000000000E+00 -0.00000000000E+00 -0.34252593815E+03  0.34252593815E+03  0.00000000000E+00 0.  1.
        -24    2    1    2    0    0 -0.57732139013E+03  0.66509690329E+02  0.72096475469E+03  0.92949054606E+03  0.80243200884E+02 0.  0.
    5000000    2    1    2    0    0  0.57732139013E+03 -0.66509690329E+02  0.49457198244E+03  0.97109806737E+03  0.60058844829E+03 0.  0.
        -24    2    4    4    0    0  0.32032812891E+03 -0.27501808512E+02 -0.74626654680E+02  0.34035767907E+03  0.83112889947E+02 0.  0.
         24    2    4    4    0    0  0.25699326123E+03 -0.39007881818E+02  0.56919863712E+03  0.63074038830E+03  0.79241389268E+02 0.  0.
         11    1    5    5    0    0  0.31392831543E+03 -0.23737547310E+02 -0.55287533344E+02  0.31964225272E+03  0.00000000000E+00 0. -1.
        -12    1    5    5    0    0  0.63998134765E+01 -0.37642612013E+01 -0.19339121336E+02  0.20715426353E+02  0.00000000000E+00 0.  1.
         15    1    3    3    0    0 -0.15330380732E+03  0.36593430057E+02  0.14926324017E+03  0.21708019039E+03  0.17770000000E+01 0. -1.
        -16    1    3    3    0    0 -0.42401758281E+03  0.29916260272E+02  0.57170151452E+03  0.71241035567E+03  0.00000000000E+00 0.  1.
          4    1    6    6  502    0  0.71252058314E+02  0.21772803826E+02  0.12625818847E+03  0.14660164036E+03  0.00000000000E+00 0. -1.
         -3    1    6    6    0  502  0.18574120291E+03 -0.60780685643E+02  0.44294044864E+03  0.48413874794E+03  0.00000000000E+00 0.  1.
<mgrwt>
<rscale>  0 0.58743957E+03</rscale>
<asrwt>0</asrwt>
<pdfrwt beam="1">  1        1 0.23970195E+00 0.58743957E+03</pdfrwt>
<pdfrwt beam="2">  1       -2 0.52696299E-01 0.58743957E+03</pdfrwt>
<totfact> 0.18769318E+01</totfact>
</mgrwt>
</event>
<event>
12    3  0.1092576E-007  0.1155969E+04  0.7818608E-02  0.9152294E-01
          1   -1    0    0  501    0  0.00000000000E+00  0.00000000000E+00  0.84135917922E+03  0.84135917922E+03  0.00000000000E+00 0. -1.
         -2   -1    0    0    0  501 -0.00000000000E+00 -0.00000000000E+00 -0.16835446686E+04  0.16835446686E+04  0.00000000000E+00 0.  1.
        -24    2    1    2    0    0 -0.10658659154E+04  0.24359294847E+03 -0.17342166746E+03  0.11098070300E+04  0.78669529407E+02 0.  0.
    5000000    2    1    2    0    0  0.10658659154E+04 -0.24359294847E+03 -0.66876382188E+03  0.14150968178E+04  0.59987188626E+03 0.  0.
        -24    2    4    4    0    0  0.52838487143E+03  0.14047678827E+03 -0.15295125438E+03  0.57330726257E+03  0.79767353603E+02 0.  0.
         24    2    4    4    0    0  0.53748104402E+03 -0.38406973673E+03 -0.51581256750E+03  0.84178955519E+03  0.78432232459E+02 0.  0.
         13    1    5    5    0    0  0.62405901279E+02  0.43970059782E+02 -0.14471648238E+02  0.77700008201E+02  0.00000000000E+00 0. -1.
        -14    1    5    5    0    0  0.46597897015E+03  0.96506728486E+02 -0.13847960614E+03  0.49560725437E+03  0.00000000000E+00 0.  1.
         15    1    3    3    0    0 -0.24672668995E+03  0.85578678549E+02 -0.23570660309E+02  0.26221461347E+03  0.17770000000E+01 0. -1.
        -16    1    3    3    0    0 -0.81913922549E+03  0.15801426992E+03 -0.14985100715E+03  0.84759241654E+03  0.00000000000E+00 0.  1.
          4    1    6    6  502    0  0.21191663773E+03 -0.19426134548E+03 -0.24505380808E+03  0.37775322705E+03  0.00000000000E+00 0. -1.
         -3    1    6    6    0  502  0.32556440629E+03 -0.18980839125E+03 -0.27075875942E+03  0.46403632814E+03  0.00000000000E+00 0.  1.
<mgrwt>
<rscale>  0 0.11559694E+04</rscale>
<asrwt>0</asrwt>
<pdfrwt beam="1">  1        1 0.12943988E+00 0.11559694E+04</pdfrwt>
<pdfrwt beam="2">  1       -2 0.25900687E+00 0.11559694E+04</pdfrwt>
<totfact> 0.99386259E-01</totfact>
</mgrwt>
</event>
<event>
12    3  0.1092576E-007  0.1275695E+04  0.7818608E-02  0.9049064E-01
         -2   -1    0    0    0  501 -0.00000000000E+00  0.00000000000E+00  0.11676410716E+04  0.11676410716E+04  0.00000000000E+00 0.  1.
          1   -1    0    0  501    0  0.00000000000E+00 -0.00000000000E+00 -0.14593475152E+04  0.14593475152E+04  0.00000000000E+00 0. -1.
        -24    2    1    2    0    0 -0.10724692718E+04  0.56413838144E+03 -0.37832606735E+03  0.12719933808E+04  0.79963086997E+02 0.  0.
    5000000    2    1    2    0    0  0.10724692718E+04 -0.56413838144E+03  0.86619623698E+02  0.13549952060E+04  0.60005549467E+03 0.  0.
        -24    2    4    4    0    0  0.36768505702E+03  0.76171264280E+02  0.10495895834E+03  0.39901445904E+03  0.84863378017E+02 0.  0.
         24    2    4    4    0    0  0.70478421479E+03 -0.64030964572E+03 -0.18339334638E+02  0.95598074696E+03  0.82738295543E+02 0.  0.
         11    1    5    5    0    0  0.18453012775E+03  0.81409402699E+02  0.57964226556E+02  0.20985402177E+03  0.00000000000E+00 0. -1.
        -12    1    5    5    0    0  0.18315492927E+03 -0.52381384190E+01  0.46994731779E+02  0.18916043726E+03  0.00000000000E+00 0.  1.
         15    1    3    3    0    0 -0.68331812495E+03  0.35854106224E+03 -0.28095581345E+03  0.82122754462E+03  0.17770000000E+01 0. -1.
        -16    1    3    3    0    0 -0.38915114686E+03  0.20559731919E+03 -0.97370253903E+02  0.45076583622E+03  0.00000000000E+00 0.  1.
          4    1    6    6  502    0  0.50573619667E+03 -0.41657729983E+03 -0.34150534664E+02  0.65610365521E+03  0.00000000000E+00 0. -1.
         -3    1    6    6    0  502  0.19904801812E+03 -0.22373234588E+03  0.15811200027E+02  0.29987709175E+03  0.00000000000E+00 0.  1.
<mgrwt>
<rscale>  0 0.12756952E+04</rscale>
<asrwt>0</asrwt>
<pdfrwt beam="1">  1        1 0.22451500E+00 0.12756952E+04</pdfrwt>
<pdfrwt beam="2">  1       -2 0.17963709E+00 0.12756952E+04</pdfrwt>
<totfact> 0.10791957E+00</totfact>
</mgrwt>
</event>
<event>
12    3  0.1092576E-007  0.1028370E+04  0.7818608E-02  0.9277964E-01
          3   -1    0    0  501    0  0.00000000000E+00  0.00000000000E+00  0.18968846572E+04  0.18968846572E+04  0.00000000000E+00 0. -1.
         -4   -1    0    0    0  501 -0.00000000000E+00 -0.00000000000E+00 -0.15418646659E+04  0.15418646659E+04  0.00000000000E+00 0.  1.
        -24    2    1    2    0    0 -0.24135666958E+03  0.96344300655E+03 -0.11606994544E+04  0.15298411695E+04  0.81947006398E+02 0.  0.
    5000000    2    1    2    0    0  0.24135666958E+03 -0.96344300655E+03  0.15157194456E+04  0.19089081535E+04  0.60004119181E+03 0.  0.
        -24    2    4    4    0    0  0.30324799124E+03 -0.48046940484E+03  0.43163135855E+03  0.71778708620E+03  0.78118360483E+02 0.  0.
         24    2    4    4    0    0 -0.61891321655E+02 -0.48297360170E+03  0.10840880871E+04  0.11911210673E+04  0.80177183949E+02 0.  0.
         13    1    5    5    0    0  0.33176249350E+02 -0.20733403475E+02  0.42027385737E+02  0.57418104223E+02  0.00000000000E+00 0. -1.
        -14    1    5    5    0    0  0.27007174189E+03 -0.45973600137E+03  0.38960397282E+03  0.66036898197E+03  0.00000000000E+00 0.  1.
         15    1    3    3    0    0 -0.19414028144E+03  0.85096257609E+03 -0.10467914756E+04  0.13629392158E+04  0.17770000000E+01 0. -1.
        -16    1    3    3    0    0 -0.47216388136E+02  0.11248043045E+03 -0.11390797873E+03  0.16690195374E+03  0.00000000000E+00 0.  1.
          4    1    6    6  502    0 -0.58295792684E+02 -0.25395745469E+03  0.65071005669E+03  0.70093963087E+03  0.00000000000E+00 0. -1.
         -3    1    6    6    0  502 -0.35955289705E+01 -0.22901614701E+03  0.43337803038E+03  0.49018143645E+03  0.00000000000E+00 0.  1.
<mgrwt>
<rscale>  0 0.10283705E+04</rscale>
<asrwt>0</asrwt>
<pdfrwt beam="1">  1        3 0.29182841E+00 0.10283705E+04</pdfrwt>
<pdfrwt beam="2">  1       -4 0.23720995E+00 0.10283705E+04</pdfrwt>
<totfact> 0.71701404E-03</totfact>
</mgrwt>
</event>
<event>
12    3  0.1092576E-007  0.5469075E+03  0.7818608E-02  0.1002212E+00
          1   -1    0    0  501    0  0.00000000000E+00  0.00000000000E+00  0.82352016523E+03  0.82352016523E+03  0.00000000000E+00 0. -1.
         -2   -1    0    0    0  501 -0.00000000000E+00 -0.00000000000E+00 -0.42058673288E+03  0.42058673288E+03  0.00000000000E+00 0.  1.
        -24    2    1    2    0    0 -0.29944171806E+03  0.27431303350E+03  0.30225405870E+03  0.51256164228E+03  0.80305281778E+02 0.  0.
    5000000    2    1    2    0    0  0.29944171806E+03 -0.27431303350E+03  0.10067937365E+03  0.73154525583E+03  0.60009094493E+03 0.  0.
        -24    2    4    4    0    0 -0.16198752704E+03 -0.36265163922E+02  0.92084235912E+02  0.20634597862E+03  0.80895212218E+02 0.  0.
         24    2    4    4    0    0  0.46142924509E+03 -0.23804786957E+03  0.85951377392E+01  0.52519927721E+03  0.78591780427E+02 0.  0.
         11    1    5    5    0    0 -0.13278288273E+03 -0.22895268807E+02  0.32423408852E+02  0.13858847254E+03  0.00000000000E+00 0. -1.
        -12    1    5    5    0    0 -0.29204644306E+02 -0.13369895116E+02  0.59660827061E+02  0.67757506078E+02  0.00000000000E+00 0.  1.
         15    1    3    3    0    0 -0.17447480524E+03  0.15708761243E+03  0.22289219819E+03  0.32373147111E+03  0.17770000000E+01 0. -1.
        -16    1    3    3    0    0 -0.12496691282E+03  0.11722542106E+03  0.79361860512E+02  0.18883017118E+03  0.00000000000E+00 0.  1.
          4    1    6    6  502    0  0.88718166546E+02 -0.28132700043E+02 -0.24255531148E+02  0.96180521304E+02  0.00000000000E+00 0. -1.
         -3    1    6    6    0  502  0.37271107855E+03 -0.20991516953E+03  0.32850668887E+02  0.42901875591E+03  0.00000000000E+00 0.  1.
<mgrwt>
<rscale>  0 0.54690753E+03</rscale>
<asrwt>0</asrwt>
<pdfrwt beam="1">  1        1 0.12669541E+00 0.54690753E+03</pdfrwt>
<pdfrwt beam="2">  1       -2 0.64705651E-01 0.54690753E+03</pdfrwt>
<totfact> 0.42419447E+01</totfact>
</mgrwt>
</event>
<event>
12    3  0.1092576E-007  0.8448727E+03  0.7818608E-02  0.9497245E-01
         -2   -1    0    0    0  501 -0.00000000000E+00  0.00000000000E+00  0.10538589543E+04  0.10538589543E+04  0.00000000000E+00 0.  1.
          1   -1    0    0  501    0  0.00000000000E+00 -0.00000000000E+00 -0.13050638958E+04  0.13050638958E+04  0.00000000000E+00 0. -1.
        -24    2    1    2    0    0 -0.73539387037E+03 -0.24579604418E+03 -0.89436443616E+03  0.11863888924E+04  0.80068842336E+02 0.  0.
    5000000    2    1    2    0    0  0.73539387037E+03  0.24579604418E+03  0.64315949465E+03  0.11725339577E+04  0.59996825457E+03 0.  0.
        -24    2    4    4    0    0  0.79774437061E+03  0.19407927342E+03  0.42741533188E+03  0.92899585779E+03  0.79288036034E+02 0.  0.
         24    2    4    4    0    0 -0.62350500243E+02  0.51716770761E+02  0.21574416277E+03  0.24353809990E+03  0.78759463418E+02 0.  0.
         11    1    5    5    0    0  0.47880407403E+03  0.12803555080E+03  0.21572228925E+03  0.54053912870E+03  0.00000000000E+00 0. -1.
        -12    1    5    5    0    0  0.31894029659E+03  0.66043722622E+02  0.21169304263E+03  0.38845672910E+03  0.00000000000E+00 0.  1.
         15    1    3    3    0    0 -0.46814153751E+03 -0.11552170010E+03 -0.55100842807E+03  0.73219888546E+03  0.17770000000E+01 0. -1.
        -16    1    3    3    0    0 -0.26725233286E+03 -0.13027434407E+03 -0.34335600809E+03  0.45419000698E+03  0.00000000000E+00 0.  1.
          2    1    6    6  502    0 -0.62037867707E+02  0.33146145081E+02  0.79978418650E+02  0.10650779978E+03  0.00000000000E+00 0. -1.
         -1    1    6    6    0  502 -0.31263253560E+00  0.18570625679E+02  0.13576574412E+03  0.13703030013E+03  0.00000000000E+00 0.  1.
<mgrwt>
<rscale>  0 0.84487274E+03</rscale>
<asrwt>0</asrwt>
<pdfrwt beam="1">  1        1 0.20077906E+00 0.84487274E+03</pdfrwt>
<pdfrwt beam="2">  1       -2 0.16213215E+00 0.84487274E+03</pdfrwt>
<totfact> 0.19447598E+00</totfact>
</mgrwt>
</event>
<event>
12    3  0.1092576E-007  0.6717770E+03  0.7818608E-02  0.9766753E-01
         -2   -1    0    0    0  501 -0.00000000000E+00  0.00000000000E+00  0.69184007442E+03  0.69184007442E+03  0.00000000000E+00 0.  1.
          1   -1    0    0  501    0  0.00000000000E+00 -0.00000000000E+00 -0.82534163508E+03  0.82534163508E+03  0.00000000000E+00 0. -1.
        -24    2    1    2    0    0  0.54256844367E+03  0.28913897394E+03  0.96193171762E+02  0.62799515752E+03  0.84515852097E+02 0.  0.
    5000000    2    1    2    0    0 -0.54256844367E+03 -0.28913897394E+03 -0.22969473243E+03  0.88918655198E+03  0.59992598860E+03 0.  0.
        -24    2    4    4    0    0 -0.13138348621E+02  0.50841648405E+02  0.12873650211E+03  0.16072597475E+03  0.80636608111E+02 0.  0.
         24    2    4    4    0    0 -0.52943009505E+03 -0.33998062235E+03 -0.35843123453E+03  0.72846057723E+03  0.79365065198E+02 0.  0.
         13    1    5    5    0    0 -0.46404198999E+02  0.35028668056E+02  0.65826188649E+02  0.87826216943E+02  0.00000000000E+00 0. -1.
        -14    1    5    5    0    0  0.33265850378E+02  0.15812980349E+02  0.62910313456E+02  0.72899757805E+02  0.00000000000E+00 0.  1.
         15    1    3    3    0    0  0.17835671024E+03  0.10713592074E+03 -0.62062150956E+01  0.20816074662E+03  0.17770000000E+01 0. -1.
        -16    1    3    3    0    0  0.36421173343E+03  0.18200305321E+03  0.10239938686E+03  0.41983441090E+03  0.00000000000E+00 0.  1.
          2    1    6    6  502    0 -0.27099925446E+03 -0.13099201854E+03 -0.18887186885E+03  0.35534784040E+03  0.00000000000E+00 0. -1.
         -1    1    6    6    0  502 -0.25843084059E+03 -0.20898860381E+03 -0.16955936569E+03  0.37311273683E+03  0.00000000000E+00 0.  1.
<mgrwt>
<rscale>  0 0.67177700E+03</rscale>
<asrwt>0</asrwt>
<pdfrwt beam="1">  1        1 0.12697564E+00 0.67177700E+03</pdfrwt>
<pdfrwt beam="2">  1       -2 0.10643694E+00 0.67177700E+03</pdfrwt>
<totfact> 0.13506685E+01</totfact>
</mgrwt>
</event>
<event>
12    3  0.1092576E-007  0.2067615E+03  0.7818608E-02  0.1144157E+00
          1   -1    0    0  501    0  0.00000000000E+00  0.00000000000E+00  0.15503959735E+04  0.15503959735E+04  0.00000000000E+00 0. -1.
         -2   -1    0    0    0  501 -0.00000000000E+00 -0.00000000000E+00 -0.96518117471E+02  0.96518117471E+02  0.00000000000E+00 0.  1.
        -24    2    1    2    0    0 -0.76106917405E+02  0.71554626803E+02  0.12284311027E+03  0.18325335059E+03  0.87057643365E+02 0.  0.
    5000000    2    1    2    0    0  0.76106917405E+02 -0.71554626803E+02  0.13310347457E+04  0.14636607404E+04  0.59978074412E+03 0.  0.
        -24    2    4    4    0    0 -0.98139532222E+02 -0.49166066843E+02  0.38641254931E+01  0.12244851306E+03  0.54129815908E+02 0.  0.
         24    2    4    4    0    0  0.17424644963E+03 -0.22388559961E+02  0.13271706202E+04  0.13412122273E+04  0.81273061972E+02 0.  0.
         13    1    5    5    0    0 -0.54146021080E+02  0.11906999662E+01  0.10790086408E+02  0.55223503419E+02  0.00000000000E+00 0. -1.
        -14    1    5    5    0    0 -0.43993511142E+02 -0.50356766809E+02 -0.69259609145E+01  0.67225009636E+02  0.00000000000E+00 0.  1.
         15    1    3    3    0    0 -0.60798517486E+01 -0.74990595432E+01  0.59075876144E+02  0.59885869473E+02  0.17770000000E+01 0. -1.
        -16    1    3    3    0    0 -0.70027065657E+02  0.79053686346E+02  0.63767234127E+02  0.12336748112E+03  0.00000000000E+00 0.  1.
          2    1    6    6  502    0  0.87717039474E+02 -0.22439685266E+02  0.40532986338E+03  0.41531929481E+03  0.00000000000E+00 0. -1.
         -1    1    6    6    0  502  0.86529410154E+02  0.51125305428E-01  0.92184075686E+03  0.92589293249E+03  0.00000000000E+00 0.  1.
<mgrwt>
<rscale>  0 0.20676146E+03</rscale>
<asrwt>0</asrwt>
<pdfrwt beam="1">  1        1 0.23852244E+00 0.20676146E+03</pdfrwt>
<pdfrwt beam="2">  1       -2 0.14848942E-01 0.20676146E+03</pdfrwt>
<totfact> 0.20666342E+02</totfact>
</mgrwt>
</event>
<event>
12    3  0.1092576E-007  0.3422513E+03  0.7818608E-02  0.1065841E+00
         -2   -1    0    0    0  501 -0.00000000000E+00  0.00000000000E+00  0.36900676635E+03  0.36900676635E+03  0.00000000000E+00 0.  1.
          1   -1    0    0  501    0  0.00000000000E+00 -0.00000000000E+00 -0.73844119557E+03  0.73844119557E+03  0.00000000000E+00 0. -1.
        -24    2    1    2    0    0  0.17376667509E+03  0.13216757095E+03 -0.40580002026E+03  0.46782277065E+03  0.80754963357E+02 0.  0.
    5000000    2    1    2    0    0 -0.17376667509E+03 -0.13216757095E+03  0.36365591039E+02  0.63962519127E+03  0.60011232691E+03 0.  0.
        -24    2    4    4    0    0  0.64624988187E+02  0.85277225346E+02 -0.19323663462E+03  0.23497565738E+03  0.80153405074E+02 0.  0.
         24    2    4    4    0    0 -0.23839166328E+03 -0.21744479630E+03  0.22960222565E+03  0.40464953388E+03  0.83133860041E+02 0.  0.
         13    1    5    5    0    0  0.21113300138E+02  0.79764537400E+02 -0.86318542730E+02  0.11941123770E+03  0.00000000000E+00 0. -1.
        -14    1    5    5    0    0  0.43511688048E+02  0.55126879462E+01 -0.10691809189E+03  0.11556441969E+03  0.00000000000E+00 0.  1.
         15    1    3    3    0    0  0.17505360537E+03  0.11895370119E+03 -0.33848100301E+03  0.39920708274E+03  0.17770000000E+01 0. -1.
        -16    1    3    3    0    0 -0.12869302761E+01  0.13213869764E+02 -0.67319017251E+02  0.68615687909E+02  0.00000000000E+00 0.  1.
          4    1    6    6  502    0 -0.15432850578E+03 -0.84603603836E+02  0.12161211261E+03  0.21392653742E+03  0.00000000000E+00 0. -1.
         -3    1    6    6    0  502 -0.84063157497E+02 -0.13284119246E+03  0.10799011304E+03  0.19072299646E+03  0.00000000000E+00 0.  1.
<mgrwt>
<rscale>  0 0.34225125E+03</rscale>
<asrwt>0</asrwt>
<pdfrwt beam="1">  1        1 0.11360634E+00 0.34225125E+03</pdfrwt>
<pdfrwt beam="2">  1       -2 0.56770272E-01 0.34225125E+03</pdfrwt>
<totfact> 0.67955991E+01</totfact>
</mgrwt>
</event>
<event>
12    3  0.1092576E-007  0.6491312E+03  0.7818608E-02  0.9808411E-01
         -2   -1    0    0    0  501 -0.00000000000E+00  0.00000000000E+00  0.37063706813E+03  0.37063706813E+03  0.00000000000E+00 0.  1.
          1   -1    0    0  501    0  0.00000000000E+00 -0.00000000000E+00 -0.16012464156E+04  0.16012464156E+04  0.00000000000E+00 0. -1.
        -24    2    1    2    0    0  0.29547245174E+03 -0.43160843284E+03 -0.27941638569E+02  0.52969830271E+03  0.78801952291E+02 0.  0.
    5000000    2    1    2    0    0 -0.29547245174E+03  0.43160843284E+03 -0.12026677089E+04  0.14421851810E+04  0.59991555180E+03 0.  0.
        -24    2    4    4    0    0  0.69742759455E+02 -0.86438943804E+02 -0.35399985090E+03  0.37939681648E+03  0.79311451987E+02 0.  0.
         24    2    4    4    0    0 -0.36521521120E+03  0.51804737665E+03 -0.84866785801E+03  0.10627883646E+04  0.86756784529E+02 0.  0.
         13    1    5    5    0    0  0.75751717883E+01 -0.67135259320E+02 -0.13554560451E+03  0.15145011447E+03  0.00000000000E+00 0. -1.
        -14    1    5    5    0    0  0.62167587667E+02 -0.19303684485E+02 -0.21845424639E+03  0.22794670201E+03  0.00000000000E+00 0.  1.
         15    1    3    3    0    0  0.16750300309E+03 -0.29679866878E+03 -0.41517937177E+02  0.34332725302E+03  0.17770000000E+01 0. -1.
        -16    1    3    3    0    0  0.12796944866E+03 -0.13480976406E+03  0.13576298608E+02  0.18637104968E+03  0.00000000000E+00 0.  1.
          2    1    6    6  502    0 -0.46190334859E+02  0.27488140060E+02 -0.57248352055E+02  0.78527184410E+02  0.00000000000E+00 0. -1.
         -1    1    6    6    0  502 -0.31902487634E+03  0.49055923659E+03 -0.79141950596E+03  0.98426118014E+03  0.00000000000E+00 0.  1.
<mgrwt>
<rscale>  0 0.64913118E+03</rscale>
<asrwt>0</asrwt>
<pdfrwt beam="1">  1        1 0.24634560E+00 0.64913118E+03</pdfrwt>
<pdfrwt beam="2">  1       -2 0.57021088E-01 0.64913118E+03</pdfrwt>
<totfact> 0.14767013E+01</totfact>
</mgrwt>
</event>
<event>
12    3  0.1092576E-007  0.8728898E+03  0.7818608E-02  0.9460120E-01
         -2   -1    0    0    0  501 -0.00000000000E+00  0.00000000000E+00  0.95963373524E+03  0.95963373524E+03  0.00000000000E+00 0.  1.
          1   -1    0    0  501    0  0.00000000000E+00 -0.00000000000E+00 -0.97677340923E+03  0.97677340923E+03  0.00000000000E+00 0. -1.
        -24    2    1    2    0    0 -0.67858068993E+03 -0.39604749150E+03 -0.38889948588E+03  0.88030095934E+03  0.79759642894E+02 0.  0.
    5000000    2    1    2    0    0  0.67858068993E+03  0.39604749150E+03  0.37175981190E+03  0.10561061851E+04  0.59985794007E+03 0.  0.
        -24    2    4    4    0    0  0.34734393752E+03 -0.87268358215E+02  0.27098849980E+03  0.45612058690E+03  0.79672112404E+02 0.  0.
         24    2    4    4    0    0  0.33123675241E+03  0.48331584971E+03  0.10077131210E+03  0.59998559823E+03  0.80720901924E+02 0.  0.
         11    1    5    5    0    0  0.12840464316E+02 -0.22156952983E+02  0.13144800956E+02  0.28785306695E+02  0.00000000000E+00 0. -1.
        -12    1    5    5    0    0  0.33450347320E+03 -0.65111405232E+02  0.25784369885E+03  0.42733528021E+03  0.00000000000E+00 0.  1.
         15    1    3    3    0    0 -0.33541936749E+03 -0.23891718076E+03 -0.21855048312E+03  0.46621351627E+03  0.17770000000E+01 0. -1.
        -16    1    3    3    0    0 -0.34316132243E+03 -0.15713031074E+03 -0.17034900276E+03  0.41408744307E+03  0.00000000000E+00 0.  1.
          4    1    6    6  502    0  0.21747007536E+01  0.29539770980E+02  0.14061360901E+02  0.32787943871E+02  0.00000000000E+00 0. -1.
         -3    1    6    6    0  502  0.32906205166E+03  0.45377607873E+03  0.86709951196E+02  0.56719765436E+03  0.00000000000E+00 0.  1.
<mgrwt>
<rscale>  0 0.87288979E+03</rscale>
<asrwt>0</asrwt>
<pdfrwt beam="1">  1        1 0.15027283E+00 0.87288979E+03</pdfrwt>
<pdfrwt beam="2">  1       -2 0.14763596E+00 0.87288979E+03</pdfrwt>
<totfact> 0.43653252E+00</totfact>
</mgrwt>
</event>
<event>
12    3  0.1092576E-007  0.3180666E+03  0.7818608E-02  0.1076543E+00
          1   -1    0    0  501    0  0.00000000000E+00  0.00000000000E+00  0.18285791641E+04  0.18285791641E+04  0.00000000000E+00 0. -1.
         -2   -1    0    0    0  501 -0.00000000000E+00 -0.00000000000E+00 -0.12759368187E+03  0.12759368187E+03  0.00000000000E+00 0.  1.
        -24    2    1    2    0    0  0.17747529213E+03 -0.11733796652E+03  0.13639580531E+03  0.26717654441E+03  0.86682250062E+02 0.  0.
    5000000    2    1    2    0    0 -0.17747529213E+03  0.11733796652E+03  0.15645896769E+04  0.16889963016E+04  0.59958483290E+03 0.  0.
        -24    2    4    4    0    0 -0.27463111432E+03  0.64764957084E+02  0.31650879185E+03  0.43344874640E+03  0.89906906395E+02 0.  0.
         24    2    4    4    0    0  0.97155822183E+02  0.52573009436E+02  0.12480808851E+04  0.12555475552E+04  0.80564213438E+02 0.  0.
         11    1    5    5    0    0 -0.64368170586E+02 -0.53926207224E+01  0.12420833763E+03  0.14000018885E+03  0.00000000000E+00 0. -1.
        -12    1    5    5    0    0 -0.21026294373E+03  0.70157577806E+02  0.19230045422E+03  0.29344855754E+03  0.00000000000E+00 0.  1.
         15    1    3    3    0    0  0.18314852171E+02 -0.54270098944E+02  0.22567330069E+02  0.61588307046E+02  0.17770000000E+01 0. -1.
        -16    1    3    3    0    0  0.15916043996E+03 -0.63067867576E+02  0.11382847524E+03  0.20558823737E+03  0.00000000000E+00 0.  1.
          2    1    6    6  502    0  0.10983183524E+02 -0.10021737383E+02  0.46721552668E+03  0.46745204450E+03  0.00000000000E+00 0. -1.
         -1    1    6    6    0  502  0.86172638659E+02  0.62594746819E+02  0.78086535842E+03  0.78809551069E+03  0.00000000000E+00 0.  1.
<mgrwt>
<rscale>  0 0.31806665E+03</rscale>
<asrwt>0</asrwt>
<pdfrwt beam="1">  1        1 0.28131985E+00 0.31806665E+03</pdfrwt>
<pdfrwt beam="2">  1       -2 0.19629798E-01 0.31806665E+03</pdfrwt>
<totfact> 0.82755679E+01</totfact>
</mgrwt>
</event>
<event>
12    3  0.1092576E-007  0.7741943E+03  0.7818608E-02  0.9598140E-01
          1   -1    0    0  501    0  0.00000000000E+00  0.00000000000E+00  0.11917285875E+04  0.11917285875E+04  0.00000000000E+00 0. -1.
         -2   -1    0    0    0  501 -0.00000000000E+00 -0.00000000000E+00 -0.60055022507E+03  0.60055022507E+03  0.00000000000E+00 0.  1.
        -24    2    1    2    0    0  0.85401997797E+02  0.72432342915E+03  0.14508518512E+03  0.74780944749E+03  0.78938758402E+02 0.  0.
    5000000    2    1    2    0    0 -0.85401997797E+02 -0.72432342915E+03  0.44609317733E+03  0.10444693651E+04  0.59998266684E+03 0.  0.
        -24    2    4    4    0    0  0.95982504134E+02 -0.53210999898E+03  0.52250729486E+03  0.75613324805E+03  0.79811800559E+02 0.  0.
         24    2    4    4    0    0 -0.18138450193E+03 -0.19221343017E+03 -0.76414117537E+02  0.28833611704E+03  0.86326466108E+02 0.  0.
         11    1    5    5    0    0  0.37427351069E+02 -0.32430231212E+03  0.26787263288E+03  0.42228964432E+03  0.00000000000E+00 0. -1.
        -12    1    5    5    0    0  0.58555153066E+02 -0.20780768686E+03  0.25463466198E+03  0.33384360373E+03  0.00000000000E+00 0.  1.
         15    1    3    3    0    0  0.12564240327E+02  0.26042528345E+03  0.85862384393E+02  0.27450809674E+03  0.17770000000E+01 0. -1.
        -16    1    3    3    0    0  0.72837757470E+02  0.46389814570E+03  0.59222800727E+02  0.47330135075E+03  0.00000000000E+00 0.  1.
          4    1    6    6  502    0 -0.69382659095E+02 -0.13060357123E+03 -0.59431160912E+02  0.15938415570E+03  0.00000000000E+00 0. -1.
         -3    1    6    6    0  502 -0.11200184284E+03 -0.61609858946E+02 -0.16982956625E+02  0.12895196134E+03  0.00000000000E+00 0.  1.
<mgrwt>
<rscale>  0 0.77419428E+03</rscale>
<asrwt>0</asrwt>
<pdfrwt beam="1">  1        1 0.18334286E+00 0.77419428E+03</pdfrwt>
<pdfrwt beam="2">  1       -2 0.92392342E-01 0.77419428E+03</pdfrwt>
<totfact> 0.96776954E+00</totfact>
</mgrwt>
</event>
<event>
12    3  0.1092576E-007  0.9259387E+03  0.7818608E-02  0.9393725E-01
         -2   -1    0    0    0  501 -0.00000000000E+00  0.00000000000E+00  0.14302641091E+04  0.14302641091E+04  0.00000000000E+00 0.  1.
          1   -1    0    0  501    0  0.00000000000E+00 -0.00000000000E+00 -0.11050270797E+04  0.11050270797E+04  0.00000000000E+00 0. -1.
        -24    2    1    2    0    0  0.89126914419E+03 -0.14808081782E+03  0.92567097188E+03  0.12956079203E+04  0.73786984058E+02 0.  0.
    5000000    2    1    2    0    0 -0.89126914419E+03  0.14808081782E+03 -0.60043394247E+03  0.12396832684E+04  0.60000422557E+03 0.  0.
        -24    2    4    4    0    0 -0.36830297291E+03 -0.57415478636E+02 -0.55073611236E+03  0.66995319062E+03  0.81138123754E+02 0.  0.
         24    2    4    4    0    0 -0.52296617128E+03  0.20549629646E+03 -0.49697830106E+02  0.56973007778E+03  0.80000894058E+02 0.  0.
         11    1    5    5    0    0 -0.73452897106E+02  0.14963819442E+02 -0.14466794039E+03  0.16293574489E+03  0.00000000000E+00 0. -1.
        -12    1    5    5    0    0 -0.29485007580E+03 -0.72379298078E+02 -0.40606817197E+03  0.50701744573E+03  0.00000000000E+00 0.  1.
         15    1    3    3    0    0  0.78748001698E+03 -0.10681741812E+03  0.80486776859E+03  0.11310835604E+04  0.17770000000E+01 0. -1.
        -16    1    3    3    0    0  0.10378912721E+03 -0.41263399707E+02  0.12080320328E+03  0.16452435992E+03  0.00000000000E+00 0.  1.
          4    1    6    6  502    0 -0.22181224345E+03  0.12746676977E+03 -0.90678898753E+01  0.25598960011E+03  0.00000000000E+00 0. -1.
         -3    1    6    6    0  502 -0.30115392784E+03  0.78029526686E+02 -0.40629940231E+02  0.31374047767E+03  0.00000000000E+00 0.  1.
<mgrwt>
<rscale>  0 0.92593873E+03</rscale>
<asrwt>0</asrwt>
<pdfrwt beam="1">  1        1 0.17000417E+00 0.92593873E+03</pdfrwt>
<pdfrwt beam="2">  1       -2 0.22004063E+00 0.92593873E+03</pdfrwt>
<totfact> 0.10979768E+00</totfact>
</mgrwt>
</event>
<event>
12    3  0.1092576E-007  0.4431314E+03  0.7818608E-02  0.1029790E+00
          1   -1    0    0  501    0  0.00000000000E+00  0.00000000000E+00  0.48817435039E+03  0.48817435039E+03  0.00000000000E+00 0. -1.
         -2   -1    0    0    0  501 -0.00000000000E+00 -0.00000000000E+00 -0.66166024928E+03  0.66166024928E+03  0.00000000000E+00 0.  1.
        -24    2    1    2    0    0 -0.17615698561E+03  0.26468772342E+03 -0.31593754898E+03  0.45599450870E+03  0.83806817151E+02 0.  0.
    5000000    2    1    2    0    0  0.17615698561E+03 -0.26468772342E+03  0.14245165009E+03  0.69384009097E+03  0.60002560339E+03 0.  0.
        -24    2    4    4    0    0 -0.29179516563E+02 -0.34005710512E+03 -0.93126771345E+02  0.36264375085E+03  0.79671924550E+02 0.  0.
         24    2    4    4    0    0  0.20533650217E+03  0.75369381692E+02  0.23557842143E+03  0.33119634012E+03  0.79688143692E+02 0.  0.
         11    1    5    5    0    0 -0.19276266860E+02 -0.10913306859E+03 -0.68298205161E+02  0.13017774753E+03  0.00000000000E+00 0. -1.
        -12    1    5    5    0    0 -0.99032497033E+01 -0.23092403652E+03 -0.24828566185E+02  0.23246600332E+03  0.00000000000E+00 0.  1.
         15    1    3    3    0    0 -0.51877442481E+02  0.48221139746E+02 -0.11712616142E+03  0.13688770133E+03  0.17770000000E+01 0. -1.
        -16    1    3    3    0    0 -0.12427954313E+03  0.21646658368E+03 -0.19881138756E+03  0.31910680737E+03  0.00000000000E+00 0.  1.
          2    1    6    6  502    0  0.14598794494E+03  0.29740287990E+02  0.11075001557E+03  0.18564086497E+03  0.00000000000E+00 0. -1.
         -1    1    6    6    0  502  0.59348557234E+02  0.45629093702E+02  0.12482840586E+03  0.14555547515E+03  0.00000000000E+00 0.  1.
<mgrwt>
<rscale>  0 0.44313136E+03</rscale>
<asrwt>0</asrwt>
<pdfrwt beam="1">  1        1 0.75103746E-01 0.44313136E+03</pdfrwt>
<pdfrwt beam="2">  1       -2 0.10179389E+00 0.44313136E+03</pdfrwt>
<totfact> 0.33257787E+01</totfact>
</mgrwt>
</event>
<event>
12    3  0.1092576E-007  0.7293475E+03  0.7818608E-02  0.9668320E-01
          1   -1    0    0  501    0  0.00000000000E+00  0.00000000000E+00  0.63645507174E+03  0.63645507174E+03  0.00000000000E+00 0. -1.
         -2   -1    0    0    0  501 -0.00000000000E+00 -0.00000000000E+00 -0.94289680833E+03  0.94289680833E+03  0.00000000000E+00 0.  1.
        -24    2    1    2    0    0  0.43799020683E+02  0.63182860226E+03 -0.30281599228E+03  0.70663604916E+03  0.80692279288E+02 0.  0.
    5000000    2    1    2    0    0 -0.43799020683E+02 -0.63182860226E+03 -0.36257443010E+01  0.87271583091E+03  0.60041155773E+03 0.  0.
        -24    2    4    4    0    0 -0.26671292926E+03 -0.24481744243E+03 -0.14439246877E+03  0.39770993678E+03  0.79073649359E+02 0.  0.
         24    2    4    4    0    0  0.22291390858E+03 -0.38701115983E+03  0.14076672447E+03  0.47500589413E+03  0.79668565140E+02 0.  0.
         13    1    5    5    0    0 -0.12019249017E+03 -0.15673682535E+03 -0.56260961738E+02  0.20537274145E+03  0.00000000000E+00 0. -1.
        -14    1    5    5    0    0 -0.14652043909E+03 -0.88080617081E+02 -0.88131507034E+02  0.19233719533E+03  0.00000000000E+00 0.  1.
         15    1    3    3    0    0  0.66982904009E+02  0.51212009293E+03 -0.24832298818E+03  0.57308041600E+03  0.17770000000E+01 0. -1.
        -16    1    3    3    0    0 -0.23183883325E+02  0.11970850933E+03 -0.54493004107E+02  0.13355563316E+03  0.00000000000E+00 0.  1.
          2    1    6    6  502    0  0.14957873646E+03 -0.31651593803E+03  0.12676034964E+03  0.37232287557E+03  0.00000000000E+00 0. -1.
         -1    1    6    6    0  502  0.73335172114E+02 -0.70495221797E+02  0.14006374827E+02  0.10268301856E+03  0.00000000000E+00 0.  1.
<mgrwt>
<rscale>  0 0.72934753E+03</rscale>
<asrwt>0</asrwt>
<pdfrwt beam="1">  1        1 0.97916165E-01 0.72934753E+03</pdfrwt>
<pdfrwt beam="2">  1       -2 0.14506105E+00 0.72934753E+03</pdfrwt>
<totfact> 0.92131905E+00</totfact>
</mgrwt>
</event>
<event>
12    3  0.1092576E-007  0.8030361E+03  0.7818608E-02  0.9555633E-01
         -2   -1    0    0    0  501 -0.00000000000E+00  0.00000000000E+00  0.11869240451E+04  0.11869240451E+04  0.00000000000E+00 0.  1.
          1   -1    0    0  501    0  0.00000000000E+00 -0.00000000000E+00 -0.86292304788E+03  0.86292304788E+03  0.00000000000E+00 0. -1.
        -24    2    1    2    0    0  0.71177003822E+03 -0.33518675794E+03 -0.33734663966E+03  0.85963764172E+03  0.78786862862E+02 0.  0.
    5000000    2    1    2    0    0 -0.71177003822E+03  0.33518675794E+03  0.66134763689E+03  0.11902094513E+04  0.60020920605E+03 0.  0.
        -24    2    4    4    0    0 -0.24429197565E+02  0.35583817852E+02 -0.88634771047E+02  0.12685986847E+03  0.79839274816E+02 0.  0.
         24    2    4    4    0    0 -0.68734084066E+03  0.29960294009E+03  0.74998240793E+03  0.10633495828E+04  0.77713384006E+02 0.  0.
         11    1    5    5    0    0  0.93977961148E+01 -0.93369787214E+01 -0.64191363048E+02  0.65544098387E+02  0.00000000000E+00 0. -1.
        -12    1    5    5    0    0 -0.33826993680E+02  0.44920796573E+02 -0.24443407999E+02  0.61315770082E+02  0.00000000000E+00 0.  1.
         15    1    3    3    0    0  0.21217194512E+03 -0.10259666194E+03 -0.62570091255E+02  0.24384663907E+03  0.17770000000E+01 0. -1.
        -16    1    3    3    0    0  0.49959809311E+03 -0.23259009600E+03 -0.27477654841E+03  0.61579100265E+03  0.00000000000E+00 0.  1.
          2    1    6    6  502    0 -0.40180006818E+03  0.17196082947E+03  0.38258202139E+03  0.58084664478E+03  0.00000000000E+00 0. -1.
         -3    1    6    6    0  502 -0.28554077247E+03  0.12764211062E+03  0.36740038655E+03  0.48250293800E+03  0.00000000000E+00 0.  1.
<mgrwt>
<rscale>  0 0.80303612E+03</rscale>
<asrwt>0</asrwt>
<pdfrwt beam="1">  1        1 0.13275739E+00 0.80303612E+03</pdfrwt>
<pdfrwt beam="2">  1       -2 0.18260370E+00 0.80303612E+03</pdfrwt>
<totfact> 0.30372402E+00</totfact>
</mgrwt>
</event>
<event>
12    3  0.1092576E-007  0.5366881E+03  0.7818608E-02  0.1004623E+00
         -2   -1    0    0    0  501 -0.00000000000E+00  0.00000000000E+00  0.75207481950E+03  0.75207481950E+03  0.00000000000E+00 0.  1.
          1   -1    0    0  501    0  0.00000000000E+00 -0.00000000000E+00 -0.51726624761E+03  0.51726624761E+03  0.00000000000E+00 0. -1.
        -24    2    1    2    0    0  0.31306781355E+03  0.35547726006E+03  0.52173753319E+02  0.48348179375E+03  0.81590477671E+02 0.  0.
    5000000    2    1    2    0    0 -0.31306781355E+03 -0.35547726006E+03  0.18263481857E+03  0.78585927337E+03  0.59986980444E+03 0.  0.
        -24    2    4    4    0    0  0.12336851973E+02 -0.23617802556E+03 -0.15635917066E+03  0.29452767761E+03  0.79787874726E+02 0.  0.
         24    2    4    4    0    0 -0.32540466552E+03 -0.11929923450E+03  0.33899398924E+03  0.49133159576E+03  0.79807947952E+02 0.  0.
         13    1    5    5    0    0 -0.53127404170E+01 -0.14711940025E+03 -0.13823898107E+03  0.20194642614E+03  0.00000000000E+00 0. -1.
        -14    1    5    5    0    0  0.17649592390E+02 -0.89058625311E+02 -0.18120189589E+02  0.92581251475E+02  0.00000000000E+00 0.  1.
         15    1    3    3    0    0  0.12573666080E+03  0.20051785227E+03  0.11315239622E+02  0.23695634477E+03  0.17770000000E+01 0. -1.
        -16    1    3    3    0    0  0.18733115275E+03  0.15495940779E+03  0.40858513697E+02  0.24652544898E+03  0.00000000000E+00 0.  1.
          4    1    6    6  502    0 -0.61363964719E+02  0.89769472220E+01  0.63275784369E+02  0.88599924577E+02  0.00000000000E+00 0. -1.
         -3    1    6    6    0  502 -0.26404070080E+03 -0.12827618172E+03  0.27571820487E+03  0.40273167118E+03  0.00000000000E+00 0.  1.
<mgrwt>
<rscale>  0 0.53668811E+03</rscale>
<asrwt>0</asrwt>
<pdfrwt beam="1">  1        1 0.79579423E-01 0.53668811E+03</pdfrwt>
<pdfrwt beam="2">  1       -2 0.11570382E+00 0.53668811E+03</pdfrwt>
<totfact> 0.22351887E+01</totfact>
</mgrwt>
</event>
<event>
12    3  0.1092576E-007  0.5375058E+03  0.7818608E-02  0.1004428E+00
          1   -1    0    0  501    0  0.00000000000E+00  0.00000000000E+00  0.51333394825E+03  0.51333394825E+03  0.00000000000E+00 0. -1.
         -2   -1    0    0    0  501 -0.00000000000E+00 -0.00000000000E+00 -0.17851246130E+04  0.17851246130E+04  0.00000000000E+00 0.  1.
        -24    2    1    2    0    0 -0.37012832585E+03 -0.16916305839E+03  0.33606698528E+03  0.53467614550E+03  0.85594649703E+02 0.  0.
    5000000    2    1    2    0    0  0.37012832585E+03  0.16916305839E+03 -0.16078576500E+04  0.17637824157E+04  0.60009255073E+03 0.  0.
        -24    2    4    4    0    0 -0.43173830850E+02  0.24031847609E+03 -0.91282315882E+03  0.94827648703E+03  0.79782372455E+02 0.  0.
         24    2    4    4    0    0  0.41330215669E+03 -0.71155417695E+02 -0.69503449120E+03  0.81550592871E+03  0.78071823427E+02 0.  0.
         13    1    5    5    0    0 -0.14572112506E+02  0.17208993825E+03 -0.50284858577E+03  0.53168034901E+03  0.00000000000E+00 0. -1.
        -14    1    5    5    0    0 -0.28601718343E+02  0.68228537843E+02 -0.40997457305E+03  0.41659613802E+03  0.00000000000E+00 0.  1.
         15    1    3    3    0    0 -0.64990763007E+02 -0.46704119646E+02  0.30041498251E+02  0.85502768460E+02  0.17770000000E+01 0. -1.
        -16    1    3    3    0    0 -0.30513756284E+03 -0.12245893875E+03  0.30602548703E+03  0.44917337704E+03  0.00000000000E+00 0.  1.
          2    1    6    6  502    0  0.28414000390E+03 -0.53161766767E+02 -0.40581012944E+03  0.49824048051E+03  0.00000000000E+00 0. -1.
         -1    1    6    6    0  502  0.12916215279E+03 -0.17993650928E+02 -0.28922436176E+03  0.31726544820E+03  0.00000000000E+00 0.  1.
<mgrwt>
<rscale>  0 0.53750580E+03</rscale>
<asrwt>0</asrwt>
<pdfrwt beam="1">  1        1 0.78974453E-01 0.53750580E+03</pdfrwt>
<pdfrwt beam="2">  1       -2 0.27463456E+00 0.53750580E+03</pdfrwt>
<totfact> 0.18388957E+00</totfact>
</mgrwt>
</event>
<event>
12    3  0.1092576E-007  0.6072301E+03  0.7818608E-02  0.9890518E-01
          1   -1    0    0  501    0  0.00000000000E+00  0.00000000000E+00  0.19283641969E+04  0.19283641969E+04  0.00000000000E+00 0. -1.
         -2   -1    0    0    0  501 -0.00000000000E+00 -0.00000000000E+00 -0.21078339230E+03  0.21078339230E+03  0.00000000000E+00 0.  1.
        -24    2    1    2    0    0 -0.29857293036E+03  0.35351405586E+03  0.38905881900E+03  0.60973553613E+03  0.79326395035E+02 0.  0.
    5000000    2    1    2    0    0  0.29857293036E+03 -0.35351405586E+03  0.13285219856E+04  0.15294120531E+04  0.60001048276E+03 0.  0.
        -24    2    4    4    0    0  0.40214774155E+03 -0.34407937978E+02  0.68797176659E+03  0.80166556449E+03  0.80348076699E+02 0.  0.
         24    2    4    4    0    0 -0.10357481120E+03 -0.31910611788E+03  0.64055021900E+03  0.72774648857E+03  0.82182191408E+02 0.  0.
         13    1    5    5    0    0  0.26259511715E+03 -0.35572365668E+02  0.51709437810E+03  0.58104060496E+03  0.00000000000E+00 0. -1.
        -14    1    5    5    0    0  0.13955262440E+03  0.11644276900E+01  0.17087738849E+03  0.22062495953E+03  0.00000000000E+00 0.  1.
         15    1    3    3    0    0 -0.25702007881E+02  0.59461037605E+02  0.82206835168E+02  0.10467726439E+03  0.17770000000E+01 0. -1.
        -16    1    3    3    0    0 -0.27287092247E+03  0.29405301825E+03  0.30685198384E+03  0.50505827175E+03  0.00000000000E+00 0.  1.
          2    1    6    6  502    0 -0.14260505684E+02 -0.18707576908E+01  0.42947879858E+02  0.45292186313E+02  0.00000000000E+00 0. -1.
         -1    1    6    6    0  502 -0.89314305513E+02 -0.31723536019E+03  0.59760233914E+03  0.68245430226E+03  0.00000000000E+00 0.  1.
<mgrwt>
<rscale>  0 0.60723006E+03</rscale>
<asrwt>0</asrwt>
<pdfrwt beam="1">  1        1 0.29667140E+00 0.60723006E+03</pdfrwt>
<pdfrwt beam="2">  1       -2 0.32428215E-01 0.60723006E+03</pdfrwt>
<totfact> 0.27372231E+01</totfact>
</mgrwt>
</event>
<event>
12    3  0.1092576E-007  0.6461552E+03  0.7818608E-02  0.9814020E-01
          3   -1    0    0  501    0  0.00000000000E+00  0.00000000000E+00  0.15915686530E+04  0.15915686530E+04  0.00000000000E+00 0. -1.
         -4   -1    0    0    0  501 -0.00000000000E+00 -0.00000000000E+00 -0.38779054030E+03  0.38779054030E+03  0.00000000000E+00 0.  1.
        -24    2    1    2    0    0  0.45420093391E+02 -0.62481497317E+03  0.22211347283E+03  0.66935852337E+03  0.79055059403E+02 0.  0.
    5000000    2    1    2    0    0 -0.45420093391E+02  0.62481497317E+03  0.98166463986E+03  0.13100006699E+04  0.59998296180E+03 0.  0.
        -24    2    4    4    0    0 -0.88258513273E+02  0.50813481154E+03  0.27950060637E+03  0.59226556390E+03  0.81653887570E+02 0.  0.
         24    2    4    4    0    0  0.42838419881E+02  0.11668016163E+03  0.70216403349E+03  0.71773510602E+03  0.81608591159E+02 0.  0.
         11    1    5    5    0    0 -0.74677825978E+01  0.97189616894E+02  0.89645475984E+02  0.13243073953E+03  0.00000000000E+00 0. -1.
        -12    1    5    5    0    0 -0.80790730675E+02  0.41094519464E+03  0.18985513039E+03  0.45983482437E+03  0.00000000000E+00 0.  1.
         15    1    3    3    0    0 -0.19168391007E+02 -0.26395623265E+03  0.10104967793E+03  0.28329227858E+03  0.17770000000E+01 0. -1.
        -16    1    3    3    0    0  0.64588484398E+02 -0.36085874053E+03  0.12106379490E+03  0.38606624479E+03  0.00000000000E+00 0.  1.
          2    1    6    6  502    0  0.26360920820E+02  0.12397899946E+03  0.54519944358E+03  0.55973933553E+03  0.00000000000E+00 0. -1.
         -1    1    6    6    0  502  0.16477499061E+02 -0.72988378279E+01  0.15696458991E+03  0.15799577049E+03  0.00000000000E+00 0.  1.
<mgrwt>
<rscale>  0 0.64615523E+03</rscale>
<asrwt>0</asrwt>
<pdfrwt beam="1">  1        3 0.24485671E+00 0.64615523E+03</pdfrwt>
<pdfrwt beam="2">  1       -4 0.59660084E-01 0.64615523E+03</pdfrwt>
<totfact> 0.48203151E-01</totfact>
</mgrwt>
</event>
<event>
12    3  0.1092576E-007  0.7079154E+03  0.7818608E-02  0.9703791E-01
         -2   -1    0    0    0  501 -0.00000000000E+00  0.00000000000E+00  0.49659395419E+03  0.49659395419E+03  0.00000000000E+00 0.  1.
          1   -1    0    0  501    0  0.00000000000E+00 -0.00000000000E+00 -0.10298539987E+04  0.10298539987E+04  0.00000000000E+00 0. -1.
        -24    2    1    2    0    0 -0.26070725809E+03 -0.52284661016E+03 -0.17506533251E+03  0.61568742430E+03  0.84180054750E+02 0.  0.
    5000000    2    1    2    0    0  0.26070725809E+03  0.52284661016E+03 -0.35819471205E+03  0.91076052863E+03  0.59987034983E+03 0.  0.
        -24    2    4    4    0    0 -0.11740864491E+03  0.40205167893E+03 -0.14338915465E+03  0.44966349778E+03  0.78781147068E+02 0.  0.
         24    2    4    4    0    0  0.37811590301E+03  0.12079493123E+03 -0.21480555740E+03  0.46109703086E+03  0.94371568071E+02 0.  0.
         11    1    5    5    0    0 -0.21835777704E+02  0.25663452824E+02 -0.29998912955E+02  0.45114839879E+02  0.00000000000E+00 0. -1.
        -12    1    5    5    0    0 -0.95572867207E+02  0.37638822610E+03 -0.11339024170E+03  0.40454865790E+03  0.00000000000E+00 0.  1.
         15    1    3    3    0    0 -0.11018245598E+03 -0.15231224165E+03 -0.30689208639E+02  0.19048406184E+03  0.17770000000E+01 0. -1.
        -16    1    3    3    0    0 -0.15052480212E+03 -0.37053436851E+03 -0.14437612387E+03  0.42520336245E+03  0.00000000000E+00 0.  1.
          4    1    6    6  502    0  0.18544705489E+03  0.14980009093E+02 -0.12207025851E+03  0.22252226597E+03  0.00000000000E+00 0. -1.
         -3    1    6    6    0  502  0.19266884811E+03  0.10581492214E+03 -0.92735298886E+02  0.23857476488E+03  0.00000000000E+00 0.  1.
<mgrwt>
<rscale>  0 0.70791541E+03</rscale>
<asrwt>0</asrwt>
<pdfrwt beam="1">  1        1 0.15843908E+00 0.70791541E+03</pdfrwt>
<pdfrwt beam="2">  1       -2 0.76399069E-01 0.70791541E+03</pdfrwt>
<totfact> 0.19822315E+01</totfact>
</mgrwt>
</event>
<event>
12    3  0.1092576E-007  0.9754827E+03  0.7818608E-02  0.9335851E-01
         -4   -1    0    0    0  501 -0.00000000000E+00  0.00000000000E+00  0.29980085070E+03  0.29980085070E+03  0.00000000000E+00 0.  1.
          3   -1    0    0  501    0  0.00000000000E+00 -0.00000000000E+00 -0.52425528710E+04  0.52425528710E+04  0.00000000000E+00 0. -1.
        -24    2    1    2    0    0  0.84040210336E+02 -0.94424101048E+03 -0.77722167602E+03  0.12283729923E+04  0.78567369757E+02 0.  0.
    5000000    2    1    2    0    0 -0.84040210336E+02  0.94424101048E+03 -0.41655303443E+04  0.43139807294E+04  0.60011069155E+03 0.  0.
        -24    2    4    4    0    0 -0.18869697637E+03  0.54056494057E+03 -0.32938841047E+04  0.33444036287E+04  0.86868478081E+02 0.  0.
         24    2    4    4    0    0  0.10465676603E+03  0.40367606991E+03 -0.87164623959E+03  0.96957710078E+03  0.80032363854E+02 0.  0.
         11    1    5    5    0    0 -0.57541401047E+02  0.26206314557E+03 -0.17035526960E+04  0.17245520848E+04  0.00000000000E+00 0. -1.
        -12    1    5    5    0    0 -0.13115557532E+03  0.27850179500E+03 -0.15903314087E+04  0.16198515439E+04  0.00000000000E+00 0.  1.
         15    1    3    3    0    0  0.73540077822E+02 -0.42195099091E+03 -0.37026558067E+03  0.56617182881E+03  0.17770000000E+01 0. -1.
        -16    1    3    3    0    0  0.10500132515E+02 -0.52229001957E+03 -0.40695609535E+03  0.66220116344E+03  0.00000000000E+00 0.  1.
          2    1    6    6  502    0  0.10046407575E+03  0.23742615567E+03 -0.50613464078E+03  0.56801098978E+03  0.00000000000E+00 0. -1.
         -1    1    6    6    0  502  0.41926902820E+01  0.16624991424E+03 -0.36551159881E+03  0.40156611100E+03  0.00000000000E+00 0.  1.
<mgrwt>
<rscale>  0 0.97548270E+03</rscale>
<asrwt>0</asrwt>
<pdfrwt beam="1">  1        3 0.80654657E+00 0.97548270E+03</pdfrwt>
<pdfrwt beam="2">  1       -4 0.46123209E-01 0.97548270E+03</pdfrwt>
<totfact> 0.63612861E-04</totfact>
</mgrwt>
</event>
<event>
12    3  0.1092576E-007  0.1472951E+04  0.7818608E-02  0.8902642E-01
          1   -1    0    0  501    0  0.00000000000E+00  0.00000000000E+00  0.37623292893E+04  0.37623292893E+04  0.00000000000E+00 0. -1.
         -2   -1    0    0    0  501 -0.00000000000E+00 -0.00000000000E+00 -0.97854415822E+03  0.97854415822E+03  0.00000000000E+00 0.  1.
        -24    2    1    2    0    0  0.14280167984E+04  0.30636527263E+02 -0.13444108912E+03  0.14368787276E+04  0.79846716534E+02 0.  0.
    5000000    2    1    2    0    0 -0.14280167984E+04 -0.30636527263E+02  0.29182262202E+04  0.33039947199E+04  0.60013853697E+03 0.  0.
        -24    2    4    4    0    0 -0.11162119393E+04 -0.23269988948E+03  0.24295994358E+04  0.26850298838E+04  0.79710262477E+02 0.  0.
         24    2    4    4    0    0 -0.31180485909E+03  0.20206336222E+03  0.48862678431E+03  0.61896483611E+03  0.79432118793E+02 0.  0.
         11    1    5    5    0    0 -0.53634258904E+03 -0.13004954177E+03  0.10918997111E+04  0.12234464578E+04  0.00000000000E+00 0. -1.
        -12    1    5    5    0    0 -0.57986935026E+03 -0.10265034771E+03  0.13376997248E+04  0.14615834259E+04  0.00000000000E+00 0.  1.
         15    1    3    3    0    0  0.25773800366E+03  0.34719409080E+02 -0.14793691570E+02  0.26049247002E+03  0.17770000000E+01 0. -1.
        -16    1    3    3    0    0  0.11702787947E+04 -0.40828818170E+01 -0.11964739755E+03  0.11763862576E+04  0.00000000000E+00 0.  1.
          2    1    6    6  502    0 -0.95160989840E+02  0.89488229654E+02  0.12373858682E+03  0.17993052855E+03  0.00000000000E+00 0. -1.
         -3    1    6    6    0  502 -0.21664386925E+03  0.11257513257E+03  0.36488819749E+03  0.43903430757E+03  0.00000000000E+00 0.  1.
<mgrwt>
<rscale>  0 0.14729513E+04</rscale>
<asrwt>0</asrwt>
<pdfrwt beam="1">  1        1 0.57881988E+00 0.14729513E+04</pdfrwt>
<pdfrwt beam="2">  1       -2 0.15054526E+00 0.14729513E+04</pdfrwt>
<totfact> 0.38270946E-02</totfact>
</mgrwt>
</event>
<event>
12    3  0.1092576E-007  0.9261180E+03  0.7818608E-02  0.9393509E-01
         -2   -1    0    0    0  501 -0.00000000000E+00  0.00000000000E+00  0.40655675780E+03  0.40655675780E+03  0.00000000000E+00 0.  1.
          1   -1    0    0  501    0  0.00000000000E+00 -0.00000000000E+00 -0.22921351691E+04  0.22921351691E+04  0.00000000000E+00 0. -1.
        -24    2    1    2    0    0  0.86786085217E+03 -0.63116984379E+02 -0.85373730366E+03  0.12216132857E+04  0.79406698351E+02 0.  0.
    5000000    2    1    2    0    0 -0.86786085217E+03  0.63116984379E+02 -0.10318411076E+04  0.14770786411E+04  0.59991585102E+03 0.  0.
        -24    2    4    4    0    0 -0.28193052463E+02 -0.11821714327E+03 -0.34767960938E+03  0.37732659868E+03  0.82000671482E+02 0.  0.
         24    2    4    4    0    0 -0.83966779971E+03  0.18133412765E+03 -0.68416149822E+03  0.10997520425E+04  0.58766653087E+02 0.  0.
         13    1    5    5    0    0  0.74892700443E+00 -0.23057544725E+02 -0.18654603122E+03  0.18796710623E+03  0.00000000000E+00 0. -1.
        -14    1    5    5    0    0 -0.28941979468E+02 -0.95159598543E+02 -0.16113357815E+03  0.18935949245E+03  0.00000000000E+00 0.  1.
         15    1    3    3    0    0  0.68833047765E+03 -0.62290923992E+02 -0.71753779349E+03  0.99626434669E+03  0.17770000000E+01 0. -1.
        -16    1    3    3    0    0  0.17953037452E+03 -0.82606038655E+00 -0.13619951017E+03  0.22534893903E+03  0.00000000000E+00 0.  1.
          2    1    6    6  502    0 -0.76952234567E+03  0.16619130604E+03 -0.64655848865E+03  0.10187355250E+04  0.00000000000E+00 0. -1.
         -1    1    6    6    0  502 -0.70145454036E+02  0.15142821610E+02 -0.37603009569E+02  0.81016517432E+02  0.00000000000E+00 0.  1.
<mgrwt>
<rscale>  0 0.92611805E+03</rscale>
<asrwt>0</asrwt>
<pdfrwt beam="1">  1        1 0.35263618E+00 0.92611805E+03</pdfrwt>
<pdfrwt beam="2">  1       -2 0.62547193E-01 0.92611805E+03</pdfrwt>
<totfact> 0.40112314E+00</totfact>
</mgrwt>
</event>
<event>
12    3  0.1092576E-007  0.7134161E+03  0.7818608E-02  0.9694560E-01
         -2   -1    0    0    0  501 -0.00000000000E+00  0.00000000000E+00  0.82275398008E+03  0.82275398008E+03  0.00000000000E+00 0.  1.
          1   -1    0    0  501    0  0.00000000000E+00 -0.00000000000E+00 -0.82678057540E+03  0.82678057540E+03  0.00000000000E+00 0. -1.
        -24    2    1    2    0    0  0.11840205514E+03 -0.67038972287E+03  0.21117074756E+03  0.71705433578E+03  0.78309697038E+02 0.  0.
    5000000    2    1    2    0    0 -0.11840205514E+03  0.67038972287E+03 -0.21519734288E+03  0.93248021969E+03  0.59980666598E+03 0.  0.
        -24    2    4    4    0    0 -0.19669953980E+03  0.26030981895E+03 -0.35175056738E+03  0.48603901807E+03  0.77804592640E+02 0.  0.
         24    2    4    4    0    0  0.78297484658E+02  0.41007990392E+03  0.13655322450E+03  0.44644120162E+03  0.79793105489E+02 0.  0.
         11    1    5    5    0    0 -0.22427161575E+02  0.16844396455E+02 -0.67899064020E+02  0.73464237307E+02  0.00000000000E+00 0. -1.
        -12    1    5    5    0    0 -0.17427237823E+03  0.24346542250E+03 -0.28385150336E+03  0.41257478077E+03  0.00000000000E+00 0.  1.
         15    1    3    3    0    0  0.48636888482E+02 -0.18811259141E+03  0.94092808563E+02  0.21589003757E+03  0.17770000000E+01 0. -1.
        -16    1    3    3    0    0  0.69765166661E+02 -0.48227713146E+03  0.11707793900E+03  0.50116429822E+03  0.00000000000E+00 0.  1.
          2    1    6    6  502    0  0.72365560031E-01  0.16068808234E+02 -0.99018732794E+01  0.18874822629E+02  0.00000000000E+00 0. -1.
         -1    1    6    6    0  502  0.78225119098E+02  0.39401109568E+03  0.14645509778E+03  0.42756637899E+03  0.00000000000E+00 0.  1.
<mgrwt>
<rscale>  0 0.71341607E+03</rscale>
<asrwt>0</asrwt>
<pdfrwt beam="1">  1        1 0.12719701E+00 0.71341607E+03</pdfrwt>
<pdfrwt beam="2">  1       -2 0.12657754E+00 0.71341607E+03</pdfrwt>
<totfact> 0.87607797E+00</totfact>
</mgrwt>
</event>
<event>
12    3  0.1092576E-007  0.1073512E+04  0.7818608E-02  0.9231400E-01
          3   -1    0    0  501    0  0.00000000000E+00  0.00000000000E+00  0.10783093199E+04  0.10783093199E+04  0.00000000000E+00 0. -1.
         -4   -1    0    0    0  501 -0.00000000000E+00 -0.00000000000E+00 -0.17974795339E+04  0.17974795339E+04  0.00000000000E+00 0.  1.
        -24    2    1    2    0    0  0.65409823617E+03  0.81435680250E+03  0.50086183776E+03  0.11612583589E+04  0.81467117364E+02 0.  0.
    5000000    2    1    2    0    0 -0.65409823617E+03 -0.81435680250E+03 -0.12200320518E+04  0.17145304950E+04  0.60009591438E+03 0.  0.
        -24    2    4    4    0    0 -0.26761988661E+03 -0.59049068699E+03 -0.10386297933E+04  0.12269707510E+04  0.80035749184E+02 0.  0.
         24    2    4    4    0    0 -0.38647834956E+03 -0.22386611551E+03 -0.18140225845E+03  0.48755974394E+03  0.72980628882E+02 0.  0.
         13    1    5    5    0    0 -0.15592860549E+03 -0.28800667216E+03 -0.46198843376E+03  0.56629929026E+03  0.00000000000E+00 0. -1.
        -14    1    5    5    0    0 -0.11169128112E+03 -0.30248401482E+03 -0.57664135955E+03  0.66067146075E+03  0.00000000000E+00 0.  1.
         15    1    3    3    0    0  0.21277007899E+03  0.30792473797E+03  0.14814736676E+03  0.40254136530E+03  0.17770000000E+01 0. -1.
        -16    1    3    3    0    0  0.44132815717E+03  0.50643206453E+03  0.35271447100E+03  0.75871699358E+03  0.00000000000E+00 0.  1.
          4    1    6    6  502    0 -0.21955861293E+03 -0.16265643024E+03 -0.12929947717E+03  0.30229365459E+03  0.00000000000E+00 0. -1.
         -3    1    6    6    0  502 -0.16691973663E+03 -0.61209685276E+02 -0.52102781286E+02  0.18526608935E+03  0.00000000000E+00 0.  1.
<mgrwt>
<rscale>  0 0.10735120E+04</rscale>
<asrwt>0</asrwt>
<pdfrwt beam="1">  1        3 0.16589374E+00 0.10735120E+04</pdfrwt>
<pdfrwt beam="2">  1       -4 0.27653531E+00 0.10735120E+04</pdfrwt>
<totfact> 0.23559408E-02</totfact>
</mgrwt>
</event>
<event>
12    3  0.1092576E-007  0.3120646E+03  0.7818608E-02  0.1079360E+00
          1   -1    0    0  501    0  0.00000000000E+00  0.00000000000E+00  0.16207928371E+04  0.16207928371E+04  0.00000000000E+00 0. -1.
         -2   -1    0    0    0  501 -0.00000000000E+00 -0.00000000000E+00 -0.17972677795E+03  0.17972677795E+03  0.00000000000E+00 0.  1.
        -24    2    1    2    0    0 -0.13346627069E+03  0.24662531096E+02  0.10739040060E+04  0.10841195183E+04  0.60198256723E+02 0.  0.
    5000000    2    1    2    0    0  0.13346627069E+03 -0.24662531096E+02  0.36716205321E+03  0.71640009677E+03  0.59999969957E+03 0.  0.
        -24    2    4    4    0    0  0.17972473402E+03  0.17386872172E+03 -0.28709822335E+02  0.26390658018E+03  0.79316560372E+02 0.  0.
         24    2    4    4    0    0 -0.46258463330E+02 -0.19853125282E+03  0.39587187555E+03  0.45249351659E+03  0.80506750847E+02 0.  0.
         11    1    5    5    0    0  0.10034720665E+02 -0.67154569223E+01 -0.94970422527E+01  0.15361861608E+02  0.00000000000E+00 0. -1.
        -12    1    5    5    0    0  0.16969001335E+03  0.18058417865E+03 -0.19212780083E+02  0.24854471857E+03  0.00000000000E+00 0.  1.
         15    1    3    3    0    0 -0.42249296239E+02  0.33912138853E+02  0.30629137532E+03  0.31105080054E+03  0.17770000000E+01 0. -1.
        -16    1    3    3    0    0 -0.91216974449E+02 -0.92496077571E+01  0.76761263065E+03  0.77306871778E+03  0.00000000000E+00 0.  1.
          4    1    6    6  502    0 -0.66876552839E+01 -0.16863903842E+03  0.28889373339E+03  0.33457949609E+03  0.00000000000E+00 0. -1.
         -3    1    6    6    0  502 -0.39570808046E+02 -0.29892214401E+02  0.10697814216E+03  0.11791402050E+03  0.00000000000E+00 0.  1.
<mgrwt>
<rscale>  0 0.31206461E+03</rscale>
<asrwt>0</asrwt>
<pdfrwt beam="1">  1        1 0.24935273E+00 0.31206461E+03</pdfrwt>
<pdfrwt beam="2">  1       -2 0.27650275E-01 0.31206461E+03</pdfrwt>
<totfact> 0.62075133E+01</totfact>
</mgrwt>
</event>
<event>
12    3  0.1092576E-007  0.3185897E+03  0.7818608E-02  0.1076300E+00
         -2   -1    0    0    0  501 -0.00000000000E+00  0.00000000000E+00  0.56446389353E+03  0.56446389353E+03  0.00000000000E+00 0.  1.
          1   -1    0    0  501    0  0.00000000000E+00 -0.00000000000E+00 -0.75522265726E+03  0.75522265726E+03  0.00000000000E+00 0. -1.
        -24    2    1    2    0    0  0.16002425794E+03  0.16884079631E+03 -0.53534154890E+03  0.58910291493E+03  0.79603346468E+02 0.  0.
    5000000    2    1    2    0    0 -0.16002425794E+03 -0.16884079631E+03  0.34458278518E+03  0.73058363586E+03  0.60074967792E+03 0.  0.
        -24    2    4    4    0    0  0.90102052886E+02  0.15921473565E+02  0.38950218154E+03  0.40747921867E+03  0.77171827560E+02 0.  0.
         24    2    4    4    0    0 -0.25012631083E+03 -0.18476226988E+03 -0.44919396368E+02  0.32310441719E+03  0.75355454330E+02 0.  0.
         13    1    5    5    0    0  0.16155319531E+02  0.16813169518E+01  0.23541647971E+03  0.23597614307E+03  0.00000000000E+00 0. -1.
        -14    1    5    5    0    0  0.73946733355E+02  0.14240156613E+02  0.15408570183E+03  0.17150307561E+03  0.00000000000E+00 0.  1.
         15    1    3    3    0    0  0.86481259742E+02  0.70239337605E+02 -0.34433733419E+03  0.36191702126E+03  0.17770000000E+01 0. -1.
        -16    1    3    3    0    0  0.73542998202E+02  0.98601458709E+02 -0.19100421471E+03  0.22718589367E+03  0.00000000000E+00 0.  1.
          2    1    6    6  502    0 -0.70278392583E+02 -0.45301464777E+02 -0.46175377686E+02  0.95516703667E+02  0.00000000000E+00 0. -1.
         -1    1    6    6    0  502 -0.17984791825E+03 -0.13946080510E+03  0.12559813178E+01  0.22758771352E+03  0.00000000000E+00 0.  1.
<mgrwt>
<rscale>  0 0.31858968E+03</rscale>
<asrwt>0</asrwt>
<pdfrwt beam="1">  1        1 0.11618810E+00 0.31858968E+03</pdfrwt>
<pdfrwt beam="2">  1       -2 0.86840599E-01 0.31858968E+03</pdfrwt>
<totfact> 0.26355602E+01</totfact>
</mgrwt>
</event>
<event>
12    3  0.1092576E-007  0.7290415E+03  0.7818608E-02  0.9668817E-01
         -2   -1    0    0    0  501 -0.00000000000E+00  0.00000000000E+00  0.19576430544E+04  0.19576430544E+04  0.00000000000E+00 0.  1.
          1   -1    0    0  501    0  0.00000000000E+00 -0.00000000000E+00 -0.28904140097E+03  0.28904140097E+03  0.00000000000E+00 0. -1.
        -24    2    1    2    0    0 -0.31314497558E+03  0.52120024368E+03  0.95013874336E+03  0.11304574434E+04  0.73898104583E+02 0.  0.
    5000000    2    1    2    0    0  0.31314497558E+03 -0.52120024368E+03  0.71846291010E+03  0.11162270120E+04  0.60005359717E+03 0.  0.
        -24    2    4    4    0    0 -0.45928205019E+02 -0.47114630843E+03  0.43628553092E+03  0.64968843285E+03  0.87531430510E+02 0.  0.
         24    2    4    4    0    0  0.35907318060E+03 -0.50053935249E+02  0.28217737918E+03  0.46653857919E+03  0.81211003518E+02 0.  0.
         13    1    5    5    0    0 -0.63161958670E+02 -0.22526165385E+03  0.19189916025E+03  0.30258475411E+03  0.00000000000E+00 0. -1.
        -14    1    5    5    0    0  0.17233753651E+02 -0.24588465458E+03  0.24438637067E+03  0.34710367874E+03  0.00000000000E+00 0.  1.
         15    1    3    3    0    0 -0.65193414819E+02  0.17252331074E+03  0.30033812758E+03  0.35244946119E+03  0.17770000000E+01 0. -1.
        -16    1    3    3    0    0 -0.24795156076E+03  0.34867693294E+03  0.64980061578E+03  0.77800798217E+03  0.00000000000E+00 0.  1.
          2    1    6    6  502    0  0.13664113728E+03 -0.41327272087E+02  0.69915881286E+02  0.15895588781E+03  0.00000000000E+00 0. -1.
         -1    1    6    6    0  502  0.22243204332E+03 -0.87266631621E+01  0.21226149790E+03  0.30758269138E+03  0.00000000000E+00 0.  1.
<mgrwt>
<rscale>  0 0.72904152E+03</rscale>
<asrwt>0</asrwt>
<pdfrwt beam="1">  1        1 0.44467909E-01 0.72904152E+03</pdfrwt>
<pdfrwt beam="2">  1       -2 0.30117585E+00 0.72904152E+03</pdfrwt>
<totfact> 0.26328020E+00</totfact>
</mgrwt>
</event>
<event>
12    3  0.1315514E-007  0.8243932E+03  0.7818608E-02  0.9525365E-01
          1   -1    0    0  501    0  0.00000000000E+00  0.00000000000E+00  0.62368022773E+03  0.62368022773E+03  0.00000000000E+00 0. -1.
         -2   -1    0    0    0  501 -0.00000000000E+00 -0.00000000000E+00 -0.13431550894E+04  0.13431550894E+04  0.00000000000E+00 0.  1.
        -24    2    1    2    0    0  0.58787328275E+03  0.56291281724E+03 -0.28133410822E+03  0.86483147930E+03  0.79490696069E+02 0.  0.
    5000000    2    1    2    0    0 -0.58787328275E+03 -0.56291281724E+03 -0.43814075342E+03  0.11020038378E+04  0.59998275169E+03 0.  0.
        -24    2    4    4    0    0 -0.39016670010E+03 -0.26801825501E+03 -0.54125757983E+03  0.72350220198E+03  0.80198688658E+02 0.  0.
         24    2    4    4    0    0 -0.19770658265E+03 -0.29489456222E+03  0.10311682640E+03  0.37850163582E+03  0.81115428714E+02 0.  0.
         11    1    5    5    0    0 -0.12300355594E+03 -0.91015036437E+02 -0.12148059963E+03  0.19537437835E+03  0.00000000000E+00 0. -1.
        -12    1    5    5    0    0 -0.26716314417E+03 -0.17700321858E+03 -0.41977698019E+03  0.52812782362E+03  0.00000000000E+00 0.  1.
         15    1    3    3    0    0  0.24609237816E+03  0.28401876752E+03 -0.14914263555E+03  0.40432017308E+03  0.17770000000E+01 0. -1.
        -16    1    3    3    0    0  0.34178090460E+03  0.27889404971E+03 -0.13219147267E+03  0.46051130622E+03  0.00000000000E+00 0.  1.
          2    1    6    6  502    0 -0.17239290390E+03 -0.22126159954E+03  0.51762597569E+02  0.28522863680E+03  0.00000000000E+00 0. -1.
         -1    1    6    6    0  502 -0.25313678748E+02 -0.73632962689E+02  0.51354228832E+02  0.93272999013E+02  0.00000000000E+00 0.  1.
<mgrwt>
<rscale>  0 0.82439317E+03</rscale>
<asrwt>0</asrwt>
<pdfrwt beam="1">  1        1 0.95950805E-01 0.82439317E+03</pdfrwt>
<pdfrwt beam="2">  1       -2 0.20663924E+00 0.82439317E+03</pdfrwt>
<totfact> 0.34733411E+00</totfact>
</mgrwt>
</event>
<event>
12    3  0.1092576E-007  0.8443709E+03  0.7818608E-02  0.9497923E-01
          1   -1    0    0  501    0  0.00000000000E+00  0.00000000000E+00  0.16176260475E+04  0.16176260475E+04  0.00000000000E+00 0. -1.
         -2   -1    0    0    0  501 -0.00000000000E+00 -0.00000000000E+00 -0.10681754740E+04  0.10681754740E+04  0.00000000000E+00 0.  1.
        -24    2    1    2    0    0 -0.56696261599E+03  0.54514462733E+03 -0.72484909351E+03  0.10725866552E+04  0.80041564350E+02 0.  0.
    5000000    2    1    2    0    0  0.56696261599E+03 -0.54514462733E+03  0.12742996670E+04  0.16132148663E+04  0.59999440898E+03 0.  0.
        -24    2    4    4    0    0  0.50918825671E+03 -0.20547538605E+03  0.10683240635E+04  0.12037246954E+04  0.78383815929E+02 0.  0.
         24    2    4    4    0    0  0.57774359288E+02 -0.33966924128E+03  0.20597560352E+03  0.40949017090E+03  0.80889929855E+02 0.  0.
         11    1    5    5    0    0  0.23005082376E+03 -0.55523537150E+02  0.41909394896E+03  0.48129614869E+03  0.00000000000E+00 0. -1.
        -12    1    5    5    0    0  0.27913743295E+03 -0.14995184890E+03  0.64923011455E+03  0.72242854671E+03  0.00000000000E+00 0.  1.
         15    1    3    3    0    0 -0.15204400465E+03  0.17300001778E+03 -0.17121512696E+03  0.28699157292E+03  0.17770000000E+01 0. -1.
        -16    1    3    3    0    0 -0.41491861135E+03  0.37214460954E+03 -0.55363396655E+03  0.78559508232E+03  0.00000000000E+00 0.  1.
          4    1    6    6  502    0 -0.43902721250E+01 -0.94744205570E+02  0.23247953993E+02  0.97653501439E+02  0.00000000000E+00 0. -1.
         -3    1    6    6    0  502  0.62164631413E+02 -0.24492503571E+03  0.18272764953E+03  0.31183666946E+03  0.00000000000E+00 0.  1.
<mgrwt>
<rscale>  0 0.84437091E+03</rscale>
<asrwt>0</asrwt>
<pdfrwt beam="1">  1        1 0.24886555E+00 0.84437091E+03</pdfrwt>
<pdfrwt beam="2">  1       -2 0.16433469E+00 0.84437091E+03</pdfrwt>
<totfact> 0.11394613E+00</totfact>
</mgrwt>
</event>
<event>
12    3  0.1092576E-007  0.4469885E+03  0.7818608E-02  0.1028624E+00
         -2   -1    0    0    0  501 -0.00000000000E+00  0.00000000000E+00  0.55028648739E+03  0.55028648739E+03  0.00000000000E+00 0.  1.
          1   -1    0    0  501    0  0.00000000000E+00 -0.00000000000E+00 -0.92650046881E+03  0.92650046881E+03  0.00000000000E+00 0. -1.
        -24    2    1    2    0    0 -0.15247838134E+03 -0.22285512823E+03 -0.69195118780E+03  0.74695818782E+03  0.78968494343E+02 0.  0.
    5000000    2    1    2    0    0  0.15247838134E+03  0.22285512823E+03  0.31573720637E+03  0.72982876838E+03  0.60003831770E+03 0.  0.
        -24    2    4    4    0    0  0.19224014766E+03  0.38814591274E+03  0.31560946186E+03  0.54193612245E+03  0.80448147601E+02 0.  0.
         24    2    4    4    0    0 -0.39761766312E+02 -0.16529078451E+03  0.12774451222E+00  0.18789264593E+03  0.80009927963E+02 0.  0.
         11    1    5    5    0    0  0.10983800336E+03  0.20487337485E+03  0.21739422229E+03  0.31827305036E+03  0.00000000000E+00 0. -1.
        -12    1    5    5    0    0  0.82402144299E+02  0.18327253789E+03  0.98215239566E+02  0.22366307208E+03  0.00000000000E+00 0.  1.
         15    1    3    3    0    0 -0.14540323355E+03 -0.15988297336E+03 -0.49670049262E+03  0.54168182782E+03  0.17770000000E+01 0. -1.
        -16    1    3    3    0    0 -0.70751477961E+01 -0.62972154871E+02 -0.19525069518E+03  0.20527635999E+03  0.00000000000E+00 0.  1.
          4    1    6    6  502    0  0.12594171368E+02 -0.80149512361E+02  0.24992975342E+02  0.84895266656E+02  0.00000000000E+00 0. -1.
         -3    1    6    6    0  502 -0.52355937680E+02 -0.85141272146E+02 -0.24865230830E+02  0.10299737927E+03  0.00000000000E+00 0.  1.
<mgrwt>
<rscale>  0 0.44698845E+03</rscale>
<asrwt>0</asrwt>
<pdfrwt beam="1">  1        1 0.14253853E+00 0.44698845E+03</pdfrwt>
<pdfrwt beam="2">  1       -2 0.84659460E-01 0.44698845E+03</pdfrwt>
<totfact> 0.19647457E+01</totfact>
</mgrwt>
</event>
<event>
12    3  0.1092576E-007  0.9803683E+03  0.7818608E-02  0.9330342E-01
          1   -1    0    0  501    0  0.00000000000E+00  0.00000000000E+00  0.21483131075E+04  0.21483131075E+04  0.00000000000E+00 0. -1.
         -2   -1    0    0    0  501 -0.00000000000E+00 -0.00000000000E+00 -0.47136203997E+03  0.47136203997E+03  0.00000000000E+00 0.  1.
        -24    2    1    2    0    0  0.18125505487E+03  0.89673825154E+03  0.76820347292E+03  0.11974455753E+04  0.82136735936E+02 0.  0.
    5000000    2    1    2    0    0 -0.18125505487E+03 -0.89673825154E+03  0.90874759466E+03  0.14222295722E+04  0.59993489522E+03 0.  0.
        -24    2    4    4    0    0 -0.10649111526E+03 -0.94463114171E+03  0.70885014532E+03  0.11888387017E+04  0.84856222966E+02 0.  0.
         24    2    4    4    0    0 -0.74763939603E+02  0.47892890178E+02  0.19989744933E+03  0.23339087049E+03  0.81418257076E+02 0.  0.
         11    1    5    5    0    0 -0.81066864308E+02 -0.49495163439E+03  0.33086494217E+03  0.60084987046E+03  0.00000000000E+00 0. -1.
        -12    1    5    5    0    0 -0.25424250956E+02 -0.44967950732E+03  0.37798520316E+03  0.58798883123E+03  0.00000000000E+00 0.  1.
         15    1    3    3    0    0  0.18255576259E+03  0.75974640455E+03  0.66198068312E+03  0.10240912011E+04  0.17770000000E+01 0. -1.
        -16    1    3    3    0    0 -0.13007077223E+01  0.13699184699E+03  0.10622278980E+03  0.17335437420E+03  0.00000000000E+00 0.  1.
          2    1    6    6  502    0 -0.50999636513E+02  0.41661908681E+02  0.53220085981E+02  0.84670272889E+02  0.00000000000E+00 0. -1.
         -1    1    6    6    0  502 -0.23764303090E+02  0.62309814969E+01  0.14667736335E+03  0.14872059760E+03  0.00000000000E+00 0.  1.
<mgrwt>
<rscale>  0 0.98036834E+03</rscale>
<asrwt>0</asrwt>
<pdfrwt beam="1">  1        1 0.33050970E+00 0.98036834E+03</pdfrwt>
<pdfrwt beam="2">  1       -2 0.72517238E-01 0.98036834E+03</pdfrwt>
<totfact> 0.36128140E+00</totfact>
</mgrwt>
</event>
<event>
12    3  0.1092576E-007  0.7183894E+03  0.7818608E-02  0.9686291E-01
          1   -1    0    0  501    0  0.00000000000E+00  0.00000000000E+00  0.24235010895E+04  0.24235010895E+04  0.00000000000E+00 0. -1.
         -2   -1    0    0    0  501 -0.00000000000E+00 -0.00000000000E+00 -0.27153912329E+03  0.27153912329E+03  0.00000000000E+00 0.  1.
        -24    2    1    2    0    0  0.21138645044E+03  0.56200993138E+03  0.33896398500E+03  0.69325905277E+03  0.71917568967E+02 0.  0.
    5000000    2    1    2    0    0 -0.21138645044E+03 -0.56200993138E+03  0.18129979812E+04  0.20017811600E+04  0.59968886793E+03 0.  0.
        -24    2    4    4    0    0 -0.27238195448E+03 -0.65432434765E+03  0.15240534172E+04  0.16828056205E+04  0.82241453938E+02 0.  0.
         24    2    4    4    0    0  0.60995504043E+02  0.92314416262E+02  0.28894456398E+03  0.31897553952E+03  0.77550182435E+02 0.  0.
         13    1    5    5    0    0 -0.18080289173E+03 -0.33323394820E+03  0.84145506479E+03  0.92291991849E+03  0.00000000000E+00 0. -1.
        -14    1    5    5    0    0 -0.91579062754E+02 -0.32109039945E+03  0.68259835240E+03  0.75988570197E+03  0.00000000000E+00 0.  1.
         15    1    3    3    0    0  0.13471687737E+03  0.25887897688E+03  0.15419177616E+03  0.33006851302E+03  0.17770000000E+01 0. -1.
        -16    1    3    3    0    0  0.76669573063E+02  0.30313095450E+03  0.18477220883E+03  0.36319053975E+03  0.00000000000E+00 0.  1.
          2    1    6    6  502    0  0.14187949962E+01  0.39805892894E+02  0.17882893149E+03  0.18321110454E+03  0.00000000000E+00 0. -1.
         -1    1    6    6    0  502  0.59576709047E+02  0.52508523368E+02  0.11011563248E+03  0.13576443498E+03  0.00000000000E+00 0.  1.
<mgrwt>
<rscale>  0 0.71838939E+03</rscale>
<asrwt>0</asrwt>
<pdfrwt beam="1">  1        1 0.37284631E+00 0.71838939E+03</pdfrwt>
<pdfrwt beam="2">  1       -2 0.41775251E-01 0.71838939E+03</pdfrwt>
<totfact> 0.77069430E+00</totfact>
</mgrwt>
</event>
<event>
12    3  0.1092576E-007  0.5469525E+03  0.7818608E-02  0.1002202E+00
          1   -1    0    0  501    0  0.00000000000E+00  0.00000000000E+00  0.43506967455E+03  0.43506967455E+03  0.00000000000E+00 0. -1.
         -2   -1    0    0    0  501 -0.00000000000E+00 -0.00000000000E+00 -0.72796783027E+03  0.72796783027E+03  0.00000000000E+00 0.  1.
        -24    2    1    2    0    0  0.37486366789E+03  0.13126999623E+03 -0.86834518391E+02  0.41456013573E+03  0.81026484180E+02 0.  0.
    5000000    2    1    2    0    0 -0.37486366789E+03 -0.13126999623E+03 -0.20606363732E+03  0.74847736909E+03  0.60000130666E+03 0.  0.
        -24    2    4    4    0    0 -0.26809254991E+02  0.20662904535E+03 -0.28763482377E+02  0.22523385354E+03  0.80552171457E+02 0.  0.
         24    2    4    4    0    0 -0.34805441290E+03 -0.33789904158E+03 -0.17730015495E+03  0.52324351555E+03  0.83849835888E+02 0.  0.
         11    1    5    5    0    0 -0.13088134820E+01  0.72736047361E+02  0.27508252417E+02  0.77774992957E+02  0.00000000000E+00 0. -1.
        -12    1    5    5    0    0 -0.25500441509E+02  0.13389299799E+03 -0.56271734794E+02  0.14745886058E+03  0.00000000000E+00 0.  1.
         15    1    3    3    0    0  0.20719171096E+03  0.51244969456E+02 -0.82166825915E+02  0.22871160223E+03  0.17770000000E+01 0. -1.
        -16    1    3    3    0    0  0.16767195693E+03  0.80025026773E+02 -0.46676924756E+01  0.18584853350E+03  0.00000000000E+00 0.  1.
          4    1    6    6  502    0 -0.19590511930E+03 -0.20576080129E+03 -0.61028223277E+02  0.29058693562E+03  0.00000000000E+00 0. -1.
         -3    1    6    6    0  502 -0.15214929360E+03 -0.13213824028E+03 -0.11627193167E+03  0.23265657993E+03  0.00000000000E+00 0.  1.
<mgrwt>
<rscale>  0 0.54695247E+03</rscale>
<asrwt>0</asrwt>
<pdfrwt beam="1">  1        1 0.66933796E-01 0.54695247E+03</pdfrwt>
<pdfrwt beam="2">  1       -2 0.11199505E+00 0.54695247E+03</pdfrwt>
<totfact> 0.30517580E+01</totfact>
</mgrwt>
</event>
<event>
12    3  0.1092576E-007  0.9505333E+03  0.7818608E-02  0.9364527E-01
         -2   -1    0    0    0  501 -0.00000000000E+00  0.00000000000E+00  0.85108757946E+03  0.85108757946E+03  0.00000000000E+00 0.  1.
          1   -1    0    0  501    0  0.00000000000E+00 -0.00000000000E+00 -0.12446048375E+04  0.12446048375E+04  0.00000000000E+00 0. -1.
        -24    2    1    2    0    0  0.93688781360E+02  0.86526183422E+03  0.18121416309E+03  0.89242785353E+03  0.78315205063E+02 0.  0.
    5000000    2    1    2    0    0 -0.93688781360E+02 -0.86526183422E+03 -0.57473142114E+03  0.12032645634E+04  0.60006147493E+03 0.  0.
        -24    2    4    4    0    0  0.17285778833E+03 -0.85272783342E+02 -0.20896025177E+03  0.29573039922E+03  0.81491224285E+02 0.  0.
         24    2    4    4    0    0 -0.26654656969E+03 -0.77998905087E+03 -0.36577116937E+03  0.90753416422E+03  0.10197900567E+03 0.  0.
         13    1    5    5    0    0  0.56693976141E+02 -0.65446938453E+02 -0.57992218948E+02  0.10421423196E+03  0.00000000000E+00 0. -1.
        -14    1    5    5    0    0  0.11616381219E+03 -0.19825844889E+02 -0.15096803283E+03  0.19151616727E+03  0.00000000000E+00 0.  1.
         15    1    3    3    0    0  0.71056013104E+02  0.49074121407E+03  0.13823879516E+03  0.51477084066E+03  0.17770000000E+01 0. -1.
        -16    1    3    3    0    0  0.22632768256E+02  0.37452062015E+03  0.42975367930E+02  0.37765701286E+03  0.00000000000E+00 0.  1.
          4    1    6    6  502    0 -0.18323059188E+03 -0.46640622220E+03 -0.27008117459E+03  0.56925570245E+03  0.00000000000E+00 0. -1.
         -3    1    6    6    0  502 -0.83315977812E+02 -0.31358282867E+03 -0.95689994775E+02  0.33827846177E+03  0.00000000000E+00 0.  1.
<mgrwt>
<rscale>  0 0.95053335E+03</rscale>
<asrwt>0</asrwt>
<pdfrwt beam="1">  1        1 0.19147767E+00 0.95053335E+03</pdfrwt>
<pdfrwt beam="2">  1       -2 0.13093655E+00 0.95053335E+03</pdfrwt>
<totfact> 0.37191174E+00</totfact>
</mgrwt>
</event>
<event>
12    3  0.1092576E-007  0.4993841E+03  0.7818608E-02  0.1013940E+00
         -2   -1    0    0    0  501 -0.00000000000E+00  0.00000000000E+00  0.59228263149E+03  0.59228263149E+03  0.00000000000E+00 0.  1.
          1   -1    0    0  501    0  0.00000000000E+00 -0.00000000000E+00 -0.47255265355E+03  0.47255265355E+03  0.00000000000E+00 0. -1.
        -24    2    1    2    0    0  0.27358531027E+03 -0.15998118206E+03 -0.10676575615E+03  0.34934239756E+03  0.10098655081E+03 0.  0.
    5000000    2    1    2    0    0 -0.27358531027E+03  0.15998118206E+03  0.22649573409E+03  0.71549288747E+03  0.60015569135E+03 0.  0.
        -24    2    4    4    0    0 -0.94406868667E+02  0.37058207586E+03  0.13286515631E+03  0.41275020797E+03  0.80410525533E+02 0.  0.
         24    2    4    4    0    0 -0.17917844160E+03 -0.21060089380E+03  0.93630577786E+02  0.30274267951E+03  0.80179763624E+02 0.  0.
         11    1    5    5    0    0 -0.95164828055E+02  0.21490965296E+03  0.83725412453E+02  0.24950440502E+03  0.00000000000E+00 0. -1.
        -12    1    5    5    0    0  0.75795938761E+00  0.15567242290E+03  0.49139743852E+02  0.16324580294E+03  0.00000000000E+00 0.  1.
         15    1    3    3    0    0  0.20048526399E+03 -0.89257021764E+02 -0.29135234650E+02  0.22138919720E+03  0.17770000000E+01 0. -1.
        -16    1    3    3    0    0  0.73100046280E+02 -0.70724160294E+02 -0.77630521498E+02  0.12795320036E+03  0.00000000000E+00 0.  1.
          4    1    6    6  502    0 -0.12100723980E+03 -0.83267912267E+02  0.35205890569E+02  0.15104883988E+03  0.00000000000E+00 0. -1.
         -3    1    6    6    0  502 -0.58171201796E+02 -0.12733298153E+03  0.58424687217E+02  0.15169383963E+03  0.00000000000E+00 0.  1.
<mgrwt>
<rscale>  0 0.49938411E+03</rscale>
<asrwt>0</asrwt>
<pdfrwt beam="1">  1        1 0.72700408E-01 0.49938411E+03</pdfrwt>
<pdfrwt beam="2">  1       -2 0.91120405E-01 0.49938411E+03</pdfrwt>
<totfact> 0.44691190E+01</totfact>
</mgrwt>
</event>
<event>
12    3  0.1092576E-007  0.1007932E+04  0.7818608E-02  0.9299888E-01
         -2   -1    0    0    0  501 -0.00000000000E+00  0.00000000000E+00  0.59223591667E+03  0.59223591667E+03  0.00000000000E+00 0.  1.
          1   -1    0    0  501    0  0.00000000000E+00 -0.00000000000E+00 -0.20797873138E+04  0.20797873138E+04  0.00000000000E+00 0. -1.
        -24    2    1    2    0    0  0.48722146036E+03 -0.83853293798E+03 -0.28368943925E+03  0.10137568810E+04  0.81860101980E+02 0.  0.
    5000000    2    1    2    0    0 -0.48722146036E+03  0.83853293798E+03 -0.12038619579E+04  0.16582663495E+04  0.60003452624E+03 0.  0.
        -24    2    4    4    0    0 -0.51178488976E+03  0.82375849092E+03 -0.12318442021E+04  0.15698385664E+04  0.80319123639E+02 0.  0.
         24    2    4    4    0    0  0.24563429398E+02  0.14774447062E+02  0.27982244235E+02  0.88427783053E+02  0.78834132668E+02 0.  0.
         11    1    5    5    0    0 -0.16072497971E+03  0.19603666216E+03 -0.34086949544E+03  0.42479984103E+03  0.00000000000E+00 0. -1.
        -12    1    5    5    0    0 -0.35105991005E+03  0.62772182875E+03 -0.89097470667E+03  0.11450387254E+04  0.00000000000E+00 0.  1.
         15    1    3    3    0    0  0.13143403879E+03 -0.24747053096E+03 -0.45330726174E+02  0.28385665874E+03  0.17770000000E+01 0. -1.
        -16    1    3    3    0    0  0.35578742157E+03 -0.59106240702E+03 -0.23835871308E+03  0.72990022225E+03  0.00000000000E+00 0.  1.
          4    1    6    6  502    0 -0.60212324779E+01 -0.23381011576E+02  0.31165766789E+02  0.39423748711E+02  0.00000000000E+00 0. -1.
         -3    1    6    6    0  502  0.30584661876E+02  0.38155458638E+02 -0.31835225541E+01  0.49004034342E+02  0.00000000000E+00 0.  1.
<mgrwt>
<rscale>  0 0.10079316E+04</rscale>
<asrwt>0</asrwt>
<pdfrwt beam="1">  1        1 0.31996728E+00 0.10079316E+04</pdfrwt>
<pdfrwt beam="2">  1       -2 0.91113217E-01 0.10079316E+04</pdfrwt>
<totfact> 0.23874045E+00</totfact>
</mgrwt>
</event>
<event>
12    3  0.1092576E-007  0.3584594E+03  0.7818608E-02  0.1059196E+00
          1   -1    0    0  501    0  0.00000000000E+00  0.00000000000E+00  0.69146591614E+03  0.69146591614E+03  0.00000000000E+00 0. -1.
         -2   -1    0    0    0  501 -0.00000000000E+00 -0.00000000000E+00 -0.34870299847E+03  0.34870299847E+03  0.00000000000E+00 0.  1.
        -24    2    1    2    0    0  0.26727866363E+03 -0.68326327109E+02  0.23534868765E+03  0.37113470507E+03  0.79029067565E+02 0.  0.
    5000000    2    1    2    0    0 -0.26727866363E+03  0.68326327109E+02  0.10741423001E+03  0.66903420953E+03  0.59996882061E+03 0.  0.
        -24    2    4    4    0    0 -0.93938309254E+02 -0.13646253294E+03 -0.18695728882E+03  0.26233566672E+03  0.80128305537E+02 0.  0.
         24    2    4    4    0    0 -0.17334035438E+03  0.20478886005E+03  0.29437151883E+03  0.40669854282E+03  0.82242069369E+02 0.  0.
         11    1    5    5    0    0  0.42470019351E+01  0.40810815547E+00  0.52484173685E+01  0.67638349017E+01  0.00000000000E+00 0. -1.
        -12    1    5    5    0    0 -0.98185311189E+02 -0.13687064109E+03 -0.19220570619E+03  0.25557183182E+03  0.00000000000E+00 0.  1.
         15    1    3    3    0    0  0.50896887241E+02 -0.12804998657E+02  0.91306957732E+02  0.10533080927E+03  0.17770000000E+01 0. -1.
        -16    1    3    3    0    0  0.21638177639E+03 -0.55521328451E+02  0.14404172992E+03  0.26580389581E+03  0.00000000000E+00 0.  1.
          2    1    6    6  502    0 -0.92526480039E+01  0.11224226019E+02  0.58387495031E+02  0.60172205550E+02  0.00000000000E+00 0. -1.
         -1    1    6    6    0  502 -0.16408770638E+03  0.19356463403E+03  0.23598402380E+03  0.34652633727E+03  0.00000000000E+00 0.  1.
<mgrwt>
<rscale>  0 0.35845937E+03</rscale>
<asrwt>0</asrwt>
<pdfrwt beam="1">  1        1 0.10637937E+00 0.35845937E+03</pdfrwt>
<pdfrwt beam="2">  1       -2 0.53646615E-01 0.35845937E+03</pdfrwt>
<totfact> 0.83975401E+01</totfact>
</mgrwt>
</event>
<event>
12    3  0.1092576E-007  0.6279934E+03  0.7818608E-02  0.9848972E-01
          1   -1    0    0  501    0  0.00000000000E+00  0.00000000000E+00  0.42593191832E+04  0.42593191832E+04  0.00000000000E+00 0. -1.
         -2   -1    0    0    0  501 -0.00000000000E+00 -0.00000000000E+00 -0.12834069898E+03  0.12834069898E+03  0.00000000000E+00 0.  1.
        -24    2    1    2    0    0  0.42585583909E+02  0.58844974094E+03  0.12379700694E+04  0.13747496751E+04  0.96333518151E+02 0.  0.
    5000000    2    1    2    0    0 -0.42585583909E+02 -0.58844974094E+03  0.28930084148E+04  0.30129102072E+04  0.60003633103E+03 0.  0.
        -24    2    4    4    0    0  0.92367307261E+02 -0.43213712081E+03  0.88548730887E+03  0.99288073056E+03  0.80312890083E+02 0.  0.
         24    2    4    4    0    0 -0.13495289117E+03 -0.15631262013E+03  0.20075211060E+04  0.20200294766E+04  0.87932800532E+02 0.  0.
         11    1    5    5    0    0  0.35417654451E+02 -0.33243784245E+03  0.65906325607E+03  0.73900859592E+03  0.00000000000E+00 0. -1.
        -12    1    5    5    0    0  0.56949652810E+02 -0.99699278358E+02  0.22642405280E+03  0.25387213464E+03  0.00000000000E+00 0.  1.
         15    1    3    3    0    0  0.35532264360E+02  0.35060149884E+03  0.62985553677E+03  0.72173756154E+03  0.17770000000E+01 0. -1.
        -16    1    3    3    0    0  0.70533195495E+01  0.23784824209E+03  0.60811453266E+03  0.65301211352E+03  0.00000000000E+00 0.  1.
          2    1    6    6  502    0 -0.12945555611E+03 -0.11006244486E+03  0.13131327298E+04  0.13240808317E+04  0.00000000000E+00 0. -1.
         -1    1    6    6    0  502 -0.54973350561E+01 -0.46250175272E+02  0.69438837616E+03  0.69594864491E+03  0.00000000000E+00 0.  1.
<mgrwt>
<rscale>  0 0.62799343E+03</rscale>
<asrwt>0</asrwt>
<pdfrwt beam="1">  1        1 0.65527977E+00 0.62799343E+03</pdfrwt>
<pdfrwt beam="2">  1       -2 0.19744726E-01 0.62799343E+03</pdfrwt>
<totfact> 0.12228285E+00</totfact>
</mgrwt>
</event>
<event>
12    3  0.1092576E-007  0.4484560E+03  0.7818608E-02  0.1028183E+00
          1   -1    0    0  501    0  0.00000000000E+00  0.00000000000E+00  0.24107049485E+04  0.24107049485E+04  0.00000000000E+00 0. -1.
         -2   -1    0    0    0  501 -0.00000000000E+00 -0.00000000000E+00 -0.91253831003E+02  0.91253831003E+02  0.00000000000E+00 0.  1.
        -24    2    1    2    0    0 -0.34052101594E+02 -0.26775262870E+03  0.66730592894E+03  0.72365921812E+03  0.74393853066E+02 0.  0.
    5000000    2    1    2    0    0  0.34052101594E+02  0.26775262870E+03  0.16521451885E+04  0.17782995613E+04  0.59992882088E+03 0.  0.
        -24    2    4    4    0    0  0.20955192229E+03 -0.79376735110E+02  0.40886989197E+03  0.47302167890E+03  0.79763688062E+02 0.  0.
         24    2    4    4    0    0 -0.17549982069E+03  0.34712936381E+03  0.12432752965E+04  0.13052778824E+04  0.81962827682E+02 0.  0.
         11    1    5    5    0    0  0.13712353332E+03 -0.74675991919E+02  0.21271530955E+03  0.26386960810E+03  0.00000000000E+00 0. -1.
        -12    1    5    5    0    0  0.72428388961E+02 -0.47007431905E+01  0.19615458242E+03  0.20915207080E+03  0.00000000000E+00 0.  1.
         15    1    3    3    0    0 -0.26876996128E+02 -0.13102557330E+03  0.42246890925E+03  0.44314017059E+03  0.17770000000E+01 0. -1.
        -16    1    3    3    0    0 -0.71751054660E+01 -0.13672705540E+03  0.24483701970E+03  0.28051904754E+03  0.00000000000E+00 0.  1.
          4    1    6    6  502    0 -0.10275226547E+03  0.11484513692E+03  0.48001707905E+03  0.50414663513E+03  0.00000000000E+00 0. -1.
         -3    1    6    6    0  502 -0.72747555225E+02  0.23228422689E+03  0.76325821749E+03  0.80113124731E+03  0.00000000000E+00 0.  1.
<mgrwt>
<rscale>  0 0.44845599E+03</rscale>
<asrwt>0</asrwt>
<pdfrwt beam="1">  1        1 0.37087764E+00 0.44845599E+03</pdfrwt>
<pdfrwt beam="2">  1       -2 0.14039053E-01 0.44845599E+03</pdfrwt>
<totfact> 0.58602379E+01</totfact>
</mgrwt>
</event>
<event>
12    3  0.1092576E-007  0.4646881E+03  0.7818608E-02  0.1023430E+00
          1   -1    0    0  501    0  0.00000000000E+00  0.00000000000E+00  0.25604933326E+04  0.25604933326E+04  0.00000000000E+00 0. -1.
         -2   -1    0    0    0  501 -0.00000000000E+00 -0.00000000000E+00 -0.11563626724E+03  0.11563626724E+03  0.00000000000E+00 0.  1.
        -24    2    1    2    0    0 -0.24559990018E+03  0.26589428698E+03  0.10803263206E+04  0.11421840387E+04  0.80376218511E+02 0.  0.
    5000000    2    1    2    0    0  0.24559990018E+03 -0.26589428698E+03  0.13645307447E+04  0.15339455611E+04  0.60002145653E+03 0.  0.
        -24    2    4    4    0    0 -0.42766722580E+02 -0.24848354512E+03  0.20008944637E+03  0.33150721518E+03  0.79298060586E+02 0.  0.
         24    2    4    4    0    0  0.28836662276E+03 -0.17410741852E+02  0.11644412983E+04  0.12024383459E+04  0.80473569308E+02 0.  0.
         11    1    5    5    0    0 -0.34689184598E+02 -0.32118848038E+02  0.44110145077E+02  0.64658060797E+02  0.00000000000E+00 0. -1.
        -12    1    5    5    0    0 -0.80775379820E+01 -0.21636469709E+03  0.15597930129E+03  0.26684915439E+03  0.00000000000E+00 0.  1.
         15    1    3    3    0    0 -0.61552312111E+02  0.11873181272E+03  0.43965763897E+03  0.45955187706E+03  0.17770000000E+01 0. -1.
        -16    1    3    3    0    0 -0.18404758807E+03  0.14716247426E+03  0.64066868165E+03  0.68263216167E+03  0.00000000000E+00 0.  1.
          2    1    6    6  502    0  0.18129882939E+03  0.20836740181E+02  0.80582932327E+03  0.82623503528E+03  0.00000000000E+00 0. -1.
         -1    1    6    6    0  502  0.10706779337E+03 -0.38247482034E+02  0.35861197507E+03  0.37620331062E+03  0.00000000000E+00 0.  1.
<mgrwt>
<rscale>  0 0.46468806E+03</rscale>
<asrwt>0</asrwt>
<pdfrwt beam="1">  1        1 0.39392201E+00 0.46468806E+03</pdfrwt>
<pdfrwt beam="2">  1       -2 0.17790197E-01 0.46468806E+03</pdfrwt>
<totfact> 0.31051514E+01</totfact>
</mgrwt>
</event>
<event>
12    3  0.1092576E-007  0.8419382E+03  0.7818608E-02  0.9501222E-01
         -4   -1    0    0    0  501 -0.00000000000E+00  0.00000000000E+00  0.93983812874E+03  0.93983812874E+03  0.00000000000E+00 0.  1.
          3   -1    0    0  501    0  0.00000000000E+00 -0.00000000000E+00 -0.96847692060E+03  0.96847692060E+03  0.00000000000E+00 0. -1.
        -24    2    1    2    0    0 -0.44384609997E+03  0.65080545018E+03  0.32736951270E+03  0.85608571806E+03  0.71866990841E+02 0.  0.
    5000000    2    1    2    0    0  0.44384609997E+03 -0.65080545018E+03 -0.35600830456E+03  0.10522293313E+04  0.59991462580E+03 0.  0.
        -24    2    4    4    0    0  0.41181910324E+03 -0.23702874081E+03 -0.40183984745E+03  0.62747812373E+03  0.80473194265E+02 0.  0.
         24    2    4    4    0    0  0.32026996731E+02 -0.41377670937E+03  0.45831542893E+02  0.42475120756E+03  0.77949754682E+02 0.  0.
         13    1    5    5    0    0  0.71660246237E+02 -0.47009006277E+02 -0.35817090341E+02  0.92886498063E+02  0.00000000000E+00 0. -1.
        -14    1    5    5    0    0  0.34015885700E+03 -0.19001973453E+03 -0.36602275711E+03  0.53459162567E+03  0.00000000000E+00 0.  1.
         15    1    3    3    0    0 -0.75476790480E+02  0.16091328865E+03  0.84142683341E+02  0.19665447174E+03  0.17770000000E+01 0. -1.
        -16    1    3    3    0    0 -0.36836930949E+03  0.48989216153E+03  0.24322682936E+03  0.65943124632E+03  0.00000000000E+00 0.  1.
          4    1    6    6  502    0  0.22808560904E+02 -0.63704081972E+02  0.30503338390E+02  0.74221925085E+02  0.00000000000E+00 0. -1.
         -3    1    6    6    0  502  0.92184358276E+01 -0.35007262740E+03  0.15328204504E+02  0.35052928247E+03  0.00000000000E+00 0.  1.
<mgrwt>
<rscale>  0 0.84193823E+03</rscale>
<asrwt>0</asrwt>
<pdfrwt beam="1">  1        3 0.14899645E+00 0.84193823E+03</pdfrwt>
<pdfrwt beam="2">  1       -4 0.14459048E+00 0.84193823E+03</pdfrwt>
<totfact> 0.24142324E-01</totfact>
</mgrwt>
</event>
<event>
12    3  0.1092576E-007  0.6592249E+03  0.7818608E-02  0.9789622E-01
          1   -1    0    0  501    0  0.00000000000E+00  0.00000000000E+00  0.47441403038E+03  0.47441403038E+03  0.00000000000E+00 0. -1.
         -2   -1    0    0    0  501 -0.00000000000E+00 -0.00000000000E+00 -0.11894477204E+04  0.11894477204E+04  0.00000000000E+00 0.  1.
        -24    2    1    2    0    0  0.44646540156E+03  0.41116364510E+03 -0.48194704598E+03  0.77901801077E+03  0.78798528707E+02 0.  0.
    5000000    2    1    2    0    0 -0.44646540156E+03 -0.41116364510E+03 -0.23308664405E+03  0.88484374002E+03  0.60019343779E+03 0.  0.
        -24    2    4    4    0    0 -0.49516900082E+03 -0.37565369884E+03 -0.36032681826E+03  0.72305704436E+03  0.81658022337E+02 0.  0.
         24    2    4    4    0    0  0.48703599255E+02 -0.35509946256E+02  0.12724017420E+03  0.16178669566E+03  0.79698658068E+02 0.  0.
         11    1    5    5    0    0 -0.38866627620E+03 -0.32028339938E+03 -0.31875164700E+03  0.59602478358E+03  0.00000000000E+00 0. -1.
        -12    1    5    5    0    0 -0.10650272461E+03 -0.55370299464E+02 -0.41575171259E+02  0.12703226078E+03  0.00000000000E+00 0.  1.
         15    1    3    3    0    0  0.14439152638E+03  0.14146512977E+03 -0.20837520484E+03  0.29031823841E+03  0.17770000000E+01 0. -1.
        -16    1    3    3    0    0  0.30207387518E+03  0.26969851533E+03 -0.27357184114E+03  0.48869977236E+03  0.00000000000E+00 0.  1.
          2    1    6    6  502    0  0.64395425353E+02 -0.30114315059E+02  0.61546879484E+02  0.94030107689E+02  0.00000000000E+00 0. -1.
         -1    1    6    6    0  502 -0.15691826098E+02 -0.53956311973E+01  0.65693294721E+02  0.67756587972E+02  0.00000000000E+00 0.  1.
<mgrwt>
<rscale>  0 0.65922493E+03</rscale>
<asrwt>0</asrwt>
<pdfrwt beam="1">  1        1 0.72986776E-01 0.65922493E+03</pdfrwt>
<pdfrwt beam="2">  1       -2 0.18299195E+00 0.65922493E+03</pdfrwt>
<totfact> 0.74492979E+00</totfact>
</mgrwt>
</event>
<event>
12    3  0.1092576E-007  0.9768280E+03  0.7818608E-02  0.9334331E-01
         -2   -1    0    0    0  501 -0.00000000000E+00  0.00000000000E+00  0.11234612323E+04  0.11234612323E+04  0.00000000000E+00 0.  1.
          1   -1    0    0  501    0  0.00000000000E+00 -0.00000000000E+00 -0.10735183363E+04  0.10735183363E+04  0.00000000000E+00 0. -1.
        -24    2    1    2    0    0  0.89949507429E+03 -0.24228019872E+03  0.42520685790E+03  0.10271340711E+04  0.80077741073E+02 0.  0.
    5000000    2    1    2    0    0 -0.89949507429E+03  0.24228019872E+03 -0.37526396190E+03  0.11698454974E+04  0.59993696617E+03 0.  0.
        -24    2    4    4    0    0 -0.91046762362E+03  0.29638639841E+03 -0.42874409407E+03  0.10522668641E+04  0.81534436008E+02 0.  0.
         24    2    4    4    0    0  0.10972549324E+02 -0.54106199691E+02  0.53480132168E+02  0.11757863333E+03  0.88976023708E+02 0.  0.
         13    1    5    5    0    0 -0.15795477651E+03  0.84675948290E+02 -0.77807845041E+02  0.19538113622E+03  0.00000000000E+00 0. -1.
        -14    1    5    5    0    0 -0.75251284711E+03  0.21171045012E+03 -0.35093624902E+03  0.85688572788E+03  0.00000000000E+00 0.  1.
         15    1    3    3    0    0  0.26288537650E+03 -0.37472238949E+02  0.10311291593E+03  0.28486544373E+03  0.17770000000E+01 0. -1.
        -16    1    3    3    0    0  0.63660969779E+03 -0.20480795977E+03  0.32209394197E+03  0.74226862736E+03  0.00000000000E+00 0.  1.
          2    1    6    6  502    0 -0.29771039094E+01 -0.32897531300E+02 -0.20830666027E+02  0.39051598692E+02  0.00000000000E+00 0. -1.
         -1    1    6    6    0  502  0.13949653234E+02 -0.21208668392E+02  0.74310798195E+02  0.78527034636E+02  0.00000000000E+00 0.  1.
<mgrwt>
<rscale>  0 0.97682799E+03</rscale>
<asrwt>0</asrwt>
<pdfrwt beam="1">  1        1 0.16515667E+00 0.97682799E+03</pdfrwt>
<pdfrwt beam="2">  1       -2 0.17284019E+00 0.97682799E+03</pdfrwt>
<totfact> 0.23657422E+00</totfact>
</mgrwt>
</event>
<event>
12    3  0.1092576E-007  0.9550743E+03  0.7818608E-02  0.9359239E-01
         -2   -1    0    0    0  501 -0.00000000000E+00  0.00000000000E+00  0.10885335531E+04  0.10885335531E+04  0.00000000000E+00 0.  1.
          1   -1    0    0  501    0  0.00000000000E+00 -0.00000000000E+00 -0.13747582960E+04  0.13747582960E+04  0.00000000000E+00 0. -1.
        -24    2    1    2    0    0  0.92997496310E+03 -0.16849749271E+03  0.52214737037E+03  0.10825947341E+04  0.78285661497E+02 0.  0.
    5000000    2    1    2    0    0 -0.92997496310E+03  0.16849749271E+03 -0.80837211325E+03  0.13806971151E+04  0.59967842475E+03 0.  0.
        -24    2    4    4    0    0 -0.50056681929E+03  0.26342619712E+02 -0.71842416047E+02  0.51272945209E+03  0.80430616720E+02 0.  0.
         24    2    4    4    0    0 -0.42940814381E+03  0.14215487300E+03 -0.73652969720E+03  0.86796766301E+03  0.79325325607E+02 0.  0.
         11    1    5    5    0    0 -0.12101913194E+03 -0.20623536935E+02 -0.39318081358E+02  0.12890644706E+03  0.00000000000E+00 0. -1.
        -12    1    5    5    0    0 -0.37954768734E+03  0.46966156647E+02 -0.32524334689E+02  0.38382300502E+03  0.00000000000E+00 0.  1.
         15    1    3    3    0    0  0.56431241469E+03 -0.13815169164E+03  0.30366573436E+03  0.65555352735E+03  0.17770000000E+01 0. -1.
        -16    1    3    3    0    0  0.36566254841E+03 -0.30345801073E+02  0.21848163602E+03  0.42704120671E+03  0.00000000000E+00 0.  1.
          4    1    6    6  502    0 -0.84464903654E+02  0.56513688787E+02 -0.20097090231E+03  0.22520528534E+03  0.00000000000E+00 0. -1.
         -3    1    6    6    0  502 -0.34494324015E+03  0.85641184214E+02 -0.53555879489E+03  0.64276237767E+03  0.00000000000E+00 0.  1.
<mgrwt>
<rscale>  0 0.95507434E+03</rscale>
<asrwt>0</asrwt>
<pdfrwt beam="1">  1        1 0.21150128E+00 0.95507434E+03</pdfrwt>
<pdfrwt beam="2">  1       -2 0.16746670E+00 0.95507434E+03</pdfrwt>
<totfact> 0.15647920E+00</totfact>
</mgrwt>
</event>
<event>
12    3  0.1092576E-007  0.1610375E+04  0.7818608E-02  0.8814199E-01
          1   -1    0    0  501    0  0.00000000000E+00  0.00000000000E+00  0.25935300093E+04  0.25935300093E+04  0.00000000000E+00 0. -1.
         -2   -1    0    0    0  501 -0.00000000000E+00 -0.00000000000E+00 -0.19848354930E+04  0.19848354930E+04  0.00000000000E+00 0.  1.
        -24    2    1    2    0    0 -0.14604414266E+04  0.63451029890E+03 -0.12738863839E+04  0.20407819894E+04  0.80697764323E+02 0.  0.
    5000000    2    1    2    0    0  0.14604414266E+04 -0.63451029890E+03  0.18825809002E+04  0.25375835129E+04  0.59977225631E+03 0.  0.
        -24    2    4    4    0    0  0.13467789232E+04 -0.64990031949E+03  0.14559759646E+04  0.20886640428E+04  0.80421269767E+02 0.  0.
         24    2    4    4    0    0  0.11366250336E+03  0.15390020584E+02  0.42660493554E+03  0.44891947016E+03  0.79880549924E+02 0.  0.
         13    1    5    5    0    0  0.92948792933E+03 -0.48574956835E+03  0.99846812416E+03  0.14480466322E+04  0.00000000000E+00 0. -1.
        -14    1    5    5    0    0  0.41729099387E+03 -0.16415075114E+03  0.45750784049E+03  0.64061741060E+03  0.00000000000E+00 0.  1.
         15    1    3    3    0    0 -0.17391462393E+03  0.96689509548E+02 -0.18302669906E+03  0.27036473137E+03  0.17770000000E+01 0. -1.
        -16    1    3    3    0    0 -0.12865268026E+04  0.53782078935E+03 -0.10908596849E+04  0.17704172580E+04  0.00000000000E+00 0.  1.
          2    1    6    6  502    0 -0.76698786033E+01 -0.96993539099E+00  0.97055105171E+02  0.97362524886E+02  0.00000000000E+00 0. -1.
         -1    1    6    6    0  502  0.12133238197E+03  0.16359955975E+02  0.32954983037E+03  0.35155694527E+03  0.00000000000E+00 0.  1.
<mgrwt>
<rscale>  0 0.16103753E+04</rscale>
<asrwt>0</asrwt>
<pdfrwt beam="1">  1        1 0.39900462E+00 0.16103753E+04</pdfrwt>
<pdfrwt beam="2">  1       -2 0.30535931E+00 0.16103753E+04</pdfrwt>
<totfact> 0.27926464E-02</totfact>
</mgrwt>
</event>
<event>
12    3  0.1092576E-007  0.7351197E+03  0.7818608E-02  0.9658989E-01
         -2   -1    0    0    0  501 -0.00000000000E+00  0.00000000000E+00  0.44231311293E+03  0.44231311293E+03  0.00000000000E+00 0.  1.
          1   -1    0    0  501    0  0.00000000000E+00 -0.00000000000E+00 -0.16442697947E+04  0.16442697947E+04  0.00000000000E+00 0. -1.
        -24    2    1    2    0    0 -0.57220094837E+03 -0.43893694007E+03 -0.75614865517E+03  0.10480012068E+04  0.80412548557E+02 0.  0.
    5000000    2    1    2    0    0  0.57220094837E+03  0.43893694007E+03 -0.44580802656E+03  0.10385817008E+04  0.59985630788E+03 0.  0.
        -24    2    4    4    0    0  0.65295314490E+02  0.13288767450E+03 -0.40607374860E+03  0.43988334619E+03  0.81724273154E+02 0.  0.
         24    2    4    4    0    0  0.50690563388E+03  0.30604926557E+03 -0.39734277958E+02  0.59869835465E+03  0.79002736677E+02 0.  0.
         13    1    5    5    0    0  0.64558746531E+02  0.11922377910E+03 -0.26052453200E+03  0.29369231013E+03  0.00000000000E+00 0. -1.
        -14    1    5    5    0    0  0.73656795854E+00  0.13663895397E+02 -0.14554921660E+03  0.14619103606E+03  0.00000000000E+00 0.  1.
         15    1    3    3    0    0 -0.30584318316E+03 -0.27233025337E+03 -0.38964180664E+03  0.56526782573E+03  0.17770000000E+01 0. -1.
        -16    1    3    3    0    0 -0.26635776521E+03 -0.16660668669E+03 -0.36650684853E+03  0.48273338103E+03  0.00000000000E+00 0.  1.
          2    1    6    6  502    0  0.19626009706E+03  0.74872681981E+02 -0.19108435109E+02  0.21092433832E+03  0.00000000000E+00 0. -1.
         -1    1    6    6    0  502  0.31064553682E+03  0.23117658359E+03 -0.20625842849E+02  0.38777401633E+03  0.00000000000E+00 0.  1.
<mgrwt>
<rscale>  0 0.73511966E+03</rscale>
<asrwt>0</asrwt>
<pdfrwt beam="1">  1        1 0.25296458E+00 0.73511966E+03</pdfrwt>
<pdfrwt beam="2">  1       -2 0.68048172E-01 0.73511966E+03</pdfrwt>
<totfact> 0.93644641E+00</totfact>
</mgrwt>
</event>
<event>
12    3  0.1092576E-007  0.7369410E+03  0.7818608E-02  0.9656063E-01
         -2   -1    0    0    0  501 -0.00000000000E+00  0.00000000000E+00  0.46490476564E+03  0.46490476564E+03  0.00000000000E+00 0.  1.
          1   -1    0    0  501    0  0.00000000000E+00 -0.00000000000E+00 -0.12451939102E+04  0.12451939102E+04  0.00000000000E+00 0. -1.
        -24    2    1    2    0    0 -0.31534809591E+03 -0.54369156599E+03 -0.46570859722E+03  0.78598334500E+03  0.76422382684E+02 0.  0.
    5000000    2    1    2    0    0  0.31534809591E+03  0.54369156599E+03 -0.31458054738E+03  0.92411533089E+03  0.59998606940E+03 0.  0.
        -24    2    4    4    0    0 -0.62885870050E+01 -0.10122507389E+03 -0.11201624212E+03  0.17099065703E+03  0.80025648273E+02 0.  0.
         24    2    4    4    0    0  0.32163668291E+03  0.64491663987E+03 -0.20256430526E+03  0.75312467386E+03  0.82443001122E+02 0.  0.
         13    1    5    5    0    0 -0.37893793335E+02 -0.60575891480E+02 -0.38292314813E+02  0.81065896501E+02  0.00000000000E+00 0. -1.
        -14    1    5    5    0    0  0.31605206330E+02 -0.40649182406E+02 -0.73723927312E+02  0.89924760526E+02  0.00000000000E+00 0.  1.
         15    1    3    3    0    0 -0.27685707129E+03 -0.48010859377E+03 -0.43894166601E+03  0.70698447198E+03  0.17770000000E+01 0. -1.
        -16    1    3    3    0    0 -0.38491024613E+02 -0.63582972213E+02 -0.26766931214E+02  0.78998873017E+02  0.00000000000E+00 0.  1.
          2    1    6    6  502    0  0.23203394390E+03  0.41212011830E+03 -0.16477789152E+03  0.50083380134E+03  0.00000000000E+00 0. -1.
         -1    1    6    6    0  502  0.89602739015E+02  0.23279652157E+03 -0.37786413733E+02  0.25229087252E+03  0.00000000000E+00 0.  1.
<mgrwt>
<rscale>  0 0.73694105E+03</rscale>
<asrwt>0</asrwt>
<pdfrwt beam="1">  1        1 0.19156829E+00 0.73694105E+03</pdfrwt>
<pdfrwt beam="2">  1       -2 0.71523810E-01 0.73694105E+03</pdfrwt>
<totfact> 0.15852075E+01</totfact>
</mgrwt>
</event>
<event>
12    3  0.1092576E-007  0.1374755E+04  0.7818608E-02  0.8972298E-01
         -2   -1    0    0    0  501 -0.00000000000E+00  0.00000000000E+00  0.21807585014E+04  0.21807585014E+04  0.00000000000E+00 0.  1.
          1   -1    0    0  501    0  0.00000000000E+00 -0.00000000000E+00 -0.93298831447E+03  0.93298831447E+03  0.00000000000E+00 0. -1.
        -24    2    1    2    0    0 -0.13244218421E+04  0.91911070480E+02  0.92947719764E+03  0.16225182309E+04  0.78081289190E+02 0.  0.
    5000000    2    1    2    0    0  0.13244218421E+04 -0.91911070480E+02  0.31829298933E+03  0.14912285851E+04  0.59992616631E+03 0.  0.
        -24    2    4    4    0    0 -0.86388257582E+01 -0.34641947884E+02  0.10880148317E+03  0.13799851396E+03  0.77013851030E+02 0.  0.
         24    2    4    4    0    0  0.13330606679E+04 -0.57269122596E+02  0.20949150616E+03  0.13532300711E+04  0.83752238668E+02 0.  0.
         11    1    5    5    0    0  0.19333051914E+02 -0.49511779043E+02  0.65728394717E+02  0.84530497647E+02  0.00000000000E+00 0. -1.
        -12    1    5    5    0    0 -0.27971877672E+02  0.14869831160E+02  0.43073088456E+02  0.53468016312E+02  0.00000000000E+00 0.  1.
         15    1    3    3    0    0 -0.83383643566E+03  0.41559681747E+02  0.54247181257E+03  0.99563509065E+03  0.17770000000E+01 0. -1.
        -16    1    3    3    0    0 -0.49058540647E+03  0.50351388732E+02  0.38700538507E+03  0.62688314020E+03  0.00000000000E+00 0.  1.
          2    1    6    6  502    0  0.12916344555E+04 -0.69338872213E+02  0.19784652501E+03  0.13085376163E+04  0.00000000000E+00 0. -1.
         -1    1    6    6    0  502  0.41426212379E+02  0.12069749617E+02  0.11644981146E+02  0.44692454774E+02  0.00000000000E+00 0.  1.
<mgrwt>
<rscale>  0 0.13747550E+04</rscale>
<asrwt>0</asrwt>
<pdfrwt beam="1">  1        1 0.14353666E+00 0.13747550E+04</pdfrwt>
<pdfrwt beam="2">  1       -2 0.33550131E+00 0.13747550E+04</pdfrwt>
<totfact> 0.27733531E-01</totfact>
</mgrwt>
</event>
<event>
12    3  0.1092576E-007  0.5278075E+03  0.7818608E-02  0.1006765E+00
         -2   -1    0    0    0  501 -0.00000000000E+00  0.00000000000E+00  0.26349379384E+03  0.26349379384E+03  0.00000000000E+00 0.  1.
          1   -1    0    0  501    0  0.00000000000E+00 -0.00000000000E+00 -0.32832705861E+04  0.32832705861E+04  0.00000000000E+00 0. -1.
        -24    2    1    2    0    0  0.45206442713E+03 -0.17172953603E+03 -0.66595249003E+02  0.49465579737E+03  0.79975939231E+02 0.  0.
    5000000    2    1    2    0    0 -0.45206442713E+03  0.17172953603E+03 -0.29531815433E+04  0.30521085826E+04  0.60019354592E+03 0.  0.
        -24    2    4    4    0    0 -0.27103465775E+03 -0.44179635061E+02 -0.24749333792E+04  0.24914041602E+04  0.79923914884E+02 0.  0.
         24    2    4    4    0    0 -0.18102976938E+03  0.21590917109E+03 -0.47824816407E+03  0.56070442238E+03  0.79243897404E+02 0.  0.
         11    1    5    5    0    0 -0.17986959459E+03 -0.64648609447E+02 -0.17752583660E+04  0.17855180704E+04  0.00000000000E+00 0. -1.
        -12    1    5    5    0    0 -0.91165063165E+02  0.20468974386E+02 -0.69967501324E+03  0.70588608983E+03  0.00000000000E+00 0.  1.
         15    1    3    3    0    0  0.33950112005E+03 -0.13761537091E+03 -0.83762826860E+02  0.37579032680E+03  0.17770000000E+01 0. -1.
        -16    1    3    3    0    0  0.11256330708E+03 -0.34114165118E+02  0.17167577856E+02  0.11886547056E+03  0.00000000000E+00 0.  1.
          4    1    6    6  502    0 -0.12360616231E+03  0.18321419989E+03 -0.31696957279E+03  0.38641381507E+03  0.00000000000E+00 0. -1.
         -3    1    6    6    0  502 -0.57423607077E+02  0.32694971199E+02 -0.16127859128E+03  0.17429060731E+03  0.00000000000E+00 0.  1.
<mgrwt>
<rscale>  0 0.52780749E+03</rscale>
<asrwt>0</asrwt>
<pdfrwt beam="1">  1        1 0.50511856E+00 0.52780749E+03</pdfrwt>
<pdfrwt beam="2">  1       -2 0.40537506E-01 0.52780749E+03</pdfrwt>
<totfact> 0.21149387E+00</totfact>
</mgrwt>
</event>
<event>
12    3  0.1092576E-007  0.8991686E+03  0.7818608E-02  0.9426621E-01
          1   -1    0    0  501    0  0.00000000000E+00  0.00000000000E+00  0.13694686053E+04  0.13694686053E+04  0.00000000000E+00 0. -1.
         -2   -1    0    0    0  501 -0.00000000000E+00 -0.00000000000E+00 -0.60578735939E+03  0.60578735939E+03  0.00000000000E+00 0.  1.
        -24    2    1    2    0    0 -0.27006036666E+03  0.75780494898E+03  0.23796855314E+03  0.84225507216E+03  0.74589757749E+02 0.  0.
    5000000    2    1    2    0    0  0.27006036666E+03 -0.75780494898E+03  0.52571269277E+03  0.11330008925E+04  0.60009686284E+03 0.  0.
        -24    2    4    4    0    0 -0.16573514110E+03 -0.33256754230E+03  0.13064466936E+03  0.40231235476E+03  0.81962759688E+02 0.  0.
         24    2    4    4    0    0  0.43579550776E+03 -0.42523740668E+03  0.39506802341E+03  0.73068853776E+03  0.84157111865E+02 0.  0.
         11    1    5    5    0    0 -0.94322216207E+02 -0.24730957750E+03  0.62789411507E+02  0.27203164851E+03  0.00000000000E+00 0. -1.
        -12    1    5    5    0    0 -0.71412924892E+02 -0.85257964799E+02  0.67855257849E+02  0.13028070625E+03  0.00000000000E+00 0.  1.
         15    1    3    3    0    0 -0.17068687946E+03  0.36926783932E+03  0.12586007681E+03  0.42583642944E+03  0.17770000000E+01 0. -1.
        -16    1    3    3    0    0 -0.99373487207E+02  0.38853710966E+03  0.11210847633E+03  0.41641864272E+03  0.00000000000E+00 0.  1.
          4    1    6    6  502    0  0.18867228258E+03 -0.12781786751E+03  0.15274011552E+03  0.27434317990E+03  0.00000000000E+00 0. -1.
         -3    1    6    6    0  502  0.24712322519E+03 -0.29741953917E+03  0.24232790789E+03  0.45634535787E+03  0.00000000000E+00 0.  1.
<mgrwt>
<rscale>  0 0.89916857E+03</rscale>
<asrwt>0</asrwt>
<pdfrwt beam="1">  1        1 0.21068748E+00 0.89916857E+03</pdfrwt>
<pdfrwt beam="2">  1       -2 0.93198056E-01 0.89916857E+03</pdfrwt>
<totfact> 0.69809343E+00</totfact>
</mgrwt>
</event>
<event>
12    3  0.1092576E-007  0.6357260E+03  0.7818608E-02  0.9833938E-01
         -2   -1    0    0    0  501 -0.00000000000E+00  0.00000000000E+00  0.27380487915E+03  0.27380487915E+03  0.00000000000E+00 0.  1.
          1   -1    0    0  501    0  0.00000000000E+00 -0.00000000000E+00 -0.24392246331E+04  0.24392246331E+04  0.00000000000E+00 0. -1.
        -24    2    1    2    0    0  0.46174683964E+03 -0.25635633433E+03 -0.17132437755E+04  0.17946757872E+04  0.82025806414E+02 0.  0.
    5000000    2    1    2    0    0 -0.46174683964E+03  0.25635633433E+03 -0.45217597845E+03  0.91835372503E+03  0.59998477873E+03 0.  0.
        -24    2    4    4    0    0 -0.67529508434E+02  0.32459448191E+03 -0.36877628415E+03  0.50221037799E+03  0.79356813256E+02 0.  0.
         24    2    4    4    0    0 -0.39421733121E+03 -0.68238147579E+02 -0.83399694299E+02  0.41614334704E+03  0.78460354736E+02 0.  0.
         11    1    5    5    0    0 -0.66898362274E+02  0.17995747746E+03 -0.24896406067E+03  0.31439336518E+03  0.00000000000E+00 0. -1.
        -12    1    5    5    0    0 -0.63114616028E+00  0.14463700445E+03 -0.11981222349E+03  0.18781701280E+03  0.00000000000E+00 0.  1.
         15    1    3    3    0    0  0.11733508526E+03 -0.65710234015E+02 -0.56647811107E+03  0.58222501246E+03  0.17770000000E+01 0. -1.
        -16    1    3    3    0    0  0.34441175439E+03 -0.19064610031E+03 -0.11467656644E+04  0.12124507747E+04  0.00000000000E+00 0.  1.
          4    1    6    6  502    0 -0.19602480826E+03 -0.70930539375E+02 -0.57498257177E+02  0.21624735015E+03  0.00000000000E+00 0. -1.
         -3    1    6    6    0  502 -0.19819252295E+03  0.26923917958E+01 -0.25901437122E+02  0.19989599689E+03  0.00000000000E+00 0.  1.
<mgrwt>
<rscale>  0 0.63572604E+03</rscale>
<asrwt>0</asrwt>
<pdfrwt beam="1">  1        1 0.37526532E+00 0.63572604E+03</pdfrwt>
<pdfrwt beam="2">  1       -2 0.42123829E-01 0.63572604E+03</pdfrwt>
<totfact> 0.75098371E+00</totfact>
</mgrwt>
</event>
<event>
12    3  0.1092576E-007  0.7831212E+03  0.7818608E-02  0.9584775E-01
          1   -1    0    0  501    0  0.00000000000E+00  0.00000000000E+00  0.52758643065E+03  0.52758643065E+03  0.00000000000E+00 0. -1.
         -2   -1    0    0    0  501 -0.00000000000E+00 -0.00000000000E+00 -0.12381881190E+04  0.12381881190E+04  0.00000000000E+00 0.  1.
        -24    2    1    2    0    0  0.53174890435E+03  0.42293929828E+03 -0.15136384963E+03  0.70067496452E+03  0.79999022617E+02 0.  0.
    5000000    2    1    2    0    0 -0.53174890435E+03 -0.42293929828E+03 -0.55923783871E+03  0.10650995851E+04  0.60004634711E+03 0.  0.
        -24    2    4    4    0    0 -0.41469759690E+03  0.14719601256E+02 -0.38951486643E+03  0.57472791675E+03  0.79997397359E+02 0.  0.
         24    2    4    4    0    0 -0.11705130745E+03 -0.43765889954E+03 -0.16972297227E+03  0.49037166837E+03  0.80075994555E+02 0.  0.
         13    1    5    5    0    0 -0.63929418416E+02  0.31044798665E+02 -0.56638644447E+02  0.90877313494E+02  0.00000000000E+00 0. -1.
        -14    1    5    5    0    0 -0.35076817848E+03 -0.16325197409E+02 -0.33287622199E+03  0.48385060325E+03  0.00000000000E+00 0.  1.
         15    1    3    3    0    0  0.77637548728E+02  0.29321675846E+02 -0.13414925563E+02  0.84086072591E+02  0.17770000000E+01 0. -1.
        -16    1    3    3    0    0  0.45411135562E+03  0.39361762244E+03 -0.13794892406E+03  0.61658889193E+03  0.00000000000E+00 0.  1.
          2    1    6    6  502    0 -0.43260987640E+02 -0.53141845484E+02 -0.24390999353E+02  0.72735752161E+02  0.00000000000E+00 0. -1.
         -1    1    6    6    0  502 -0.73790319811E+02 -0.38451705406E+03 -0.14533197292E+03  0.41763591621E+03  0.00000000000E+00 0.  1.
<mgrwt>
<rscale>  0 0.78312118E+03</rscale>
<asrwt>0</asrwt>
<pdfrwt beam="1">  1        1 0.81167144E-01 0.78312118E+03</pdfrwt>
<pdfrwt beam="2">  1       -2 0.19049048E+00 0.78312118E+03</pdfrwt>
<totfact> 0.56489068E+00</totfact>
</mgrwt>
</event>
<event>
12    3  0.1092576E-007  0.4764598E+03  0.7818608E-02  0.1020113E+00
         -2   -1    0    0    0  501 -0.00000000000E+00  0.00000000000E+00  0.12170339248E+04  0.12170339248E+04  0.00000000000E+00 0.  1.
          1   -1    0    0  501    0  0.00000000000E+00 -0.00000000000E+00 -0.30319416904E+03  0.30319416904E+03  0.00000000000E+00 0. -1.
        -24    2    1    2    0    0 -0.41148653955E+03 -0.30203728110E+00  0.59167475843E+03  0.72456344969E+03  0.74779070650E+02 0.  0.
    5000000    2    1    2    0    0  0.41148653955E+03  0.30203728110E+00  0.32216499732E+03  0.79566464413E+03  0.59997556364E+03 0.  0.
        -24    2    4    4    0    0  0.38009042119E+01 -0.10332149414E+03 -0.12127816808E+03  0.17888802338E+03  0.81257324792E+02 0.  0.
         24    2    4    4    0    0  0.40768563534E+03  0.10362353142E+03  0.44344316540E+03  0.61677662074E+03  0.82620490388E+02 0.  0.
         13    1    5    5    0    0  0.22642840236E+02 -0.90594503058E+02 -0.53997945071E+02  0.10786955210E+03  0.00000000000E+00 0. -1.
        -14    1    5    5    0    0 -0.18841936024E+02 -0.12726991085E+02 -0.67280223011E+02  0.71018471285E+02  0.00000000000E+00 0.  1.
         15    1    3    3    0    0 -0.23234623913E+03 -0.10498055956E+02  0.27120825531E+03  0.35728428386E+03  0.17770000000E+01 0. -1.
        -16    1    3    3    0    0 -0.17914030042E+03  0.10196018675E+02  0.32046650311E+03  0.36727916582E+03  0.00000000000E+00 0.  1.
          2    1    6    6  502    0  0.28630917136E+03  0.10026422280E+03  0.35256891779E+03  0.46511363963E+03  0.00000000000E+00 0. -1.
         -1    1    6    6    0  502  0.12137646397E+03  0.33593086240E+01  0.90874247609E+02  0.15166298111E+03  0.00000000000E+00 0.  1.
<mgrwt>
<rscale>  0 0.47645984E+03</rscale>
<asrwt>0</asrwt>
<pdfrwt beam="1">  1        1 0.46645257E-01 0.47645984E+03</pdfrwt>
<pdfrwt beam="2">  1       -2 0.18723599E+00 0.47645984E+03</pdfrwt>
<totfact> 0.12867613E+01</totfact>
</mgrwt>
</event>
<event>
12    3  0.1278161E-007  0.5217843E+03  0.7818608E-02  0.1008244E+00
          1   -1    0    0  501    0  0.00000000000E+00  0.00000000000E+00  0.16621140628E+04  0.16621140628E+04  0.00000000000E+00 0. -1.
         -2   -1    0    0    0  501 -0.00000000000E+00 -0.00000000000E+00 -0.34127442127E+03  0.34127442127E+03  0.00000000000E+00 0.  1.
        -24    2    1    2    0    0 -0.34927170631E+03  0.32888564102E+03  0.11029469972E+04  0.12049214187E+04  0.72021224905E+02 0.  0.
    5000000    2    1    2    0    0  0.34927170631E+03 -0.32888564102E+03  0.21789264434E+03  0.79846706541E+03  0.59992996291E+03 0.  0.
        -24    2    4    4    0    0  0.18763350347E+03 -0.34249386493E+03 -0.11908020510E+03  0.41613106883E+03  0.80477276673E+02 0.  0.
         24    2    4    4    0    0  0.16163820283E+03  0.13608223911E+02  0.33697284945E+03  0.38233599658E+03  0.79485977658E+02 0.  0.
         13    1    5    5    0    0  0.16903076579E+03 -0.25348548068E+03 -0.11314940448E+03  0.32500627138E+03  0.00000000000E+00 0. -1.
        -14    1    5    5    0    0  0.18602737687E+02 -0.89008384244E+02 -0.59308006225E+01  0.91124797455E+02  0.00000000000E+00 0.  1.
         15    1    3    3    0    0 -0.15262008174E+03  0.10778406379E+03  0.37016741012E+03  0.41465330458E+03  0.17770000000E+01 0. -1.
        -16    1    3    3    0    0 -0.19665162457E+03  0.22110157723E+03  0.73277958711E+03  0.79026811411E+03  0.00000000000E+00 0.  1.
          2    1    6    6  502    0  0.13378141786E+03 -0.93637221563E+00  0.19211024826E+03  0.23410401971E+03  0.00000000000E+00 0. -1.
         -1    1    6    6    0  502  0.27856784979E+02  0.14544596127E+02  0.14486260118E+03  0.14823197687E+03  0.00000000000E+00 0.  1.
<mgrwt>
<rscale>  0 0.52178432E+03</rscale>
<asrwt>0</asrwt>
<pdfrwt beam="1">  1        1 0.25570985E+00 0.52178432E+03</pdfrwt>
<pdfrwt beam="2">  1       -2 0.52503758E-01 0.52178432E+03</pdfrwt>
<totfact> 0.16285437E+01</totfact>
</mgrwt>
</event>
<event>
12    3  0.1092576E-007  0.6646083E+03  0.7818608E-02  0.9779747E-01
         -2   -1    0    0    0  501 -0.00000000000E+00  0.00000000000E+00  0.45395689800E+03  0.45395689800E+03  0.00000000000E+00 0.  1.
          1   -1    0    0  501    0  0.00000000000E+00 -0.00000000000E+00 -0.13532719219E+04  0.13532719219E+04  0.00000000000E+00 0. -1.
        -24    2    1    2    0    0  0.37619315045E+03  0.47557694138E+03 -0.70325030385E+03  0.93197557896E+03  0.79515887042E+02 0.  0.
    5000000    2    1    2    0    0 -0.37619315045E+03 -0.47557694138E+03 -0.19606472004E+03  0.87525324092E+03  0.59994345374E+03 0.  0.
        -24    2    4    4    0    0 -0.28408331891E+03 -0.73210410168E+02 -0.31561270901E+03  0.43755752897E+03  0.76040205378E+02 0.  0.
         24    2    4    4    0    0 -0.92109831544E+02 -0.40236653121E+03  0.11954798897E+03  0.43769571195E+03  0.83082898896E+02 0.  0.
         11    1    5    5    0    0 -0.11751668001E+03 -0.67569763329E+02 -0.15784751461E+03  0.20806652990E+03  0.00000000000E+00 0. -1.
        -12    1    5    5    0    0 -0.16656663890E+03 -0.56406468393E+01 -0.15776519440E+03  0.22949099907E+03  0.00000000000E+00 0.  1.
         15    1    3    3    0    0  0.11796092935E+03  0.14552262565E+03 -0.16359313765E+03  0.24871165602E+03  0.17770000000E+01 0. -1.
        -16    1    3    3    0    0  0.25823222110E+03  0.33005431573E+03 -0.53965716621E+03  0.68326392294E+03  0.00000000000E+00 0.  1.
          4    1    6    6  502    0 -0.35316283076E+02 -0.31108656182E+03  0.79977875972E+02  0.32313859170E+03  0.00000000000E+00 0. -1.
         -3    1    6    6    0  502 -0.56793548468E+02 -0.91279969386E+02  0.39570113002E+02  0.11455712026E+03  0.00000000000E+00 0.  1.
<mgrwt>
<rscale>  0 0.66460825E+03</rscale>
<asrwt>0</asrwt>
<pdfrwt beam="1">  1        1 0.20819568E+00 0.66460825E+03</pdfrwt>
<pdfrwt beam="2">  1       -2 0.69839521E-01 0.66460825E+03</pdfrwt>
<totfact> 0.14141013E+01</totfact>
</mgrwt>
</event>
<event>
12    3  0.1092576E-007  0.8438257E+03  0.7818608E-02  0.9498662E-01
          1   -1    0    0  501    0  0.00000000000E+00  0.00000000000E+00  0.14230523596E+04  0.14230523596E+04  0.00000000000E+00 0. -1.
         -2   -1    0    0    0  501 -0.00000000000E+00 -0.00000000000E+00 -0.55447075062E+03  0.55447075062E+03  0.00000000000E+00 0.  1.
        -24    2    1    2    0    0 -0.63450824707E+03  0.39230535845E+03  0.65753227128E+03  0.99724901177E+03  0.75184398907E+02 0.  0.
    5000000    2    1    2    0    0  0.63450824707E+03 -0.39230535845E+03  0.21104933770E+03  0.98027409846E+03  0.59990938924E+03 0.  0.
        -24    2    4    4    0    0  0.71147597123E+03 -0.42652254182E+03  0.14532608590E+03  0.84607799622E+03  0.81294330183E+02 0.  0.
         24    2    4    4    0    0 -0.76967724160E+02  0.34217183372E+02  0.65723251799E+02  0.13419610224E+03  0.81204690932E+02 0.  0.
         11    1    5    5    0    0  0.23849408338E+03 -0.11021414918E+03  0.20371682654E+02  0.26351772605E+03  0.00000000000E+00 0. -1.
        -12    1    5    5    0    0  0.47298188785E+03 -0.31630839264E+03  0.12495440325E+03  0.58256027017E+03  0.00000000000E+00 0.  1.
         15    1    3    3    0    0 -0.74573463311E+02  0.76725278295E+02  0.91380838159E+02  0.14071810499E+03  0.17770000000E+01 0. -1.
        -16    1    3    3    0    0 -0.55993478376E+03  0.31558008016E+03  0.56615143312E+03  0.85653090678E+03  0.00000000000E+00 0.  1.
          2    1    6    6  502    0  0.81698753164E+01  0.17628596140E+02  0.38770014528E+02  0.43366211399E+02  0.00000000000E+00 0. -1.
         -1    1    6    6    0  502 -0.85137599477E+02  0.16588587232E+02  0.26953237270E+02  0.90829890842E+02  0.00000000000E+00 0.  1.
<mgrwt>
<rscale>  0 0.84382571E+03</rscale>
<asrwt>0</asrwt>
<pdfrwt beam="1">  1        1 0.21893113E+00 0.84382571E+03</pdfrwt>
<pdfrwt beam="2">  1       -2 0.85303193E-01 0.84382571E+03</pdfrwt>
<totfact> 0.79076313E+00</totfact>
</mgrwt>
</event>
<event>
12    3  0.1092576E-007  0.8834001E+03  0.7818608E-02  0.9446573E-01
          1   -1    0    0  501    0  0.00000000000E+00  0.00000000000E+00  0.17250020528E+04  0.17250020528E+04  0.00000000000E+00 0. -1.
         -2   -1    0    0    0  501 -0.00000000000E+00 -0.00000000000E+00 -0.65246323282E+03  0.65246323282E+03  0.00000000000E+00 0.  1.
        -24    2    1    2    0    0 -0.74434501076E+03 -0.46086388232E+03  0.97314840523E+03  0.13114833910E+04  0.80782752906E+02 0.  0.
    5000000    2    1    2    0    0  0.74434501076E+03  0.46086388232E+03  0.99390414773E+02  0.10659818947E+04  0.59999494341E+03 0.  0.
        -24    2    4    4    0    0  0.52735600186E+03  0.29719920927E+03 -0.20625858451E+03  0.64439751989E+03  0.79207558174E+02 0.  0.
         24    2    4    4    0    0  0.21698900891E+03  0.16366467305E+03  0.30564899928E+03  0.42158437477E+03  0.10218473026E+03 0.  0.
         11    1    5    5    0    0  0.29752989280E+03  0.21154274530E+03 -0.11614764438E+03  0.38309874118E+03  0.00000000000E+00 0. -1.
        -12    1    5    5    0    0  0.22982610905E+03  0.85656463963E+02 -0.90110940127E+02  0.26129877870E+03  0.00000000000E+00 0.  1.
         15    1    3    3    0    0 -0.57378724443E+03 -0.33881283107E+03  0.78543483740E+03  0.10300179503E+04  0.17770000000E+01 0. -1.
        -16    1    3    3    0    0 -0.17055776634E+03 -0.12205105124E+03  0.18771356784E+03  0.28146544072E+03  0.00000000000E+00 0.  1.
          2    1    6    6  502    0  0.82575317404E+02  0.10536248351E+03  0.20115197895E+03  0.24162378734E+03  0.00000000000E+00 0. -1.
         -1    1    6    6    0  502  0.13441369151E+03  0.58302189538E+02  0.10449702033E+03  0.17996058743E+03  0.00000000000E+00 0.  1.
<mgrwt>
<rscale>  0 0.88340013E+03</rscale>
<asrwt>0</asrwt>
<pdfrwt beam="1">  1        1 0.26538493E+00 0.88340013E+03</pdfrwt>
<pdfrwt beam="2">  1       -2 0.10037896E+00 0.88340013E+03</pdfrwt>
<totfact> 0.33503681E+00</totfact>
</mgrwt>
</event>
<event>
12    3  0.1092576E-007  0.4619289E+03  0.7818608E-02  0.1024223E+00
         -2   -1    0    0    0  501 -0.00000000000E+00  0.00000000000E+00  0.23674871985E+03  0.23674871985E+03  0.00000000000E+00 0.  1.
          1   -1    0    0  501    0  0.00000000000E+00 -0.00000000000E+00 -0.17485374470E+04  0.17485374470E+04  0.00000000000E+00 0. -1.
        -24    2    1    2    0    0 -0.43435630727E+03 -0.24502886293E+00 -0.21415219175E+03  0.49112631237E+03  0.81721672561E+02 0.  0.
    5000000    2    1    2    0    0  0.43435630727E+03  0.24502886293E+00 -0.12976365354E+04  0.14941598545E+04  0.59998969244E+03 0.  0.
        -24    2    4    4    0    0  0.28897270610E+03  0.96266987050E+02 -0.12595585911E+04  0.12983544419E+04  0.80398102049E+02 0.  0.
         24    2    4    4    0    0  0.14538360117E+03 -0.96021958187E+02 -0.38077944334E+02  0.19580541258E+03  0.80828347795E+02 0.  0.
         13    1    5    5    0    0  0.20621030863E+01  0.61063715585E+01 -0.47430337957E+01  0.80022754474E+01  0.00000000000E+00 0. -1.
        -14    1    5    5    0    0  0.28691060302E+03  0.90160615492E+02 -0.12548155573E+04  0.12903521665E+04  0.00000000000E+00 0.  1.
         15    1    3    3    0    0 -0.32401344295E+03 -0.23255900276E+02 -0.18830891645E+03  0.37548495823E+03  0.17770000000E+01 0. -1.
        -16    1    3    3    0    0 -0.11034286432E+03  0.23010871414E+02 -0.25843275291E+02  0.11564135414E+03  0.00000000000E+00 0.  1.
          2    1    6    6  502    0  0.34591465404E+02 -0.35211091586E+01  0.20132789190E+02  0.40178313666E+02  0.00000000000E+00 0. -1.
         -1    1    6    6    0  502  0.11079213576E+03 -0.92500849029E+02 -0.58210733524E+02  0.15562709891E+03  0.00000000000E+00 0.  1.
<mgrwt>
<rscale>  0 0.46192893E+03</rscale>
<asrwt>0</asrwt>
<pdfrwt beam="1">  1        1 0.26900577E+00 0.46192893E+03</pdfrwt>
<pdfrwt beam="2">  1       -2 0.36422879E-01 0.46192893E+03</pdfrwt>
<totfact> 0.29676496E+01</totfact>
</mgrwt>
</event>
<event>
12    3  0.1092576E-007  0.1249186E+04  0.7818608E-02  0.9070861E-01
         -2   -1    0    0    0  501 -0.00000000000E+00  0.00000000000E+00  0.65250543471E+03  0.65250543471E+03  0.00000000000E+00 0.  1.
          1   -1    0    0  501    0  0.00000000000E+00 -0.00000000000E+00 -0.29035768717E+04  0.29035768717E+04  0.00000000000E+00 0. -1.
        -24    2    1    2    0    0  0.70962627404E+03  0.95757053439E+03 -0.17747151496E+04  0.21392419657E+04  0.78940155307E+02 0.  0.
    5000000    2    1    2    0    0 -0.70962627404E+03 -0.95757053439E+03 -0.47635628736E+03  0.14168403408E+04  0.60000871790E+03 0.  0.
        -24    2    4    4    0    0 -0.40379547039E+03 -0.89657585289E+03 -0.23436624802E+03  0.10141024642E+04  0.81100109474E+02 0.  0.
         24    2    4    4    0    0 -0.30583080365E+03 -0.60994681509E+02 -0.24199003934E+03  0.40273787659E+03  0.79911115993E+02 0.  0.
         11    1    5    5    0    0 -0.15912712348E+03 -0.34236745987E+03 -0.13044500789E+03  0.39944063274E+03  0.00000000000E+00 0. -1.
        -12    1    5    5    0    0 -0.24466834691E+03 -0.55420839302E+03 -0.10392124012E+03  0.61466183143E+03  0.00000000000E+00 0.  1.
         15    1    3    3    0    0  0.28647895389E+03  0.43983970166E+03 -0.73950945464E+03  0.90686633271E+03  0.17770000000E+01 0. -1.
        -16    1    3    3    0    0  0.42314732015E+03  0.51773083274E+03 -0.10352056950E+04  0.12323756329E+04  0.00000000000E+00 0.  1.
          4    1    6    6  502    0 -0.64612172773E+02 -0.46867150498E+02 -0.69745892475E+02  0.10599883105E+03  0.00000000000E+00 0. -1.
         -3    1    6    6    0  502 -0.24121863088E+03 -0.14127531011E+02 -0.17224414687E+03  0.29673904554E+03  0.00000000000E+00 0.  1.
<mgrwt>
<rscale>  0 0.12491861E+04</rscale>
<asrwt>0</asrwt>
<pdfrwt beam="1">  1        1 0.44670413E+00 0.12491861E+04</pdfrwt>
<pdfrwt beam="2">  1       -2 0.10038545E+00 0.12491861E+04</pdfrwt>
<totfact> 0.49681477E-01</totfact>
</mgrwt>
</event>
<event>
12    3  0.1183961E-007  0.6952175E+03  0.7818608E-02  0.9725446E-01
         -2   -1    0    0    0  501 -0.00000000000E+00  0.00000000000E+00  0.34824726544E+03  0.34824726544E+03  0.00000000000E+00 0.  1.
          1   -1    0    0  501    0  0.00000000000E+00 -0.00000000000E+00 -0.18439499346E+04  0.18439499346E+04  0.00000000000E+00 0. -1.
        -24    2    1    2    0    0  0.32390178570E+03 -0.58516036562E+03 -0.85627470205E+03  0.10893541629E+04  0.78492716176E+02 0.  0.
    5000000    2    1    2    0    0 -0.32390178570E+03  0.58516036562E+03 -0.63942796708E+03  0.11028430372E+04  0.60005801325E+03 0.  0.
        -24    2    4    4    0    0 -0.25895309715E+03  0.58702644835E+03 -0.23939375304E+03  0.68937459181E+03  0.79190916532E+02 0.  0.
         24    2    4    4    0    0 -0.64948688549E+02 -0.18660827319E+01 -0.40003421405E+03  0.41346844535E+03  0.81896083444E+02 0.  0.
         13    1    5    5    0    0 -0.19365589892E+03  0.34424158264E+03 -0.15177247048E+03  0.42313089843E+03  0.00000000000E+00 0. -1.
        -14    1    5    5    0    0 -0.65297198233E+02  0.24278486570E+03 -0.87621282555E+02  0.26624369339E+03  0.00000000000E+00 0.  1.
         15    1    3    3    0    0  0.21214584425E+03 -0.44011916047E+03 -0.65660944418E+03  0.81844355612E+03  0.17770000000E+01 0. -1.
        -16    1    3    3    0    0  0.11175594145E+03 -0.14504120515E+03 -0.19966525787E+03  0.27091060673E+03  0.00000000000E+00 0.  1.
          2    1    6    6  502    0 -0.48910752075E+02 -0.15504795385E+02 -0.97270856308E+02  0.10997399618E+03  0.00000000000E+00 0. -1.
         -1    1    6    6    0  502 -0.16037936474E+02  0.13638712653E+02 -0.30276335774E+03  0.30349444917E+03  0.00000000000E+00 0.  1.
<mgrwt>
<rscale>  0 0.69521750E+03</rscale>
<asrwt>0</asrwt>
<pdfrwt beam="1">  1        1 0.28368460E+00 0.69521750E+03</pdfrwt>
<pdfrwt beam="2">  1       -2 0.53576503E-01 0.69521750E+03</pdfrwt>
<totfact> 0.11470857E+01</totfact>
</mgrwt>
</event>
<event>
12    3  0.1092576E-007  0.9486979E+03  0.7818608E-02  0.9366674E-01
          1   -1    0    0  501    0  0.00000000000E+00  0.00000000000E+00  0.20233113191E+04  0.20233113191E+04  0.00000000000E+00 0. -1.
         -2   -1    0    0    0  501 -0.00000000000E+00 -0.00000000000E+00 -0.12016932732E+04  0.12016932732E+04  0.00000000000E+00 0.  1.
        -24    2    1    2    0    0 -0.20772251078E+03  0.84186876369E+03  0.16622694426E+04  0.18764576347E+04  0.77858191898E+02 0.  0.
    5000000    2    1    2    0    0  0.20772251078E+03 -0.84186876369E+03 -0.84065139668E+03  0.13485469577E+04  0.59999372466E+03 0.  0.
        -24    2    4    4    0    0 -0.88061998220E+01  0.68363584449E+02 -0.48609655647E+02  0.12013016131E+03  0.85540798458E+02 0.  0.
         24    2    4    4    0    0  0.21652871060E+03 -0.91023234814E+03 -0.79204174104E+03  0.12284167964E+04  0.79183937791E+02 0.  0.
         13    1    5    5    0    0 -0.33877336082E+02  0.48210849287E+02 -0.61777843792E+02  0.85372488967E+02  0.00000000000E+00 0. -1.
        -14    1    5    5    0    0  0.25071136260E+02  0.20152735163E+02  0.13168188144E+02  0.34757672346E+02  0.00000000000E+00 0.  1.
         15    1    3    3    0    0 -0.82001688503E+02  0.37194960939E+03  0.81142464298E+03  0.89637263334E+03  0.17770000000E+01 0. -1.
        -16    1    3    3    0    0 -0.12572082228E+03  0.46991915430E+03  0.85084479963E+03  0.98008500131E+03  0.00000000000E+00 0.  1.
          2    1    6    6  502    0  0.58568743086E+02 -0.41626933841E+03 -0.35308674661E+03  0.54898152100E+03  0.00000000000E+00 0. -1.
         -1    1    6    6    0  502  0.15795996752E+03 -0.49396300973E+03 -0.43895499443E+03  0.67943527540E+03  0.00000000000E+00 0.  1.
<mgrwt>
<rscale>  0 0.94869794E+03</rscale>
<asrwt>0</asrwt>
<pdfrwt beam="1">  1        1 0.31127866E+00 0.94869794E+03</pdfrwt>
<pdfrwt beam="2">  1       -2 0.18487589E+00 0.94869794E+03</pdfrwt>
<totfact> 0.42851115E-01</totfact>
</mgrwt>
</event>
<event>
12    3  0.1092576E-007  0.2470711E+03  0.7818608E-02  0.1115170E+00
          1   -1    0    0  501    0  0.00000000000E+00  0.00000000000E+00  0.16524163866E+04  0.16524163866E+04  0.00000000000E+00 0. -1.
         -2   -1    0    0    0  501 -0.00000000000E+00 -0.00000000000E+00 -0.10928667356E+03  0.10928667356E+03  0.00000000000E+00 0.  1.
        -24    2    1    2    0    0 -0.19521635253E+03  0.51854088660E+02  0.38604073868E+03  0.44281680537E+03  0.79126483493E+02 0.  0.
    5000000    2    1    2    0    0  0.19521635253E+03 -0.51854088660E+02  0.11570889744E+04  0.13188862548E+04  0.59983980170E+03 0.  0.
        -24    2    4    4    0    0  0.31351439145E+02  0.46970234358E+02 -0.40493342333E+02  0.10346110017E+03  0.76650980570E+02 0.  0.
         24    2    4    4    0    0  0.16386491338E+03 -0.98824323019E+02  0.11975823167E+04  0.12154251546E+04  0.80230571407E+02 0.  0.
         11    1    5    5    0    0  0.13437106535E+02 -0.15774560365E+02 -0.31338633009E+02  0.37569968135E+02  0.00000000000E+00 0. -1.
        -12    1    5    5    0    0  0.17914332610E+02  0.62744794724E+02 -0.91547093240E+01  0.65891132033E+02  0.00000000000E+00 0.  1.
         15    1    3    3    0    0 -0.41230337510E+02  0.16823859110E+02  0.16661116278E+03  0.17246860659E+03  0.17770000000E+01 0. -1.
        -16    1    3    3    0    0 -0.15398601502E+03  0.35030229550E+02  0.21942957590E+03  0.27034819878E+03  0.00000000000E+00 0.  1.
          4    1    6    6  502    0  0.16043935179E+03 -0.10964852830E+03  0.10843786978E+04  0.11016536414E+04  0.00000000000E+00 0. -1.
         -3    1    6    6    0  502  0.34255615889E+01  0.10824205281E+02  0.11320361891E+03  0.11377151324E+03  0.00000000000E+00 0.  1.
<mgrwt>
<rscale>  0 0.24707107E+03</rscale>
<asrwt>0</asrwt>
<pdfrwt beam="1">  1        1 0.25421789E+00 0.24707107E+03</pdfrwt>
<pdfrwt beam="2">  1       -2 0.16813336E-01 0.24707107E+03</pdfrwt>
<totfact> 0.14272994E+02</totfact>
</mgrwt>
</event>
<event>
12    3  0.1092576E-007  0.1250148E+04  0.7818608E-02  0.9070060E-01
          1   -1    0    0  501    0  0.00000000000E+00  0.00000000000E+00  0.29076952566E+04  0.29076952566E+04  0.00000000000E+00 0. -1.
         -2   -1    0    0    0  501 -0.00000000000E+00 -0.00000000000E+00 -0.69706199544E+03  0.69706199544E+03  0.00000000000E+00 0.  1.
        -24    2    1    2    0    0 -0.89235725711E+03 -0.84590629881E+03  0.32363199316E+03  0.12739531626E+04  0.79749939383E+02 0.  0.
    5000000    2    1    2    0    0  0.89235725711E+03  0.84590629881E+03  0.18870012680E+04  0.23308040894E+04  0.60001248088E+03 0.  0.
        -24    2    4    4    0    0  0.46036141092E+03  0.25401600501E+03  0.12439218367E+04  0.13525507320E+04  0.74800984567E+02 0.  0.
         24    2    4    4    0    0  0.43199584619E+03  0.59189029379E+03  0.64307943128E+03  0.97825335744E+03  0.80460831422E+02 0.  0.
         13    1    5    5    0    0  0.39612165248E+03  0.24595691831E+03  0.10847943345E+04  0.11807565021E+04  0.00000000000E+00 0. -1.
        -14    1    5    5    0    0  0.64239758441E+02  0.80590867010E+01  0.15912750224E+03  0.17179422985E+03  0.00000000000E+00 0.  1.
         15    1    3    3    0    0 -0.48186675729E+03 -0.40242401695E+03  0.17070558801E+03  0.65060296396E+03  0.17770000000E+01 0. -1.
        -16    1    3    3    0    0 -0.41049049982E+03 -0.44348228185E+03  0.15292640515E+03  0.62335019865E+03  0.00000000000E+00 0.  1.
          2    1    6    6  502    0  0.31889233864E+03  0.49182360245E+03  0.51070451542E+03  0.77743287918E+03  0.00000000000E+00 0. -1.
         -1    1    6    6    0  502  0.11310350755E+03  0.10006669135E+03  0.13237491585E+03  0.20082047825E+03  0.00000000000E+00 0.  1.
<mgrwt>
<rscale>  0 0.12501485E+04</rscale>
<asrwt>0</asrwt>
<pdfrwt beam="1">  1        1 0.44733772E+00 0.12501485E+04</pdfrwt>
<pdfrwt beam="2">  1       -2 0.10724031E+00 0.12501485E+04</pdfrwt>
<totfact> 0.42071047E-01</totfact>
</mgrwt>
</event>
<event>
12    3  0.1092576E-007  0.6118579E+03  0.7818608E-02  0.9881106E-01
         -2   -1    0    0    0  501 -0.00000000000E+00  0.00000000000E+00  0.22742597507E+03  0.22742597507E+03  0.00000000000E+00 0.  1.
          1   -1    0    0  501    0  0.00000000000E+00 -0.00000000000E+00 -0.21526959324E+04  0.21526959324E+04  0.00000000000E+00 0. -1.
        -24    2    1    2    0    0 -0.86020973960E+02 -0.53835960137E+03 -0.52111860572E+03  0.75882158029E+03  0.83755126020E+02 0.  0.
    5000000    2    1    2    0    0  0.86020973960E+02  0.53835960137E+03 -0.14041513516E+04  0.16213003271E+04  0.59978584875E+03 0.  0.
        -24    2    4    4    0    0 -0.78263469633E+02  0.49474600918E+03 -0.13252197434E+04  0.14178526999E+04  0.56569656478E+02 0.  0.
         24    2    4    4    0    0  0.16428444359E+03  0.43613592183E+02 -0.78931608160E+02  0.20344762724E+03  0.79178371002E+02 0.  0.
         13    1    5    5    0    0 -0.55892152467E+02  0.17860877129E+03 -0.49497982948E+03  0.52917866310E+03  0.00000000000E+00 0. -1.
        -14    1    5    5    0    0 -0.22371317166E+02  0.31613723790E+03 -0.83023991391E+03  0.88867403679E+03  0.00000000000E+00 0.  1.
         15    1    3    3    0    0 -0.71505950453E+02 -0.25979839887E+03 -0.29678829845E+03  0.40086751032E+03  0.17770000000E+01 0. -1.
        -16    1    3    3    0    0 -0.14515023507E+02 -0.27856120250E+03 -0.22433030727E+03  0.35795406997E+03  0.00000000000E+00 0.  1.
          2    1    6    6  502    0  0.16272093683E+03  0.40401457350E+02 -0.91067073743E+02  0.19079725616E+03  0.00000000000E+00 0. -1.
         -1    1    6    6    0  502  0.15635067639E+01  0.32121348328E+01  0.12135465583E+02  0.12650371082E+02  0.00000000000E+00 0.  1.
<mgrwt>
<rscale>  0 0.61185788E+03</rscale>
<asrwt>0</asrwt>
<pdfrwt beam="1">  1        1 0.33118399E+00 0.61185788E+03</pdfrwt>
<pdfrwt beam="2">  1       -2 0.34988611E-01 0.61185788E+03</pdfrwt>
<totfact> 0.16807034E+01</totfact>
</mgrwt>
</event>
<event>
12    3  0.1092576E-007  0.6949699E+03  0.7818608E-02  0.9725873E-01
         -2   -1    0    0    0  501 -0.00000000000E+00  0.00000000000E+00  0.38347344614E+03  0.38347344614E+03  0.00000000000E+00 0.  1.
          1   -1    0    0  501    0  0.00000000000E+00 -0.00000000000E+00 -0.16345250882E+04  0.16345250882E+04  0.00000000000E+00 0. -1.
        -24    2    1    2    0    0  0.66995112043E+03 -0.20535719141E+02 -0.43221403414E+03  0.80153159134E+03  0.79923094783E+02 0.  0.
    5000000    2    1    2    0    0 -0.66995112043E+03  0.20535719141E+02 -0.81883760789E+03  0.12164669430E+04  0.60003381215E+03 0.  0.
        -24    2    4    4    0    0 -0.32275398593E+02  0.35466470172E+02 -0.48678431236E+03  0.49446609782E+03  0.72375294675E+02 0.  0.
         24    2    4    4    0    0 -0.63767572184E+03 -0.14930751031E+02 -0.33205329553E+03  0.72200084515E+03  0.64595477950E+02 0.  0.
         11    1    5    5    0    0 -0.48834305397E+02  0.39759409288E+02 -0.28089334317E+03  0.28786571565E+03  0.00000000000E+00 0. -1.
        -12    1    5    5    0    0  0.16558906804E+02 -0.42929391163E+01 -0.20589096918E+03  0.20660038217E+03  0.00000000000E+00 0.  1.
         15    1    3    3    0    0  0.20124185764E+03 -0.70809603696E+01 -0.17457477070E+03  0.26651066312E+03  0.17770000000E+01 0. -1.
        -16    1    3    3    0    0  0.46870926279E+03 -0.13454758771E+02 -0.25763926344E+03  0.53502092822E+03  0.00000000000E+00 0.  1.
          4    1    6    6  502    0 -0.10088622938E+03 -0.19607784827E+02 -0.35554963533E+02  0.10875041120E+03  0.00000000000E+00 0. -1.
         -3    1    6    6    0  502 -0.53678949246E+03  0.46770337964E+01 -0.29649833199E+03  0.61325043395E+03  0.00000000000E+00 0.  1.
<mgrwt>
<rscale>  0 0.69496990E+03</rscale>
<asrwt>0</asrwt>
<pdfrwt beam="1">  1        1 0.25146539E+00 0.69496990E+03</pdfrwt>
<pdfrwt beam="2">  1       -2 0.58995917E-01 0.69496990E+03</pdfrwt>
<totfact> 0.12969722E+01</totfact>
</mgrwt>
</event>
<event>
12    3  0.1092576E-007  0.5515198E+03  0.7818608E-02  0.1001143E+00
         -2   -1    0    0    0  501 -0.00000000000E+00  0.00000000000E+00  0.40879478763E+03  0.40879478763E+03  0.00000000000E+00 0.  1.
          1   -1    0    0  501    0  0.00000000000E+00 -0.00000000000E+00 -0.78486706882E+03  0.78486706882E+03  0.00000000000E+00 0. -1.
        -24    2    1    2    0    0  0.34551358134E+03  0.19794400532E+03 -0.20108222381E+03  0.45255570805E+03  0.76230860024E+02 0.  0.
    5000000    2    1    2    0    0 -0.34551358134E+03 -0.19794400532E+03 -0.17499005738E+03  0.74110614840E+03  0.60004611396E+03 0.  0.
        -24    2    4    4    0    0 -0.50145100659E+03 -0.15270325619E+03 -0.17502704918E+03  0.55774912094E+03  0.75353948176E+02 0.  0.
         24    2    4    4    0    0  0.15593742524E+03 -0.45240749127E+02  0.36991800178E-01  0.18335702746E+03  0.85185633637E+02 0.  0.
         13    1    5    5    0    0 -0.45887045565E+03 -0.13103981434E+03 -0.17929458604E+03  0.50978434322E+03  0.00000000000E+00 0. -1.
        -14    1    5    5    0    0 -0.42580550937E+02 -0.21663441847E+02  0.42675368556E+01  0.47964777718E+02  0.00000000000E+00 0.  1.
         15    1    3    3    0    0  0.77752653964E+02  0.83871516591E+02 -0.57062628932E+02  0.12782491089E+03  0.17770000000E+01 0.  1.
        -16    1    3    3    0    0  0.26776092738E+03  0.11407248873E+03 -0.14401959488E+03  0.32473079716E+03  0.00000000000E+00 0.  1.
          4    1    6    6  502    0  0.14124156130E+03 -0.58454235058E+02 -0.21228006357E+02  0.15432661627E+03  0.00000000000E+00 0. -1.
         -3    1    6    6    0  502  0.14695863944E+02  0.13213485931E+02  0.21264998157E+02  0.29030411195E+02  0.00000000000E+00 0.  1.
<mgrwt>
<rscale>  0 0.55151982E+03</rscale>
<asrwt>0</asrwt>
<pdfrwt beam="1">  1        1 0.12074878E+00 0.55151982E+03</pdfrwt>
<pdfrwt beam="2">  1       -2 0.62891506E-01 0.55151982E+03</pdfrwt>
<totfact> 0.48609883E+01</totfact>
</mgrwt>
</event>
<event>
12    3  0.1092576E-007  0.9830345E+03  0.7818608E-02  0.9327350E-01
         -2   -1    0    0    0  501 -0.00000000000E+00  0.00000000000E+00  0.12367698862E+04  0.12367698862E+04  0.00000000000E+00 0.  1.
          1   -1    0    0  501    0  0.00000000000E+00 -0.00000000000E+00 -0.92707121260E+03  0.92707121260E+03  0.00000000000E+00 0. -1.
        -24    2    1    2    0    0  0.78087571014E+03  0.59071327479E+03  0.25027049806E+03  0.10139260321E+04  0.81863475267E+02 0.  0.
    5000000    2    1    2    0    0 -0.78087571014E+03 -0.59071327479E+03  0.59428175530E+02  0.11499150667E+04  0.60005325177E+03 0.  0.
        -24    2    4    4    0    0 -0.49162483523E+03 -0.38912094552E+03 -0.24444272843E+03  0.67759036397E+03  0.79160375177E+02 0.  0.
         24    2    4    4    0    0 -0.28925087491E+03 -0.20159232927E+03  0.30387090396E+03  0.47232470276E+03  0.80296716706E+02 0.  0.
         13    1    5    5    0    0 -0.17525366336E+03 -0.10133880796E+03 -0.10292478346E+03  0.22710550757E+03  0.00000000000E+00 0. -1.
        -14    1    5    5    0    0 -0.31637117187E+03 -0.28778213756E+03 -0.14151794497E+03  0.45048485639E+03  0.00000000000E+00 0.  1.
         15    1    3    3    0    0  0.60699072559E+03  0.50000758618E+03  0.19792646578E+03  0.81093980712E+03  0.17770000000E+01 0. -1.
        -16    1    3    3    0    0  0.17388498455E+03  0.90705688612E+02  0.52344032276E+02  0.20298622493E+03  0.00000000000E+00 0.  1.
          4    1    6    6  502    0 -0.28321289211E+03 -0.19229960678E+03  0.26792611020E+03  0.43471034213E+03  0.00000000000E+00 0. -1.
         -3    1    6    6    0  502 -0.60379827934E+01 -0.92927224874E+01  0.35944793764E+02  0.37614360637E+02  0.00000000000E+00 0.  1.
<mgrwt>
<rscale>  0 0.98303451E+03</rscale>
<asrwt>0</asrwt>
<pdfrwt beam="1">  1        1 0.14262634E+00 0.98303451E+03</pdfrwt>
<pdfrwt beam="2">  1       -2 0.19027229E+00 0.98303451E+03</pdfrwt>
<totfact> 0.23358047E+00</totfact>
</mgrwt>
</event>
<event>
12    3  0.2027007E-007  0.8670925E+03  0.7818608E-02  0.9467679E-01
          1   -1    0    0  501    0  0.00000000000E+00  0.00000000000E+00  0.15138054456E+04  0.15138054456E+04  0.00000000000E+00 0. -1.
         -2   -1    0    0    0  501 -0.00000000000E+00 -0.00000000000E+00 -0.77131631603E+03  0.77131631603E+03  0.00000000000E+00 0.  1.
        -24    2    1    2    0    0 -0.40006289618E+03  0.74001025968E+03  0.90598144637E+03  0.12389954852E+04  0.81498011097E+02 0.  0.
    5000000    2    1    2    0    0  0.40006289618E+03 -0.74001025968E+03 -0.16349231683E+03  0.10461262764E+04  0.59998745253E+03 0.  0.
        -24    2    4    4    0    0  0.68887653118E+02 -0.42830768671E+03  0.17398197755E+03  0.47434432140E+03  0.80869175163E+02 0.  0.
         24    2    4    4    0    0  0.33117524306E+03 -0.31170257298E+03 -0.33747429438E+03  0.57178195501E+03  0.78804626027E+02 0.  0.
         13    1    5    5    0    0  0.33525705397E+02 -0.21503214937E+03  0.13071955049E+03  0.25387083146E+03  0.00000000000E+00 0. -1.
        -14    1    5    5    0    0  0.35361947722E+02 -0.21327553733E+03  0.43262427053E+02  0.22047348994E+03  0.00000000000E+00 0.  1.
         15    1    3    3    0    0 -0.26090082648E+03  0.54344182907E+03  0.61336473244E+03  0.86001029969E+03  0.17770000000E+01 0. -1.
        -16    1    3    3    0    0 -0.13916206970E+03  0.19656843062E+03  0.29261671393E+03  0.37898518550E+03  0.00000000000E+00 0.  1.
          4    1    6    6  502    0  0.18202839097E+03 -0.14271190450E+03 -0.21229747463E+03  0.31396057164E+03  0.00000000000E+00 0. -1.
         -3    1    6    6    0  502  0.14914685209E+03 -0.16899066848E+03 -0.12517681975E+03  0.25782138337E+03  0.00000000000E+00 0.  1.
<mgrwt>
<rscale>  0 0.86709253E+03</rscale>
<asrwt>0</asrwt>
<pdfrwt beam="1">  1        1 0.23289314E+00 0.86709253E+03</pdfrwt>
<pdfrwt beam="2">  1       -2 0.11866405E+00 0.86709253E+03</pdfrwt>
<totfact> 0.31154228E+00</totfact>
</mgrwt>
</event>
<event>
12    3  0.1092576E-007  0.4485774E+03  0.7818608E-02  0.1028147E+00
          1   -1    0    0  501    0  0.00000000000E+00  0.00000000000E+00  0.24195856621E+03  0.24195856621E+03  0.00000000000E+00 0. -1.
         -2   -1    0    0    0  501 -0.00000000000E+00 -0.00000000000E+00 -0.12047149637E+04  0.12047149637E+04  0.00000000000E+00 0.  1.
        -24    2    1    2    0    0 -0.33264651843E+03  0.18096739393E+02 -0.12664333659E+03  0.36496929458E+03  0.78631120340E+02 0.  0.
    5000000    2    1    2    0    0  0.33264651843E+03 -0.18096739393E+02 -0.83611306094E+03  0.10817042354E+04  0.60001483643E+03 0.  0.
        -24    2    4    4    0    0  0.74494240295E+02 -0.20930581472E+03 -0.68579054080E+02  0.24611904293E+03  0.80704279440E+02 0.  0.
         24    2    4    4    0    0  0.25815227814E+03  0.19120907533E+03 -0.76753400686E+03  0.83558519243E+03  0.76750589168E+02 0.  0.
         13    1    5    5    0    0  0.56194781845E+02 -0.62505406093E+02 -0.24842572135E+01  0.84088945952E+02  0.00000000000E+00 0. -1.
        -14    1    5    5    0    0  0.18299458450E+02 -0.14680040863E+03 -0.66094796867E+02  0.16203009698E+03  0.00000000000E+00 0.  1.
         15    1    3    3    0    0 -0.11539326039E+03 -0.18455143579E+02 -0.14520212046E+02  0.11777177571E+03  0.17770000000E+01 0. -1.
        -16    1    3    3    0    0 -0.21725325804E+03  0.36551882972E+02 -0.11212312454E+03  0.24719751887E+03  0.00000000000E+00 0.  1.
          2    1    6    6  502    0  0.17653860969E+03  0.90576279420E+02 -0.41498577736E+03  0.45998167193E+03  0.00000000000E+00 0. -1.
         -1    1    6    6    0  502  0.81613668446E+02  0.10063279591E+03 -0.35254822950E+03  0.37560352050E+03  0.00000000000E+00 0.  1.
<mgrwt>
<rscale>  0 0.44857743E+03</rscale>
<asrwt>0</asrwt>
<pdfrwt beam="1">  1        1 0.37224395E-01 0.44857743E+03</pdfrwt>
<pdfrwt beam="2">  1       -2 0.18534076E+00 0.44857743E+03</pdfrwt>
<totfact> 0.17750720E+01</totfact>
</mgrwt>
</event>
<event>
12    3  0.1092576E-007  0.6759570E+03  0.7818608E-02  0.9759256E-01
         -2   -1    0    0    0  501 -0.00000000000E+00  0.00000000000E+00  0.17816638868E+03  0.17816638868E+03  0.00000000000E+00 0.  1.
          1   -1    0    0  501    0  0.00000000000E+00 -0.00000000000E+00 -0.28961251525E+04  0.28961251525E+04  0.00000000000E+00 0. -1.
        -24    2    1    2    0    0  0.54570572947E+03 -0.82119374829E+02 -0.67541713786E+03  0.87511897038E+03  0.71460249807E+02 0.  0.
    5000000    2    1    2    0    0 -0.54570572947E+03  0.82119374829E+02 -0.20425416260E+04  0.21991725708E+04  0.59987112575E+03 0.  0.
        -24    2    4    4    0    0 -0.49730396922E+03 -0.17223690196E+03 -0.11872295251E+04  0.13012845797E+04  0.82769704268E+02 0.  0.
         24    2    4    4    0    0 -0.48401760253E+02  0.25435627679E+03 -0.85531210091E+03  0.89788799114E+03  0.87202114200E+02 0.  0.
         13    1    5    5    0    0 -0.33156823127E+03 -0.14359302491E+03 -0.87423711008E+03  0.94596351591E+03  0.00000000000E+00 0. -1.
        -14    1    5    5    0    0 -0.16573573795E+03 -0.28643877048E+02 -0.31299241502E+03  0.35532106380E+03  0.00000000000E+00 0.  1.
         15    1    3    3    0    0  0.29739120755E+03 -0.23499219669E+02 -0.31858306714E+03  0.43645397472E+03  0.17770000000E+01 0. -1.
        -16    1    3    3    0    0  0.24831452192E+03 -0.58620155160E+02 -0.35683407073E+03  0.43866499566E+03  0.00000000000E+00 0.  1.
          2    1    6    6  502    0  0.19397453316E+02  0.63080494689E+02 -0.28514326557E+03  0.29268087041E+03  0.00000000000E+00 0. -1.
         -1    1    6    6    0  502 -0.67799213569E+02  0.19127578210E+03 -0.57016883534E+03  0.60520712072E+03  0.00000000000E+00 0.  1.
<mgrwt>
<rscale>  0 0.67595704E+03</rscale>
<asrwt>0</asrwt>
<pdfrwt beam="1">  1        1 0.44555771E+00 0.67595704E+03</pdfrwt>
<pdfrwt beam="2">  1       -2 0.27410214E-01 0.67595704E+03</pdfrwt>
<totfact> 0.81268389E+00</totfact>
</mgrwt>
</event>
<event>
12    3  0.1092576E-007  0.5260699E+03  0.7818608E-02  0.1007190E+00
          1   -1    0    0  501    0  0.00000000000E+00  0.00000000000E+00  0.49808705290E+03  0.49808705290E+03  0.00000000000E+00 0. -1.
         -2   -1    0    0    0  501 -0.00000000000E+00 -0.00000000000E+00 -0.64926688152E+03  0.64926688152E+03  0.00000000000E+00 0.  1.
        -24    2    1    2    0    0  0.21351957145E+03 -0.29832451735E+03 -0.22925758606E+03  0.43981082023E+03  0.79286769257E+02 0.  0.
    5000000    2    1    2    0    0 -0.21351957145E+03  0.29832451735E+03  0.78077757435E+02  0.70754311419E+03  0.59994416172E+03 0.  0.
        -24    2    4    4    0    0 -0.34979621972E+03  0.81575460802E+01 -0.12052012545E+02  0.35775395083E+03  0.73611802327E+02 0.  0.
         24    2    4    4    0    0  0.13627664826E+03  0.29016697127E+03  0.90129769980E+02  0.34978916336E+03  0.10705553366E+03 0.  0.
         13    1    5    5    0    0 -0.18000656717E+03 -0.12570930065E+02  0.26588880211E+02  0.18239342384E+03  0.00000000000E+00 0. -1.
        -14    1    5    5    0    0 -0.16978965254E+03  0.20728476145E+02 -0.38640892756E+02  0.17536052699E+03  0.00000000000E+00 0.  1.
         15    1    3    3    0    0  0.15660878070E+03 -0.26878608605E+03 -0.19430552585E+03  0.36678340387E+03  0.17770000000E+01 0. -1.
        -16    1    3    3    0    0  0.56910790750E+02 -0.29538431296E+02 -0.34952060205E+02  0.73027416357E+02  0.00000000000E+00 0.  1.
          4    1    6    6  502    0  0.61731151274E+02  0.19507168121E+03  0.10154765416E+03  0.22841983695E+03  0.00000000000E+00 0. -1.
         -3    1    6    6    0  502  0.74545496989E+02  0.95095290063E+02 -0.11417884181E+02  0.12136932641E+03  0.00000000000E+00 0.  1.
<mgrwt>
<rscale>  0 0.52606994E+03</rscale>
<asrwt>0</asrwt>
<pdfrwt beam="1">  1        1 0.76628777E-01 0.52606994E+03</pdfrwt>
<pdfrwt beam="2">  1       -2 0.99887213E-01 0.52606994E+03</pdfrwt>
<totfact> 0.33519650E+01</totfact>
</mgrwt>
</event>
<event>
12    3  0.1092576E-007  0.6469231E+03  0.7818608E-02  0.9812570E-01
          1   -1    0    0  501    0  0.00000000000E+00  0.00000000000E+00  0.48822799677E+03  0.48822799677E+03  0.00000000000E+00 0. -1.
         -2   -1    0    0    0  501 -0.00000000000E+00 -0.00000000000E+00 -0.10928435201E+04  0.10928435201E+04  0.00000000000E+00 0.  1.
        -24    2    1    2    0    0  0.44928049367E+03 -0.36628867683E+03 -0.66773395367E+02  0.58874621914E+03  0.78377722974E+02 0.  0.
    5000000    2    1    2    0    0 -0.44928049367E+03  0.36628867683E+03 -0.53784212799E+03  0.99232529776E+03  0.59951228943E+03 0.  0.
        -24    2    4    4    0    0 -0.81354710041E+02 -0.88671563311E+02 -0.34010315059E+03  0.36953447801E+03  0.80027135469E+02 0.  0.
         24    2    4    4    0    0 -0.36792578362E+03  0.45496024014E+03 -0.19773897740E+03  0.62279081975E+03  0.80059350596E+02 0.  0.
         11    1    5    5    0    0 -0.38266350734E+02 -0.29797087894E+02 -0.47178351215E+02  0.67660748362E+02  0.00000000000E+00 0. -1.
        -12    1    5    5    0    0 -0.43088359307E+02 -0.58874475417E+02 -0.29292479937E+03  0.30187372965E+03  0.00000000000E+00 0.  1.
         15    1    3    3    0    0  0.42647876685E+02 -0.55827857934E+02 -0.28097468449E+02  0.75684982457E+02  0.17770000000E+01 0. -1.
        -16    1    3    3    0    0  0.40663261698E+03 -0.31046081890E+03 -0.38675926918E+02  0.51306123668E+03  0.00000000000E+00 0.  1.
          4    1    6    6  502    0 -0.28215246887E+03  0.29015520121E+03 -0.13161448141E+03  0.42558480729E+03  0.00000000000E+00 0. -1.
         -3    1    6    6    0  502 -0.85773314754E+02  0.16480503893E+03 -0.66124495992E+02  0.19720601246E+03  0.00000000000E+00 0.  1.
<mgrwt>
<rscale>  0 0.64692314E+03</rscale>
<asrwt>0</asrwt>
<pdfrwt beam="1">  1        1 0.75112000E-01 0.64692314E+03</pdfrwt>
<pdfrwt beam="2">  1       -2 0.16812977E+00 0.64692314E+03</pdfrwt>
<totfact> 0.90980253E+00</totfact>
</mgrwt>
</event>
<event>
12    3  0.1092576E-007  0.7029790E+03  0.7818608E-02  0.9712151E-01
         -2   -1    0    0    0  501 -0.00000000000E+00  0.00000000000E+00  0.52729049824E+03  0.52729049824E+03  0.00000000000E+00 0.  1.
          1   -1    0    0  501    0  0.00000000000E+00 -0.00000000000E+00 -0.12792040092E+04  0.12792040092E+04  0.00000000000E+00 0. -1.
        -24    2    1    2    0    0  0.60558827430E+03  0.44902198648E+02  0.76244438551E+02  0.61728091499E+03  0.80431015076E+02 0.  0.
    5000000    2    1    2    0    0 -0.60558827430E+03 -0.44902198648E+02 -0.82815794956E+03  0.11892135925E+04  0.59969159888E+03 0.  0.
        -24    2    4    4    0    0 -0.27267231973E+03  0.22881881450E+03 -0.17852541472E+03  0.40637003741E+03  0.80975550558E+02 0.  0.
         24    2    4    4    0    0 -0.33291595457E+03 -0.27372101315E+03 -0.64963253484E+03  0.78284355509E+03  0.71171452006E+02 0.  0.
         11    1    5    5    0    0 -0.26559236216E+03  0.19785510808E+03 -0.14959583836E+03  0.36340729421E+03  0.00000000000E+00 0. -1.
        -12    1    5    5    0    0 -0.70799575636E+01  0.30963706424E+02 -0.28929576363E+02  0.42962743199E+02  0.00000000000E+00 0.  1.
         15    1    3    3    0    0  0.83066737515E+02 -0.17166378843E+02  0.25782874458E+02  0.88671764324E+02  0.17770000000E+01 0. -1.
        -16    1    3    3    0    0  0.52252153679E+03  0.62068577491E+02  0.50461564094E+02  0.52860915067E+03  0.00000000000E+00 0.  1.
          4    1    6    6  502    0 -0.17792457813E+03 -0.12750055323E+03 -0.27086739783E+03  0.34825664931E+03  0.00000000000E+00 0. -1.
         -3    1    6    6    0  502 -0.15499137644E+03 -0.14622045992E+03 -0.37876513700E+03  0.43458690579E+03  0.00000000000E+00 0.  1.
<mgrwt>
<rscale>  0 0.70297901E+03</rscale>
<asrwt>0</asrwt>
<pdfrwt beam="1">  1        1 0.19680062E+00 0.70297901E+03</pdfrwt>
<pdfrwt beam="2">  1       -2 0.81121615E-01 0.70297901E+03</pdfrwt>
<totfact> 0.11380751E+01</totfact>
</mgrwt>
</event>
<event>
12    3  0.1092576E-007  0.5823356E+03  0.7818608E-02  0.9942747E-01
         -2   -1    0    0    0  501 -0.00000000000E+00  0.00000000000E+00  0.70621862755E+03  0.70621862755E+03  0.00000000000E+00 0.  1.
          1   -1    0    0  501    0  0.00000000000E+00 -0.00000000000E+00 -0.52454366623E+03  0.52454366623E+03  0.00000000000E+00 0. -1.
        -24    2    1    2    0    0 -0.41257758556E+03 -0.16676519765E+03  0.17394013101E+03  0.48368730205E+03  0.75281749022E+02 0.  0.
    5000000    2    1    2    0    0  0.41257758556E+03  0.16676519765E+03  0.77348303067E+01  0.74707499173E+03  0.60002526649E+03 0.  0.
        -24    2    4    4    0    0 -0.13366555663E+03  0.87692214051E+02 -0.54796639637E+02  0.18609681511E+03  0.77929118063E+02 0.  0.
         24    2    4    4    0    0  0.54624314219E+03  0.79072983602E+02  0.62531469943E+02  0.56097817663E+03  0.78436106430E+02 0.  0.
         11    1    5    5    0    0 -0.10959186489E+03  0.61075066140E+02 -0.61072625330E+01  0.12560986908E+03  0.00000000000E+00 0. -1.
        -12    1    5    5    0    0 -0.24073691742E+02  0.26617147911E+02 -0.48689377104E+02  0.60486946028E+02  0.00000000000E+00 0.  1.
         15    1    3    3    0    0 -0.22252919396E+03 -0.11008791433E+03  0.13121058006E+03  0.28081660403E+03  0.17770000000E+01 0. -1.
        -16    1    3    3    0    0 -0.19004839159E+03 -0.56677283323E+02  0.42729550945E+02  0.20287069802E+03  0.00000000000E+00 0.  1.
          2    1    6    6  502    0  0.11123011257E+03  0.46287975503E+02  0.25633483575E+02  0.12317382068E+03  0.00000000000E+00 0. -1.
         -1    1    6    6    0  502  0.43501302962E+03  0.32785008098E+02  0.36897986368E+02  0.43780435595E+03  0.00000000000E+00 0.  1.
<mgrwt>
<rscale>  0 0.58233562E+03</rscale>
<asrwt>0</asrwt>
<pdfrwt beam="1">  1        1 0.80699025E-01 0.58233562E+03</pdfrwt>
<pdfrwt beam="2">  1       -2 0.10864902E+00 0.58233562E+03</pdfrwt>
<totfact> 0.25400349E+01</totfact>
</mgrwt>
</event>
<event>
12    3  0.1092576E-007  0.5396230E+03  0.7818608E-02  0.1003925E+00
          1   -1    0    0  501    0  0.00000000000E+00  0.00000000000E+00  0.12479772446E+04  0.12479772446E+04  0.00000000000E+00 0. -1.
         -2   -1    0    0    0  501 -0.00000000000E+00 -0.00000000000E+00 -0.35918268849E+03  0.35918268849E+03  0.00000000000E+00 0.  1.
        -24    2    1    2    0    0 -0.37851088698E+03 -0.37310450487E+03  0.35935854430E+03  0.64660185441E+03  0.80485598983E+02 0.  0.
    5000000    2    1    2    0    0  0.37851088698E+03  0.37310450487E+03  0.52943601184E+03  0.96055807872E+03  0.59990988393E+03 0.  0.
        -24    2    4    4    0    0  0.27296245407E+03  0.24772144457E+03  0.64325320917E+03  0.74565384961E+03  0.79690381417E+02 0.  0.
         24    2    4    4    0    0  0.10554843291E+03  0.12538306029E+03 -0.11381719734E+03  0.21490422911E+03  0.79800311904E+02 0.  0.
         13    1    5    5    0    0  0.13730230980E+03  0.12176705811E+03  0.24162329806E+03  0.30341548886E+03  0.00000000000E+00 0. -1.
        -14    1    5    5    0    0  0.13566014427E+03  0.12595438647E+03  0.40162991112E+03  0.44223836075E+03  0.00000000000E+00 0.  1.
         15    1    3    3    0    0 -0.11319614135E+03 -0.16601092440E+03  0.13067118626E+03  0.23968961197E+03  0.17770000000E+01 0. -1.
        -16    1    3    3    0    0 -0.26531474563E+03 -0.20709358047E+03  0.22868735804E+03  0.40691224244E+03  0.00000000000E+00 0.  1.
          4    1    6    6  502    0  0.74158944703E+02  0.44847032589E+02 -0.90658992687E+02  0.12541873212E+03  0.00000000000E+00 0. -1.
         -3    1    6    6    0  502  0.31389488204E+02  0.80536027705E+02 -0.23158204651E+02  0.89485496986E+02  0.00000000000E+00 0.  1.
<mgrwt>
<rscale>  0 0.53962298E+03</rscale>
<asrwt>0</asrwt>
<pdfrwt beam="1">  1        1 0.19199650E+00 0.53962298E+03</pdfrwt>
<pdfrwt beam="2">  1       -2 0.55258876E-01 0.53962298E+03</pdfrwt>
<totfact> 0.28058853E+01</totfact>
</mgrwt>
</event>
<event>
12    3  0.1092576E-007  0.6927906E+03  0.7818608E-02  0.9729641E-01
          1   -1    0    0  501    0  0.00000000000E+00  0.00000000000E+00  0.74055952808E+03  0.74055952808E+03  0.00000000000E+00 0. -1.
         -2   -1    0    0    0  501 -0.00000000000E+00 -0.00000000000E+00 -0.96210501501E+03  0.96210501501E+03  0.00000000000E+00 0.  1.
        -24    2    1    2    0    0  0.65969915721E+02 -0.60517450606E+03 -0.51271689670E+03  0.79967156318E+03  0.77509871871E+02 0.  0.
    5000000    2    1    2    0    0 -0.65969915721E+02  0.60517450606E+03  0.29117140978E+03  0.90299297991E+03  0.60002276567E+03 0.  0.
        -24    2    4    4    0    0 -0.13029921137E+03 -0.26754252736E+02 -0.70196602261E+02  0.16755203831E+03  0.73840693735E+02 0.  0.
         24    2    4    4    0    0  0.64329295647E+02  0.63192875879E+03  0.36136801204E+03  0.73544094159E+03  0.82548918681E+02 0.  0.
         13    1    5    5    0    0 -0.11375033142E+03 -0.17916048929E+02 -0.23911296473E+02  0.11760898268E+03  0.00000000000E+00 0. -1.
        -14    1    5    5    0    0 -0.16548879943E+02 -0.88382038077E+01 -0.46285305788E+02  0.49943055631E+02  0.00000000000E+00 0.  1.
         15    1    3    3    0    0  0.39788548727E+02 -0.53080744616E+03 -0.46946041639E+03  0.70974355495E+03  0.17770000000E+01 0. -1.
        -16    1    3    3    0    0  0.26181366993E+02 -0.74367059901E+02 -0.43256480311E+02  0.89928008234E+02  0.00000000000E+00 0.  1.
          4    1    6    6  502    0  0.17981196412E+01  0.40873396185E+03  0.23250997034E+03  0.47024203461E+03  0.00000000000E+00 0. -1.
         -3    1    6    6    0  502  0.62531176006E+02  0.22319479694E+03  0.12885804170E+03  0.26519890698E+03  0.00000000000E+00 0.  1.
<mgrwt>
<rscale>  0 0.69279058E+03</rscale>
<asrwt>0</asrwt>
<pdfrwt beam="1">  1        1 0.11393224E+00 0.69279058E+03</pdfrwt>
<pdfrwt beam="2">  1       -2 0.14801615E+00 0.69279058E+03</pdfrwt>
<totfact> 0.69924254E+00</totfact>
</mgrwt>
</event>
<event>
12    3  0.1092576E-007  0.9899457E+03  0.7818608E-02  0.9319641E-01
         -2   -1    0    0    0  501 -0.00000000000E+00  0.00000000000E+00  0.31832306389E+03  0.31832306389E+03  0.00000000000E+00 0.  1.
          1   -1    0    0  501    0  0.00000000000E+00 -0.00000000000E+00 -0.31419695701E+04  0.31419695701E+04  0.00000000000E+00 0. -1.
        -24    2    1    2    0    0  0.51892347316E+03 -0.74472860595E+03 -0.12887003010E+04  0.15789496805E+04  0.91822439466E+02 0.  0.
    5000000    2    1    2    0    0 -0.51892347316E+03  0.74472860595E+03 -0.15349462052E+04  0.18813429534E+04  0.59957417224E+03 0.  0.
        -24    2    4    4    0    0 -0.62988117699E+03  0.59303945080E+03 -0.13533990717E+04  0.16082943572E+04  0.80471142715E+02 0.  0.
         24    2    4    4    0    0  0.11095770383E+03  0.15168915515E+03 -0.18154713348E+03  0.27304859620E+03  0.79214660137E+02 0.  0.
         11    1    5    5    0    0 -0.41378241427E+03  0.42093631456E+03 -0.86550734597E+03  0.10476193169E+04  0.00000000000E+00 0. -1.
        -12    1    5    5    0    0 -0.21609876273E+03  0.17210313624E+03 -0.48789172577E+03  0.56067504032E+03  0.00000000000E+00 0.  1.
         15    1    3    3    0    0  0.35856102113E+03 -0.46730757363E+03 -0.77367699730E+03  0.97237936431E+03  0.17770000000E+01 0. -1.
        -16    1    3    3    0    0  0.16036245203E+03 -0.27742103232E+03 -0.51502330369E+03  0.60657031624E+03  0.00000000000E+00 0.  1.
          2    1    6    6  502    0  0.35758041896E+02  0.11464599048E+03 -0.10460577737E+03  0.15926301942E+03  0.00000000000E+00 0. -1.
         -1    1    6    6    0  502  0.75199661937E+02  0.37043164673E+02 -0.76941356107E+02  0.11378557678E+03  0.00000000000E+00 0.  1.
<mgrwt>
<rscale>  0 0.98994574E+03</rscale>
<asrwt>0</asrwt>
<pdfrwt beam="1">  1        1 0.48337995E+00 0.98994574E+03</pdfrwt>
<pdfrwt beam="2">  1       -2 0.48972778E-01 0.98994574E+03</pdfrwt>
<totfact> 0.16780056E+00</totfact>
</mgrwt>
</event>
<event>
12    3  0.1092576E-007  0.8297984E+03  0.7818608E-02  0.9517859E-01
          1   -1    0    0  501    0  0.00000000000E+00  0.00000000000E+00  0.12308278044E+04  0.12308278044E+04  0.00000000000E+00 0. -1.
         -2   -1    0    0    0  501 -0.00000000000E+00 -0.00000000000E+00 -0.93179925059E+03  0.93179925059E+03  0.00000000000E+00 0.  1.
        -24    2    1    2    0    0  0.74595246958E+03 -0.82366801711E+02 -0.50636913142E+03  0.90886770019E+03  0.80008888872E+02 0.  0.
    5000000    2    1    2    0    0 -0.74595246958E+03  0.82366801711E+02  0.80539768526E+03  0.12537593548E+04  0.60001475939E+03 0.  0.
        -24    2    4    4    0    0 -0.28364697326E+03  0.27891796683E+03  0.55590539784E+03  0.68808865548E+03  0.78640630705E+02 0.  0.
         24    2    4    4    0    0 -0.46230549632E+03 -0.19655116511E+03  0.24949228742E+03  0.56567069934E+03  0.73336254154E+02 0.  0.
         11    1    5    5    0    0 -0.16292949718E+03  0.14636420784E+03  0.24045252351E+03  0.32524747263E+03  0.00000000000E+00 0. -1.
        -12    1    5    5    0    0 -0.12071747607E+03  0.13255375899E+03  0.31545287433E+03  0.36284118285E+03  0.00000000000E+00 0.  1.
         15    1    3    3    0    0  0.45126529516E+03 -0.87958995929E+02 -0.29740088901E+03  0.54756515420E+03  0.17770000000E+01 0. -1.
        -16    1    3    3    0    0  0.29468717442E+03  0.55921942175E+01 -0.20896824241E+03  0.36130254600E+03  0.00000000000E+00 0.  1.
          4    1    6    6  502    0 -0.29022077883E+03 -0.87743656024E+02  0.13280702244E+03  0.33100567192E+03  0.00000000000E+00 0. -1.
         -3    1    6    6    0  502 -0.17208471749E+03 -0.10880750909E+03  0.11668526498E+03  0.23466502742E+03  0.00000000000E+00 0.  1.
<mgrwt>
<rscale>  0 0.82979835E+03</rscale>
<asrwt>0</asrwt>
<pdfrwt beam="1">  1        1 0.18935812E+00 0.82979835E+03</pdfrwt>
<pdfrwt beam="2">  1       -2 0.14335373E+00 0.82979835E+03</pdfrwt>
<totfact> 0.30581173E+00</totfact>
</mgrwt>
</event>
<event>
12    3  0.1092576E-007  0.5542327E+03  0.7818608E-02  0.1000519E+00
         -2   -1    0    0    0  501 -0.00000000000E+00  0.00000000000E+00  0.29838942244E+03  0.29838942244E+03  0.00000000000E+00 0.  1.
          1   -1    0    0  501    0  0.00000000000E+00 -0.00000000000E+00 -0.11957986209E+04  0.11957986209E+04  0.00000000000E+00 0. -1.
        -24    2    1    2    0    0 -0.26094275290E+03 -0.30504004514E+03 -0.56882425357E+03  0.70103477024E+03  0.82147234878E+02 0.  0.
    5000000    2    1    2    0    0  0.26094275290E+03  0.30504004514E+03 -0.32858494487E+03  0.79315327309E+03  0.59998624916E+03 0.  0.
        -24    2    4    4    0    0  0.42231711271E+03  0.93528470788E+02 -0.24262768294E+03  0.50198574466E+03  0.77602685408E+02 0.  0.
         24    2    4    4    0    0 -0.16137435981E+03  0.21151157436E+03 -0.85957261936E+02  0.29116752843E+03  0.81308355284E+02 0.  0.
         13    1    5    5    0    0  0.28483781718E+03  0.43960004918E+02 -0.19616927890E+03  0.34863655877E+03  0.00000000000E+00 0. -1.
        -14    1    5    5    0    0  0.13747929553E+03  0.49568465870E+02 -0.46458404038E+02  0.15334918589E+03  0.00000000000E+00 0.  1.
         15    1    3    3    0    0 -0.79237307810E+02 -0.46256396730E+02 -0.10207712783E+03  0.13726289718E+03  0.17770000000E+01 0. -1.
        -16    1    3    3    0    0 -0.18170544509E+03 -0.25878364841E+03 -0.46674712574E+03  0.56377187306E+03  0.00000000000E+00 0.  1.
          4    1    6    6  502    0 -0.12984748802E+03  0.17475048494E+03 -0.34364622238E+02  0.22040650942E+03  0.00000000000E+00 0. -1.
         -1    1    6    6    0  502 -0.31526871790E+02  0.36761089412E+02 -0.51592639698E+02  0.70761019004E+02  0.00000000000E+00 0.  1.
<mgrwt>
<rscale>  0 0.55423270E+03</rscale>
<asrwt>0</asrwt>
<pdfrwt beam="1">  1        1 0.18396902E+00 0.55423270E+03</pdfrwt>
<pdfrwt beam="2">  1       -2 0.45906065E-01 0.55423270E+03</pdfrwt>
<totfact> 0.44442330E+01</totfact>
</mgrwt>
</event>
<event>
12    3  0.1092576E-007  0.7398971E+03  0.7818608E-02  0.9651335E-01
          1   -1    0    0  501    0  0.00000000000E+00  0.00000000000E+00  0.74539822093E+03  0.74539822093E+03  0.00000000000E+00 0. -1.
         -2   -1    0    0    0  501 -0.00000000000E+00 -0.00000000000E+00 -0.99119948613E+03  0.99119948613E+03  0.00000000000E+00 0.  1.
        -24    2    1    2    0    0 -0.74111916016E+02  0.65169491303E+03 -0.48081912611E+03  0.81710344510E+03  0.79197046532E+02 0.  0.
    5000000    2    1    2    0    0  0.74111916016E+02 -0.65169491303E+03  0.23501786091E+03  0.91949426196E+03  0.60003122173E+03 0.  0.
        -24    2    4    4    0    0  0.19928022584E+03 -0.48037327225E+02 -0.65149568263E+02  0.22953056672E+03  0.80122541111E+02 0.  0.
         24    2    4    4    0    0 -0.12516830983E+03 -0.60365758581E+03  0.30016742918E+03  0.68996369524E+03  0.76680039902E+02 0.  0.
         13    1    5    5    0    0  0.11778987011E+03 -0.32457675362E+02 -0.78887627737E+02  0.14543456261E+03  0.00000000000E+00 0. -1.
        -14    1    5    5    0    0  0.81490355727E+02 -0.15579651863E+02  0.13738059474E+02  0.84096004107E+02  0.00000000000E+00 0.  1.
         15    1    3    3    0    0 -0.72127344295E+02  0.47534484692E+03 -0.38792255647E+03  0.61777191975E+03  0.17770000000E+01 0. -1.
        -16    1    3    3    0    0 -0.19845717208E+01  0.17635006611E+03 -0.92896569642E+02  0.19933152534E+03  0.00000000000E+00 0.  1.
          4    1    6    6  502    0 -0.96352163066E+02 -0.38152411567E+03  0.22720227247E+03  0.45438448783E+03  0.00000000000E+00 0. -1.
         -3    1    6    6    0  502 -0.28816146760E+02 -0.22213347014E+03  0.72965156708E+02  0.23557920741E+03  0.00000000000E+00 0.  1.
<mgrwt>
<rscale>  0 0.73989709E+03</rscale>
<asrwt>0</asrwt>
<pdfrwt beam="1">  1        1 0.11467665E+00 0.73989709E+03</pdfrwt>
<pdfrwt beam="2">  1       -2 0.15249223E+00 0.73989709E+03</pdfrwt>
<totfact> 0.63606474E+00</totfact>
</mgrwt>
</event>
<event>
12    3  0.1092576E-007  0.8737646E+03  0.7818608E-02  0.9458985E-01
         -2   -1    0    0    0  501 -0.00000000000E+00  0.00000000000E+00  0.14399085129E+04  0.14399085129E+04  0.00000000000E+00 0.  1.
          1   -1    0    0  501    0  0.00000000000E+00 -0.00000000000E+00 -0.10541570830E+04  0.10541570830E+04  0.00000000000E+00 0. -1.
        -24    2    1    2    0    0  0.15534080799E+03 -0.78189691617E+03  0.10313157969E+04  0.13058209253E+04  0.77861812139E+02 0.  0.
    5000000    2    1    2    0    0 -0.15534080799E+03  0.78189691617E+03 -0.64556436711E+03  0.11882446706E+04  0.59973201589E+03 0.  0.
        -24    2    4    4    0    0  0.17622906701E+03  0.31973314431E+03 -0.80843278673E+02  0.38279038514E+03  0.81895516437E+02 0.  0.
         24    2    4    4    0    0 -0.33156987500E+03  0.46216377186E+03 -0.56472108844E+03  0.80545428542E+03  0.79452905254E+02 0.  0.
         11    1    5    5    0    0 -0.72349828924E+01  0.21588459474E+02 -0.12961061238E+02  0.26199153962E+02  0.00000000000E+00 0. -1.
        -12    1    5    5    0    0  0.18346404991E+03  0.29814468484E+03 -0.67882217435E+02  0.35659123117E+03  0.00000000000E+00 0.  1.
         15    1    3    3    0    0  0.23368737031E+01 -0.16251762042E+03  0.19251108466E+03  0.25195458593E+03  0.17770000000E+01 0. -1.
        -16    1    3    3    0    0  0.15300393428E+03 -0.61937929575E+03  0.83880471229E+03  0.10538663394E+04  0.00000000000E+00 0.  1.
          2    1    6    6  502    0 -0.68323530947E+02  0.48356270065E+02 -0.89458043116E+02  0.12251193907E+03  0.00000000000E+00 0. -1.
         -1    1    6    6    0  502 -0.26324634405E+03  0.41380750179E+03 -0.47526304532E+03  0.68294234635E+03  0.00000000000E+00 0.  1.
<mgrwt>
<rscale>  0 0.87376455E+03</rscale>
<asrwt>0</asrwt>
<pdfrwt beam="1">  1        1 0.16217801E+00 0.87376455E+03</pdfrwt>
<pdfrwt beam="2">  1       -2 0.22152439E+00 0.87376455E+03</pdfrwt>
<totfact> 0.11829938E+00</totfact>
</mgrwt>
</event>
<event>
12    3  0.1339823E-007  0.1529870E+04  0.7818608E-02  0.8864829E-01
          1   -1    0    0  501    0  0.00000000000E+00  0.00000000000E+00  0.27007213421E+04  0.27007213421E+04  0.00000000000E+00 0. -1.
         -2   -1    0    0    0  501 -0.00000000000E+00 -0.00000000000E+00 -0.10176296210E+04  0.10176296210E+04  0.00000000000E+00 0.  1.
        -24    2    1    2    0    0  0.14211022442E+04  0.42695126035E+03  0.14933287669E+04  0.21067137998E+04  0.79957871895E+02 0.  0.
    5000000    2    1    2    0    0 -0.14211022442E+04 -0.42695126035E+03  0.18976295415E+03  0.16116371632E+04  0.59962104703E+03 0.  0.
        -24    2    4    4    0    0 -0.22996152822E+02 -0.11974532462E+03 -0.58825103081E+02  0.15665929626E+03  0.78828779892E+02 0.  0.
         24    2    4    4    0    0 -0.13981060913E+04 -0.30720593573E+03  0.24858805723E+03  0.14549778670E+04  0.78028466406E+02 0.  0.
         11    1    5    5    0    0  0.67218708870E+01  0.83766980623E+01 -0.14131072616E+02  0.17749361451E+02  0.00000000000E+00 0. -1.
        -12    1    5    5    0    0 -0.29718023709E+02 -0.12812202268E+03 -0.44694030465E+02  0.13890993481E+03  0.00000000000E+00 0.  1.
         15    1    3    3    0    0  0.11353494963E+04  0.33478982102E+03  0.11451932258E+04  0.16469891879E+04  0.17770000000E+01 0. -1.
        -16    1    3    3    0    0  0.28575274783E+03  0.92161439326E+02  0.34813554112E+03  0.45972461190E+03  0.00000000000E+00 0.  1.
          4    1    6    6  502    0 -0.69753332425E+03 -0.11368780277E+03  0.12785615724E+03  0.71820947633E+03  0.00000000000E+00 0. -1.
         -3    1    6    6    0  502 -0.70057276709E+03 -0.19351813295E+03  0.12073190000E+03  0.73676839064E+03  0.00000000000E+00 0.  1.
<mgrwt>
<rscale>  0 0.15298702E+04</rscale>
<asrwt>0</asrwt>
<pdfrwt beam="1">  1        1 0.41549559E+00 0.15298702E+04</pdfrwt>
<pdfrwt beam="2">  1       -2 0.15655840E+00 0.15298702E+04</pdfrwt>
<totfact> 0.21674413E-01</totfact>
</mgrwt>
</event>
<event>
12    3  0.1092576E-007  0.5095458E+03  0.7818608E-02  0.1011317E+00
         -2   -1    0    0    0  501 -0.00000000000E+00  0.00000000000E+00  0.64854122528E+03  0.64854122528E+03  0.00000000000E+00 0.  1.
          1   -1    0    0  501    0  0.00000000000E+00 -0.00000000000E+00 -0.52723467558E+03  0.52723467558E+03  0.00000000000E+00 0. -1.
        -24    2    1    2    0    0  0.39735524158E+03 -0.11642407441E+03 -0.58447687646E+02  0.42517709191E+03  0.76900417346E+02 0.  0.
    5000000    2    1    2    0    0 -0.39735524158E+03  0.11642407441E+03  0.17975423734E+03  0.75059880895E+03  0.59970095301E+03 0.  0.
        -24    2    4    4    0    0 -0.22667977746E+03  0.26692018292E+03 -0.10759134723E+03  0.37524776774E+03  0.81270435162E+02 0.  0.
         24    2    4    4    0    0 -0.17067546411E+03 -0.15049610852E+03  0.28734558456E+03  0.37535104121E+03  0.80880939888E+02 0.  0.
         11    1    5    5    0    0 -0.76148040338E+02  0.14621999596E+03 -0.67708266139E+02  0.17822239076E+03  0.00000000000E+00 0. -1.
        -12    1    5    5    0    0 -0.15053173713E+03  0.12070018697E+03 -0.39883081087E+02  0.19702537698E+03  0.00000000000E+00 0.  1.
         15    1    3    3    0    0  0.18219587971E+03 -0.93343535289E+02 -0.26152583135E+02  0.20638669894E+03  0.17770000000E+01 0. -1.
        -16    1    3    3    0    0  0.21515936187E+03 -0.23080539116E+02 -0.32295104511E+02  0.21879039298E+03  0.00000000000E+00 0.  1.
          2    1    6    6  502    0 -0.11592481936E+03 -0.51094122254E+02  0.13185177372E+03  0.18284983813E+03  0.00000000000E+00 0. -1.
         -1    1    6    6    0  502 -0.54750644759E+02 -0.99401986266E+02  0.15549381085E+03  0.19250120308E+03  0.00000000000E+00 0.  1.
<mgrwt>
<rscale>  0 0.50954577E+03</rscale>
<asrwt>0</asrwt>
<pdfrwt beam="1">  1        1 0.81113027E-01 0.50954577E+03</pdfrwt>
<pdfrwt beam="2">  1       -2 0.99775573E-01 0.50954577E+03</pdfrwt>
<totfact> 0.31149369E+01</totfact>
</mgrwt>
</event>
<event>
12    3  0.1092576E-007  0.1553141E+04  0.7818608E-02  0.8849864E-01
          1   -1    0    0  501    0  0.00000000000E+00  0.00000000000E+00  0.22217724788E+04  0.22217724788E+04  0.00000000000E+00 0. -1.
         -2   -1    0    0    0  501 -0.00000000000E+00 -0.00000000000E+00 -0.11488345352E+04  0.11488345352E+04  0.00000000000E+00 0.  1.
        -24    2    1    2    0    0  0.33433332670E+03  0.15033545234E+04  0.54097576544E+03  0.16342951787E+04  0.80077188387E+02 0.  0.
    5000000    2    1    2    0    0 -0.33433332670E+03 -0.15033545234E+04  0.53196217814E+03  0.17363118353E+04  0.59995119302E+03 0.  0.
        -24    2    4    4    0    0 -0.28558242271E+03 -0.14125611465E+04  0.30635842525E+03  0.14755298045E+04  0.80289516901E+02 0.  0.
         24    2    4    4    0    0 -0.48750903991E+02 -0.90793376824E+02  0.22560375289E+03  0.26078203070E+03  0.80561320142E+02 0.  0.
         11    1    5    5    0    0 -0.11517211782E+03 -0.63183709541E+03  0.17535935191E+03  0.66575793962E+03  0.00000000000E+00 0. -1.
        -12    1    5    5    0    0 -0.17041030489E+03 -0.78072405112E+03  0.13099907333E+03  0.80977186493E+03  0.00000000000E+00 0.  1.
         15    1    3    3    0    0  0.19776831931E+03  0.73590024009E+03  0.29094097642E+03  0.81566615780E+03  0.17770000000E+01 0. -1.
        -16    1    3    3    0    0  0.13656500739E+03  0.76745428327E+03  0.25003478902E+03  0.81862902091E+03  0.00000000000E+00 0.  1.
          4    1    6    6  502    0 -0.52422789424E+01  0.11283582511E+02  0.61092087137E+02  0.62346161338E+02  0.00000000000E+00 0. -1.
         -3    1    6    6    0  502 -0.43508625049E+02 -0.10207695934E+03  0.16451166576E+03  0.19843586937E+03  0.00000000000E+00 0.  1.
<mgrwt>
<rscale>  0 0.15531410E+04</rscale>
<asrwt>0</asrwt>
<pdfrwt beam="1">  1        1 0.34181115E+00 0.15531410E+04</pdfrwt>
<pdfrwt beam="2">  1       -2 0.17674378E+00 0.15531410E+04</pdfrwt>
<totfact> 0.33092980E-01</totfact>
</mgrwt>
</event>
<event>
12    3  0.1092576E-007  0.7100666E+03  0.7818608E-02  0.9700170E-01
          1   -1    0    0  501    0  0.00000000000E+00  0.00000000000E+00  0.13780637498E+04  0.13780637498E+04  0.00000000000E+00 0. -1.
         -2   -1    0    0    0  501 -0.00000000000E+00 -0.00000000000E+00 -0.54644621649E+03  0.54644621649E+03  0.00000000000E+00 0.  1.
        -24    2    1    2    0    0  0.54448034647E+03  0.25945732610E+03  0.88292024387E+03  0.10722331984E+04  0.79742854953E+02 0.  0.
    5000000    2    1    2    0    0 -0.54448034647E+03 -0.25945732610E+03 -0.51302710555E+02  0.85227676791E+03  0.59997230706E+03 0.  0.
        -24    2    4    4    0    0  0.57573157806E+02  0.75239487885E+02  0.78854729541E+02  0.14648863834E+03  0.79153040087E+02 0.  0.
         24    2    4    4    0    0 -0.60205350428E+03 -0.33469681398E+03 -0.13015744010E+03  0.70578812957E+03  0.81887394147E+02 0.  0.
         11    1    5    5    0    0 -0.81372391852E+01  0.52804759797E+02  0.27241212801E+02  0.59972001748E+02  0.00000000000E+00 0. -1.
        -12    1    5    5    0    0  0.65710396991E+02  0.22434728088E+02  0.51613516740E+02  0.86516636593E+02  0.00000000000E+00 0.  1.
         15    1    3    3    0    0  0.92532116607E+02  0.56260476409E+02  0.21308858440E+03  0.23903417400E+03  0.17770000000E+01 0. -1.
        -16    1    3    3    0    0  0.45194822987E+03  0.20319684969E+03  0.66983165948E+03  0.83319902439E+03  0.00000000000E+00 0.  1.
          4    1    6    6  502    0 -0.28520874314E+03 -0.11322590500E+03 -0.48259064362E+02  0.31063333694E+03  0.00000000000E+00 0. -1.
         -3    1    6    6    0  502 -0.31684476114E+03 -0.22147090898E+03 -0.81898375735E+02  0.39515479262E+03  0.00000000000E+00 0.  1.
<mgrwt>
<rscale>  0 0.71006657E+03</rscale>
<asrwt>0</asrwt>
<pdfrwt beam="1">  1        1 0.21200981E+00 0.71006657E+03</pdfrwt>
<pdfrwt beam="2">  1       -2 0.84068649E-01 0.71006657E+03</pdfrwt>
<totfact> 0.89389055E+00</totfact>
</mgrwt>
</event>
<event>
12    3  0.1092576E-007  0.1356853E+04  0.7818608E-02  0.8985657E-01
         -2   -1    0    0    0  501 -0.00000000000E+00  0.00000000000E+00  0.12873830634E+04  0.12873830634E+04  0.00000000000E+00 0.  1.
          1   -1    0    0  501    0  0.00000000000E+00 -0.00000000000E+00 -0.15721917972E+04  0.15721917972E+04  0.00000000000E+00 0. -1.
        -24    2    1    2    0    0  0.11672483550E+04 -0.57145504395E+03  0.26046226923E+03  0.13277751999E+04  0.78209963440E+02 0.  0.
    5000000    2    1    2    0    0 -0.11672483550E+04  0.57145504395E+03 -0.54527100306E+03  0.15317996608E+04  0.60005011832E+03 0.  0.
        -24    2    4    4    0    0 -0.66853137858E+03  0.19262455084E+02 -0.35603231953E+03  0.76190408798E+03  0.80209602931E+02 0.  0.
         24    2    4    4    0    0 -0.49871697639E+03  0.55219258887E+03 -0.18923868353E+03  0.76989557278E+03  0.57381494504E+02 0.  0.
         13    1    5    5    0    0 -0.33970255940E+01  0.22452021225E+01 -0.12405147154E+02  0.13056354444E+02  0.00000000000E+00 0. -1.
        -14    1    5    5    0    0 -0.66513435299E+03  0.17017252962E+02 -0.34362717238E+03  0.74884773353E+03  0.00000000000E+00 0.  1.
         15    1    3    3    0    0  0.66102349456E+03 -0.30489339727E+03  0.11013149560E+03  0.73623647568E+03  0.17770000000E+01 0. -1.
        -16    1    3    3    0    0  0.50622486040E+03 -0.26656164668E+03  0.15033077363E+03  0.59153872424E+03  0.00000000000E+00 0.  1.
          4    1    6    6  502    0 -0.41944385593E+03  0.47227525251E+03 -0.13969463122E+03  0.64690930771E+03  0.00000000000E+00 0. -1.
         -3    1    6    6    0  502 -0.79273120459E+02  0.79917336352E+02 -0.49544052307E+02  0.12298626507E+03  0.00000000000E+00 0.  1.
<mgrwt>
<rscale>  0 0.13568532E+04</rscale>
<asrwt>0</asrwt>
<pdfrwt beam="1">  1        1 0.24187566E+00 0.13568532E+04</pdfrwt>
<pdfrwt beam="2">  1       -2 0.19805893E+00 0.13568532E+04</pdfrwt>
<totfact> 0.67053426E-01</totfact>
</mgrwt>
</event>
<event>
12    3  0.1092576E-007  0.1273722E+04  0.7818608E-02  0.9050667E-01
         -2   -1    0    0    0  501 -0.00000000000E+00  0.00000000000E+00  0.68762927932E+03  0.68762927932E+03  0.00000000000E+00 0.  1.
          1   -1    0    0  501    0  0.00000000000E+00 -0.00000000000E+00 -0.24755414092E+04  0.24755414092E+04  0.00000000000E+00 0. -1.
        -24    2    1    2    0    0  0.78810349701E+03  0.91216863691E+03 -0.52537114898E+03  0.13173289981E+04  0.78626337522E+02 0.  0.
    5000000    2    1    2    0    0 -0.78810349701E+03 -0.91216863691E+03 -0.12625409809E+04  0.18458416904E+04  0.59996922707E+03 0.  0.
        -24    2    4    4    0    0 -0.47869266590E+03 -0.90426426102E+03 -0.98618563498E+03  0.14231601155E+04  0.77343943701E+02 0.  0.
         24    2    4    4    0    0 -0.30941083111E+03 -0.79043758903E+01 -0.27635534595E+03  0.42268157490E+03  0.80559884332E+02 0.  0.
         13    1    5    5    0    0 -0.24008364614E+03 -0.51227938262E+03 -0.58168041287E+03  0.81143232972E+03  0.00000000000E+00 0. -1.
        -14    1    5    5    0    0 -0.23860901976E+03 -0.39198487840E+03 -0.40450522211E+03  0.61172778580E+03  0.00000000000E+00 0.  1.
         15    1    3    3    0    0  0.19440654030E+03  0.27888466903E+03 -0.15054469675E+03  0.37180293837E+03  0.17770000000E+01 0. -1.
        -16    1    3    3    0    0  0.59369695671E+03  0.63328396788E+03 -0.37482645223E+03  0.94552605975E+03  0.00000000000E+00 0.  1.
          4    1    6    6  502    0 -0.10206788817E+03  0.24380273955E+02 -0.58254233236E+02  0.12002419441E+03  0.00000000000E+00 0. -1.
         -3    1    6    6    0  502 -0.20734294294E+03 -0.32284649846E+02 -0.21810111271E+03  0.30265738050E+03  0.00000000000E+00 0.  1.
<mgrwt>
<rscale>  0 0.12737222E+04</rscale>
<asrwt>0</asrwt>
<pdfrwt beam="1">  1        1 0.38085252E+00 0.12737222E+04</pdfrwt>
<pdfrwt beam="2">  1       -2 0.10578912E+00 0.12737222E+04</pdfrwt>
<totfact> 0.87200856E-01</totfact>
</mgrwt>
</event>
<event>
12    3  0.1092576E-007  0.3303887E+03  0.7818608E-02  0.1070965E+00
          3   -1    0    0  501    0  0.00000000000E+00  0.00000000000E+00  0.15687504259E+03  0.15687504259E+03  0.00000000000E+00 0. -1.
         -4   -1    0    0    0  501 -0.00000000000E+00 -0.00000000000E+00 -0.16756913924E+04  0.16756913924E+04  0.00000000000E+00 0.  1.
        -24    2    1    2    0    0  0.12926724122E+03  0.12752595140E+02 -0.10479457549E+04  0.10589101209E+04  0.78915718150E+02 0.  0.
    5000000    2    1    2    0    0 -0.12926724122E+03 -0.12752595140E+02 -0.47087059494E+03  0.77365631412E+03  0.59996027107E+03 0.  0.
        -24    2    4    4    0    0 -0.18172259930E+02 -0.24931886994E+03 -0.45798794683E+02  0.26829220924E+03  0.85982847166E+02 0.  0.
         24    2    4    4    0    0 -0.11109498129E+03  0.23656627480E+03 -0.42507180025E+03  0.50536410488E+03  0.80007161483E+02 0.  0.
         11    1    5    5    0    0  0.30207144403E+01 -0.22665800546E+03 -0.59527207596E+02  0.23436395755E+03  0.00000000000E+00 0. -1.
        -12    1    5    5    0    0 -0.21192974370E+02 -0.22660864477E+02  0.13728412914E+02  0.33928251688E+02  0.00000000000E+00 0.  1.
         15    1    3    3    0    0  0.54019442328E+02  0.35908776357E+01 -0.18851835195E+03  0.19614617330E+03  0.17770000000E+01 0. -1.
        -16    1    3    3    0    0  0.75247798888E+02  0.91617175042E+01 -0.85942740298E+03  0.86276394761E+03  0.00000000000E+00 0.  1.
          4    1    6    6  502    0 -0.10792759738E+03  0.14140338394E+03 -0.26701035175E+03  0.32083922953E+03  0.00000000000E+00 0. -1.
         -3    1    6    6    0  502 -0.31673839049E+01  0.95162890862E+02 -0.15806144850E+03  0.18452487535E+03  0.00000000000E+00 0.  1.
<mgrwt>
<rscale>  0 0.33038866E+03</rscale>
<asrwt>0</asrwt>
<pdfrwt beam="1">  1        3 0.24134622E-01 0.33038866E+03</pdfrwt>
<pdfrwt beam="2">  1       -4 0.25779867E+00 0.33038866E+03</pdfrwt>
<totfact> 0.21672167E+00</totfact>
</mgrwt>
</event>
<event>
12    3  0.1092576E-007  0.8091175E+03  0.7818608E-02  0.9546913E-01
          1   -1    0    0  501    0  0.00000000000E+00  0.00000000000E+00  0.21988749091E+04  0.21988749091E+04  0.00000000000E+00 0. -1.
         -2   -1    0    0    0  501 -0.00000000000E+00 -0.00000000000E+00 -0.31156023776E+03  0.31156023776E+03  0.00000000000E+00 0.  1.
        -24    2    1    2    0    0  0.62292311761E+03  0.35385168060E+03  0.83536807153E+03  0.11033654750E+04  0.79569680579E+02 0.  0.
    5000000    2    1    2    0    0 -0.62292311761E+03 -0.35385168060E+03  0.10519465998E+04  0.14070696719E+04  0.60000765863E+03 0.  0.
        -24    2    4    4    0    0 -0.25868284826E+03 -0.44840219492E+03  0.44406708288E+03  0.68683765995E+03  0.81049692360E+02 0.  0.
         24    2    4    4    0    0 -0.36424026935E+03  0.94550514319E+02  0.60787951692E+03  0.72023201195E+03  0.87211641229E+02 0.  0.
         13    1    5    5    0    0 -0.47290811216E+02 -0.69328462259E+02  0.36754150153E+02  0.91617269432E+02  0.00000000000E+00 0. -1.
        -14    1    5    5    0    0 -0.21139203705E+03 -0.37907373266E+03  0.40731293273E+03  0.59522039052E+03  0.00000000000E+00 0.  1.
         15    1    3    3    0    0  0.21314717523E+03  0.13282381650E+03  0.23817585832E+03  0.34612827356E+03  0.17770000000E+01 0. -1.
        -16    1    3    3    0    0  0.40977594238E+03  0.22102786410E+03  0.59719221320E+03  0.75723720139E+03  0.00000000000E+00 0.  1.
          4    1    6    6  502    0 -0.21974552789E+03  0.94109283290E+02  0.33628984378E+03  0.41259606549E+03  0.00000000000E+00 0. -1.
         -3    1    6    6    0  502 -0.14449474146E+03  0.44123102884E+00  0.27158967315E+03  0.30763594646E+03  0.00000000000E+00 0.  1.
<mgrwt>
<rscale>  0 0.80911750E+03</rscale>
<asrwt>0</asrwt>
<pdfrwt beam="1">  1        1 0.33828844E+00 0.80911750E+03</pdfrwt>
<pdfrwt beam="2">  1       -2 0.47932346E-01 0.80911750E+03</pdfrwt>
<totfact> 0.81938565E+00</totfact>
</mgrwt>
</event>
<event>
12    3  0.1092576E-007  0.9658160E+03  0.7818608E-02  0.9346853E-01
          1   -1    0    0  501    0  0.00000000000E+00  0.00000000000E+00  0.16272798508E+04  0.16272798508E+04  0.00000000000E+00 0. -1.
         -2   -1    0    0    0  501 -0.00000000000E+00 -0.00000000000E+00 -0.88901843773E+03  0.88901843773E+03  0.00000000000E+00 0.  1.
        -24    2    1    2    0    0  0.79172844527E+03 -0.50205239670E+03 -0.30646595893E+03  0.98966193658E+03  0.81356159284E+02 0.  0.
    5000000    2    1    2    0    0 -0.79172844527E+03  0.50205239670E+03  0.10447273720E+04  0.15266363520E+04  0.60022723133E+03 0.  0.
        -24    2    4    4    0    0 -0.64521242762E+03  0.50855321578E+03  0.51957250702E+03  0.97533738446E+03  0.80012333043E+02 0.  0.
         24    2    4    4    0    0 -0.14651601765E+03 -0.65008190815E+01  0.52515486501E+03  0.55129896751E+03  0.81447622833E+02 0.  0.
         11    1    5    5    0    0 -0.42510804944E+03  0.28577420541E+03  0.31914391644E+03  0.60352016501E+03  0.00000000000E+00 0. -1.
        -12    1    5    5    0    0 -0.22010437818E+03  0.22277901037E+03  0.20042859057E+03  0.37181721945E+03  0.00000000000E+00 0.  1.
         15    1    3    3    0    0  0.37075508131E+03 -0.18730964707E+03 -0.13626845051E+03  0.43716871175E+03  0.17770000000E+01 0. -1.
        -16    1    3    3    0    0  0.42097336396E+03 -0.31474274963E+03 -0.17019750842E+03  0.55249322483E+03  0.00000000000E+00 0.  1.
          2    1    6    6  502    0 -0.99403614802E+02 -0.40267266687E+02  0.29282677680E+03  0.31184940695E+03  0.00000000000E+00 0. -1.
         -1    1    6    6    0  502 -0.47112402850E+02  0.33766447606E+02  0.23232808821E+03  0.23944956057E+03  0.00000000000E+00 0.  1.
<mgrwt>
<rscale>  0 0.96581602E+03</rscale>
<asrwt>0</asrwt>
<pdfrwt beam="1">  1        1 0.25035075E+00 0.96581602E+03</pdfrwt>
<pdfrwt beam="2">  1       -2 0.13677207E+00 0.96581602E+03</pdfrwt>
<totfact> 0.17965120E+00</totfact>
</mgrwt>
</event>
<event>
12    3  0.1092576E-007  0.6461342E+03  0.7818608E-02  0.9814060E-01
          1   -1    0    0  501    0  0.00000000000E+00  0.00000000000E+00  0.94943107093E+03  0.94943107093E+03  0.00000000000E+00 0. -1.
         -2   -1    0    0    0  501 -0.00000000000E+00 -0.00000000000E+00 -0.11847418263E+04  0.11847418263E+04  0.00000000000E+00 0.  1.
        -24    2    1    2    0    0 -0.22069486259E+03  0.48343334133E+03 -0.92912658989E+03  0.10737675438E+04  0.85360999357E+02 0.  0.
    5000000    2    1    2    0    0  0.22069486259E+03 -0.48343334133E+03  0.69381583450E+03  0.10604053534E+04  0.60055398050E+03 0.  0.
        -24    2    4    4    0    0  0.25891668088E+03  0.32211585632E+01  0.41218316071E+03  0.49336294239E+03  0.80397832318E+02 0.  0.
         24    2    4    4    0    0 -0.38221818297E+02 -0.48665449989E+03  0.28163267379E+03  0.56704241105E+03  0.62662774585E+02 0.  0.
         11    1    5    5    0    0  0.18140706450E+03 -0.31080607004E+02  0.31088307063E+03  0.36127940819E+03  0.00000000000E+00 0. -1.
        -12    1    5    5    0    0  0.77509616388E+02  0.34301765567E+02  0.10130009008E+03  0.13208353419E+03  0.00000000000E+00 0.  1.
         15    1    3    3    0    0 -0.17056731517E+03  0.30113275089E+03 -0.65419998009E+03  0.74010466445E+03  0.17770000000E+01 0. -1.
        -16    1    3    3    0    0 -0.50127547422E+02  0.18230059044E+03 -0.27492660981E+03  0.33366287936E+03  0.00000000000E+00 0.  1.
          4    1    6    6  502    0 -0.29182188530E+02 -0.29646271745E+03  0.20589908760E+03  0.36212729424E+03  0.00000000000E+00 0. -1.
         -3    1    6    6    0  502 -0.90396297669E+01 -0.19019178245E+03  0.75733586196E+02  0.20491511680E+03  0.00000000000E+00 0.  1.
<mgrwt>
<rscale>  0 0.64613417E+03</rscale>
<asrwt>0</asrwt>
<pdfrwt beam="1">  1        1 0.14606632E+00 0.64613417E+03</pdfrwt>
<pdfrwt beam="2">  1       -2 0.18226797E+00 0.64613417E+03</pdfrwt>
<totfact> 0.26607723E+00</totfact>
</mgrwt>
</event>
<event>
12    3  0.1092576E-007  0.3183018E+03  0.7818608E-02  0.1076434E+00
          1   -1    0    0  501    0  0.00000000000E+00  0.00000000000E+00  0.15566230054E+04  0.15566230054E+04  0.00000000000E+00 0. -1.
         -2   -1    0    0    0  501 -0.00000000000E+00 -0.00000000000E+00 -0.10127530723E+03  0.10127530723E+03  0.00000000000E+00 0.  1.
        -24    2    1    2    0    0  0.12843503198E+03 -0.46073371883E+01  0.48930549959E+03  0.51381178299E+03  0.89810307932E+02 0.  0.
    5000000    2    1    2    0    0 -0.12843503198E+03  0.46073371883E+01  0.96604219858E+03  0.11440865296E+04  0.59931600417E+03 0.  0.
        -24    2    4    4    0    0  0.32914250354E+02  0.21264718930E+03  0.77765838797E+03  0.81077124333E+03  0.79342710004E+02 0.  0.
         24    2    4    4    0    0 -0.16134928233E+03 -0.20803985211E+03  0.18838381061E+03  0.33331528631E+03  0.79350167054E+02 0.  0.
         13    1    5    5    0    0  0.58914780871E+02  0.13095681999E+03  0.48258548375E+03  0.50349715911E+03  0.00000000000E+00 0. -1.
        -14    1    5    5    0    0 -0.26000530517E+02  0.81690369305E+02  0.29507290422E+03  0.30727408421E+03  0.00000000000E+00 0.  1.
         15    1    3    3    0    0  0.29241199110E+02  0.27050879966E+02  0.24528716221E+03  0.24850703714E+03  0.17770000000E+01 0. -1.
        -16    1    3    3    0    0  0.99193832869E+02 -0.31658217154E+02  0.24401833738E+03  0.26530474585E+03  0.00000000000E+00 0.  1.
          4    1    6    6  502    0 -0.31777347560E+02 -0.40152605482E+02  0.24316468778E+01  0.51263480681E+02  0.00000000000E+00 0. -1.
         -3    1    6    6    0  502 -0.12957193477E+03 -0.16788724663E+03  0.18595216373E+03  0.28205180563E+03  0.00000000000E+00 0.  1.
<mgrwt>
<rscale>  0 0.31830182E+03</rscale>
<asrwt>0</asrwt>
<pdfrwt beam="1">  1        1 0.23948044E+00 0.31830182E+03</pdfrwt>
<pdfrwt beam="2">  1       -2 0.15580818E-01 0.31830182E+03</pdfrwt>
<totfact> 0.18473019E+02</totfact>
</mgrwt>
</event>
<event>
12    3  0.1092576E-007  0.3568566E+03  0.7818608E-02  0.1059835E+00
         -2   -1    0    0    0  501 -0.00000000000E+00  0.00000000000E+00  0.68579233764E+03  0.68579233764E+03  0.00000000000E+00 0.  1.
          1   -1    0    0  501    0  0.00000000000E+00 -0.00000000000E+00 -0.19833679178E+03  0.19833679178E+03  0.00000000000E+00 0. -1.
        -24    2    1    2    0    0  0.57028983674E+02 -0.81151954090E+02  0.10669929901E+03  0.16645163103E+03  0.80519938116E+02 0.  0.
    5000000    2    1    2    0    0 -0.57028983674E+02  0.81151954090E+02  0.38075624686E+03  0.71767749838E+03  0.60020640411E+03 0.  0.
        -24    2    4    4    0    0 -0.24715583878E+02  0.32297046066E+03  0.29937422642E+03  0.44841296388E+03  0.80799011078E+02 0.  0.
         24    2    4    4    0    0 -0.32313399796E+02 -0.24181850657E+03  0.81382020436E+02  0.26926453450E+03  0.79749673136E+02 0.  0.
         13    1    5    5    0    0  0.12682643615E+02  0.77906221819E+01  0.55134516836E+01  0.15872661797E+02  0.00000000000E+00 0. -1.
        -14    1    5    5    0    0 -0.37398227494E+02  0.31517983847E+03  0.29386077474E+03  0.43254030209E+03  0.00000000000E+00 0.  1.
         15    1    3    3    0    0  0.73575736486E+02 -0.48439654049E+02  0.57950710961E+02  0.10545725065E+03  0.17770000000E+01 0. -1.
        -16    1    3    3    0    0 -0.16546752812E+02 -0.32712300042E+02  0.48748588046E+02  0.60994380389E+02  0.00000000000E+00 0.  1.
          2    1    6    6  502    0 -0.22428096317E+02 -0.98556944019E+01  0.78870144268E+01  0.25736340321E+02  0.00000000000E+00 0. -1.
         -1    1    6    6    0  502 -0.98853034787E+01 -0.23196281216E+03  0.73495006009E+02  0.24352819418E+03  0.00000000000E+00 0.  1.
<mgrwt>
<rscale>  0 0.35685664E+03</rscale>
<asrwt>0</asrwt>
<pdfrwt beam="1">  1        1 0.30513353E-01 0.35685664E+03</pdfrwt>
<pdfrwt beam="2">  1       -2 0.10550651E+00 0.35685664E+03</pdfrwt>
<totfact> 0.98508487E+01</totfact>
</mgrwt>
</event>
<event>
12    3  0.1092576E-007  0.4227517E+03  0.7818608E-02  0.1036174E+00
         -2   -1    0    0    0  501 -0.00000000000E+00  0.00000000000E+00  0.65199228149E+03  0.65199228149E+03  0.00000000000E+00 0.  1.
          1   -1    0    0  501    0  0.00000000000E+00 -0.00000000000E+00 -0.55485921095E+03  0.55485921095E+03  0.00000000000E+00 0. -1.
        -24    2    1    2    0    0  0.19152243933E+03 -0.36641963803E+03 -0.13463485028E+03  0.44218347387E+03  0.80346037559E+02 0.  0.
    5000000    2    1    2    0    0 -0.19152243933E+03  0.36641963803E+03  0.23176792083E+03  0.76466801857E+03  0.60004717615E+03 0.  0.
        -24    2    4    4    0    0 -0.61956145000E+02  0.39247602049E+02 -0.18434667310E+03  0.21393615820E+03  0.80037776889E+02 0.  0.
         24    2    4    4    0    0 -0.12956629433E+03  0.32717203598E+03  0.41611459393E+03  0.55073186037E+03  0.79531509449E+02 0.  0.
         13    1    5    5    0    0 -0.55772739628E+01  0.34161293926E+01 -0.12320360644E+03  0.12337708282E+03  0.00000000000E+00 0. -1.
        -14    1    5    5    0    0 -0.56378871037E+02  0.35831472657E+02 -0.61143066663E+02  0.90559075377E+02  0.00000000000E+00 0.  1.
         15    1    3    3    0    0  0.14016412028E+03 -0.21457933561E+03 -0.50801018212E+02  0.26129327023E+03  0.17770000000E+01 0. -1.
        -16    1    3    3    0    0  0.51358319051E+02 -0.15184030241E+03 -0.83833832073E+02  0.18089020364E+03  0.00000000000E+00 0.  1.
          2    1    6    6  502    0 -0.95299880877E+02  0.17184391658E+03  0.27569410964E+03  0.33855522600E+03  0.00000000000E+00 0. -1.
         -1    1    6    6    0  502 -0.34266413454E+02  0.15532811939E+03  0.14042048430E+03  0.21217663438E+03  0.00000000000E+00 0.  1.
<mgrwt>
<rscale>  0 0.42275175E+03</rscale>
<asrwt>0</asrwt>
<pdfrwt beam="1">  1        1 0.85362956E-01 0.42275175E+03</pdfrwt>
<pdfrwt beam="2">  1       -2 0.10030650E+00 0.42275175E+03</pdfrwt>
<totfact> 0.28987470E+01</totfact>
</mgrwt>
</event>
<event>
12    3  0.1092576E-007  0.3934736E+03  0.7818608E-02  0.1046063E+00
         -2   -1    0    0    0  501 -0.00000000000E+00  0.00000000000E+00  0.91247892763E+02  0.91247892763E+02  0.00000000000E+00 0.  1.
          1   -1    0    0  501    0  0.00000000000E+00 -0.00000000000E+00 -0.30830051514E+04  0.30830051514E+04  0.00000000000E+00 0. -1.
        -24    2    1    2    0    0  0.12620831021E+03  0.30245223583E+03 -0.59891590480E+03  0.68566978741E+03  0.63536633710E+02 0.  0.
    5000000    2    1    2    0    0 -0.12620831021E+03 -0.30245223583E+03 -0.23928413538E+04  0.24885832567E+04  0.59995915579E+03 0.  0.
        -24    2    4    4    0    0  0.79722789768E+02 -0.92018364812E+01 -0.49062523196E+02  0.11623402901E+03  0.68284854202E+02 0.  0.
         24    2    4    4    0    0 -0.20593109998E+03 -0.29325039935E+03 -0.23437788306E+04  0.23723492277E+04  0.79613043939E+02 0.  0.
         13    1    5    5    0    0  0.13188803666E+02 -0.17491761026E+02  0.12489338331E+02  0.25216855829E+02  0.00000000000E+00 0. -1.
        -14    1    5    5    0    0  0.66533986102E+02  0.82899245445E+01 -0.61551861528E+02  0.91017173177E+02  0.00000000000E+00 0.  1.
         15    1    3    3    0    0  0.11487269731E+03  0.19918309692E+03 -0.41217483695E+03  0.47197552546E+03  0.17770000000E+01 0. -1.
        -16    1    3    3    0    0  0.11335612898E+02  0.10326913891E+03 -0.18674106785E+03  0.21369426195E+03  0.00000000000E+00 0.  1.
          4    1    6    6  502    0 -0.93006316132E+02 -0.18821075325E+03 -0.12010052221E+04  0.12192157340E+04  0.00000000000E+00 0. -1.
         -3    1    6    6    0  502 -0.11292478385E+03 -0.10503964610E+03 -0.11427736085E+04  0.11531334937E+04  0.00000000000E+00 0.  1.
<mgrwt>
<rscale>  0 0.39347362E+03</rscale>
<asrwt>0</asrwt>
<pdfrwt beam="1">  1        1 0.47430854E+00 0.39347362E+03</pdfrwt>
<pdfrwt beam="2">  1       -2 0.14038136E-01 0.39347362E+03</pdfrwt>
<totfact> 0.20433325E+01</totfact>
</mgrwt>
</event>
<event>
12    3  0.1092576E-007  0.5342733E+03  0.7818608E-02  0.1005201E+00
         -2   -1    0    0    0  501 -0.00000000000E+00  0.00000000000E+00  0.18340643079E+03  0.18340643079E+03  0.00000000000E+00 0.  1.
          1   -1    0    0  501    0  0.00000000000E+00 -0.00000000000E+00 -0.16802614911E+04  0.16802614911E+04  0.00000000000E+00 0. -1.
        -24    2    1    2    0    0 -0.61896084606E+02  0.38279528231E+03 -0.51439335998E+03  0.64899767073E+03  0.78956281400E+02 0.  0.
    5000000    2    1    2    0    0  0.61896084606E+02 -0.38279528231E+03 -0.98246170033E+03  0.12146702512E+04  0.59985787731E+03 0.  0.
        -24    2    4    4    0    0  0.26685091072E+03 -0.48723357642E+02 -0.23894154101E+03  0.37019872130E+03  0.79816408739E+02 0.  0.
         24    2    4    4    0    0 -0.20495482611E+03 -0.33407192467E+03 -0.74352015932E+03  0.84447152985E+03  0.81849898027E+02 0.  0.
         11    1    5    5    0    0  0.21665575000E+03 -0.69117847153E+02 -0.17908129119E+03  0.28946001392E+03  0.00000000000E+00 0. -1.
        -12    1    5    5    0    0  0.50195160717E+02  0.20394489511E+02 -0.59860249816E+02  0.80738707383E+02  0.00000000000E+00 0.  1.
         15    1    3    3    0    0  0.17434821538E+02  0.79503471601E+02 -0.89792319387E+02  0.12120475795E+03  0.17770000000E+01 0. -1.
        -16    1    3    3    0    0 -0.79330906144E+02  0.30329181071E+03 -0.42460104059E+03  0.52779291278E+03  0.00000000000E+00 0.  1.
          2    1    6    6  502    0 -0.15445969952E+03 -0.24381877832E+03 -0.46412656333E+03  0.54655179281E+03  0.00000000000E+00 0. -1.
         -1    1    6    6    0  502 -0.50495126596E+02 -0.90253146356E+02 -0.27939359599E+03  0.29791973704E+03  0.00000000000E+00 0.  1.
<mgrwt>
<rscale>  0 0.53427327E+03</rscale>
<asrwt>0</asrwt>
<pdfrwt beam="1">  1        1 0.25850177E+00 0.53427327E+03</pdfrwt>
<pdfrwt beam="2">  1       -2 0.28216373E-01 0.53427327E+03</pdfrwt>
<totfact> 0.52368965E+01</totfact>
</mgrwt>
</event>
<event>
12    3  0.1092576E-007  0.3768208E+03  0.7818608E-02  0.1052115E+00
          1   -1    0    0  501    0  0.00000000000E+00  0.00000000000E+00  0.10443999704E+04  0.10443999704E+04  0.00000000000E+00 0. -1.
         -2   -1    0    0    0  501 -0.00000000000E+00 -0.00000000000E+00 -0.27385932078E+03  0.27385932078E+03  0.00000000000E+00 0.  1.
        -24    2    1    2    0    0 -0.10192005578E+03  0.28688936346E+03  0.50563400577E+03  0.59526057273E+03  0.77305866683E+02 0.  0.
    5000000    2    1    2    0    0  0.10192005578E+03 -0.28688936346E+03  0.26490664381E+03  0.72299871841E+03  0.59988199860E+03 0.  0.
        -24    2    4    4    0    0  0.20342499504E+03 -0.10606621973E+03  0.39597821741E+03  0.46450217037E+03  0.79572269281E+02 0.  0.
         24    2    4    4    0    0 -0.10150493927E+03 -0.18082314373E+03 -0.13107157360E+03  0.25849654803E+03  0.81488931364E+02 0.  0.
         11    1    5    5    0    0  0.31170065648E+02 -0.46824371950E+02  0.13489908843E+03  0.14615696652E+03  0.00000000000E+00 0. -1.
        -12    1    5    5    0    0  0.17225492940E+03 -0.59241847777E+02  0.26107912898E+03  0.31834520386E+03  0.00000000000E+00 0.  1.
         15    1    3    3    0    0 -0.57120363363E+02  0.17987312586E+03  0.23941112347E+03  0.30485721426E+03  0.17770000000E+01 0. -1.
        -16    1    3    3    0    0 -0.44799692414E+02  0.10701623760E+03  0.26622288231E+03  0.29040335848E+03  0.00000000000E+00 0.  1.
          4    1    6    6  502    0 -0.40563108783E+02 -0.39662176957E+02 -0.42627055874E+00  0.56733021969E+02  0.00000000000E+00 0. -1.
         -3    1    6    6    0  502 -0.60941830483E+02 -0.14116096677E+03 -0.13064530304E+03  0.20176352606E+03  0.00000000000E+00 0.  1.
<mgrwt>
<rscale>  0 0.37682080E+03</rscale>
<asrwt>0</asrwt>
<pdfrwt beam="1">  1        1 0.16067692E+00 0.37682080E+03</pdfrwt>
<pdfrwt beam="2">  1       -2 0.42132204E-01 0.37682080E+03</pdfrwt>
<totfact> 0.69683448E+01</totfact>
</mgrwt>
</event>
<event>
12    3  0.1092576E-007  0.2424397E+03  0.7818608E-02  0.1118178E+00
         -2   -1    0    0    0  501 -0.00000000000E+00  0.00000000000E+00  0.24444654772E+03  0.24444654772E+03  0.00000000000E+00 0.  1.
          1   -1    0    0  501    0  0.00000000000E+00 -0.00000000000E+00 -0.56335752616E+03  0.56335752616E+03  0.00000000000E+00 0. -1.
        -24    2    1    2    0    0  0.29929599462E+02  0.19860570091E+02  0.49906863174E+02  0.10267395202E+03  0.82225435628E+02 0.  0.
    5000000    2    1    2    0    0 -0.29929599462E+02 -0.19860570091E+02 -0.36881784161E+03  0.70513012186E+03  0.59990971429E+03 0.  0.
        -24    2    4    4    0    0  0.19349488262E+03 -0.63007253815E+02 -0.40590670018E+03  0.46093739026E+03  0.79327453347E+02 0.  0.
         24    2    4    4    0    0 -0.22342448208E+03  0.43146683724E+02  0.37088858568E+02  0.24419273160E+03  0.80463477613E+02 0.  0.
         11    1    5    5    0    0  0.13369138377E+03 -0.78174087036E+02 -0.31582998883E+03  0.35175723990E+03  0.00000000000E+00 0. -1.
        -12    1    5    5    0    0  0.59803498850E+02  0.15166833221E+02 -0.90076711353E+02  0.10918015036E+03  0.00000000000E+00 0.  1.
         15    1    3    3    0    0  0.29997971201E+02  0.20050024592E+02 -0.14017274928E+02  0.38749496612E+02  0.17770000000E+01 0. -1.
        -16    1    3    3    0    0 -0.68371738538E-01 -0.18945450053E+00  0.63924138102E+02  0.63924455413E+02  0.00000000000E+00 0.  1.
          4    1    6    6  502    0 -0.16702508801E+03  0.11752804009E+02 -0.43380439080E+01  0.16749425975E+03  0.00000000000E+00 0. -1.
         -3    1    6    6    0  502 -0.56399394073E+02  0.31393879715E+02  0.41426902476E+02  0.76698471850E+02  0.00000000000E+00 0.  1.
<mgrwt>
<rscale>  0 0.24243965E+03</rscale>
<asrwt>0</asrwt>
<pdfrwt beam="1">  1        1 0.86670389E-01 0.24243965E+03</pdfrwt>
<pdfrwt beam="2">  1       -2 0.37607161E-01 0.24243965E+03</pdfrwt>
<totfact> 0.22877910E+02</totfact>
</mgrwt>
</event>
<event>
12    3  0.1092576E-007  0.5216243E+03  0.7818608E-02  0.1008284E+00
         -2   -1    0    0    0  501 -0.00000000000E+00  0.00000000000E+00  0.17509827700E+03  0.17509827700E+03  0.00000000000E+00 0.  1.
          1   -1    0    0  501    0  0.00000000000E+00 -0.00000000000E+00 -0.23530293038E+04  0.23530293038E+04  0.00000000000E+00 0. -1.
        -24    2    1    2    0    0 -0.45124059166E+03  0.17783034358E+03 -0.10604460453E+04  0.11701799044E+04  0.97639597771E+02 0.  0.
    5000000    2    1    2    0    0  0.45124059166E+03 -0.17783034358E+03 -0.11174849815E+04  0.13579476764E+04  0.60000625437E+03 0.  0.
        -24    2    4    4    0    0  0.32020226579E+03 -0.24690487471E+03 -0.26690322980E+03  0.49084742653E+03  0.78755024466E+02 0.  0.
         24    2    4    4    0    0  0.13103832587E+03  0.69074531131E+02 -0.85058175174E+03  0.86710024990E+03  0.80194721042E+02 0.  0.
         11    1    5    5    0    0  0.13374782554E+03 -0.11151235231E+03 -0.69740298550E+02  0.18758250130E+03  0.00000000000E+00 0. -1.
        -12    1    5    5    0    0  0.18645444025E+03 -0.13539252240E+03 -0.19716293125E+03  0.30326492522E+03  0.00000000000E+00 0.  1.
         15    1    3    3    0    0 -0.37174254592E+03  0.12306917967E+03 -0.76559678293E+03  0.85993030834E+03  0.17770000000E+01 0. -1.
        -16    1    3    3    0    0 -0.79498045737E+02  0.54761163910E+02 -0.29484926238E+03  0.31024959609E+03  0.00000000000E+00 0.  1.
          2    1    6    6  502    0  0.29998947552E+02  0.29430824506E+02 -0.45377935989E+03  0.45572120616E+03  0.00000000000E+00 0. -1.
         -1    1    6    6    0  502  0.10103937832E+03  0.39643706625E+02 -0.39680239186E+03  0.41137904374E+03  0.00000000000E+00 0.  1.
<mgrwt>
<rscale>  0 0.52162433E+03</rscale>
<asrwt>0</asrwt>
<pdfrwt beam="1">  1        1 0.36200450E+00 0.52162433E+03</pdfrwt>
<pdfrwt beam="2">  1       -2 0.26938197E-01 0.52162433E+03</pdfrwt>
<totfact> 0.20400534E+01</totfact>
</mgrwt>
</event>
<event>
12    3  0.1092576E-007  0.9920817E+03  0.7818608E-02  0.9317272E-01
         -4   -1    0    0    0  501 -0.00000000000E+00  0.00000000000E+00  0.20802235824E+04  0.20802235824E+04  0.00000000000E+00 0.  1.
          3   -1    0    0  501    0  0.00000000000E+00 -0.00000000000E+00 -0.48529967277E+03  0.48529967277E+03  0.00000000000E+00 0. -1.
        -24    2    1    2    0    0 -0.87936427553E+03 -0.20936492037E+03  0.56040635542E+03  0.10665053522E+04  0.79140281574E+02 0.  0.
    5000000    2    1    2    0    0  0.87936427553E+03  0.20936492037E+03  0.10345175542E+04  0.14990179029E+04  0.59976070593E+03 0.  0.
        -24    2    4    4    0    0 -0.48599554702E+02  0.10381278848E+03  0.78664459408E+02  0.16019774623E+03  0.79600307501E+02 0.  0.
         24    2    4    4    0    0  0.92796383024E+03  0.10555213189E+03  0.95585309479E+03  0.13388201567E+04  0.80784592467E+02 0.  0.
         11    1    5    5    0    0 -0.46175843643E+02  0.12011505746E+02  0.26091631334E+02  0.54380677010E+02  0.00000000000E+00 0. -1.
        -12    1    5    5    0    0 -0.24237110594E+01  0.91801282730E+02  0.52572828074E+02  0.10581706922E+03  0.00000000000E+00 0.  1.
         15    1    3    3    0    0 -0.76794234132E+03 -0.15502840815E+03  0.48336376467E+03  0.92055034281E+03  0.17770000000E+01 0. -1.
        -16    1    3    3    0    0 -0.11142193421E+03 -0.54336512217E+02  0.77042590744E+02  0.14595500941E+03  0.00000000000E+00 0.  1.
          4    1    6    6  502    0  0.68248670700E+03  0.42703317992E+02  0.68447427330E+03  0.96753124467E+03  0.00000000000E+00 0. -1.
         -3    1    6    6    0  502  0.24547712324E+03  0.62848813902E+02  0.27137882149E+03  0.37128891202E+03  0.00000000000E+00 0.  1.
<mgrwt>
<rscale>  0 0.99208166E+03</rscale>
<asrwt>0</asrwt>
<pdfrwt beam="1">  1        3 0.74661489E-01 0.99208166E+03</pdfrwt>
<pdfrwt beam="2">  1       -4 0.32003439E+00 0.99208166E+03</pdfrwt>
<totfact> 0.88757462E-02</totfact>
</mgrwt>
</event>
<event>
12    3  0.1092576E-007  0.5723776E+03  0.7818608E-02  0.9964431E-01
         -2   -1    0    0    0  501 -0.00000000000E+00  0.00000000000E+00  0.53075651964E+03  0.53075651964E+03  0.00000000000E+00 0.  1.
          1   -1    0    0  501    0  0.00000000000E+00 -0.00000000000E+00 -0.16179653019E+04  0.16179653019E+04  0.00000000000E+00 0. -1.
        -24    2    1    2    0    0 -0.22542780561E+03 -0.43725071690E+03 -0.12583777012E+04  0.13541546603E+04  0.90633990308E+02 0.  0.
    5000000    2    1    2    0    0  0.22542780561E+03  0.43725071690E+03  0.17116891891E+03  0.79456716127E+03  0.60002690773E+03 0.  0.
        -24    2    4    4    0    0  0.24016553472E+03  0.41169314571E+02 -0.13278956022E+03  0.28890096430E+03  0.80351125349E+02 0.  0.
         24    2    4    4    0    0 -0.14737729104E+02  0.39608140233E+03  0.30395847912E+03  0.50566619697E+03  0.78802714402E+02 0.  0.
         11    1    5    5    0    0  0.14103364343E+03  0.31110896699E+02 -0.12128914908E+03  0.18859860593E+03  0.00000000000E+00 0. -1.
        -12    1    5    5    0    0  0.99131891284E+02  0.10058417872E+02 -0.11500411138E+02  0.10030235838E+03  0.00000000000E+00 0.  1.
         15    1    3    3    0    0 -0.34370670522E+02 -0.15667132808E+03 -0.42817306225E+03  0.45723361316E+03  0.17770000000E+01 0. -1.
        -16    1    3    3    0    0 -0.19105713509E+03 -0.28057938882E+03 -0.83020463895E+03  0.89692104716E+03  0.00000000000E+00 0.  1.
          4    1    6    6  502    0  0.23100398395E+02  0.17779796364E+03  0.16820290480E+03  0.24584133392E+03  0.00000000000E+00 0. -1.
         -3    1    6    6    0  502 -0.37838127499E+02  0.21828343869E+03  0.13575557432E+03  0.25982486304E+03  0.00000000000E+00 0.  1.
<mgrwt>
<rscale>  0 0.57237756E+03</rscale>
<asrwt>0</asrwt>
<pdfrwt beam="1">  1        1 0.24891774E+00 0.57237756E+03</pdfrwt>
<pdfrwt beam="2">  1       -2 0.81654850E-01 0.57237756E+03</pdfrwt>
<totfact> 0.66994921E+00</totfact>
</mgrwt>
</event>
<event>
12    3  0.1092576E-007  0.2119129E+03  0.7818608E-02  0.1140060E+00
         -2   -1    0    0    0  501 -0.00000000000E+00  0.00000000000E+00  0.86928751995E+02  0.86928751995E+02  0.00000000000E+00 0.  1.
          1   -1    0    0  501    0  0.00000000000E+00 -0.00000000000E+00 -0.19958669544E+04  0.19958669544E+04  0.00000000000E+00 0. -1.
        -24    2    1    2    0    0 -0.18502718061E+03  0.28311652143E+02 -0.46806405503E+03  0.51083543657E+03  0.82657585483E+02 0.  0.
    5000000    2    1    2    0    0  0.18502718061E+03 -0.28311652143E+02 -0.14408741474E+04  0.15719602699E+04  0.59992013979E+03 0.  0.
        -24    2    4    4    0    0  0.47908260807E+02  0.26362829766E+02 -0.13940116311E+04  0.13973671141E+04  0.79851258667E+02 0.  0.
         24    2    4    4    0    0  0.13711891980E+03 -0.54674481909E+02 -0.46862516278E+02  0.17459315578E+03  0.80596386242E+02 0.  0.
         13    1    5    5    0    0 -0.14363524817E+02  0.20422462203E+02 -0.17740385736E+03  0.17915221576E+03  0.00000000000E+00 0. -1.
        -14    1    5    5    0    0  0.62271785625E+02  0.59403675630E+01 -0.12166077738E+04  0.12182148983E+04  0.00000000000E+00 0.  1.
         15    1    3    3    0    0 -0.76792088063E+02  0.24808827950E+01 -0.29686281337E+03  0.30664942077E+03  0.17770000000E+01 0. -1.
        -16    1    3    3    0    0 -0.10823509255E+03  0.25830769348E+02 -0.17120124166E+03  0.20418601580E+03  0.00000000000E+00 0.  1.
          2    1    6    6  502    0  0.76324680730E+02 -0.37278070649E+02  0.14856605758E+02  0.86231259846E+02  0.00000000000E+00 0. -1.
         -1    1    6    6    0  502  0.60794239072E+02 -0.17396411260E+02 -0.61719122036E+02  0.88361895939E+02  0.00000000000E+00 0.  1.
<mgrwt>
<rscale>  0 0.21191287E+03</rscale>
<asrwt>0</asrwt>
<pdfrwt beam="1">  1        1 0.30705646E+00 0.21191287E+03</pdfrwt>
<pdfrwt beam="2">  1       -2 0.13373654E-01 0.21191287E+03</pdfrwt>
<totfact> 0.12612816E+02</totfact>
</mgrwt>
</event>
<event>
12    3  0.1596078E-007  0.6075643E+03  0.7818608E-02  0.9889836E-01
         -2   -1    0    0    0  501 -0.00000000000E+00  0.00000000000E+00  0.31992309516E+03  0.31992309516E+03  0.00000000000E+00 0.  1.
          1   -1    0    0  501    0  0.00000000000E+00 -0.00000000000E+00 -0.16520522746E+04  0.16520522746E+04  0.00000000000E+00 0. -1.
        -24    2    1    2    0    0 -0.32693586685E+03 -0.48169483123E+03 -0.35720625003E+03  0.68766022945E+03  0.79770387028E+02 0.  0.
    5000000    2    1    2    0    0  0.32693586685E+03  0.48169483123E+03 -0.97492292937E+03  0.12843151403E+04  0.60006140506E+03 0.  0.
        -24    2    4    4    0    0  0.24962983466E+03  0.17581755213E+03 -0.89491534769E+03  0.94878839865E+03  0.78096606205E+02 0.  0.
         24    2    4    4    0    0  0.77306032190E+02  0.30587727910E+03 -0.80007581685E+02  0.33552674161E+03  0.81485266943E+02 0.  0.
         13    1    5    5    0    0  0.91201912114E+02  0.26000170474E+02 -0.22139391564E+03  0.24085070795E+03  0.00000000000E+00 0. -1.
        -14    1    5    5    0    0  0.15842792255E+03  0.14981738165E+03 -0.67352143204E+03  0.70793769070E+03  0.00000000000E+00 0.  1.
         15    1    3    3    0    0 -0.21838580052E+03 -0.27441907264E+03 -0.24740833013E+03  0.42919951636E+03  0.17770000000E+01 0. -1.
        -16    1    3    3    0    0 -0.10855006633E+03 -0.20727575858E+03 -0.10979791990E+03  0.25846071309E+03  0.00000000000E+00 0.  1.
          4    1    6    6  502    0  0.53848554054E+02  0.13957688332E+03 -0.25112562698E+00  0.14960426530E+03  0.00000000000E+00 0. -1.
         -3    1    6    6    0  502  0.23457478136E+02  0.16630039578E+03 -0.79756456058E+02  0.18592247632E+03  0.00000000000E+00 0.  1.
<mgrwt>
<rscale>  0 0.60756428E+03</rscale>
<asrwt>0</asrwt>
<pdfrwt beam="1">  1        1 0.25416188E+00 0.60756428E+03</pdfrwt>
<pdfrwt beam="2">  1       -2 0.49218939E-01 0.60756428E+03</pdfrwt>
<totfact> 0.18583875E+01</totfact>
</mgrwt>
</event>
<event>
12    3  0.1092576E-007  0.8870318E+03  0.7818608E-02  0.9441939E-01
          3   -1    0    0  501    0  0.00000000000E+00  0.00000000000E+00  0.96910712682E+03  0.96910712682E+03  0.00000000000E+00 0. -1.
         -4   -1    0    0    0  501 -0.00000000000E+00 -0.00000000000E+00 -0.92889490667E+03  0.92889490667E+03  0.00000000000E+00 0.  1.
        -24    2    1    2    0    0 -0.76379117422E+03 -0.37667635450E+03  0.31948134921E+01  0.85557168499E+03  0.82040645180E+02 0.  0.
    5000000    2    1    2    0    0  0.76379117422E+03  0.37667635450E+03  0.37017406658E+02  0.10424303485E+04  0.60002392386E+03 0.  0.
        -24    2    4    4    0    0  0.77514155675E+03  0.36469696916E+03  0.17764398632E+03  0.87847817429E+03  0.79487134291E+02 0.  0.
         24    2    4    4    0    0 -0.11350382525E+02  0.11979385340E+02 -0.14062657967E+03  0.16395217420E+03  0.82656782296E+02 0.  0.
         13    1    5    5    0    0  0.38878931657E+03  0.22418345838E+03  0.78914670777E+02  0.45567848419E+03  0.00000000000E+00 0. -1.
        -14    1    5    5    0    0  0.38635224018E+03  0.14051351079E+03  0.98729315547E+02  0.42279969010E+03  0.00000000000E+00 0.  1.
         15    1    3    3    0    0 -0.55096460862E+03 -0.27363218797E+03 -0.34429577447E+02  0.61613726375E+03  0.17770000000E+01 0. -1.
        -16    1    3    3    0    0 -0.21282656560E+03 -0.10304416653E+03  0.37624390939E+02  0.23943442124E+03  0.00000000000E+00 0.  1.
          2    1    6    6  502    0 -0.22453493110E+02  0.32318473259E+02 -0.26373787565E+02  0.47373196400E+02  0.00000000000E+00 0. -1.
         -1    1    6    6    0  502  0.11103110584E+02 -0.20339087918E+02 -0.11425279210E+03  0.11657897780E+03  0.00000000000E+00 0.  1.
<mgrwt>
<rscale>  0 0.88703178E+03</rscale>
<asrwt>0</asrwt>
<pdfrwt beam="1">  1        3 0.14909340E+00 0.88703178E+03</pdfrwt>
<pdfrwt beam="2">  1       -4 0.14290691E+00 0.88703178E+03</pdfrwt>
<totfact> 0.24799114E-01</totfact>
</mgrwt>
</event>
<event>
12    3  0.1092576E-007  0.8294024E+03  0.7818608E-02  0.9518407E-01
          1   -1    0    0  501    0  0.00000000000E+00  0.00000000000E+00  0.17522481788E+04  0.17522481788E+04  0.00000000000E+00 0. -1.
         -2   -1    0    0    0  501 -0.00000000000E+00 -0.00000000000E+00 -0.46416356954E+03  0.46416356954E+03  0.00000000000E+00 0.  1.
        -24    2    1    2    0    0  0.54472749737E+03  0.56706849523E+03  0.39337878405E+03  0.88270652912E+03  0.78289361567E+02 0.  0.
    5000000    2    1    2    0    0 -0.54472749737E+03 -0.56706849523E+03  0.89470582523E+03  0.13337052192E+04  0.59998031088E+03 0.  0.
        -24    2    4    4    0    0 -0.37750570437E+03 -0.58823869009E+03  0.89895817726E+03  0.11413259589E+04  0.77225816601E+02 0.  0.
         24    2    4    4    0    0 -0.16722179300E+03  0.21170194859E+02 -0.42523520337E+01  0.19237926029E+03  0.92630405838E+02 0.  0.
         13    1    5    5    0    0 -0.23866999662E+03 -0.35697730439E+03  0.61056758469E+03  0.74645089498E+03  0.00000000000E+00 0. -1.
        -14    1    5    5    0    0 -0.13883570775E+03 -0.23126138570E+03  0.28839059257E+03  0.39487506397E+03  0.00000000000E+00 0.  1.
         15    1    3    3    0    0  0.27969866029E+03  0.28289593011E+03  0.15574938102E+03  0.42722649175E+03  0.17770000000E+01 0. -1.
        -16    1    3    3    0    0  0.26502883709E+03  0.28417256512E+03  0.23762940304E+03  0.45548003737E+03  0.00000000000E+00 0.  1.
          2    1    6    6  502    0 -0.10665616311E+03  0.32785762208E+02 -0.42962976634E+02  0.11956697159E+03  0.00000000000E+00 0. -1.
         -1    1    6    6    0  502 -0.60565629890E+02 -0.11615567349E+02  0.38710624600E+02  0.72812288700E+02  0.00000000000E+00 0.  1.
<mgrwt>
<rscale>  0 0.82940242E+03</rscale>
<asrwt>0</asrwt>
<pdfrwt beam="1">  1        1 0.26957664E+00 0.82940242E+03</pdfrwt>
<pdfrwt beam="2">  1       -2 0.71409781E-01 0.82940242E+03</pdfrwt>
<totfact> 0.70368650E+00</totfact>
</mgrwt>
</event>
<event>
12    3  0.1092576E-007  0.5321498E+03  0.7818608E-02  0.1005712E+00
          1   -1    0    0  501    0  0.00000000000E+00  0.00000000000E+00  0.29816226432E+03  0.29816226432E+03  0.00000000000E+00 0. -1.
         -2   -1    0    0    0  501 -0.00000000000E+00 -0.00000000000E+00 -0.13908573955E+04  0.13908573955E+04  0.00000000000E+00 0.  1.
        -24    2    1    2    0    0 -0.33483079472E+03  0.18193473034E+03 -0.41159271397E+01  0.38892008077E+03  0.77652953401E+02 0.  0.
    5000000    2    1    2    0    0  0.33483079472E+03 -0.18193473034E+03 -0.10885792040E+04  0.13000995790E+04  0.60003526962E+03 0.  0.
        -24    2    4    4    0    0 -0.14082109563E+03  0.92340063940E+01 -0.13054918376E+03  0.21058586566E+03  0.85950390267E+02 0.  0.
         24    2    4    4    0    0  0.47565189035E+03 -0.19116873673E+03 -0.95803002023E+03  0.10895137133E+04  0.80177336047E+02 0.  0.
         11    1    5    5    0    0 -0.10720478822E+03  0.36698492253E+02 -0.61232349106E+02  0.12879847254E+03  0.00000000000E+00 0. -1.
        -12    1    5    5    0    0 -0.33616307411E+02 -0.27464485859E+02 -0.69316834656E+02  0.81787393125E+02  0.00000000000E+00 0.  1.
         15    1    3    3    0    0 -0.13008214814E+03  0.11408538632E+03 -0.75250975045E+01  0.17319533902E+03  0.17770000000E+01 0. -1.
        -16    1    3    3    0    0 -0.20474864658E+03  0.67849344019E+02  0.34091703647E+01  0.21572474175E+03  0.00000000000E+00 0.  1.
          2    1    6    6  502    0  0.36804783801E+03 -0.11022425125E+03 -0.70587228581E+03  0.80365681762E+03  0.00000000000E+00 0. -1.
         -1    1    6    6    0  502  0.10760405234E+03 -0.80944485476E+02 -0.25215773442E+03  0.28585689573E+03  0.00000000000E+00 0.  1.
<mgrwt>
<rscale>  0 0.53214980E+03</rscale>
<asrwt>0</asrwt>
<pdfrwt beam="1">  1        1 0.45871118E-01 0.53214980E+03</pdfrwt>
<pdfrwt beam="2">  1       -2 0.21397806E+00 0.53214980E+03</pdfrwt>
<totfact> 0.87710082E+00</totfact>
</mgrwt>
</event>
<event>
12    3  0.1092576E-007  0.5300730E+03  0.7818608E-02  0.1006214E+00
          1   -1    0    0  501    0  0.00000000000E+00  0.00000000000E+00  0.36295883572E+03  0.36295883572E+03  0.00000000000E+00 0. -1.
         -2   -1    0    0    0  501 -0.00000000000E+00 -0.00000000000E+00 -0.12371907044E+04  0.12371907044E+04  0.00000000000E+00 0.  1.
        -24    2    1    2    0    0 -0.30842042747E+03 -0.40456854345E+03 -0.16066959768E+03  0.53848629855E+03  0.73170401600E+02 0.  0.
    5000000    2    1    2    0    0  0.30842042747E+03  0.40456854345E+03 -0.71356227100E+03  0.10616632416E+04  0.59929863798E+03 0.  0.
        -24    2    4    4    0    0  0.27478821235E+03  0.28764291941E+03 -0.79608253211E+03  0.89368489247E+03  0.81720733957E+02 0.  0.
         24    2    4    4    0    0  0.33632215125E+02  0.11692562404E+03  0.82520261113E+02  0.16797834911E+03  0.81267489331E+02 0.  0.
         13    1    5    5    0    0  0.17295977547E+03  0.21032133417E+03 -0.60875203162E+03  0.66688018680E+03  0.00000000000E+00 0. -1.
        -14    1    5    5    0    0  0.10182843687E+03  0.77321585239E+02 -0.18733050049E+03  0.22680470567E+03  0.00000000000E+00 0.  1.
         15    1    3    3    0    0 -0.98084028364E+02 -0.18780039436E+03 -0.69396994236E+02  0.22295417754E+03  0.17770000000E+01 0. -1.
        -16    1    3    3    0    0 -0.21033639911E+03 -0.21676814909E+03 -0.91272603443E+02  0.31553212101E+03  0.00000000000E+00 0.  1.
          4    1    6    6  502    0  0.16368243548E+02  0.12565447376E+03  0.74823994093E+02  0.14715840535E+03  0.00000000000E+00 0. -1.
         -3    1    6    6    0  502  0.17263971577E+02 -0.87288497175E+01  0.76962670207E+01  0.20819943757E+02  0.00000000000E+00 0.  1.
<mgrwt>
<rscale>  0 0.53007303E+03</rscale>
<asrwt>0</asrwt>
<pdfrwt beam="1">  1        1 0.55839820E-01 0.53007303E+03</pdfrwt>
<pdfrwt beam="2">  1       -2 0.19033703E+00 0.53007303E+03</pdfrwt>
<totfact> 0.96531154E+00</totfact>
</mgrwt>
</event>
<event>
12    3  0.1092576E-007  0.1136674E+04  0.7818608E-02  0.9170166E-01
          1   -1    0    0  501    0  0.00000000000E+00  0.00000000000E+00  0.31595088381E+04  0.31595088381E+04  0.00000000000E+00 0. -1.
         -2   -1    0    0    0  501 -0.00000000000E+00 -0.00000000000E+00 -0.42871884774E+03  0.42871884774E+03  0.00000000000E+00 0.  1.
        -24    2    1    2    0    0  0.64034586051E+03  0.87008592756E+03  0.11239425225E+04  0.15610422743E+04  0.80708400267E+02 0.  0.
    5000000    2    1    2    0    0 -0.64034586051E+03 -0.87008592756E+03  0.16068474678E+04  0.20271854115E+04  0.60035786444E+03 0.  0.
        -24    2    4    4    0    0 -0.16060478129E+02  0.64438254654E+02  0.94180625173E+02  0.14106108248E+03  0.81351159864E+02 0.  0.
         24    2    4    4    0    0 -0.62428538238E+03 -0.93452418221E+03  0.15126668427E+04  0.18861243291E+04  0.78970386397E+02 0.  0.
         13    1    5    5    0    0  0.33877358656E+00  0.28971929433E+02 -0.93153941669E+01  0.30434586101E+02  0.00000000000E+00 0. -1.
        -14    1    5    5    0    0 -0.16399251715E+02  0.35466325221E+02  0.10349601934E+03  0.11062649638E+03  0.00000000000E+00 0.  1.
         15    1    3    3    0    0  0.32973972484E+03  0.47322077184E+03  0.65350795721E+03  0.87163179893E+03  0.17770000000E+01 0. -1.
        -16    1    3    3    0    0  0.31060613567E+03  0.39686515572E+03  0.47043456532E+03  0.68941047539E+03  0.00000000000E+00 0.  1.
          2    1    6    6  502    0 -0.17501891156E+03 -0.23077740999E+03  0.34092333102E+03  0.44734611879E+03  0.00000000000E+00 0. -1.
         -1    1    6    6    0  502 -0.44926647082E+03 -0.70374677222E+03  0.11717435117E+04  0.14387782103E+04  0.00000000000E+00 0.  1.
<mgrwt>
<rscale>  0 0.11366740E+04</rscale>
<asrwt>0</asrwt>
<pdfrwt beam="1">  1        1 0.48607827E+00 0.11366740E+04</pdfrwt>
<pdfrwt beam="2">  1       -2 0.65956748E-01 0.11366740E+04</pdfrwt>
<totfact> 0.85347500E-01</totfact>
</mgrwt>
</event>
<event>
12    3  0.1092576E-007  0.1268876E+04  0.7818608E-02  0.9054617E-01
         -2   -1    0    0    0  501 -0.00000000000E+00  0.00000000000E+00  0.10733659748E+04  0.10733659748E+04  0.00000000000E+00 0.  1.
          1   -1    0    0  501    0  0.00000000000E+00 -0.00000000000E+00 -0.16908464298E+04  0.16908464298E+04  0.00000000000E+00 0. -1.
        -24    2    1    2    0    0 -0.85680098178E+03 -0.87857621275E+03 -0.66372336536E+03  0.13974454589E+04  0.79504848758E+02 0.  0.
    5000000    2    1    2    0    0  0.85680098178E+03  0.87857621275E+03  0.46242910368E+02  0.13667669456E+04  0.59992448940E+03 0.  0.
        -24    2    4    4    0    0  0.89981999825E+03  0.85349541832E+03  0.12098930056E+03  0.12486561398E+04  0.79832864916E+02 0.  0.
         24    2    4    4    0    0 -0.43019016470E+02  0.25080794434E+02 -0.74746390196E+02  0.11811080583E+03  0.76703699909E+02 0.  0.
         13    1    5    5    0    0  0.46916287167E+03  0.43357101050E+03  0.23097661767E+02  0.63924261691E+03  0.00000000000E+00 0. -1.
        -14    1    5    5    0    0  0.43065712657E+03  0.41992440782E+03  0.97891638797E+02  0.60941352290E+03  0.00000000000E+00 0.  1.
         15    1    3    3    0    0 -0.13715360078E+03 -0.14536753548E+03 -0.75860922240E+02  0.21377761302E+03  0.17770000000E+01 0. -1.
        -16    1    3    3    0    0 -0.71964738100E+03 -0.73320867727E+03 -0.58786244312E+03  0.11836678459E+04  0.00000000000E+00 0.  1.
          2    1    6    6  502    0 -0.34708822700E+02  0.40095744432E+02 -0.83445063848E+02  0.98870874252E+02  0.00000000000E+00 0. -1.
         -1    1    6    6    0  502 -0.83101937705E+01 -0.15014949998E+02  0.86986736519E+01  0.19239931581E+02  0.00000000000E+00 0.  1.
<mgrwt>
<rscale>  0 0.12688761E+04</rscale>
<asrwt>0</asrwt>
<pdfrwt beam="1">  1        1 0.26013022E+00 0.12688761E+04</pdfrwt>
<pdfrwt beam="2">  1       -2 0.16513323E+00 0.12688761E+04</pdfrwt>
<totfact> 0.94805495E-01</totfact>
</mgrwt>
</event>
<event>
12    3  0.1092576E-007  0.1121956E+04  0.7818608E-02  0.9184052E-01
          3   -1    0    0  501    0  0.00000000000E+00  0.00000000000E+00  0.13832065567E+04  0.13832065567E+04  0.00000000000E+00 0. -1.
         -2   -1    0    0    0  501 -0.00000000000E+00 -0.00000000000E+00 -0.10085023724E+04  0.10085023724E+04  0.00000000000E+00 0.  1.
        -24    2    1    2    0    0  0.10947043731E+04  0.48034076949E+02  0.30649026126E+03  0.11405855841E+04  0.79462301561E+02 0.  0.
    5000000    2    1    2    0    0 -0.10947043731E+04 -0.48034076949E+02  0.68213923049E+02  0.12511233450E+04  0.59997628963E+03 0.  0.
        -24    2    4    4    0    0 -0.48334912747E+03  0.13811140825E+03  0.27012631527E+03  0.57614414907E+03  0.79200468337E+02 0.  0.
         24    2    4    4    0    0 -0.61135524566E+03 -0.18614548520E+03 -0.20191239222E+03  0.67497919597E+03  0.80143139508E+02 0.  0.
         13    1    5    5    0    0 -0.16141995071E+03  0.76349243139E+02  0.12307581596E+03  0.21687153775E+03  0.00000000000E+00 0. -1.
        -14    1    5    5    0    0 -0.32192917676E+03  0.61762165116E+02  0.14705049932E+03  0.35927261131E+03  0.00000000000E+00 0.  1.
         15    1    3    3    0    0  0.73847985769E+03  0.29667626757E+02  0.16789272721E+03  0.75790751010E+03  0.17770000000E+01 0. -1.
        -16    1    3    3    0    0  0.35622451544E+03  0.18366450192E+02  0.13859753405E+03  0.38267807402E+03  0.00000000000E+00 0.  1.
          2    1    6    6  502    0 -0.10608369102E+03 -0.56230779171E+02 -0.15946322231E+02  0.12111950800E+03  0.00000000000E+00 0. -1.
         -1    1    6    6    0  502 -0.50527155464E+03 -0.12991470603E+03 -0.18596606999E+03  0.55385968797E+03  0.00000000000E+00 0.  1.
<mgrwt>
<rscale>  0 0.11219561E+04</rscale>
<asrwt>0</asrwt>
<pdfrwt beam="1">  1        3 0.21280101E+00 0.11219561E+04</pdfrwt>
<pdfrwt beam="2">  1       -2 0.15515421E+00 0.11219561E+04</pdfrwt>
<totfact> 0.13468901E-01</totfact>
</mgrwt>
</event>
<event>
12    3  0.1092576E-007  0.1046180E+04  0.7818608E-02  0.9259297E-01
          1   -1    0    0  501    0  0.00000000000E+00  0.00000000000E+00  0.16077985711E+04  0.16077985711E+04  0.00000000000E+00 0. -1.
         -2   -1    0    0    0  501 -0.00000000000E+00 -0.00000000000E+00 -0.10041805702E+04  0.10041805702E+04  0.00000000000E+00 0.  1.
        -24    2    1    2    0    0 -0.42167398247E+03 -0.94416873163E+03 -0.33731338683E+03  0.10906159924E+04  0.79996129049E+02 0.  0.
    5000000    2    1    2    0    0  0.42167398247E+03  0.94416873163E+03  0.94093138781E+03  0.15213631489E+04  0.59994200798E+03 0.  0.
        -24    2    4    4    0    0  0.32013382811E+03  0.84772407388E+03  0.47245116998E+03  0.10258066031E+04  0.89147661807E+02 0.  0.
         24    2    4    4    0    0  0.10154015436E+03  0.96444657750E+02  0.46848021783E+03  0.49555654579E+03  0.80564263885E+02 0.  0.
         13    1    5    5    0    0  0.12768385839E+03  0.32725025847E+03  0.13489292469E+03  0.37628712507E+03  0.00000000000E+00 0. -1.
        -14    1    5    5    0    0  0.19244996972E+03  0.52047381541E+03  0.33755824529E+03  0.64951947803E+03  0.00000000000E+00 0.  1.
         15    1    3    3    0    0 -0.16769974325E+03 -0.43953098594E+03 -0.18491281206E+03  0.50547660409E+03  0.17770000000E+01 0. -1.
        -16    1    3    3    0    0 -0.25397423922E+03 -0.50463774569E+03 -0.15240057477E+03  0.58513938831E+03  0.00000000000E+00 0.  1.
          4    1    6    6  502    0  0.89732303058E+02  0.49713054238E+02  0.22402846316E+03  0.24639810527E+03  0.00000000000E+00 0. -1.
         -3    1    6    6    0  502  0.11807851301E+02  0.46731603513E+02  0.24445175467E+03  0.24915844052E+03  0.00000000000E+00 0.  1.
<mgrwt>
<rscale>  0 0.10461798E+04</rscale>
<asrwt>0</asrwt>
<pdfrwt beam="1">  1        1 0.24735363E+00 0.10461798E+04</pdfrwt>
<pdfrwt beam="2">  1       -2 0.15448932E+00 0.10461798E+04</pdfrwt>
<totfact> 0.13299643E+00</totfact>
</mgrwt>
</event>
<event>
12    3  0.1092576E-007  0.2793671E+03  0.7818608E-02  0.1096035E+00
         -4   -1    0    0    0  501 -0.00000000000E+00  0.00000000000E+00  0.25088433215E+03  0.25088433215E+03  0.00000000000E+00 0.  1.
          3   -1    0    0  501    0  0.00000000000E+00 -0.00000000000E+00 -0.89733347104E+03  0.89733347104E+03  0.00000000000E+00 0. -1.
        -24    2    1    2    0    0 -0.21112675745E+03 -0.15235009384E+03 -0.31028396957E+03  0.41285101447E+03  0.79904690560E+02 0.  0.
    5000000    2    1    2    0    0  0.21112675745E+03  0.15235009384E+03 -0.33616516932E+03  0.73536678871E+03  0.59997686129E+03 0.  0.
        -24    2    4    4    0    0  0.81385896989E+02  0.10156232079E+03 -0.48672805037E+03  0.51026157423E+03  0.80771962232E+02 0.  0.
         24    2    4    4    0    0  0.12974086046E+03  0.50787773049E+02  0.15056288105E+03  0.22510521449E+03  0.92688120461E+02 0.  0.
         13    1    5    5    0    0  0.54814605495E+02  0.13313267516E+02 -0.12789480143E+03  0.13978184539E+03  0.00000000000E+00 0. -1.
        -14    1    5    5    0    0  0.26571291495E+02  0.88249053271E+02 -0.35883324894E+03  0.37047972884E+03  0.00000000000E+00 0.  1.
         15    1    3    3    0    0 -0.20398059033E+03 -0.12008990666E+03 -0.25122046926E+03  0.34517321568E+03  0.17770000000E+01 0. -1.
        -16    1    3    3    0    0 -0.71461671165E+01 -0.32260187172E+02 -0.59063500313E+02  0.67677798797E+02  0.00000000000E+00 0.  1.
          2    1    6    6  502    0  0.20937900132E+02  0.15414265684E+02  0.93900922068E+02  0.97433969506E+02  0.00000000000E+00 0. -1.
         -1    1    6    6    0  502  0.10880296033E+03  0.35373507365E+02  0.56661958986E+02  0.12767124498E+03  0.00000000000E+00 0.  1.
<mgrwt>
<rscale>  0 0.27936707E+03</rscale>
<asrwt>0</asrwt>
<pdfrwt beam="1">  1        3 0.13805130E+00 0.27936707E+03</pdfrwt>
<pdfrwt beam="2">  1       -4 0.38597590E-01 0.27936707E+03</pdfrwt>
<totfact> 0.58360798E+00</totfact>
</mgrwt>
</event>
<event>
12    3  0.1092576E-007  0.7781173E+03  0.7818608E-02  0.9592243E-01
         -2   -1    0    0    0  501 -0.00000000000E+00  0.00000000000E+00  0.35207349563E+03  0.35207349563E+03  0.00000000000E+00 0.  1.
          1   -1    0    0  501    0  0.00000000000E+00 -0.00000000000E+00 -0.19511979623E+04  0.19511979623E+04  0.00000000000E+00 0. -1.
        -24    2    1    2    0    0 -0.66628414851E+03 -0.25445120699E+03 -0.58623754034E+03  0.92675109737E+03  0.80704147903E+02 0.  0.
    5000000    2    1    2    0    0  0.66628414851E+03  0.25445120699E+03 -0.10128869263E+04  0.13765203605E+04  0.60015697460E+03 0.  0.
        -24    2    4    4    0    0  0.10925178445E+03 -0.11749272694E+03 -0.49426238996E+03  0.52572640041E+03  0.79702225037E+02 0.  0.
         24    2    4    4    0    0  0.55703236405E+03  0.37194393394E+03 -0.51862453634E+03  0.85079396010E+03  0.79067112361E+02 0.  0.
         11    1    5    5    0    0  0.10900081196E+02 -0.45492331285E+02 -0.22998424528E+03  0.23469366641E+03  0.00000000000E+00 0. -1.
        -12    1    5    5    0    0  0.98351703256E+02 -0.72000395659E+02 -0.26427814468E+03  0.29103273401E+03  0.00000000000E+00 0.  1.
         15    1    3    3    0    0 -0.18411601005E+03 -0.69205479078E+02 -0.11675287881E+03  0.22874111115E+03  0.17770000000E+01 0. -1.
        -16    1    3    3    0    0 -0.48216813845E+03 -0.18524572791E+03 -0.46948466154E+03  0.69800998622E+03  0.00000000000E+00 0.  1.
          4    1    6    6  502    0  0.93188700312E+02  0.99825711434E+02 -0.98843979916E+02  0.16858065991E+03  0.00000000000E+00 0. -1.
         -3    1    6    6    0  502  0.46384366374E+03  0.27211822250E+03 -0.41978055642E+03  0.68221330019E+03  0.00000000000E+00 0.  1.
<mgrwt>
<rscale>  0 0.77811726E+03</rscale>
<asrwt>0</asrwt>
<pdfrwt beam="1">  1        1 0.30018430E+00 0.77811726E+03</pdfrwt>
<pdfrwt beam="2">  1       -2 0.54165154E-01 0.77811726E+03</pdfrwt>
<totfact> 0.93936769E+00</totfact>
</mgrwt>
</event>
<event>
12    3  0.1092576E-007  0.1072665E+04  0.7818608E-02  0.9232251E-01
         -2   -1    0    0    0  501 -0.00000000000E+00  0.00000000000E+00  0.21183604709E+04  0.21183604709E+04  0.00000000000E+00 0.  1.
          1   -1    0    0  501    0  0.00000000000E+00 -0.00000000000E+00 -0.64688878111E+03  0.64688878111E+03  0.00000000000E+00 0. -1.
        -24    2    1    2    0    0  0.51797813890E+03 -0.89908577053E+03  0.28567319833E+03  0.10791786591E+04  0.79754792597E+02 0.  0.
    5000000    2    1    2    0    0 -0.51797813890E+03  0.89908577053E+03  0.11857984915E+04  0.16860705929E+04  0.60004950354E+03 0.  0.
        -24    2    4    4    0    0 -0.94117269511E+02  0.53317675662E+03  0.27090816768E+03  0.61032627179E+03  0.77274889159E+02 0.  0.
         24    2    4    4    0    0 -0.42386086939E+03  0.36590901391E+03  0.91489032381E+03  0.10757443211E+04  0.81572647150E+02 0.  0.
         13    1    5    5    0    0  0.45594362102E+01  0.10630916903E+03  0.31065276731E+02  0.11084890300E+03  0.00000000000E+00 0. -1.
        -14    1    5    5    0    0 -0.98676705721E+02  0.42686758759E+03  0.23984289095E+03  0.49947736878E+03  0.00000000000E+00 0.  1.
         15    1    3    3    0    0  0.30964215631E+03 -0.58440500846E+03  0.21321701855E+03  0.69489001547E+03  0.17770000000E+01 0. -1.
        -16    1    3    3    0    0  0.20833598259E+03 -0.31468076207E+03  0.72456179776E+02  0.38428864366E+03  0.00000000000E+00 0.  1.
          4    1    6    6  502    0 -0.31595739542E+02  0.46266740182E+02  0.13402520735E+03  0.14526409814E+03  0.00000000000E+00 0. -1.
         -3    1    6    6    0  502 -0.39226512985E+03  0.31964227373E+03  0.78086511647E+03  0.93048022298E+03  0.00000000000E+00 0.  1.
<mgrwt>
<rscale>  0 0.10726654E+04</rscale>
<asrwt>0</asrwt>
<pdfrwt beam="1">  1        1 0.99521352E-01 0.10726654E+04</pdfrwt>
<pdfrwt beam="2">  1       -2 0.32590161E+00 0.10726654E+04</pdfrwt>
<totfact> 0.59340495E-01</totfact>
</mgrwt>
</event>
<event>
12    3  0.1092576E-007  0.6969805E+03  0.7818608E-02  0.9722410E-01
          1   -1    0    0  501    0  0.00000000000E+00  0.00000000000E+00  0.41304666147E+03  0.41304666147E+03  0.00000000000E+00 0. -1.
         -2   -1    0    0    0  501 -0.00000000000E+00 -0.00000000000E+00 -0.13017214398E+04  0.13017214398E+04  0.00000000000E+00 0.  1.
        -24    2    1    2    0    0  0.59807474610E+03  0.45142221290E+02 -0.28323883894E+03  0.67249545690E+03  0.11088136728E+03 0.  0.
    5000000    2    1    2    0    0 -0.59807474610E+03 -0.45142221290E+02 -0.60543593942E+03  0.10422726444E+04  0.60004030401E+03 0.  0.
        -24    2    4    4    0    0 -0.57219201984E+03 -0.20199074662E+03 -0.28415482991E+03  0.67484337417E+03  0.80409222135E+02 0.  0.
         24    2    4    4    0    0 -0.25882726254E+02  0.15684852533E+03 -0.32128110951E+03  0.36742927022E+03  0.80692886134E+02 0.  0.
         11    1    5    5    0    0 -0.26299784600E+03 -0.13431016838E+03 -0.12697273043E+03  0.32144853803E+03  0.00000000000E+00 0. -1.
        -12    1    5    5    0    0 -0.30919417384E+03 -0.67680578241E+02 -0.15718209949E+03  0.35339483613E+03  0.00000000000E+00 0.  1.
         15    1    3    3    0    0  0.23393056690E+03 -0.20499517934E+02 -0.15277508976E+03  0.28015553920E+03  0.17770000000E+01 0. -1.
        -16    1    3    3    0    0  0.36414417919E+03  0.65641739223E+02 -0.13046374918E+03  0.39233991770E+03  0.00000000000E+00 0.  1.
          4    1    6    6  502    0  0.23709113253E+02  0.95528979098E+02 -0.19735484295E+03  0.22053762023E+03  0.00000000000E+00 0. -1.
         -3    1    6    6    0  502 -0.49591839507E+02  0.61319546234E+02 -0.12392626656E+03  0.14689165000E+03  0.00000000000E+00 0.  1.
<mgrwt>
<rscale>  0 0.69698050E+03</rscale>
<asrwt>0</asrwt>
<pdfrwt beam="1">  1        1 0.63545642E-01 0.69698050E+03</pdfrwt>
<pdfrwt beam="2">  1       -2 0.20026483E+00 0.69698050E+03</pdfrwt>
<totfact> 0.68605576E+00</totfact>
</mgrwt>
</event>
<event>
12    3  0.1092576E-007  0.7902665E+03  0.7818608E-02  0.9574214E-01
         -2   -1    0    0    0  501 -0.00000000000E+00  0.00000000000E+00  0.56460724263E+03  0.56460724263E+03  0.00000000000E+00 0.  1.
          1   -1    0    0  501    0  0.00000000000E+00 -0.00000000000E+00 -0.12348780694E+04  0.12348780694E+04  0.00000000000E+00 0. -1.
        -24    2    1    2    0    0  0.13293734630E+03  0.69232510878E+03 -0.47481914643E+03  0.85337778141E+03  0.76249732393E+02 0.  0.
    5000000    2    1    2    0    0 -0.13293734630E+03 -0.69232510878E+03 -0.19545168033E+03  0.94610753062E+03  0.59994308552E+03 0.  0.
        -24    2    4    4    0    0  0.16035035388E+03 -0.46662186192E+03 -0.25703010977E+03  0.56198361891E+03  0.79453839265E+02 0.  0.
         24    2    4    4    0    0 -0.29328770018E+03 -0.22570324685E+03  0.61578429445E+02  0.38412391171E+03  0.82459965186E+02 0.  0.
         11    1    5    5    0    0  0.10424338008E+03 -0.28916847650E+03 -0.11628326081E+03  0.32864401232E+03  0.00000000000E+00 0. -1.
        -12    1    5    5    0    0  0.56106973799E+02 -0.17745338543E+03 -0.14074684896E+03  0.23333960658E+03  0.00000000000E+00 0.  1.
         15    1    3    3    0    0  0.42025775170E+02  0.87216089519E+02 -0.55773220725E+02  0.11174355431E+03  0.17770000000E+01 0. -1.
        -16    1    3    3    0    0  0.90911571133E+02  0.60510901926E+03 -0.41904592571E+03  0.74163422710E+03  0.00000000000E+00 0.  1.
          4    1    6    6  502    0 -0.20382763911E+03 -0.19920263629E+03  0.35237572808E+02  0.28717430823E+03  0.00000000000E+00 0. -1.
         -3    1    6    6    0  502 -0.89460061074E+02 -0.26500610566E+02  0.26340856637E+02  0.96949603487E+02  0.00000000000E+00 0.  1.
<mgrwt>
<rscale>  0 0.79026648E+03</rscale>
<asrwt>0</asrwt>
<pdfrwt beam="1">  1        1 0.18998124E+00 0.79026648E+03</pdfrwt>
<pdfrwt beam="2">  1       -2 0.86862653E-01 0.79026648E+03</pdfrwt>
<totfact> 0.10365226E+01</totfact>
</mgrwt>
</event>
<event>
12    3  0.1092576E-007  0.4849666E+03  0.7818608E-02  0.1017779E+00
         -2   -1    0    0    0  501 -0.00000000000E+00  0.00000000000E+00  0.41419506675E+03  0.41419506675E+03  0.00000000000E+00 0.  1.
          1   -1    0    0  501    0  0.00000000000E+00 -0.00000000000E+00 -0.13501515254E+04  0.13501515254E+04  0.00000000000E+00 0. -1.
        -24    2    1    2    0    0 -0.18378616370E+03  0.24505249638E+03  0.24784401852E+03  0.40216661756E+03  0.80518636436E+02 0.  0.
    5000000    2    1    2    0    0  0.18378616370E+03 -0.24505249638E+03 -0.11838004772E+04  0.13621799746E+04  0.60026880105E+03 0.  0.
        -24    2    4    4    0    0 -0.19623317655E+03 -0.17529588763E+03 -0.41354361705E+03  0.49672360717E+03  0.80497893879E+02 0.  0.
         24    2    4    4    0    0  0.38001934025E+03 -0.69756608748E+02 -0.77025686015E+03  0.86545636746E+03  0.80239702974E+02 0.  0.
         11    1    5    5    0    0 -0.11961811449E+03 -0.79846412725E+02 -0.15970455175E+03  0.21491739527E+03  0.00000000000E+00 0. -1.
        -12    1    5    5    0    0 -0.76615062058E+02 -0.95449474906E+02 -0.25383906530E+03  0.28180621190E+03  0.00000000000E+00 0.  1.
         15    1    3    3    0    0 -0.13807181922E+03  0.14885896086E+03  0.12030681029E+03  0.23600784695E+03  0.17770000000E+01 0. -1.
        -16    1    3    3    0    0 -0.45714344479E+02  0.96193535523E+02  0.12753720823E+03  0.16615877061E+03  0.00000000000E+00 0.  1.
          2    1    6    6  502    0  0.19008956596E+01  0.79323810737E+01 -0.22639715512E+02  0.24064346911E+02  0.00000000000E+00 0. -1.
         -1    1    6    6    0  502  0.37811844459E+03 -0.77688989821E+02 -0.74761714464E+03  0.84139202055E+03  0.00000000000E+00 0.  1.
<mgrwt>
<rscale>  0 0.48496658E+03</rscale>
<asrwt>0</asrwt>
<pdfrwt beam="1">  1        1 0.20771562E+00 0.48496658E+03</pdfrwt>
<pdfrwt beam="2">  1       -2 0.63722318E-01 0.48496658E+03</pdfrwt>
<totfact> 0.17819600E+01</totfact>
</mgrwt>
</event>
<event>
12    3  0.1092576E-007  0.1034414E+04  0.7818608E-02  0.9271586E-01
         -2   -1    0    0    0  501 -0.00000000000E+00  0.00000000000E+00  0.93000115548E+03  0.93000115548E+03  0.00000000000E+00 0.  1.
          1   -1    0    0  501    0  0.00000000000E+00 -0.00000000000E+00 -0.16074867495E+04  0.16074867495E+04  0.00000000000E+00 0. -1.
        -24    2    1    2    0    0  0.50961800125E+03  0.81560905671E+03  0.33103428126E+03  0.10201921043E+04  0.79243887794E+02 0.  0.
    5000000    2    1    2    0    0 -0.50961800125E+03 -0.81560905671E+03 -0.10085198753E+04  0.15172958006E+04  0.60012129380E+03 0.  0.
        -24    2    4    4    0    0  0.35608678225E+02 -0.44707336266E+03 -0.29252156224E+03  0.54122994577E+03  0.78856960775E+02 0.  0.
         24    2    4    4    0    0 -0.54522667948E+03 -0.36853569405E+03 -0.71599831303E+03  0.97606585488E+03  0.83428286531E+02 0.  0.
         13    1    5    5    0    0  0.16065862042E+02 -0.19665126223E+03 -0.82686133928E+02  0.21393182934E+03  0.00000000000E+00 0. -1.
        -14    1    5    5    0    0  0.19542816183E+02 -0.25042210043E+03 -0.20983542831E+03  0.32729811643E+03  0.00000000000E+00 0.  1.
         15    1    3    3    0    0  0.20672294340E+03  0.30471754213E+03  0.16489265718E+03  0.40345991366E+03  0.17770000000E+01 0. -1.
        -16    1    3    3    0    0  0.30289505786E+03  0.51089151458E+03  0.16614162409E+03  0.61673219066E+03  0.00000000000E+00 0.  1.
          2    1    6    6  502    0 -0.41378926143E+03 -0.28504830878E+03 -0.49175867534E+03  0.70306520749E+03  0.00000000000E+00 0. -1.
         -1    1    6    6    0  502 -0.13143741805E+03 -0.83487385270E+02 -0.22423963769E+03  0.27300064739E+03  0.00000000000E+00 0.  1.
<mgrwt>
<rscale>  0 0.10344136E+04</rscale>
<asrwt>0</asrwt>
<pdfrwt beam="1">  1        1 0.24730565E+00 0.10344136E+04</pdfrwt>
<pdfrwt beam="2">  1       -2 0.14307710E+00 0.10344136E+04</pdfrwt>
<totfact> 0.16334665E+00</totfact>
</mgrwt>
</event>
<event>
12    3  0.1092576E-007  0.7486819E+03  0.7818608E-02  0.9637420E-01
         -4   -1    0    0    0  501 -0.00000000000E+00  0.00000000000E+00  0.15066256323E+04  0.15066256323E+04  0.00000000000E+00 0.  1.
          3   -1    0    0  501    0  0.00000000000E+00 -0.00000000000E+00 -0.65238253829E+03  0.65238253829E+03  0.00000000000E+00 0. -1.
        -24    2    1    2    0    0 -0.16463807546E+03  0.64958491808E+03 -0.26484167568E+03  0.72324294957E+03  0.62233345053E+02 0.  0.
    5000000    2    1    2    0    0  0.16463807546E+03 -0.64958491808E+03  0.11190847697E+04  0.14357652210E+04  0.60000398868E+03 0.  0.
        -24    2    4    4    0    0 -0.11927316406E+03 -0.46349425188E+03  0.90398607535E+03  0.10261105395E+04  0.81602730162E+02 0.  0.
         24    2    4    4    0    0  0.28391123952E+03 -0.18609066620E+03  0.21509869434E+03  0.40965468155E+03  0.79461826292E+02 0.  0.
         11    1    5    5    0    0 -0.30259584863E+02 -0.99974619772E+02  0.13324044083E+03  0.16930322545E+03  0.00000000000E+00 0. -1.
        -12    1    5    5    0    0 -0.89013579200E+02 -0.36351963211E+03  0.77074563452E+03  0.85680731401E+03  0.00000000000E+00 0.  1.
         15    1    3    3    0    0 -0.12899552988E+02  0.56838595344E+02 -0.42827087872E+02  0.72348749627E+02  0.17770000000E+01 0. -1.
        -16    1    3    3    0    0 -0.15173852247E+03  0.59274632274E+03 -0.22201458781E+03  0.65089419994E+03  0.00000000000E+00 0.  1.
          4    1    6    6  502    0  0.11459696917E+03 -0.12216015488E+03  0.97197603484E+02  0.19365676571E+03  0.00000000000E+00 0. -1.
         -3    1    6    6    0  502  0.16931427035E+03 -0.63930511322E+02  0.11790109085E+03  0.21599791584E+03  0.00000000000E+00 0.  1.
<mgrwt>
<rscale>  0 0.74868193E+03</rscale>
<asrwt>0</asrwt>
<pdfrwt beam="1">  1        3 0.10036654E+00 0.74868193E+03</pdfrwt>
<pdfrwt beam="2">  1       -4 0.23178856E+00 0.74868193E+03</pdfrwt>
<totfact> 0.16165893E-01</totfact>
</mgrwt>
</event>
<event>
12    3  0.1092576E-007  0.1768997E+04  0.7818608E-02  0.8722963E-01
         -2   -1    0    0    0  501 -0.00000000000E+00  0.00000000000E+00  0.19243985674E+04  0.19243985674E+04  0.00000000000E+00 0.  1.
          1   -1    0    0  501    0  0.00000000000E+00 -0.00000000000E+00 -0.23312376010E+04  0.23312376010E+04  0.00000000000E+00 0. -1.
        -24    2    1    2    0    0 -0.15834900022E+04 -0.71539342831E+03  0.93992431160E+03  0.19767557546E+04  0.69837364440E+02 0.  0.
    5000000    2    1    2    0    0  0.15834900022E+04  0.71539342831E+03 -0.13467633452E+04  0.22788804138E+04  0.60024668945E+03 0.  0.
        -24    2    4    4    0    0  0.14410215944E+04  0.47873530735E+03 -0.12709767925E+04  0.19817672897E+04  0.79302290116E+02 0.  0.
         24    2    4    4    0    0  0.14246840771E+03  0.23665812096E+03 -0.75786552700E+02  0.29711312411E+03  0.78919538365E+02 0.  0.
         13    1    5    5    0    0  0.70776053345E+03  0.21699228907E+03 -0.57296318064E+03  0.93610759670E+03  0.00000000000E+00 0. -1.
        -14    1    5    5    0    0  0.73326106100E+03  0.26174301828E+03 -0.69801361186E+03  0.10456596930E+04  0.00000000000E+00 0.  1.
         15    1    3    3    0    0 -0.14760062381E+03 -0.51466159404E+02  0.68609830515E+02  0.17071958378E+03  0.17770000000E+01 0. -1.
        -16    1    3    3    0    0 -0.14358893784E+04 -0.66392726891E+03  0.87131448108E+03  0.18060361708E+04  0.00000000000E+00 0.  1.
          2    1    6    6  502    0  0.14015003174E+02  0.31688165048E+01  0.95954405549E+01  0.17278142014E+02  0.00000000000E+00 0. -1.
         -1    1    6    6    0  502  0.12845340454E+03  0.23348930446E+03 -0.85381993255E+02  0.27983498210E+03  0.00000000000E+00 0.  1.
<mgrwt>
<rscale>  0 0.17689968E+04</rscale>
<asrwt>0</asrwt>
<pdfrwt beam="1">  1        1 0.35865194E+00 0.17689968E+04</pdfrwt>
<pdfrwt beam="2">  1       -2 0.29606132E+00 0.17689968E+04</pdfrwt>
<totfact> 0.47488255E-02</totfact>
</mgrwt>
</event>
<event>
12    3  0.1092576E-007  0.4112361E+03  0.7818608E-02  0.1039957E+00
          1   -1    0    0  501    0  0.00000000000E+00  0.00000000000E+00  0.44654129910E+03  0.44654129910E+03  0.00000000000E+00 0. -1.
         -2   -1    0    0    0  501 -0.00000000000E+00 -0.00000000000E+00 -0.46668699845E+03  0.46668699845E+03  0.00000000000E+00 0.  1.
        -24    2    1    2    0    0 -0.50638744397E+02  0.21686983944E+03  0.10879335274E+03  0.26037209828E+03  0.79754788386E+02 0.  0.
    5000000    2    1    2    0    0  0.50638744397E+02 -0.21686983944E+03 -0.12893905209E+03  0.65285619927E+03  0.59999927340E+03 0.  0.
        -24    2    4    4    0    0 -0.23382256175E+03 -0.18642197969E+03  0.37736919362E+02  0.31221843906E+03  0.81425633030E+02 0.  0.
         24    2    4    4    0    0  0.28446130615E+03 -0.30447859753E+02 -0.16667597145E+03  0.34063776021E+03  0.80049343287E+02 0.  0.
         13    1    5    5    0    0 -0.16521640545E+03 -0.17035713494E+03  0.13474845936E+02  0.23769641463E+03  0.00000000000E+00 0. -1.
        -14    1    5    5    0    0 -0.68606156299E+02 -0.16064844749E+02  0.24262073425E+02  0.74522024434E+02  0.00000000000E+00 0.  1.
         15    1    3    3    0    0  0.10560090896E+02  0.25617976379E+02  0.38813879618E+02  0.47722858396E+02  0.17770000000E+01 0. -1.
        -16    1    3    3    0    0 -0.61198835293E+02  0.19125186306E+03  0.69979473118E+02  0.21264923988E+03  0.00000000000E+00 0.  1.
          2    1    6    6  502    0  0.19837644313E+03 -0.23413475227E+02 -0.15631852989E+03  0.25364716990E+03  0.00000000000E+00 0. -1.
         -1    1    6    6    0  502  0.86084863017E+02 -0.70343845255E+01 -0.10357441563E+02  0.86990590308E+02  0.00000000000E+00 0.  1.
<mgrwt>
<rscale>  0 0.41123606E+03</rscale>
<asrwt>0</asrwt>
<pdfrwt beam="1">  1        1 0.68698661E-01 0.41123606E+03</pdfrwt>
<pdfrwt beam="2">  1       -2 0.71798000E-01 0.41123606E+03</pdfrwt>
<totfact> 0.82869999E+01</totfact>
</mgrwt>
</event>
<event>
12    3  0.1092576E-007  0.6913133E+03  0.7818608E-02  0.9732204E-01
          1   -1    0    0  501    0  0.00000000000E+00  0.00000000000E+00  0.81407877968E+03  0.81407877968E+03  0.00000000000E+00 0. -1.
         -2   -1    0    0    0  501 -0.00000000000E+00 -0.00000000000E+00 -0.91845562257E+03  0.91845562257E+03  0.00000000000E+00 0.  1.
        -24    2    1    2    0    0  0.41783001005E+03 -0.38794947360E+03 -0.54664472948E+03  0.79383845530E+03  0.79197989041E+02 0.  0.
    5000000    2    1    2    0    0 -0.41783001005E+03  0.38794947360E+03  0.44226788660E+03  0.93869594696E+03  0.60038528126E+03 0.  0.
        -24    2    4    4    0    0 -0.17318353303E+03  0.49978473093E+03  0.36326167209E+03  0.64653706451E+03  0.79207449112E+02 0.  0.
         24    2    4    4    0    0 -0.24464647702E+03 -0.11183525733E+03  0.79006214504E+02  0.29215888244E+03  0.82193717273E+02 0.  0.
         11    1    5    5    0    0 -0.13609659280E+03  0.27739780613E+03  0.22223209021E+03  0.38060337274E+03  0.00000000000E+00 0. -1.
        -12    1    5    5    0    0 -0.37086940229E+02  0.22238692480E+03  0.14102958188E+03  0.26593369178E+03  0.00000000000E+00 0.  1.
         15    1    3    3    0    0  0.30947137782E+03 -0.23701444003E+03 -0.36674388569E+03  0.53521268099E+03  0.17770000000E+01 0. -1.
        -16    1    3    3    0    0  0.10835863223E+03 -0.15093503357E+03 -0.17990084379E+03  0.25862577430E+03  0.00000000000E+00 0.  1.
          2    1    6    6  502    0 -0.97764783248E+02 -0.21397721567E+02  0.64490388688E+02  0.11905807644E+03  0.00000000000E+00 0. -1.
         -1    1    6    6    0  502 -0.14688169377E+03 -0.90437535766E+02  0.14515825816E+02  0.17310080601E+03  0.00000000000E+00 0.  1.
<mgrwt>
<rscale>  0 0.69131334E+03</rscale>
<asrwt>0</asrwt>
<pdfrwt beam="1">  1        1 0.12524289E+00 0.69131334E+03</pdfrwt>
<pdfrwt beam="2">  1       -2 0.14130087E+00 0.69131334E+03</pdfrwt>
<totfact> 0.68043672E+00</totfact>
</mgrwt>
</event>
<event>
12    3  0.1092576E-007  0.5152818E+03  0.7818608E-02  0.1009865E+00
          1   -1    0    0  501    0  0.00000000000E+00  0.00000000000E+00  0.28640992322E+04  0.28640992322E+04  0.00000000000E+00 0. -1.
         -2   -1    0    0    0  501 -0.00000000000E+00 -0.00000000000E+00 -0.16676786135E+03  0.16676786135E+03  0.00000000000E+00 0.  1.
        -24    2    1    2    0    0  0.17496912319E+03 -0.37876776995E+03  0.19100873563E+04  0.19567964434E+04  0.80866523229E+02 0.  0.
    5000000    2    1    2    0    0 -0.17496912319E+03  0.37876776995E+03  0.78724401463E+03  0.10740706502E+04  0.59982948033E+03 0.  0.
        -24    2    4    4    0    0 -0.30380597140E+03  0.16979617403E+03  0.15137571915E+03  0.38761430095E+03  0.78749152261E+02 0.  0.
         24    2    4    4    0    0  0.12883684821E+03  0.20897159593E+03  0.63586829548E+03  0.68645634927E+03  0.81398826148E+02 0.  0.
         13    1    5    5    0    0 -0.23972526252E+03  0.16059947604E+03  0.14392027261E+03  0.32244912476E+03  0.00000000000E+00 0. -1.
        -14    1    5    5    0    0 -0.64080708880E+02  0.91966979910E+01  0.74554465424E+01  0.65165176189E+02  0.00000000000E+00 0.  1.
         15    1    3    3    0    0  0.10513812368E+03 -0.18482552732E+03  0.80274616116E+03  0.83043305425E+03  0.17770000000E+01 0. -1.
        -16    1    3    3    0    0  0.69830999513E+02 -0.19394224263E+03  0.11073411951E+04  0.11263633891E+04  0.00000000000E+00 0.  1.
          2    1    6    6  502    0  0.16046410007E+02  0.10132301074E+03  0.24150861603E+03  0.26239331431E+03  0.00000000000E+00 0. -1.
         -1    1    6    6    0  502  0.11279043820E+03  0.10764858519E+03  0.39435967945E+03  0.42406303496E+03  0.00000000000E+00 0.  1.
<mgrwt>
<rscale>  0 0.51528176E+03</rscale>
<asrwt>0</asrwt>
<pdfrwt beam="1">  1        1 0.44063062E+00 0.51528176E+03</pdfrwt>
<pdfrwt beam="2">  1       -2 0.25656596E-01 0.51528176E+03</pdfrwt>
<totfact> 0.99825858E+00</totfact>
</mgrwt>
</event>
<event>
12    3  0.1092576E-007  0.1553256E+04  0.7818608E-02  0.8849791E-01
          1   -1    0    0  501    0  0.00000000000E+00  0.00000000000E+00  0.19653029470E+04  0.19653029470E+04  0.00000000000E+00 0. -1.
         -2   -1    0    0    0  501 -0.00000000000E+00 -0.00000000000E+00 -0.14393653463E+04  0.14393653463E+04  0.00000000000E+00 0.  1.
        -24    2    1    2    0    0 -0.13622790625E+04 -0.62041524443E+03  0.90060405599E+03  0.17487864744E+04  0.80294131855E+02 0.  0.
    5000000    2    1    2    0    0  0.13622790625E+04  0.62041524443E+03 -0.37466645529E+03  0.16558818188E+04  0.60070818656E+03 0.  0.
        -24    2    4    4    0    0  0.75250660477E+03  0.64921238990E+03 -0.24104746865E+03  0.10258841131E+04  0.81187523422E+02 0.  0.
         24    2    4    4    0    0  0.60977245778E+03 -0.28797145463E+02 -0.13361898665E+03  0.62999770572E+03  0.79945917769E+02 0.  0.
         13    1    5    5    0    0  0.56226643053E+03  0.44974081668E+03 -0.14888270148E+03  0.73523900868E+03  0.00000000000E+00 0. -1.
        -14    1    5    5    0    0  0.19024017424E+03  0.19947157322E+03 -0.92164767171E+02  0.29064510442E+03  0.00000000000E+00 0.  1.
         15    1    3    3    0    0 -0.52684442048E+03 -0.22536497280E+03  0.38775904078E+03  0.69189207670E+03  0.17770000000E+01 0. -1.
        -16    1    3    3    0    0 -0.83543464206E+03 -0.39505027164E+03  0.51284501521E+03  0.10568943977E+04  0.00000000000E+00 0.  1.
          4    1    6    6  502    0  0.49875891707E+03  0.10083515991E+01 -0.12796278214E+03  0.51491353424E+03  0.00000000000E+00 0. -1.
         -3    1    6    6    0  502  0.11101354071E+03 -0.29805497062E+02 -0.56562045018E+01  0.11508417148E+03  0.00000000000E+00 0.  1.
<mgrwt>
<rscale>  0 0.15532560E+04</rscale>
<asrwt>0</asrwt>
<pdfrwt beam="1">  1        1 0.30235430E+00 0.15532560E+04</pdfrwt>
<pdfrwt beam="2">  1       -2 0.22144082E+00 0.15532560E+04</pdfrwt>
<totfact> 0.24974985E-01</totfact>
</mgrwt>
</event>
<event>
12    3  0.1092576E-007  0.6039492E+03  0.7818608E-02  0.9897246E-01
          1   -1    0    0  501    0  0.00000000000E+00  0.00000000000E+00  0.11379106718E+04  0.11379106718E+04  0.00000000000E+00 0. -1.
         -2   -1    0    0    0  501 -0.00000000000E+00 -0.00000000000E+00 -0.40413783506E+03  0.40413783506E+03  0.00000000000E+00 0.  1.
        -24    2    1    2    0    0  0.47536797094E+03 -0.81909271628E+02  0.15822475991E+02  0.48934566633E+03  0.80777433923E+02 0.  0.
    5000000    2    1    2    0    0 -0.47536797094E+03  0.81909271628E+02  0.71795036077E+03  0.10527028406E+04  0.60003892657E+03 0.  0.
        -24    2    4    4    0    0 -0.43060359899E+03 -0.16330528753E+03  0.28506804204E+03  0.54701675929E+03  0.76651614173E+02 0.  0.
         24    2    4    4    0    0 -0.44764371957E+02  0.24521455915E+03  0.43288231873E+03  0.50568608126E+03  0.78722816861E+02 0.  0.
         13    1    5    5    0    0 -0.24013703267E+03 -0.56654696016E+02  0.17541423642E+03  0.30273041370E+03  0.00000000000E+00 0. -1.
        -14    1    5    5    0    0 -0.19046656631E+03 -0.10665059151E+03  0.10965380562E+03  0.24428634559E+03  0.00000000000E+00 0.  1.
         15    1    3    3    0    0  0.30026910657E+03 -0.63463351778E+02 -0.27160653860E+02  0.30810711161E+03  0.17770000000E+01 0. -1.
        -16    1    3    3    0    0  0.17509886438E+03 -0.18445919850E+02  0.42983129851E+02  0.18123855472E+03  0.00000000000E+00 0.  1.
          4    1    6    6  502    0 -0.63685427906E+02  0.15230784778E+03  0.24821973857E+03  0.29810493595E+03  0.00000000000E+00 0. -1.
         -3    1    6    6    0  502  0.18921055949E+02  0.92906711372E+02  0.18466258017E+03  0.20758114531E+03  0.00000000000E+00 0.  1.
<mgrwt>
<rscale>  0 0.60394920E+03</rscale>
<asrwt>0</asrwt>
<pdfrwt beam="1">  1        1 0.17506318E+00 0.60394920E+03</pdfrwt>
<pdfrwt beam="2">  1       -2 0.62175052E-01 0.60394920E+03</pdfrwt>
<totfact> 0.26070685E+01</totfact>
</mgrwt>
</event>
<event>
12    3  0.1128557E-007  0.8792304E+03  0.7818608E-02  0.9451923E-01
          1   -1    0    0  501    0  0.00000000000E+00  0.00000000000E+00  0.10634978422E+04  0.10634978422E+04  0.00000000000E+00 0. -1.
         -2   -1    0    0    0  501 -0.00000000000E+00 -0.00000000000E+00 -0.12925569620E+04  0.12925569620E+04  0.00000000000E+00 0.  1.
        -24    2    1    2    0    0 -0.26310282768E+03 -0.80891936730E+03 -0.79837017541E+03  0.11695073319E+04  0.82333600443E+02 0.  0.
    5000000    2    1    2    0    0  0.26310282768E+03  0.80891936730E+03  0.56931105562E+03  0.11865474722E+04  0.60017179618E+03 0.  0.
        -24    2    4    4    0    0  0.30533977337E+01  0.31644717913E+02 -0.95466993214E+02  0.12811915767E+03  0.79308639872E+02 0.  0.
         24    2    4    4    0    0  0.26004942995E+03  0.77727464939E+03  0.66477804883E+03  0.10584283145E+04  0.80987999896E+02 0.  0.
         13    1    5    5    0    0  0.18346064238E+02  0.54174561639E+02 -0.55047418720E+02  0.79383118543E+02  0.00000000000E+00 0. -1.
        -14    1    5    5    0    0 -0.15292666505E+02 -0.22529843727E+02 -0.40419574494E+02  0.48736039123E+02  0.00000000000E+00 0.  1.
         15    1    3    3    0    0 -0.23954523112E+03 -0.66085965587E+03 -0.62847429504E+03  0.94292125851E+03  0.17770000000E+01 0. -1.
        -16    1    3    3    0    0 -0.23557596560E+02 -0.14805971143E+03 -0.16989588038E+03  0.22658607343E+03  0.00000000000E+00 0.  1.
          4    1    6    6  502    0  0.50056393339E+02  0.22064913900E+03  0.14765224428E+03  0.27017192729E+03  0.00000000000E+00 0. -1.
         -3    1    6    6    0  502  0.20999303661E+03  0.55662551039E+03  0.51712580456E+03  0.78825638721E+03  0.00000000000E+00 0.  1.
<mgrwt>
<rscale>  0 0.87923040E+03</rscale>
<asrwt>0</asrwt>
<pdfrwt beam="1">  1        1 0.16361505E+00 0.87923040E+03</pdfrwt>
<pdfrwt beam="2">  1       -2 0.19885492E+00 0.87923040E+03</pdfrwt>
<totfact> 0.16237074E+00</totfact>
</mgrwt>
</event>
<event>
12    3  0.1092576E-007  0.7957230E+03  0.7818608E-02  0.9566229E-01
         -2   -1    0    0    0  501 -0.00000000000E+00  0.00000000000E+00  0.27583943313E+03  0.27583943313E+03  0.00000000000E+00 0.  1.
          1   -1    0    0  501    0  0.00000000000E+00 -0.00000000000E+00 -0.32953539192E+04  0.32953539192E+04  0.00000000000E+00 0. -1.
        -24    2    1    2    0    0 -0.62601869213E+03 -0.34453695959E+03 -0.22491176592E+04  0.23611963501E+04  0.78184648735E+02 0.  0.
    5000000    2    1    2    0    0  0.62601869213E+03  0.34453695959E+03 -0.77039682688E+03  0.12099970022E+04  0.59998029565E+03 0.  0.
        -24    2    4    4    0    0  0.54254364597E+03  0.31237846030E+02 -0.65904880439E+03  0.85785480384E+03  0.78994475103E+02 0.  0.
         24    2    4    4    0    0  0.83475046162E+02  0.31329911356E+03 -0.11134802248E+03  0.35214219841E+03  0.80506694758E+02 0.  0.
         13    1    5    5    0    0  0.38573246774E+03 -0.47027302501E+01 -0.42644094136E+03  0.57503350234E+03  0.00000000000E+00 0. -1.
        -14    1    5    5    0    0  0.15681117823E+03  0.35940576280E+02 -0.23260786303E+03  0.28282130150E+03  0.00000000000E+00 0.  1.
         15    1    3    3    0    0 -0.39015851590E+03 -0.22526690978E+03 -0.15344720797E+04  0.15992424986E+04  0.17770000000E+01 0. -1.
        -16    1    3    3    0    0 -0.23586017623E+03 -0.11927004981E+03 -0.71464557948E+03  0.76195385147E+03  0.00000000000E+00 0.  1.
          4    1    6    6  502    0 -0.92770656620E+01  0.15411862560E+02  0.57694094263E+01  0.18891149780E+02  0.00000000000E+00 0. -1.
         -3    1    6    6    0  502  0.92752111824E+02  0.29788725100E+03 -0.11711743191E+03  0.33325104863E+03  0.00000000000E+00 0.  1.
<mgrwt>
<rscale>  0 0.79572297E+03</rscale>
<asrwt>0</asrwt>
<pdfrwt beam="1">  1        1 0.50697753E+00 0.79572297E+03</pdfrwt>
<pdfrwt beam="2">  1       -2 0.42436835E-01 0.79572297E+03</pdfrwt>
<totfact> 0.17783735E+00</totfact>
</mgrwt>
</event>
<event>
12    3  0.1092576E-007  0.8063973E+03  0.7818608E-02  0.9550803E-01
         -2   -1    0    0    0  501 -0.00000000000E+00  0.00000000000E+00  0.60038453679E+03  0.60038453679E+03  0.00000000000E+00 0.  1.
          1   -1    0    0  501    0  0.00000000000E+00 -0.00000000000E+00 -0.16065169764E+04  0.16065169764E+04  0.00000000000E+00 0. -1.
        -24    2    1    2    0    0  0.70450255832E+03 -0.13442705029E+03  0.13112753289E+03  0.73427106943E+03  0.86977508483E+02 0.  0.
    5000000    2    1    2    0    0 -0.70450255832E+03  0.13442705029E+03 -0.11372599725E+04  0.14726304437E+04  0.60073762350E+03 0.  0.
        -24    2    4    4    0    0 -0.77035221301E+03  0.15344564373E+03 -0.11152026827E+04  0.13662455704E+04  0.77212936235E+02 0.  0.
         24    2    4    4    0    0  0.65849654686E+02 -0.19018593438E+02 -0.22057289816E+02  0.10638487335E+03  0.78315600774E+02 0.  0.
         13    1    5    5    0    0 -0.23520067699E+03  0.81979936473E+02 -0.33497321315E+03  0.41742918198E+03  0.00000000000E+00 0. -1.
        -14    1    5    5    0    0 -0.53515153602E+03  0.71465707258E+02 -0.78022946951E+03  0.94881638841E+03  0.00000000000E+00 0.  1.
         15    1    3    3    0    0  0.33523701293E+03 -0.30920050191E+02  0.90569485713E+02  0.34863432678E+03  0.17770000000E+01 0. -1.
        -16    1    3    3    0    0  0.36926554540E+03 -0.10350700010E+03  0.40558047180E+02  0.38563674265E+03  0.00000000000E+00 0.  1.
          4    1    6    6  502    0  0.73498306739E+02  0.95136474696E+01 -0.20057100453E+02  0.76777586965E+02  0.00000000000E+00 0. -1.
         -3    1    6    6    0  502 -0.76486520525E+01 -0.28532240908E+02 -0.20001893630E+01  0.29607286382E+02  0.00000000000E+00 0.  1.
<mgrwt>
<rscale>  0 0.80639726E+03</rscale>
<asrwt>0</asrwt>
<pdfrwt beam="1">  1        1 0.24715646E+00 0.80639726E+03</pdfrwt>
<pdfrwt beam="2">  1       -2 0.92366853E-01 0.80639726E+03</pdfrwt>
<totfact> 0.49519251E+00</totfact>
</mgrwt>
</event>
<event>
12    3  0.1092576E-007  0.6812599E+03  0.7818608E-02  0.9749828E-01
         -2   -1    0    0    0  501 -0.00000000000E+00  0.00000000000E+00  0.61136269426E+03  0.61136269426E+03  0.00000000000E+00 0.  1.
          1   -1    0    0  501    0  0.00000000000E+00 -0.00000000000E+00 -0.92405336706E+03  0.92405336706E+03  0.00000000000E+00 0. -1.
        -24    2    1    2    0    0 -0.55480227445E+03  0.83064103606E+02  0.15838403434E+03  0.58838905292E+03  0.80068509509E+02 0.  0.
    5000000    2    1    2    0    0  0.55480227445E+03 -0.83064103606E+02 -0.47107470715E+03  0.94702700841E+03  0.60020293726E+03 0.  0.
        -24    2    4    4    0    0  0.62997618334E+02 -0.26403996020E+03 -0.23082188677E+03  0.36519153639E+03  0.80001964586E+02 0.  0.
         24    2    4    4    0    0  0.49180465611E+03  0.18097585660E+03 -0.24025282038E+03  0.58183547202E+03  0.78657601999E+02 0.  0.
         13    1    5    5    0    0  0.27290828831E+02 -0.84749672834E+02 -0.30795198999E+02  0.94210618643E+02  0.00000000000E+00 0. -1.
        -14    1    5    5    0    0  0.35706789503E+02 -0.17929028737E+03 -0.20002668777E+03  0.27098091774E+03  0.00000000000E+00 0.  1.
         15    1    3    3    0    0 -0.16333727527E+03  0.57661004529E+02  0.65973157834E+02  0.18536308214E+03  0.17770000000E+01 0. -1.
        -16    1    3    3    0    0 -0.39146499918E+03  0.25403099078E+02  0.92410876511E+02  0.40302597078E+03  0.00000000000E+00 0.  1.
          2    1    6    6  502    0  0.10026416830E+03  0.22465306879E+02 -0.79332631904E+02  0.12981240288E+03  0.00000000000E+00 0. -1.
         -1    1    6    6    0  502  0.39154048782E+03  0.15851054972E+03 -0.16092018848E+03  0.45202306914E+03  0.00000000000E+00 0.  1.
<mgrwt>
<rscale>  0 0.68125988E+03</rscale>
<asrwt>0</asrwt>
<pdfrwt beam="1">  1        1 0.14216206E+00 0.68125988E+03</pdfrwt>
<pdfrwt beam="2">  1       -2 0.94055799E-01 0.68125988E+03</pdfrwt>
<totfact> 0.14991227E+01</totfact>
</mgrwt>
</event>
<event>
12    3  0.1092576E-007  0.4244018E+03  0.7818608E-02  0.1035643E+00
          1   -1    0    0  501    0  0.00000000000E+00  0.00000000000E+00  0.10554864824E+04  0.10554864824E+04  0.00000000000E+00 0. -1.
         -2   -1    0    0    0  501 -0.00000000000E+00 -0.00000000000E+00 -0.37892810215E+03  0.37892810215E+03  0.00000000000E+00 0.  1.
        -24    2    1    2    0    0 -0.19214873496E+03  0.14216414525E+03  0.74316290130E+03  0.78521701590E+03  0.84515582310E+02 0.  0.
    5000000    2    1    2    0    0  0.19214873496E+03 -0.14216414525E+03 -0.66604521018E+02  0.64919756867E+03  0.59990794328E+03 0.  0.
        -24    2    4    4    0    0 -0.17893400449E+03 -0.12024705044E+03  0.77409692764E+02  0.24287796925E+03  0.80750952404E+02 0.  0.
         24    2    4    4    0    0  0.37108273945E+03 -0.21917094813E+02 -0.14401421378E+03  0.40631959942E+03  0.78566943048E+02 0.  0.
         13    1    5    5    0    0 -0.39150177468E+02 -0.64420212608E+02  0.48412827596E+02  0.89590747648E+02  0.00000000000E+00 0. -1.
        -14    1    5    5    0    0 -0.13978382702E+03 -0.55826837833E+02  0.28996865168E+02  0.15328722161E+03  0.00000000000E+00 0.  1.
         15    1    3    3    0    0 -0.54588947880E+02  0.17224519343E+02  0.28694482544E+03  0.29260404623E+03  0.17770000000E+01 0. -1.
        -16    1    3    3    0    0 -0.13755978708E+03  0.12493962591E+03  0.45621807586E+03  0.49261296967E+03  0.00000000000E+00 0.  1.
          4    1    6    6  502    0  0.28862397567E+03  0.15947920191E+02 -0.10487326716E+03  0.30750046773E+03  0.00000000000E+00 0. -1.
         -3    1    6    6    0  502  0.82458763772E+02 -0.37865015004E+02 -0.39140946622E+02  0.98819131683E+02  0.00000000000E+00 0.  1.
<mgrwt>
<rscale>  0 0.42440178E+03</rscale>
<asrwt>0</asrwt>
<pdfrwt beam="1">  1        1 0.16238253E+00 0.42440178E+03</pdfrwt>
<pdfrwt beam="2">  1       -2 0.58296631E-01 0.42440178E+03</pdfrwt>
<totfact> 0.35276655E+01</totfact>
</mgrwt>
</event>
<event>
12    3  0.1092576E-007  0.3079077E+03  0.7818608E-02  0.1081353E+00
         -2   -1    0    0    0  501 -0.00000000000E+00  0.00000000000E+00  0.82769185155E+02  0.82769185155E+02  0.00000000000E+00 0.  1.
          1   -1    0    0  501    0  0.00000000000E+00 -0.00000000000E+00 -0.16357993499E+04  0.16357993499E+04  0.00000000000E+00 0. -1.
        -24    2    1    2    0    0 -0.49699875695E+02  0.75833669457E+02 -0.17299464480E+03  0.21098573148E+03  0.79793537909E+02 0.  0.
    5000000    2    1    2    0    0  0.49699875695E+02 -0.75833669457E+02 -0.13800355199E+04  0.15075828035E+04  0.60007253748E+03 0.  0.
        -24    2    4    4    0    0 -0.22116718476E+03 -0.49748049041E+02 -0.10266253911E+04  0.10543769951E+04  0.79758148885E+02 0.  0.
         24    2    4    4    0    0  0.27086706045E+03 -0.26085620416E+02 -0.35341012885E+03  0.45320580840E+03  0.80295464124E+02 0.  0.
         11    1    5    5    0    0 -0.48879505319E+02 -0.27575745974E+02 -0.13878163575E+03  0.14969959996E+03  0.00000000000E+00 0. -1.
        -12    1    5    5    0    0 -0.17228767944E+03 -0.22172303067E+02 -0.88784375530E+03  0.90467739517E+03  0.00000000000E+00 0.  1.
         15    1    3    3    0    0  0.21309054624E+01  0.40218309748E+02 -0.12652332441E+03  0.13279067191E+03  0.17770000000E+01 0. -1.
        -16    1    3    3    0    0 -0.51830781157E+02  0.35615359709E+02 -0.46471320382E+02  0.78195059566E+02  0.00000000000E+00 0.  1.
          2    1    6    6  502    0  0.11624838352E+03 -0.49598964002E+02 -0.17636432454E+03  0.21697492683E+03  0.00000000000E+00 0. -1.
         -1    1    6    6    0  502  0.15461867693E+03  0.23513343585E+02 -0.17704580431E+03  0.23623088156E+03  0.00000000000E+00 0.  1.
<mgrwt>
<rscale>  0 0.30790773E+03</rscale>
<asrwt>0</asrwt>
<pdfrwt beam="1">  1        1 0.25166145E+00 0.30790773E+03</pdfrwt>
<pdfrwt beam="2">  1       -2 0.12733720E-01 0.30790773E+03</pdfrwt>
<totfact> 0.22901417E+02</totfact>
</mgrwt>
</event>
<event>
12    3  0.1092576E-007  0.9107596E+03  0.7818608E-02  0.9412231E-01
          1   -1    0    0  501    0  0.00000000000E+00  0.00000000000E+00  0.92201098045E+03  0.92201098045E+03  0.00000000000E+00 0. -1.
         -2   -1    0    0    0  501 -0.00000000000E+00 -0.00000000000E+00 -0.10514428709E+04  0.10514428709E+04  0.00000000000E+00 0.  1.
        -24    2    1    2    0    0  0.80158705208E+03  0.35410721757E+03  0.10449713801E+03  0.88595612759E+03  0.77877368707E+02 0.  0.
    5000000    2    1    2    0    0 -0.80158705208E+03 -0.35410721757E+03 -0.23392902851E+03  0.10874977238E+04  0.59999565442E+03 0.  0.
        -24    2    4    4    0    0 -0.77711859556E+03 -0.22408222702E+03 -0.35962733471E+03  0.88818387867E+03  0.73570554105E+02 0.  0.
         24    2    4    4    0    0 -0.24468456522E+02 -0.13002499055E+03  0.12569830620E+03  0.19931384514E+03  0.80129527343E+02 0.  0.
         11    1    5    5    0    0 -0.15291857139E+03 -0.18516813581E+02 -0.85001356592E+02  0.17593235201E+03  0.00000000000E+00 0. -1.
        -12    1    5    5    0    0 -0.62420002417E+03 -0.20556541344E+03 -0.27462597812E+03  0.71225152666E+03  0.00000000000E+00 0.  1.
         15    1    3    3    0    0  0.48865974864E+03  0.23268458406E+03  0.29597934521E+02  0.54204212111E+03  0.17770000000E+01 0. -1.
        -16    1    3    3    0    0  0.31292730344E+03  0.12142263351E+03  0.74899203492E+02  0.34391400648E+03  0.00000000000E+00 0.  1.
          2    1    6    6  502    0 -0.31553921148E+01 -0.63047794222E+02  0.11071628371E+03  0.12744832810E+03  0.00000000000E+00 0. -1.
         -1    1    6    6    0  502 -0.21313064407E+02 -0.66977196329E+02  0.14982022487E+02  0.71865517047E+02  0.00000000000E+00 0.  1.
<mgrwt>
<rscale>  0 0.91075956E+03</rscale>
<asrwt>0</asrwt>
<pdfrwt beam="1">  1        1 0.14184784E+00 0.91075956E+03</pdfrwt>
<pdfrwt beam="2">  1       -2 0.16176044E+00 0.91075956E+03</pdfrwt>
<totfact> 0.37614994E+00</totfact>
</mgrwt>
</event>
<event>
12    3  0.1092576E-007  0.1867009E+04  0.7818608E-02  0.8671454E-01
          1   -1    0    0  501    0  0.00000000000E+00  0.00000000000E+00  0.21300088829E+04  0.21300088829E+04  0.00000000000E+00 0. -1.
         -2   -1    0    0    0  501 -0.00000000000E+00 -0.00000000000E+00 -0.25331551170E+04  0.25331551170E+04  0.00000000000E+00 0.  1.
        -24    2    1    2    0    0 -0.77872233540E+03  0.16884313631E+04  0.11320648386E+04  0.21783750421E+04  0.80858404638E+02 0.  0.
    5000000    2    1    2    0    0  0.77872233540E+03 -0.16884313631E+04 -0.15352110726E+04  0.24847889578E+04  0.60007848153E+03 0.  0.
        -24    2    4    4    0    0  0.60358201492E+03 -0.14908902686E+04 -0.15087967288E+04  0.22068375411E+04  0.81236212277E+02 0.  0.
         24    2    4    4    0    0  0.17514032048E+03 -0.19754109447E+03 -0.26414343759E+02  0.27795141670E+03  0.82841152971E+02 0.  0.
         13    1    5    5    0    0  0.77713015789E+02 -0.15176932043E+03 -0.13348079275E+03  0.21654182386E+03  0.00000000000E+00 0. -1.
        -14    1    5    5    0    0  0.52586899913E+03 -0.13391209482E+04 -0.13753159361E+04  0.19902957173E+04  0.00000000000E+00 0.  1.
         15    1    3    3    0    0 -0.60754856580E+03  0.13789964217E+04  0.93818160422E+03  0.17750871165E+04  0.17770000000E+01 0. -1.
        -16    1    3    3    0    0 -0.17117376960E+03  0.30943494137E+03  0.19388323437E+03  0.40328792557E+03  0.00000000000E+00 0.  1.
          4    1    6    6  502    0  0.14493729429E+03 -0.15584970453E+03 -0.53961475298E+02  0.21956272565E+03  0.00000000000E+00 0. -1.
         -3    1    6    6    0  502  0.30203026183E+02 -0.41691389937E+02  0.27547131539E+02  0.58388691041E+02  0.00000000000E+00 0.  1.
<mgrwt>
<rscale>  0 0.18670093E+04</rscale>
<asrwt>0</asrwt>
<pdfrwt beam="1">  1        1 0.32769367E+00 0.18670093E+04</pdfrwt>
<pdfrwt beam="2">  1       -2 0.38971617E+00 0.18670093E+04</pdfrwt>
<totfact> 0.16592953E-02</totfact>
</mgrwt>
</event>
<event>
12    3  0.1092576E-007  0.8487208E+03  0.7818608E-02  0.9492055E-01
         -2   -1    0    0    0  501 -0.00000000000E+00  0.00000000000E+00  0.15557824216E+04  0.15557824216E+04  0.00000000000E+00 0.  1.
          1   -1    0    0  501    0  0.00000000000E+00 -0.00000000000E+00 -0.56489918728E+03  0.56489918728E+03  0.00000000000E+00 0. -1.
        -24    2    1    2    0    0 -0.64089809582E+03  0.41194257398E+03  0.47093659642E+02  0.76749467392E+03  0.79894982520E+02 0.  0.
    5000000    2    1    2    0    0  0.64089809582E+03 -0.41194257398E+03  0.94378957465E+03  0.13531869349E+04  0.59994088556E+03 0.  0.
        -24    2    4    4    0    0  0.64367237267E+03 -0.14284678327E+03  0.51511083187E+03  0.84069710998E+03  0.81933721945E+02 0.  0.
         24    2    4    4    0    0 -0.27742768503E+01 -0.26909579071E+03  0.42867874278E+03  0.51248982495E+03  0.80374840427E+02 0.  0.
         13    1    5    5    0    0  0.45546924044E+03 -0.11162502015E+03  0.31939857664E+03  0.56738683882E+03  0.00000000000E+00 0. -1.
        -14    1    5    5    0    0  0.18820313224E+03 -0.31221763119E+02  0.19571225523E+03  0.27331027116E+03  0.00000000000E+00 0.  1.
         15    1    3    3    0    0 -0.35262213232E+03  0.21517256004E+03 -0.13166935856E+02  0.41330149373E+03  0.17770000000E+01 0. -1.
        -16    1    3    3    0    0 -0.28827596351E+03  0.19677001394E+03  0.60260595497E+02  0.35419318019E+03  0.00000000000E+00 0.  1.
          4    1    6    6  502    0  0.27225512037E+02 -0.90753132003E+02  0.10288143451E+03  0.13986403769E+03  0.00000000000E+00 0. -1.
         -3    1    6    6    0  502 -0.29999788887E+02 -0.17834265871E+03  0.32579730827E+03  0.37262578725E+03  0.00000000000E+00 0.  1.
<mgrwt>
<rscale>  0 0.84872084E+03</rscale>
<asrwt>0</asrwt>
<pdfrwt beam="1">  1        1 0.86907568E-01 0.84872084E+03</pdfrwt>
<pdfrwt beam="2">  1       -2 0.23935114E+00 0.84872084E+03</pdfrwt>
<totfact> 0.24922505E+00</totfact>
</mgrwt>
</event>
<event>
12    3  0.1092576E-007  0.3198951E+03  0.7818608E-02  0.1075698E+00
         -2   -1    0    0    0  501 -0.00000000000E+00  0.00000000000E+00  0.22360601163E+03  0.22360601163E+03  0.00000000000E+00 0.  1.
          1   -1    0    0  501    0  0.00000000000E+00 -0.00000000000E+00 -0.10829625937E+04  0.10829625937E+04  0.00000000000E+00 0. -1.
        -24    2    1    2    0    0  0.24170626389E+03  0.17536699119E+03 -0.21656774254E+03  0.37788794249E+03  0.81989086870E+02 0.  0.
    5000000    2    1    2    0    0 -0.24170626389E+03 -0.17536699119E+03 -0.64278883956E+03  0.92868066287E+03  0.60007897957E+03 0.  0.
        -24    2    4    4    0    0 -0.18004362357E+03 -0.71494967854E+02 -0.72948244490E+03  0.75884411424E+03  0.78565358026E+02 0.  0.
         24    2    4    4    0    0 -0.61662640323E+02 -0.10387202334E+03  0.86693605333E+02  0.16983654863E+03  0.82079191045E+02 0.  0.
         13    1    5    5    0    0 -0.14681658231E+03 -0.88747441650E+02 -0.59229386234E+03  0.61663865967E+03  0.00000000000E+00 0. -1.
        -14    1    5    5    0    0 -0.33227041263E+02  0.17252473795E+02 -0.13718858256E+03  0.14220545456E+03  0.00000000000E+00 0.  1.
         15    1    3    3    0    0  0.84557914177E+02  0.10828450976E+03 -0.78753693844E+02  0.15836943495E+03  0.17770000000E+01 0. -1.
        -16    1    3    3    0    0  0.15714834971E+03  0.67082481429E+02 -0.13781404869E+03  0.21951850753E+03  0.00000000000E+00 0.  1.
          4    1    6    6  502    0 -0.23391065084E+01 -0.18036904814E+02  0.59205107178E+02  0.61935822191E+02  0.00000000000E+00 0. -1.
         -3    1    6    6    0  502 -0.59323533815E+02 -0.85835118523E+02  0.27488498155E+02  0.10790072644E+03  0.00000000000E+00 0.  1.
<mgrwt>
<rscale>  0 0.31989507E+03</rscale>
<asrwt>0</asrwt>
<pdfrwt beam="1">  1        1 0.16660963E+00 0.31989507E+03</pdfrwt>
<pdfrwt beam="2">  1       -2 0.34400925E-01 0.31989507E+03</pdfrwt>
<totfact> 0.97039626E+01</totfact>
</mgrwt>
</event>
<event>
12    3  0.1092576E-007  0.1333322E+04  0.7818608E-02  0.9003550E-01
          1   -1    0    0  501    0  0.00000000000E+00  0.00000000000E+00  0.22646293554E+04  0.22646293554E+04  0.00000000000E+00 0. -1.
         -2   -1    0    0    0  501 -0.00000000000E+00 -0.00000000000E+00 -0.83941854019E+03  0.83941854019E+03  0.00000000000E+00 0.  1.
        -24    2    1    2    0    0  0.16971616533E+03  0.12906310924E+04  0.49296476154E+03  0.13941709742E+04  0.78525510249E+02 0.  0.
    5000000    2    1    2    0    0 -0.16971616533E+03 -0.12906310924E+04  0.93224605362E+03  0.17098769214E+04  0.60005348790E+03 0.  0.
        -24    2    4    4    0    0 -0.18249610753E+03 -0.19754380609E+03  0.40821791249E+03  0.49501222036E+03  0.77889984201E+02 0.  0.
         24    2    4    4    0    0  0.12779942206E+02 -0.10930872863E+04  0.52402814113E+03  0.12148647010E+04  0.79294430377E+02 0.  0.
         13    1    5    5    0    0 -0.12765147386E+03 -0.14411911899E+03  0.34760553091E+03  0.39735981724E+03  0.00000000000E+00 0. -1.
        -14    1    5    5    0    0 -0.54844633671E+02 -0.53424687105E+02  0.60612381581E+02  0.97652403123E+02  0.00000000000E+00 0.  1.
         15    1    3    3    0    0  0.10138905419E+03  0.56944424157E+03  0.24970662867E+03  0.63000241483E+03  0.17770000000E+01 0. -1.
        -16    1    3    3    0    0  0.68327111137E+02  0.72118685081E+03  0.24325813286E+03  0.76416855935E+03  0.00000000000E+00 0.  1.
          2    1    6    6  502    0  0.36388406505E+02 -0.69327757108E+03  0.36059954114E+03  0.78229785616E+03  0.00000000000E+00 0. -1.
         -1    1    6    6    0  502 -0.23608464298E+02 -0.39980971521E+03  0.16342859999E+03  0.43256684484E+03  0.00000000000E+00 0.  1.
<mgrwt>
<rscale>  0 0.13333225E+04</rscale>
<asrwt>0</asrwt>
<pdfrwt beam="1">  1        1 0.34840451E+00 0.13333225E+04</pdfrwt>
<pdfrwt beam="2">  1       -2 0.12914132E+00 0.13333225E+04</pdfrwt>
<totfact> 0.73668841E-01</totfact>
</mgrwt>
</event>
<event>
12    3  0.1092576E-007  0.7001586E+03  0.7818608E-02  0.9716961E-01
         -2   -1    0    0    0  501 -0.00000000000E+00  0.00000000000E+00  0.99650102599E+03  0.99650102599E+03  0.00000000000E+00 0.  1.
          1   -1    0    0  501    0  0.00000000000E+00 -0.00000000000E+00 -0.62395369262E+03  0.62395369262E+03  0.00000000000E+00 0. -1.
        -24    2    1    2    0    0 -0.65451767352E+03 -0.10971676486E+03  0.26695977576E+03  0.71954858183E+03  0.77791299567E+02 0.  0.
    5000000    2    1    2    0    0  0.65451767352E+03  0.10971676486E+03  0.10558755761E+03  0.90090613679E+03  0.60004331638E+03 0.  0.
        -24    2    4    4    0    0  0.61016297736E+03  0.23659075905E+02 -0.13369888485E+03  0.63025766194E+03  0.80564991277E+02 0.  0.
         24    2    4    4    0    0  0.44354696168E+02  0.86057688950E+02  0.23928644246E+03  0.27064847485E+03  0.81359268023E+02 0.  0.
         13    1    5    5    0    0  0.46235128497E+03 -0.14848379076E+02 -0.88646319444E+02  0.47100674627E+03  0.00000000000E+00 0. -1.
        -14    1    5    5    0    0  0.14781169238E+03  0.38507454982E+02 -0.45052565406E+02  0.15925091568E+03  0.00000000000E+00 0.  1.
         15    1    3    3    0    0 -0.23605631334E+03 -0.60999723614E+02  0.64878770135E+02  0.25230133153E+03  0.17770000000E+01 0. -1.
        -16    1    3    3    0    0 -0.41846136018E+03 -0.48717041241E+02  0.20208100563E+03  0.46724725029E+03  0.00000000000E+00 0.  1.
          4    1    6    6  502    0  0.61810845856E+02  0.48868494940E+02  0.19460002970E+03  0.20994733155E+03  0.00000000000E+00 0. -1.
         -3    1    6    6    0  502 -0.17456149688E+02  0.37189194011E+02  0.44686412755E+02  0.60701143301E+02  0.00000000000E+00 0.  1.
<mgrwt>
<rscale>  0 0.70015858E+03</rscale>
<asrwt>0</asrwt>
<pdfrwt beam="1">  1        1 0.95992876E-01 0.70015858E+03</pdfrwt>
<pdfrwt beam="2">  1       -2 0.15330785E+00 0.70015858E+03</pdfrwt>
<totfact> 0.82245345E+00</totfact>
</mgrwt>
</event>
<event>
12    3  0.1092576E-007  0.5635227E+03  0.7818608E-02  0.9984115E-01
         -4   -1    0    0    0  501 -0.00000000000E+00  0.00000000000E+00  0.82329800721E+03  0.82329800721E+03  0.00000000000E+00 0.  1.
          3   -1    0    0  501    0  0.00000000000E+00 -0.00000000000E+00 -0.48070902774E+03  0.48070902774E+03  0.00000000000E+00 0. -1.
        -24    2    1    2    0    0 -0.39372284982E+03  0.15899415574E+03  0.36923343523E+03  0.56845621161E+03  0.80698889709E+02 0.  0.
    5000000    2    1    2    0    0  0.39372284982E+03 -0.15899415574E+03 -0.26644455759E+02  0.73555082334E+03  0.60002355177E+03 0.  0.
        -24    2    4    4    0    0 -0.10033466445E+03  0.97020783676E+02 -0.61587675772E+02  0.17237711177E+03  0.80254280252E+02 0.  0.
         24    2    4    4    0    0  0.49405751427E+03 -0.25601493941E+03  0.34943220013E+02  0.56317371158E+03  0.79417404752E+02 0.  0.
         13    1    5    5    0    0 -0.77792375757E+02  0.54241709935E+02 -0.97677767985E+00  0.94840766115E+02  0.00000000000E+00 0. -1.
        -14    1    5    5    0    0 -0.22542288696E+02  0.42779073741E+02 -0.60610898093E+02  0.77536345654E+02  0.00000000000E+00 0.  1.
         15    1    3    3    0    0 -0.13269521183E+03  0.51674587205E+02  0.75817709705E+02  0.16133742604E+03  0.17770000000E+01 0. -1.
        -16    1    3    3    0    0 -0.26102763798E+03  0.10731956853E+03  0.29341572553E+03  0.40711878557E+03  0.00000000000E+00 0.  1.
          2    1    6    6  502    0  0.13897322892E+03 -0.10083539167E+03 -0.15467442575E+02  0.17239656711E+03  0.00000000000E+00 0. -1.
         -1    1    6    6    0  502  0.35508428534E+03 -0.15517954774E+03  0.50410662588E+02  0.39077714447E+03  0.00000000000E+00 0.  1.
<mgrwt>
<rscale>  0 0.56352270E+03</rscale>
<asrwt>0</asrwt>
<pdfrwt beam="1">  1        3 0.73955235E-01 0.56352270E+03</pdfrwt>
<pdfrwt beam="2">  1       -4 0.12666123E+00 0.56352270E+03</pdfrwt>
<totfact> 0.18106304E+00</totfact>
</mgrwt>
</event>
<event>
12    3  0.1092576E-007  0.6431572E+03  0.7818608E-02  0.9819705E-01
         -2   -1    0    0    0  501 -0.00000000000E+00  0.00000000000E+00  0.12536855173E+04  0.12536855173E+04  0.00000000000E+00 0.  1.
          1   -1    0    0  501    0  0.00000000000E+00 -0.00000000000E+00 -0.42541573210E+03  0.42541573210E+03  0.00000000000E+00 0. -1.
        -24    2    1    2    0    0 -0.40114129590E+03  0.44528603767E+03  0.43305156023E+03  0.74329860039E+03  0.75928656691E+02 0.  0.
    5000000    2    1    2    0    0  0.40114129590E+03 -0.44528603767E+03  0.39521822496E+03  0.93580264900E+03  0.60027923328E+03 0.  0.
        -24    2    4    4    0    0  0.31700645891E+03 -0.11793079252E+03  0.46594872070E+03  0.58138379912E+03  0.80611070881E+02 0.  0.
         24    2    4    4    0    0  0.84134836986E+02 -0.32735524515E+03 -0.70730495739E+02  0.35441884987E+03  0.79810969141E+02 0.  0.
         11    1    5    5    0    0  0.37916797298E+02  0.24934861746E+01  0.23818706100E+02  0.44846758533E+02  0.00000000000E+00 0. -1.
        -12    1    5    5    0    0  0.27908966162E+03 -0.12042427869E+03  0.44213001460E+03  0.53653704059E+03  0.00000000000E+00 0.  1.
         15    1    3    3    0    0 -0.22604904885E+03  0.26124312626E+03  0.29441127921E+03  0.45390230508E+03  0.17770000000E+01 0. -1.
        -16    1    3    3    0    0 -0.17509224705E+03  0.18404291142E+03  0.13864028102E+03  0.28939629531E+03  0.00000000000E+00 0.  1.
          2    1    6    6  502    0  0.15202094534E+02 -0.19532779071E+03 -0.60855990010E+02  0.20515238488E+03  0.00000000000E+00 0. -1.
         -1    1    6    6    0  502  0.68932742452E+02 -0.13202745444E+03 -0.98745057296E+01  0.14926646500E+03  0.00000000000E+00 0.  1.
<mgrwt>
<rscale>  0 0.64315718E+03</rscale>
<asrwt>0</asrwt>
<pdfrwt beam="1">  1        1 0.65448575E-01 0.64315718E+03</pdfrwt>
<pdfrwt beam="2">  1       -2 0.19287469E+00 0.64315718E+03</pdfrwt>
<totfact> 0.74229861E+00</totfact>
</mgrwt>
</event>
<event>
12    3  0.1092576E-007  0.8276201E+03  0.7818608E-02  0.9520877E-01
          1   -1    0    0  501    0  0.00000000000E+00  0.00000000000E+00  0.25430541351E+04  0.25430541351E+04  0.00000000000E+00 0. -1.
         -2   -1    0    0    0  501 -0.00000000000E+00 -0.00000000000E+00 -0.44607392585E+03  0.44607392585E+03  0.00000000000E+00 0.  1.
        -24    2    1    2    0    0  0.19180498496E+03 -0.75948944951E+03  0.17909331101E+04  0.19562940206E+04  0.77662822325E+02 0.  0.
    5000000    2    1    2    0    0 -0.19180498496E+03  0.75948944951E+03  0.30604709921E+03  0.10328340404E+04  0.59955646267E+03 0.  0.
        -24    2    4    4    0    0 -0.28267568187E+03  0.36099318871E+03 -0.71818521893E+02  0.47045870105E+03  0.77148336940E+02 0.  0.
         24    2    4    4    0    0  0.90870696908E+02  0.39849626080E+03  0.37786562110E+03  0.56237533937E+03  0.80167582536E+02 0.  0.
         11    1    5    5    0    0 -0.25565677839E+03  0.30705296411E+03 -0.38146240554E+02  0.40136896588E+03  0.00000000000E+00 0. -1.
        -12    1    5    5    0    0 -0.27018903480E+02  0.53940224603E+02 -0.33672281338E+02  0.69089735171E+02  0.00000000000E+00 0.  1.
         15    1    3    3    0    0  0.88129415473E+01 -0.13127843611E+03  0.26026905159E+03  0.29164161684E+03  0.17770000000E+01 0. -1.
        -16    1    3    3    0    0  0.18299204341E+03 -0.62821101340E+03  0.15306640585E+04  0.16646524037E+04  0.00000000000E+00 0.  1.
          4    1    6    6  502    0  0.85728699845E+02  0.39146463409E+03  0.38116064720E+03  0.55306184888E+03  0.00000000000E+00 0. -1.
         -3    1    6    6    0  502  0.51419970634E+01  0.70316267118E+01 -0.32950260956E+01  0.93134904835E+01  0.00000000000E+00 0.  1.
<mgrwt>
<rscale>  0 0.82762010E+03</rscale>
<asrwt>0</asrwt>
<pdfrwt beam="1">  1        1 0.39123909E+00 0.82762010E+03</pdfrwt>
<pdfrwt beam="2">  1       -2 0.68626759E-01 0.82762010E+03</pdfrwt>
<totfact> 0.22483820E+00</totfact>
</mgrwt>
</event>
<event>
12    3  0.1092576E-007  0.9218740E+03  0.7818608E-02  0.9398643E-01
          1   -1    0    0  501    0  0.00000000000E+00  0.00000000000E+00  0.22842725221E+04  0.22842725221E+04  0.00000000000E+00 0. -1.
         -2   -1    0    0    0  501 -0.00000000000E+00 -0.00000000000E+00 -0.42938460233E+03  0.42938460233E+03  0.00000000000E+00 0.  1.
        -24    2    1    2    0    0  0.57098937987E+03  0.69208191562E+03  0.81117043541E+03  0.12122053146E+04  0.80237145800E+02 0.  0.
    5000000    2    1    2    0    0 -0.57098937987E+03 -0.69208191562E+03  0.10437174843E+04  0.15014518098E+04  0.60000425018E+03 0.  0.
        -24    2    4    4    0    0 -0.12014332813E+03 -0.42396780480E+02  0.53913706709E+03  0.56000678052E+03  0.81895731459E+02 0.  0.
         24    2    4    4    0    0 -0.45084605173E+03 -0.64968513514E+03  0.50458041723E+03  0.94144502928E+03  0.79777243072E+02 0.  0.
         13    1    5    5    0    0 -0.81324247447E+02 -0.67094658429E+02  0.37150572426E+03  0.38617590496E+03  0.00000000000E+00 0. -1.
        -14    1    5    5    0    0 -0.38819080687E+02  0.24697877949E+02  0.16763134283E+03  0.17383087557E+03  0.00000000000E+00 0.  1.
         15    1    3    3    0    0  0.26943283305E+02  0.60156517296E+02  0.75197835628E+02  0.10001309565E+03  0.17770000000E+01 0. -1.
        -16    1    3    3    0    0  0.54404609656E+03  0.63192539833E+03  0.73597259978E+03  0.11121922189E+04  0.00000000000E+00 0.  1.
          2    1    6    6  502    0 -0.19284926491E+03 -0.32363588896E+03  0.27561500343E+03  0.46679187837E+03  0.00000000000E+00 0. -1.
         -1    1    6    6    0  502 -0.25799678683E+03 -0.32604924618E+03  0.22896541380E+03  0.47465315090E+03  0.00000000000E+00 0.  1.
<mgrwt>
<rscale>  0 0.92187402E+03</rscale>
<asrwt>0</asrwt>
<pdfrwt beam="1">  1        1 0.35142654E+00 0.92187402E+03</pdfrwt>
<pdfrwt beam="2">  1       -2 0.66059171E-01 0.92187402E+03</pdfrwt>
<totfact> 0.36129377E+00</totfact>
</mgrwt>
</event>
<event>
12    3  0.1092576E-007  0.8530381E+03  0.7818608E-02  0.9486268E-01
         -2   -1    0    0    0  501 -0.00000000000E+00  0.00000000000E+00  0.78705732206E+03  0.78705732206E+03  0.00000000000E+00 0.  1.
          1   -1    0    0  501    0  0.00000000000E+00 -0.00000000000E+00 -0.11791411962E+04  0.11791411962E+04  0.00000000000E+00 0. -1.
        -24    2    1    2    0    0 -0.84142256078E+03 -0.82892366579E+02  0.20998985966E+02  0.85011946678E+03  0.86017906016E+02 0.  0.
    5000000    2    1    2    0    0  0.84142256078E+03  0.82892366579E+02 -0.41308286007E+03  0.11160790514E+04  0.60010993122E+03 0.  0.
        -24    2    4    4    0    0  0.22524746737E+03  0.28393351744E+02 -0.42929497534E+03  0.49213581026E+03  0.79755099603E+02 0.  0.
         24    2    4    4    0    0  0.61617509341E+03  0.54499014835E+02  0.16212115264E+02  0.62394324118E+03  0.80002794810E+02 0.  0.
         13    1    5    5    0    0  0.68288034803E+02 -0.25168031606E+02 -0.10307818613E+03  0.12618160709E+03  0.00000000000E+00 0. -1.
        -14    1    5    5    0    0  0.15695943257E+03  0.53561383350E+02 -0.32621678921E+03  0.36595420317E+03  0.00000000000E+00 0.  1.
         15    1    3    3    0    0 -0.64629389700E+03 -0.49350962632E+02  0.49604928157E+02  0.65007316930E+03  0.17770000000E+01 0. -1.
        -16    1    3    3    0    0 -0.19512866378E+03 -0.33541403947E+02 -0.28605942191E+02  0.20004629748E+03  0.00000000000E+00 0.  1.
          2    1    6    6  502    0  0.41321156250E+03  0.91390330543E+01 -0.15317168776E+02  0.41359634061E+03  0.00000000000E+00 0. -1.
         -1    1    6    6    0  502  0.20296353090E+03  0.45359981781E+02  0.31529284040E+02  0.21034690056E+03  0.00000000000E+00 0.  1.
<mgrwt>
<rscale>  0 0.85303814E+03</rscale>
<asrwt>0</asrwt>
<pdfrwt beam="1">  1        1 0.18140634E+00 0.85303814E+03</pdfrwt>
<pdfrwt beam="2">  1       -2 0.12108574E+00 0.85303814E+03</pdfrwt>
<totfact> 0.51106418E+00</totfact>
</mgrwt>
</event>
<event>
12    3  0.1092576E-007  0.7661649E+03  0.7818608E-02  0.9610326E-01
          1   -1    0    0  501    0  0.00000000000E+00  0.00000000000E+00  0.13016996441E+04  0.13016996441E+04  0.00000000000E+00 0. -1.
         -2   -1    0    0    0  501 -0.00000000000E+00 -0.00000000000E+00 -0.80945671211E+03  0.80945671211E+03  0.00000000000E+00 0.  1.
        -24    2    1    2    0    0  0.55614819683E+03 -0.34799672291E+03 -0.46235708415E+03  0.80671805663E+03  0.81347486922E+02 0.  0.
    5000000    2    1    2    0    0 -0.55614819683E+03  0.34799672291E+03  0.95460001618E+03  0.13044382996E+04  0.59991295255E+03 0.  0.
        -24    2    4    4    0    0  0.45759244458E+02  0.25755589491E+03  0.32330948156E+03  0.42373423424E+03  0.81195646051E+02 0.  0.
         24    2    4    4    0    0 -0.60190744129E+03  0.90440827997E+02  0.63129053462E+03  0.88070406539E+03  0.81484970670E+02 0.  0.
         13    1    5    5    0    0  0.49806172309E+02  0.18600878205E+03  0.18039876721E+03  0.26386291330E+03  0.00000000000E+00 0. -1.
        -14    1    5    5    0    0 -0.40469278504E+01  0.71547112861E+02  0.14291071435E+03  0.15987132094E+03  0.00000000000E+00 0.  1.
         15    1    3    3    0    0  0.34708103687E+03 -0.20699168304E+03 -0.23680831907E+03  0.46839314759E+03  0.17770000000E+01 0. -1.
        -16    1    3    3    0    0  0.20906715997E+03 -0.14100503987E+03 -0.22554876509E+03  0.33832490904E+03  0.00000000000E+00 0.  1.
          4    1    6    6  502    0 -0.32871481054E+03  0.80551583222E+02  0.38668273874E+03  0.51387306279E+03  0.00000000000E+00 0. -1.
         -3    1    6    6    0  502 -0.27319263076E+03  0.98892447748E+01  0.24460779588E+03  0.36683100260E+03  0.00000000000E+00 0.  1.
<mgrwt>
<rscale>  0 0.76616490E+03</rscale>
<asrwt>0</asrwt>
<pdfrwt beam="1">  1        1 0.20026148E+00 0.76616490E+03</pdfrwt>
<pdfrwt beam="2">  1       -2 0.12453180E+00 0.76616490E+03</pdfrwt>
<totfact> 0.39349010E+00</totfact>
</mgrwt>
</event>
<event>
12    3  0.1092576E-007  0.7968054E+03  0.7818608E-02  0.9564653E-01
         -2   -1    0    0    0  501 -0.00000000000E+00  0.00000000000E+00  0.37921092520E+03  0.37921092520E+03  0.00000000000E+00 0.  1.
          1   -1    0    0  501    0  0.00000000000E+00 -0.00000000000E+00 -0.18150227693E+04  0.18150227693E+04  0.00000000000E+00 0. -1.
        -24    2    1    2    0    0  0.17643818137E+03 -0.67988357379E+03 -0.82654809790E+03  0.10876492319E+04  0.80168496456E+02 0.  0.
    5000000    2    1    2    0    0 -0.17643818137E+03  0.67988357379E+03 -0.60926374620E+03  0.11065844626E+04  0.59996229432E+03 0.  0.
        -24    2    4    4    0    0 -0.36631901053E+03  0.36159324365E+03 -0.47282281664E+03  0.70346651061E+03  0.79777341865E+02 0.  0.
         24    2    4    4    0    0  0.18988082917E+03  0.31829033013E+03 -0.13644092956E+03  0.40311795196E+03  0.80774330043E+02 0.  0.
         13    1    5    5    0    0 -0.18015207712E+03  0.17761556914E+03 -0.28635105891E+03  0.38209814214E+03  0.00000000000E+00 0. -1.
        -14    1    5    5    0    0 -0.18616693342E+03  0.18397767451E+03 -0.18647175773E+03  0.32136836846E+03  0.00000000000E+00 0.  1.
         15    1    3    3    0    0  0.10765839432E+03 -0.44355868418E+03 -0.59324989619E+03  0.74852069660E+03  0.17770000000E+01 0. -1.
        -16    1    3    3    0    0  0.68779787044E+02 -0.23632488961E+03 -0.23329820171E+03  0.33912853533E+03  0.00000000000E+00 0.  1.
          2    1    6    6  502    0  0.31747559236E+02  0.11187077231E+03 -0.19129781548E+02  0.11785128661E+03  0.00000000000E+00 0. -1.
         -1    1    6    6    0  502  0.15813326993E+03  0.20641955783E+03 -0.11731114801E+03  0.28526666535E+03  0.00000000000E+00 0.  1.
<mgrwt>
<rscale>  0 0.79680538E+03</rscale>
<asrwt>0</asrwt>
<pdfrwt beam="1">  1        1 0.27923427E+00 0.79680538E+03</pdfrwt>
<pdfrwt beam="2">  1       -2 0.58340143E-01 0.79680538E+03</pdfrwt>
<totfact> 0.99003373E+00</totfact>
</mgrwt>
</event>
<event>
12    3  0.1092576E-007  0.6307856E+03  0.7818608E-02  0.9843517E-01
         -2   -1    0    0    0  501 -0.00000000000E+00  0.00000000000E+00  0.96401221361E+03  0.96401221361E+03  0.00000000000E+00 0.  1.
          1   -1    0    0  501    0  0.00000000000E+00 -0.00000000000E+00 -0.45997251221E+03  0.45997251221E+03  0.00000000000E+00 0. -1.
        -24    2    1    2    0    0 -0.50278919714E+03  0.10321357875E+02  0.32941286934E+02  0.51021107699E+03  0.79540602910E+02 0.  0.
    5000000    2    1    2    0    0  0.50278919714E+03 -0.10321357875E+02  0.47109841447E+03  0.91377364884E+03  0.60012086950E+03 0.  0.
        -24    2    4    4    0    0  0.29170619299E+03  0.26889347346E+03  0.35079192539E+03  0.53541486460E+03  0.78853656911E+02 0.  0.
         24    2    4    4    0    0  0.21108300415E+03 -0.27921483134E+03  0.12030648908E+03  0.37835878424E+03  0.78515995941E+02 0.  0.
         11    1    5    5    0    0  0.28725016045E+03  0.24475448993E+03  0.31270919904E+03  0.49010657840E+03  0.00000000000E+00 0. -1.
        -12    1    5    5    0    0  0.44560325375E+01  0.24138983533E+02  0.38082726351E+02  0.45308286199E+02  0.00000000000E+00 0.  1.
         15    1    3    3    0    0 -0.27103022832E+03  0.62341095836E+01 -0.21983601790E+02  0.27199758319E+03  0.17770000000E+01 0. -1.
        -16    1    3    3    0    0 -0.23175896882E+03  0.40872482917E+01  0.54924888724E+02  0.23821349380E+03  0.00000000000E+00 0.  1.
          2    1    6    6  502    0  0.17308425004E+02 -0.67719064388E+02  0.39795035638E+02  0.80430703833E+02  0.00000000000E+00 0. -1.
         -1    1    6    6    0  502  0.19377457914E+03 -0.21149576695E+03  0.80511453438E+02  0.29792808041E+03  0.00000000000E+00 0.  1.
<mgrwt>
<rscale>  0 0.63078558E+03</rscale>
<asrwt>0</asrwt>
<pdfrwt beam="1">  1        1 0.70765002E-01 0.63078558E+03</pdfrwt>
<pdfrwt beam="2">  1       -2 0.14830957E+00 0.63078558E+03</pdfrwt>
<totfact> 0.13843594E+01</totfact>
</mgrwt>
</event>
<event>
12    3  0.1092576E-007  0.3779368E+03  0.7818608E-02  0.1051699E+00
          1   -1    0    0  501    0  0.00000000000E+00  0.00000000000E+00  0.48804823378E+03  0.48804823378E+03  0.00000000000E+00 0. -1.
         -2   -1    0    0    0  501 -0.00000000000E+00 -0.00000000000E+00 -0.46786918555E+03  0.46786918555E+03  0.00000000000E+00 0.  1.
        -24    2    1    2    0    0  0.45326140110E+02  0.13296316646E+03 -0.23822856679E+03  0.28774001313E+03  0.79421675326E+02 0.  0.
    5000000    2    1    2    0    0 -0.45326140110E+02 -0.13296316646E+03  0.25840761502E+03  0.66817740620E+03  0.59996073875E+03 0.  0.
        -24    2    4    4    0    0  0.23212010288E+03  0.76751225007E+02  0.14498606117E+03  0.29393211361E+03  0.74864122102E+02 0.  0.
         24    2    4    4    0    0 -0.27744624299E+03 -0.20971439147E+03  0.11342155385E+03  0.37424529258E+03  0.78984469379E+02 0.  0.
         13    1    5    5    0    0  0.13234568938E+03  0.27230985187E+02  0.40121132972E+02  0.14094897433E+03  0.00000000000E+00 0. -1.
        -14    1    5    5    0    0  0.99774413500E+02  0.49520239821E+02  0.10486492819E+03  0.15298313929E+03  0.00000000000E+00 0.  1.
         15    1    3    3    0    0  0.60332084453E+02  0.55491982134E+02 -0.11038879662E+03  0.13750696216E+03  0.17770000000E+01 0. -1.
        -16    1    3    3    0    0 -0.15005944343E+02  0.77471184328E+02 -0.12783977017E+03  0.15023305097E+03  0.00000000000E+00 0.  1.
          2    1    6    6  502    0 -0.19400654092E+03 -0.15887278718E+03  0.44501831087E+02  0.25467530975E+03  0.00000000000E+00 0. -1.
         -1    1    6    6    0  502 -0.83439702070E+02 -0.50841604285E+02  0.68919722766E+02  0.11956998283E+03  0.00000000000E+00 0.  1.
<mgrwt>
<rscale>  0 0.37793679E+03</rscale>
<asrwt>0</asrwt>
<pdfrwt beam="1">  1        1 0.75084343E-01 0.37793679E+03</pdfrwt>
<pdfrwt beam="2">  1       -2 0.71979875E-01 0.37793679E+03</pdfrwt>
<totfact> 0.73462418E+01</totfact>
</mgrwt>
</event>
<event>
12    3  0.1092576E-007  0.1204102E+04  0.7818608E-02  0.9109274E-01
         -2   -1    0    0    0  501 -0.00000000000E+00  0.00000000000E+00  0.72658874418E+03  0.72658874418E+03  0.00000000000E+00 0.  1.
          1   -1    0    0  501    0  0.00000000000E+00 -0.00000000000E+00 -0.35171574799E+04  0.35171574799E+04  0.00000000000E+00 0. -1.
        -24    2    1    2    0    0  0.92899892560E+03 -0.75103971769E+03 -0.54401786031E+02  0.11984969895E+04  0.79597852795E+02 0.  0.
    5000000    2    1    2    0    0 -0.92899892560E+03  0.75103971769E+03 -0.27361669497E+04  0.30452492346E+04  0.59986136975E+03 0.  0.
        -24    2    4    4    0    0 -0.45364742838E+03  0.49171364619E+03 -0.21038346514E+04  0.22090159982E+04  0.77801932198E+02 0.  0.
         24    2    4    4    0    0 -0.47535149722E+03  0.25932607151E+03 -0.63233229832E+03  0.83623323645E+03  0.78948293001E+02 0.  0.
         11    1    5    5    0    0 -0.35641795341E+03  0.37964516849E+03 -0.17349348475E+04  0.18113981165E+04  0.00000000000E+00 0. -1.
        -12    1    5    5    0    0 -0.97229474967E+02  0.11206847769E+03 -0.36889980393E+03  0.39761788168E+03  0.00000000000E+00 0.  1.
         15    1    3    3    0    0  0.79369984974E+03 -0.67357251318E+03 -0.37360153865E+02  0.10416613273E+04  0.17770000000E+01 0. -1.
        -16    1    3    3    0    0  0.13529907586E+03 -0.77467204514E+02 -0.17041632166E+02  0.15683566218E+03  0.00000000000E+00 0.  1.
          4    1    6    6  502    0 -0.28204827687E+03  0.16936403854E+03 -0.32728022623E+03  0.46405576660E+03  0.00000000000E+00 0. -1.
         -1    1    6    6    0  502 -0.19330322035E+03  0.89962032967E+02 -0.30505207209E+03  0.37217746985E+03  0.00000000000E+00 0.  1.
<mgrwt>
<rscale>  0 0.12041017E+04</rscale>
<asrwt>0</asrwt>
<pdfrwt beam="1">  1        1 0.54110116E+00 0.12041017E+04</pdfrwt>
<pdfrwt beam="2">  1       -2 0.11178288E+00 0.12041017E+04</pdfrwt>
<totfact> 0.13414980E-01</totfact>
</mgrwt>
</event>
<event>
12    3  0.1092576E-007  0.8696474E+03  0.7818608E-02  0.9464340E-01
         -2   -1    0    0    0  501 -0.00000000000E+00  0.00000000000E+00  0.13592305042E+04  0.13592305042E+04  0.00000000000E+00 0.  1.
          1   -1    0    0  501    0  0.00000000000E+00 -0.00000000000E+00 -0.13870236961E+04  0.13870236961E+04  0.00000000000E+00 0. -1.
        -24    2    1    2    0    0 -0.18134965068E+03 -0.77422832706E+03 -0.10495454783E+04  0.13192628765E+04  0.81188841998E+02 0.  0.
    5000000    2    1    2    0    0  0.18134965068E+03  0.77422832706E+03  0.10217522864E+04  0.14269913238E+04  0.60000775428E+03 0.  0.
        -24    2    4    4    0    0 -0.93628828272E+02 -0.12957139516E+02  0.21603137640E+02  0.12226095383E+03  0.74476844232E+02 0.  0.
         24    2    4    4    0    0  0.27497847895E+03  0.78718546658E+03  0.10001491488E+04  0.13047303700E+04  0.82151663817E+02 0.  0.
         13    1    5    5    0    0 -0.86303272393E+02  0.69574808324E+01  0.38866150847E+02  0.94906475263E+02  0.00000000000E+00 0. -1.
        -14    1    5    5    0    0 -0.73255558792E+01 -0.19914620348E+02 -0.17263013206E+02  0.27354478564E+02  0.00000000000E+00 0.  1.
         15    1    3    3    0    0 -0.54103723935E+02 -0.36233758791E+03 -0.52720368228E+03  0.64199892593E+03  0.17770000000E+01 0. -1.
        -16    1    3    3    0    0 -0.12724592675E+03 -0.41189073915E+03 -0.52234179599E+03  0.67726395054E+03  0.00000000000E+00 0.  1.
          4    1    6    6  502    0  0.84382240769E+02  0.26802398284E+03  0.27949708511E+03  0.39632794315E+03  0.00000000000E+00 0. -1.
         -1    1    6    6    0  502  0.19059623818E+03  0.51916148374E+03  0.72065206367E+03  0.90840242683E+03  0.00000000000E+00 0.  1.
<mgrwt>
<rscale>  0 0.86964744E+03</rscale>
<asrwt>0</asrwt>
<pdfrwt beam="1">  1        1 0.21338826E+00 0.86964744E+03</pdfrwt>
<pdfrwt beam="2">  1       -2 0.20911238E+00 0.86964744E+03</pdfrwt>
<totfact> 0.81344228E-01</totfact>
</mgrwt>
</event>
<event>
12    3  0.1092576E-007  0.4628777E+03  0.7818608E-02  0.1023950E+00
         -2   -1    0    0    0  501 -0.00000000000E+00  0.00000000000E+00  0.61155821981E+03  0.61155821981E+03  0.00000000000E+00 0.  1.
          1   -1    0    0  501    0  0.00000000000E+00 -0.00000000000E+00 -0.45064793971E+03  0.45064793971E+03  0.00000000000E+00 0. -1.
        -24    2    1    2    0    0  0.33162787768E+03 -0.98930767990E+02  0.86401539866E+02  0.36555311165E+03  0.79996907645E+02 0.  0.
    5000000    2    1    2    0    0 -0.33162787768E+03  0.98930767990E+02  0.74508740236E+02  0.69665304788E+03  0.60000797547E+03 0.  0.
        -24    2    4    4    0    0 -0.38843758944E+03 -0.55797262599E+02  0.22444627293E+03  0.45946927435E+03  0.82090128763E+02 0.  0.
         24    2    4    4    0    0  0.56809711757E+02  0.15472803059E+03 -0.14993753269E+03  0.23718377352E+03  0.81282051610E+02 0.  0.
         11    1    5    5    0    0 -0.28876885421E+03 -0.40783995983E+02  0.20587176194E+03  0.35697894596E+03  0.00000000000E+00 0. -1.
        -12    1    5    5    0    0 -0.99668735228E+02 -0.15013266616E+02  0.18574510984E+02  0.10249032840E+03  0.00000000000E+00 0.  1.
         15    1    3    3    0    0  0.14992089815E+03 -0.55116173871E+01  0.24140761793E+02  0.15196245502E+03  0.17770000000E+01 0. -1.
        -16    1    3    3    0    0  0.18170697953E+03 -0.93419150603E+02  0.62260778073E+02  0.21359065662E+03  0.00000000000E+00 0.  1.
          4    1    6    6  502    0  0.73186185400E+02  0.13252955667E+03 -0.10425663700E+03  0.18381987782E+03  0.00000000000E+00 0. -1.
         -3    1    6    6    0  502 -0.16376473643E+02  0.22198473924E+02 -0.45680895695E+02  0.53363895707E+02  0.00000000000E+00 0.  1.
<mgrwt>
<rscale>  0 0.46287771E+03</rscale>
<asrwt>0</asrwt>
<pdfrwt beam="1">  1        1 0.69330452E-01 0.46287771E+03</pdfrwt>
<pdfrwt beam="2">  1       -2 0.94085880E-01 0.46287771E+03</pdfrwt>
<totfact> 0.44397947E+01</totfact>
</mgrwt>
</event>
<event>
12    3  0.1092576E-007  0.6364895E+03  0.7818608E-02  0.9832466E-01
          1   -1    0    0  501    0  0.00000000000E+00  0.00000000000E+00  0.15875741012E+04  0.15875741012E+04  0.00000000000E+00 0. -1.
         -2   -1    0    0    0  501 -0.00000000000E+00 -0.00000000000E+00 -0.33081283769E+03  0.33081283769E+03  0.00000000000E+00 0.  1.
        -24    2    1    2    0    0 -0.48030436710E+03 -0.16458767804E+03  0.93919222598E+03  0.10707147914E+04  0.81035413737E+02 0.  0.
    5000000    2    1    2    0    0  0.48030436710E+03  0.16458767804E+03  0.31756903757E+03  0.84767214756E+03  0.59993048539E+03 0.  0.
        -24    2    4    4    0    0  0.52787358189E+03 -0.54960869869E+02  0.27950108228E+03  0.60526391616E+03  0.80946510356E+02 0.  0.
         24    2    4    4    0    0 -0.47569214784E+02  0.21954854791E+03  0.38067955285E+02  0.24240823140E+03  0.82753769369E+02 0.  0.
         13    1    5    5    0    0  0.32398320917E+03 -0.41742583719E+02  0.21475889153E+03  0.39093342734E+03  0.00000000000E+00 0. -1.
        -14    1    5    5    0    0  0.20389037272E+03 -0.13218286149E+02  0.64742190755E+02  0.21433048883E+03  0.00000000000E+00 0.  1.
         15    1    3    3    0    0 -0.25488964357E+03 -0.91334473704E+02  0.41624680184E+03  0.49656346448E+03  0.17770000000E+01 0. -1.
        -16    1    3    3    0    0 -0.22541472353E+03 -0.73253204339E+02  0.52294542414E+03  0.57415132688E+03  0.00000000000E+00 0.  1.
          2    1    6    6  502    0 -0.64258265996E+02  0.16146106405E+03  0.57511511451E+01  0.17387315978E+03  0.00000000000E+00 0. -1.
         -1    1    6    6    0  502  0.16689051212E+02  0.58087483864E+02  0.32316804140E+02  0.68535071619E+02  0.00000000000E+00 0.  1.
<mgrwt>
<rscale>  0 0.63648952E+03</rscale>
<asrwt>0</asrwt>
<pdfrwt beam="1">  1        1 0.24424217E+00 0.63648952E+03</pdfrwt>
<pdfrwt beam="2">  1       -2 0.50894283E-01 0.63648952E+03</pdfrwt>
<totfact> 0.19104130E+01</totfact>
</mgrwt>
</event>
<event>
12    3  0.1092576E-007  0.1354443E+04  0.7818608E-02  0.8987471E-01
          1   -1    0    0  501    0  0.00000000000E+00  0.00000000000E+00  0.26795158222E+04  0.26795158222E+04  0.00000000000E+00 0. -1.
         -2   -1    0    0    0  501 -0.00000000000E+00 -0.00000000000E+00 -0.80022378810E+03  0.80022378810E+03  0.00000000000E+00 0.  1.
        -24    2    1    2    0    0 -0.92121046322E+02 -0.12891524168E+04  0.25641473370E+03  0.13200781825E+04  0.80359512456E+02 0.  0.
    5000000    2    1    2    0    0  0.92121046322E+02  0.12891524168E+04  0.16228773004E+04  0.21596614278E+04  0.60000542457E+03 0.  0.
        -24    2    4    4    0    0  0.33209548426E+03  0.75824011949E+03  0.10370347603E+04  0.13296102826E+04  0.84893581725E+02 0.  0.
         24    2    4    4    0    0 -0.23997443794E+03  0.53091229735E+03  0.58584254011E+03  0.83005114514E+03  0.79484736897E+02 0.  0.
         11    1    5    5    0    0  0.14679281829E+03  0.35929964804E+03  0.55233199338E+03  0.67506666300E+03  0.00000000000E+00 0. -1.
        -12    1    5    5    0    0  0.18530266597E+03  0.39894047146E+03  0.48470276688E+03  0.65454361963E+03  0.00000000000E+00 0.  1.
         15    1    3    3    0    0 -0.82882831588E+02 -0.61023727254E+03  0.13073404853E+03  0.62956623301E+03  0.17770000000E+01 0. -1.
        -16    1    3    3    0    0 -0.92382147338E+01 -0.67891514430E+03  0.12568068517E+03  0.69051194950E+03  0.00000000000E+00 0.  1.
          4    1    6    6  502    0 -0.11960949472E+03  0.18989087225E+03  0.25774995410E+03  0.34176016946E+03  0.00000000000E+00 0. -1.
         -3    1    6    6    0  502 -0.12036494322E+03  0.34102142510E+03  0.32809258602E+03  0.48829097568E+03  0.00000000000E+00 0.  1.
<mgrwt>
<rscale>  0 0.13544434E+04</rscale>
<asrwt>0</asrwt>
<pdfrwt beam="1">  1        1 0.41223320E+00 0.13544434E+04</pdfrwt>
<pdfrwt beam="2">  1       -2 0.12311135E+00 0.13544434E+04</pdfrwt>
<totfact> 0.42880382E-01</totfact>
</mgrwt>
</event>
<event>
12    3  0.1092576E-007  0.4367777E+03  0.7818608E-02  0.1031740E+00
         -2   -1    0    0    0  501 -0.00000000000E+00  0.00000000000E+00  0.11179563253E+03  0.11179563253E+03  0.00000000000E+00 0.  1.
          1   -1    0    0  501    0  0.00000000000E+00 -0.00000000000E+00 -0.17767234712E+04  0.17767234712E+04  0.00000000000E+00 0. -1.
        -24    2    1    2    0    0 -0.20847444868E+03 -0.99555467186E+02 -0.54007857863E+03  0.59288918488E+03  0.80373053069E+02 0.  0.
    5000000    2    1    2    0    0  0.20847444868E+03  0.99555467186E+02 -0.11248492601E+04  0.12956299189E+04  0.59999845167E+03 0.  0.
        -24    2    4    4    0    0 -0.19359771274E+03 -0.37513594854E+01 -0.26949978133E+03  0.34136963124E+03  0.80055892499E+02 0.  0.
         24    2    4    4    0    0  0.40207216142E+03  0.10330682667E+03 -0.85534947872E+03  0.95426028761E+03  0.81582120236E+02 0.  0.
         11    1    5    5    0    0 -0.22499727790E+02  0.24708147120E+02 -0.66024393164E+02  0.73999667415E+02  0.00000000000E+00 0. -1.
        -12    1    5    5    0    0 -0.17109798495E+03 -0.28459506605E+02 -0.20347538817E+03  0.26736996383E+03  0.00000000000E+00 0.  1.
         15    1    3    3    0    0 -0.16636766227E+03 -0.40632921812E+02 -0.40223447920E+03  0.43717841595E+03  0.17770000000E+01 0. -1.
        -16    1    3    3    0    0 -0.42106786402E+02 -0.58922545374E+02 -0.13784409943E+03  0.15571076893E+03  0.00000000000E+00 0.  1.
          4    1    6    6  502    0  0.27981724843E+03  0.10976331092E+03 -0.61567207864E+03  0.68512610909E+03  0.00000000000E+00 0. -1.
         -3    1    6    6    0  502  0.12225491299E+03 -0.64564842464E+01 -0.23967740008E+03  0.26913417852E+03  0.00000000000E+00 0.  1.
<mgrwt>
<rscale>  0 0.43677772E+03</rscale>
<asrwt>0</asrwt>
<pdfrwt beam="1">  1        1 0.27334204E+00 0.43677772E+03</pdfrwt>
<pdfrwt beam="2">  1       -2 0.17199330E-01 0.43677772E+03</pdfrwt>
<totfact> 0.10966951E+02</totfact>
</mgrwt>
</event>
<event>
12    3  0.1092576E-007  0.1283264E+04  0.7818608E-02  0.9042943E-01
         -2   -1    0    0    0  501 -0.00000000000E+00  0.00000000000E+00  0.12021104726E+04  0.12021104726E+04  0.00000000000E+00 0.  1.
          1   -1    0    0  501    0  0.00000000000E+00 -0.00000000000E+00 -0.15190367321E+04  0.15190367321E+04  0.00000000000E+00 0. -1.
        -24    2    1    2    0    0 -0.11587733686E+04  0.43792975482E+03  0.18717971596E+03  0.12553436292E+04  0.79455593386E+02 0.  0.
    5000000    2    1    2    0    0  0.11587733686E+04 -0.43792975482E+03 -0.50410597548E+03  0.14658035755E+04  0.59993257751E+03 0.  0.
        -24    2    4    4    0    0  0.69417024900E+03 -0.16397014649E+02 -0.77915855553E+02  0.70341415138E+03  0.81113446049E+02 0.  0.
         24    2    4    4    0    0  0.46460311964E+03 -0.42153274017E+03 -0.42619011993E+03  0.76238942417E+03  0.77805565021E+02 0.  0.
         13    1    5    5    0    0  0.47210403780E+02  0.18753740720E+02  0.27077325163E+00  0.50799589902E+02  0.00000000000E+00 0. -1.
        -14    1    5    5    0    0  0.64695984522E+03 -0.35150755369E+02 -0.78186628804E+02  0.65261456148E+03  0.00000000000E+00 0.  1.
         15    1    3    3    0    0 -0.11092557578E+04  0.40970187275E+03  0.16402687838E+03  0.11938224052E+04  0.17770000000E+01 0. -1.
        -16    1    3    3    0    0 -0.49517610884E+02  0.28227882070E+02  0.23152837577E+02  0.61521223994E+02  0.00000000000E+00 0.  1.
          2    1    6    6  502    0  0.79327428325E+02 -0.54883161161E+02 -0.97554898552E+02  0.13719315032E+03  0.00000000000E+00 0. -1.
         -1    1    6    6    0  502  0.38527569131E+03 -0.36664957901E+03 -0.32863522138E+03  0.62519627385E+03  0.00000000000E+00 0.  1.
<mgrwt>
<rscale>  0 0.12832643E+04</rscale>
<asrwt>0</asrwt>
<pdfrwt beam="1">  1        1 0.23369796E+00 0.12832643E+04</pdfrwt>
<pdfrwt beam="2">  1       -2 0.18494007E+00 0.12832643E+04</pdfrwt>
<totfact> 0.90096007E-01</totfact>
</mgrwt>
</event>
<event>
12    3  0.1092576E-007  0.7080539E+03  0.7818608E-02  0.9703557E-01
          1   -1    0    0  501    0  0.00000000000E+00  0.00000000000E+00  0.14517661266E+04  0.14517661266E+04  0.00000000000E+00 0. -1.
         -2   -1    0    0    0  501 -0.00000000000E+00 -0.00000000000E+00 -0.54620354018E+03  0.54620354018E+03  0.00000000000E+00 0.  1.
        -24    2    1    2    0    0 -0.23074069848E+03  0.54726475434E+03  0.98293034618E+03  0.11502620634E+04  0.64890429598E+02 0.  0.
    5000000    2    1    2    0    0  0.23074069848E+03 -0.54726475434E+03 -0.77367759744E+02  0.84770760336E+03  0.59990201639E+03 0.  0.
        -24    2    4    4    0    0  0.20651882524E+03  0.56135194955E+02  0.26254665825E+02  0.22993307129E+03  0.79866917444E+02 0.  0.
         24    2    4    4    0    0  0.24221873237E+02 -0.60339994929E+03 -0.10362242557E+03  0.61777453207E+03  0.78927608894E+02 0.  0.
         13    1    5    5    0    0  0.10957375018E+02  0.47232844013E+01  0.25023627616E+02  0.27722832141E+02  0.00000000000E+00 0. -1.
        -14    1    5    5    0    0  0.19556145022E+03  0.51411910553E+02  0.12310382084E+01  0.20221023915E+03  0.00000000000E+00 0.  1.
         15    1    3    3    0    0 -0.39291851648E+02  0.10273980095E+03  0.13751231427E+03  0.17610255708E+03  0.17770000000E+01 0. -1.
        -16    1    3    3    0    0 -0.19144884683E+03  0.44452495339E+03  0.84541803191E+03  0.97415950636E+03  0.00000000000E+00 0.  1.
          4    1    6    6  502    0 -0.14309807590E+02 -0.29710867284E+02 -0.14101053794E+02  0.35865665282E+02  0.00000000000E+00 0. -1.
         -3    1    6    6    0  502  0.38531680828E+02 -0.57368908201E+03 -0.89521371775E+02  0.58190886679E+03  0.00000000000E+00 0.  1.
<mgrwt>
<rscale>  0 0.70805390E+03</rscale>
<asrwt>0</asrwt>
<pdfrwt beam="1">  1        1 0.22334863E+00 0.70805390E+03</pdfrwt>
<pdfrwt beam="2">  1       -2 0.84031314E-01 0.70805390E+03</pdfrwt>
<totfact> 0.79591955E+00</totfact>
</mgrwt>
</event>
<event>
12    3  0.1092576E-007  0.5988227E+03  0.7818608E-02  0.9907852E-01
          1   -1    0    0  501    0  0.00000000000E+00  0.00000000000E+00  0.20882833538E+04  0.20882833538E+04  0.00000000000E+00 0. -1.
         -2   -1    0    0    0  501 -0.00000000000E+00 -0.00000000000E+00 -0.20541891218E+03  0.20541891218E+03  0.00000000000E+00 0.  1.
        -24    2    1    2    0    0  0.44325310193E+03 -0.12321315392E+03  0.34597389157E+03  0.58084476106E+03  0.77639610569E+02 0.  0.
    5000000    2    1    2    0    0 -0.44325310193E+03  0.12321315392E+03  0.15368905500E+04  0.17128575049E+04  0.60016120808E+03 0.  0.
        -24    2    4    4    0    0  0.23822045097E+02  0.23935338342E+03  0.71919532468E+03  0.76258611597E+03  0.80238003707E+02 0.  0.
         24    2    4    4    0    0 -0.46707514703E+03 -0.11614022950E+03  0.81769522533E+03  0.95027138892E+03  0.52368742536E+02 0.  0.
         13    1    5    5    0    0 -0.19087877749E+02  0.17543901158E+03  0.49034816706E+03  0.52113771577E+03  0.00000000000E+00 0. -1.
        -14    1    5    5    0    0  0.42909922846E+02  0.63914371837E+02  0.22884715763E+03  0.24144840020E+03  0.00000000000E+00 0.  1.
         15    1    3    3    0    0  0.26293749610E+03 -0.47143179750E+02  0.23544785843E+03  0.35608630698E+03  0.17770000000E+01 0. -1.
        -16    1    3    3    0    0  0.18031560583E+03 -0.76069974170E+02  0.11052603314E+03  0.22475845407E+03  0.00000000000E+00 0.  1.
          2    1    6    6  502    0 -0.27669481352E+03 -0.72294928216E+02  0.53497911463E+03  0.60662115819E+03  0.00000000000E+00 0. -1.
         -1    1    6    6    0  502 -0.19038033351E+03 -0.43845301287E+02  0.28271611070E+03  0.34365023073E+03  0.00000000000E+00 0.  1.
<mgrwt>
<rscale>  0 0.59882268E+03</rscale>
<asrwt>0</asrwt>
<pdfrwt beam="1">  1        1 0.32127435E+00 0.59882268E+03</pdfrwt>
<pdfrwt beam="2">  1       -2 0.31602911E-01 0.59882268E+03</pdfrwt>
<totfact> 0.22516855E+01</totfact>
</mgrwt>
</event>
<event>
12    3  0.1092576E-007  0.1522587E+04  0.7818608E-02  0.8869570E-01
         -2   -1    0    0    0  501 -0.00000000000E+00  0.00000000000E+00  0.84960516232E+03  0.84960516232E+03  0.00000000000E+00 0.  1.
          1   -1    0    0  501    0  0.00000000000E+00 -0.00000000000E+00 -0.27496309321E+04  0.27496309321E+04  0.00000000000E+00 0. -1.
        -24    2    1    2    0    0 -0.10866365609E+03 -0.14628433062E+04 -0.83546235435E+03  0.16900739847E+04  0.81451823682E+02 0.  0.
    5000000    2    1    2    0    0  0.10866365609E+03  0.14628433062E+04 -0.10645634154E+04  0.19091621097E+04  0.59990529828E+03 0.  0.
        -24    2    4    4    0    0  0.31705382958E+03  0.53499631415E+03 -0.48356899290E+03  0.79176581800E+03  0.79435210458E+02 0.  0.
         24    2    4    4    0    0 -0.20839017348E+03  0.92784699207E+03 -0.58099442250E+03  0.11173962917E+04  0.81813498704E+02 0.  0.
         13    1    5    5    0    0  0.14086380930E+03  0.17784428870E+03 -0.14688261590E+03  0.27026969244E+03  0.00000000000E+00 0. -1.
        -14    1    5    5    0    0  0.17619002027E+03  0.35715202545E+03 -0.33668637700E+03  0.52149612557E+03  0.00000000000E+00 0.  1.
         15    1    3    3    0    0 -0.57861998828E+02 -0.11546272024E+04 -0.67858006012E+03  0.13405170806E+04  0.17770000000E+01 0. -1.
        -16    1    3    3    0    0 -0.50801657265E+02 -0.30821610377E+03 -0.15688229423E+03  0.34955690416E+03  0.00000000000E+00 0.  1.
          4    1    6    6  502    0 -0.78176453980E+02  0.27497710742E+03 -0.21495873752E+03  0.35767474946E+03  0.00000000000E+00 0. -1.
         -3    1    6    6    0  502 -0.13021371950E+03  0.65286988465E+03 -0.36603568498E+03  0.75972154221E+03  0.00000000000E+00 0.  1.
<mgrwt>
<rscale>  0 0.15225872E+04</rscale>
<asrwt>0</asrwt>
<pdfrwt beam="1">  1        1 0.42302014E+00 0.15225872E+04</pdfrwt>
<pdfrwt beam="2">  1       -2 0.13070849E+00 0.15225872E+04</pdfrwt>
<totfact> 0.32249519E-01</totfact>
</mgrwt>
</event>
<event>
12    3  0.1092576E-007  0.6927240E+03  0.7818608E-02  0.9729757E-01
          1   -1    0    0  501    0  0.00000000000E+00  0.00000000000E+00  0.37510980135E+03  0.37510980135E+03  0.00000000000E+00 0. -1.
         -2   -1    0    0    0  501 -0.00000000000E+00 -0.00000000000E+00 -0.14913022641E+04  0.14913022641E+04  0.00000000000E+00 0.  1.
        -24    2    1    2    0    0 -0.17096962667E+02 -0.58295966554E+03 -0.19140300413E+03  0.61923802394E+03  0.81770058781E+02 0.  0.
    5000000    2    1    2    0    0  0.17096962667E+02  0.58295966554E+03 -0.92478945859E+03  0.12471740415E+04  0.60006105460E+03 0.  0.
        -24    2    4    4    0    0  0.15335348471E+03  0.62517658276E+03 -0.60231718522E+03  0.88511180117E+03  0.79207689296E+02 0.  0.
         24    2    4    4    0    0 -0.13625652204E+03 -0.42216917218E+02 -0.32247227337E+03  0.36206224031E+03  0.82174149663E+02 0.  0.
         11    1    5    5    0    0  0.16035208681E+03  0.56205085032E+03 -0.53175203001E+03  0.79017350722E+03  0.00000000000E+00 0. -1.
        -12    1    5    5    0    0 -0.69986021017E+01  0.63125732443E+02 -0.70565155206E+02  0.94938293944E+02  0.00000000000E+00 0.  1.
         15    1    3    3    0    0  0.21460455863E+02 -0.38321713608E+03 -0.14706818579E+03  0.41103300786E+03  0.17770000000E+01 0. -1.
        -16    1    3    3    0    0 -0.38557418531E+02 -0.19974252947E+03 -0.44334818335E+02  0.20820501608E+03  0.00000000000E+00 0.  1.
          2    1    6    6  502    0 -0.72589368361E+02 -0.46810308782E+02 -0.10799279057E+03  0.13828544472E+03  0.00000000000E+00 0. -1.
         -1    1    6    6    0  502 -0.63667153681E+02  0.45933915639E+01 -0.21447948280E+03  0.22377679559E+03  0.00000000000E+00 0.  1.
<mgrwt>
<rscale>  0 0.69272401E+03</rscale>
<asrwt>0</asrwt>
<pdfrwt beam="1">  1        1 0.57709201E-01 0.69272401E+03</pdfrwt>
<pdfrwt beam="2">  1       -2 0.22943112E+00 0.69272401E+03</pdfrwt>
<totfact> 0.51034971E+00</totfact>
</mgrwt>
</event>
<event>
12    3  0.1092576E-007  0.1000396E+04  0.7818608E-02  0.9308110E-01
         -2   -1    0    0    0  501 -0.00000000000E+00  0.00000000000E+00  0.44315868640E+03  0.44315868640E+03  0.00000000000E+00 0.  1.
          1   -1    0    0  501    0  0.00000000000E+00 -0.00000000000E+00 -0.28369727792E+04  0.28369727792E+04  0.00000000000E+00 0. -1.
        -24    2    1    2    0    0  0.59773281064E+03 -0.79081193739E+03 -0.15698375459E+04  0.18581684403E+04  0.75709964122E+02 0.  0.
    5000000    2    1    2    0    0 -0.59773281064E+03  0.79081193739E+03 -0.82397654694E+03  0.14219630254E+04  0.60031113799E+03 0.  0.
        -24    2    4    4    0    0 -0.41356774671E+03  0.66111534344E+03 -0.28721891003E+03  0.83477209118E+03  0.78980779264E+02 0.  0.
         24    2    4    4    0    0 -0.18416506393E+03  0.12969659395E+03 -0.53675763691E+03  0.58719093419E+03  0.77113261867E+02 0.  0.
         11    1    5    5    0    0 -0.15159569237E+03  0.17456092028E+03 -0.86453242552E+02  0.24683381450E+03  0.00000000000E+00 0. -1.
        -12    1    5    5    0    0 -0.26197205434E+03  0.48655442316E+03 -0.20076566747E+03  0.58793827668E+03  0.00000000000E+00 0.  1.
         15    1    3    3    0    0  0.22821901976E+03 -0.29241226393E+03 -0.65608014797E+03  0.75367975385E+03  0.17770000000E+01 0. -1.
        -16    1    3    3    0    0  0.36951379088E+03 -0.49839967346E+03 -0.91375739794E+03  0.11044886864E+04  0.00000000000E+00 0.  1.
          4    1    6    6  502    0 -0.10505012281E+03  0.66081983356E+02 -0.38582081144E+03  0.40529008792E+03  0.00000000000E+00 0. -1.
         -3    1    6    6    0  502 -0.79114941122E+02  0.63614610593E+02 -0.15093682547E+03  0.18190084627E+03  0.00000000000E+00 0.  1.
<mgrwt>
<rscale>  0 0.10003963E+04</rscale>
<asrwt>0</asrwt>
<pdfrwt beam="1">  1        1 0.43645735E+00 0.10003963E+04</pdfrwt>
<pdfrwt beam="2">  1       -2 0.68178259E-01 0.10003963E+04</pdfrwt>
<totfact> 0.13850305E+00</totfact>
</mgrwt>
</event>
<event>
12    3  0.1092576E-007  0.8146208E+03  0.7818608E-02  0.9539092E-01
          1   -1    0    0  501    0  0.00000000000E+00  0.00000000000E+00  0.36659451666E+04  0.36659451666E+04  0.00000000000E+00 0. -1.
         -2   -1    0    0    0  501 -0.00000000000E+00 -0.00000000000E+00 -0.22041514655E+03  0.22041514655E+03  0.00000000000E+00 0.  1.
        -24    2    1    2    0    0  0.19274361602E+03 -0.74713152025E+03  0.19636916313E+04  0.21112272044E+04  0.76419079121E+02 0.  0.
    5000000    2    1    2    0    0 -0.19274361602E+03  0.74713152025E+03  0.14818383887E+04  0.17751331087E+04  0.59991410493E+03 0.  0.
        -24    2    4    4    0    0 -0.29902491146E+03  0.45671299930E+03  0.12896784310E+04  0.14027533217E+04  0.80273063484E+02 0.  0.
         24    2    4    4    0    0  0.10628129544E+03  0.29041852095E+03  0.19215995767E+03  0.37237978698E+03  0.78119302026E+02 0.  0.
         13    1    5    5    0    0 -0.17288208974E+03  0.30220158630E+03  0.89994313715E+03  0.96494127584E+03  0.00000000000E+00 0. -1.
        -14    1    5    5    0    0 -0.12614282172E+03  0.15451141301E+03  0.38973529384E+03  0.43781204584E+03  0.00000000000E+00 0.  1.
         15    1    3    3    0    0  0.81945383834E+02 -0.37525258539E+03  0.10732016621E+04  0.11398660070E+04  0.17770000000E+01 0. -1.
        -16    1    3    3    0    0  0.11079823219E+03 -0.37187893487E+03  0.89048996928E+03  0.97136119742E+03  0.00000000000E+00 0.  1.
          4    1    6    6  502    0  0.98111600051E+02  0.25719424772E+03  0.19604297002E+03  0.33794616912E+03  0.00000000000E+00 0. -1.
         -3    1    6    6    0  502  0.81696953893E+01  0.33224273233E+02 -0.38830123500E+01  0.34433617869E+02  0.00000000000E+00 0.  1.
<mgrwt>
<rscale>  0 0.81462077E+03</rscale>
<asrwt>0</asrwt>
<pdfrwt beam="1">  1        1 0.56399152E+00 0.81462077E+03</pdfrwt>
<pdfrwt beam="2">  1       -2 0.33910025E-01 0.81462077E+03</pdfrwt>
<totfact> 0.14141481E+00</totfact>
</mgrwt>
</event>
<event>
12    3  0.1092576E-007  0.1298957E+04  0.7818608E-02  0.9030393E-01
          1   -1    0    0  501    0  0.00000000000E+00  0.00000000000E+00  0.28438791872E+04  0.28438791872E+04  0.00000000000E+00 0. -1.
         -2   -1    0    0    0  501 -0.00000000000E+00 -0.00000000000E+00 -0.64552139436E+03  0.64552139436E+03  0.00000000000E+00 0.  1.
        -24    2    1    2    0    0 -0.11776487920E+04 -0.50158838716E+03  0.12124406591E+04  0.17658368367E+04  0.98589017523E+02 0.  0.
    5000000    2    1    2    0    0  0.11776487920E+04  0.50158838716E+03  0.98591713372E+03  0.17235637449E+04  0.60015981244E+03 0.  0.
        -24    2    4    4    0    0  0.75605559614E+03  0.46844706426E+03  0.35730767643E+03  0.96186498708E+03  0.80329081151E+02 0.  0.
         24    2    4    4    0    0  0.42159319591E+03  0.33141322891E+02  0.62860945729E+03  0.76169875777E+03  0.78714532767E+02 0.  0.
         11    1    5    5    0    0  0.56821080342E+03  0.38847963358E+03  0.28979155110E+03  0.74683270277E+03  0.00000000000E+00 0. -1.
        -12    1    5    5    0    0  0.18784479271E+03  0.79967430686E+02  0.67516125322E+02  0.21503228432E+03  0.00000000000E+00 0.  1.
         15    1    3    3    0    0 -0.96891088532E+03 -0.37849916514E+03  0.10133112537E+04  0.14521889603E+04  0.17770000000E+01 0. -1.
        -16    1    3    3    0    0 -0.20873790673E+03 -0.12308922201E+03  0.19912940536E+03  0.31364787638E+03  0.00000000000E+00 0.  1.
          4    1    6    6  502    0  0.35387334373E+03  0.27817494693E+02  0.57240007182E+03  0.67352950836E+03  0.00000000000E+00 0. -1.
         -3    1    6    6    0  502  0.67719852179E+02  0.53238281980E+01  0.56209385471E+02  0.88169249407E+02  0.00000000000E+00 0.  1.
<mgrwt>
<rscale>  0 0.12989567E+04</rscale>
<asrwt>0</asrwt>
<pdfrwt beam="1">  1        1 0.43751987E+00 0.12989567E+04</pdfrwt>
<pdfrwt beam="2">  1       -2 0.99310985E-01 0.12989567E+04</pdfrwt>
<totfact> 0.55890091E-01</totfact>
</mgrwt>
</event>
<event>
12    3  0.1092576E-007  0.3488064E+03  0.7818608E-02  0.1063106E+00
          1   -1    0    0  501    0  0.00000000000E+00  0.00000000000E+00  0.42034601099E+03  0.42034601099E+03  0.00000000000E+00 0. -1.
         -2   -1    0    0    0  501 -0.00000000000E+00 -0.00000000000E+00 -0.51568225373E+03  0.51568225373E+03  0.00000000000E+00 0.  1.
        -24    2    1    2    0    0  0.25105718532E+03 -0.66554575584E+02 -0.85404299727E+02  0.28164413748E+03  0.67604023070E+02 0.  0.
    5000000    2    1    2    0    0 -0.25105718532E+03  0.66554575584E+02 -0.99319430123E+01  0.65438412725E+03  0.60055034816E+03 0.  0.
        -24    2    4    4    0    0 -0.27289536138E+03  0.14299630693E+03  0.22735631871E+03  0.39107114563E+03  0.79535672689E+02 0.  0.
         24    2    4    4    0    0  0.21838176066E+02 -0.76441731348E+02 -0.23728826172E+03  0.26331298162E+03  0.81900933529E+02 0.  0.
         13    1    5    5    0    0 -0.41569934799E+02  0.58375490071E+02  0.57259796478E+02  0.91730265523E+02  0.00000000000E+00 0. -1.
        -14    1    5    5    0    0 -0.23132542658E+03  0.84620816860E+02  0.17009652223E+03  0.29934088011E+03  0.00000000000E+00 0.  1.
         15    1    3    3    0    0  0.90914025369E+02  0.28353424406E+01 -0.10006922070E+02  0.91524288546E+02  0.17770000000E+01 0. -1.
        -16    1    3    3    0    0  0.16014315995E+03 -0.69389918024E+02 -0.75397377657E+02  0.19011984893E+03  0.00000000000E+00 0.  1.
          2    1    6    6  502    0  0.45292820219E+02 -0.13973613696E+02 -0.10064050111E+03  0.11124392975E+03  0.00000000000E+00 0. -1.
         -1    1    6    6    0  502 -0.23454644154E+02 -0.62468117653E+02 -0.13664776061E+03  0.15206905186E+03  0.00000000000E+00 0.  1.
<mgrwt>
<rscale>  0 0.34880636E+03</rscale>
<asrwt>0</asrwt>
<pdfrwt beam="1">  1        1 0.64668617E-01 0.34880636E+03</pdfrwt>
<pdfrwt beam="2">  1       -2 0.79335731E-01 0.34880636E+03</pdfrwt>
<totfact> 0.72532672E+01</totfact>
</mgrwt>
</event>
<event>
12    3  0.1092576E-007  0.1510581E+04  0.7818608E-02  0.8877447E-01
          1   -1    0    0  501    0  0.00000000000E+00  0.00000000000E+00  0.98441565984E+03  0.98441565984E+03  0.00000000000E+00 0. -1.
         -2   -1    0    0    0  501 -0.00000000000E+00 -0.00000000000E+00 -0.25237728805E+04  0.25237728805E+04  0.00000000000E+00 0.  1.
        -24    2    1    2    0    0  0.66199912212E+03  0.13536481514E+04 -0.94678927706E+03  0.17813832011E+04  0.79435624764E+02 0.  0.
    5000000    2    1    2    0    0 -0.66199912212E+03 -0.13536481514E+04 -0.59256794358E+03  0.17268053392E+04  0.60009478948E+03 0.  0.
        -24    2    4    4    0    0 -0.44544811972E+03 -0.82173798056E+03 -0.61010779491E+02  0.94023898281E+03  0.81545653035E+02 0.  0.
         24    2    4    4    0    0 -0.21655100240E+03 -0.53191017084E+03 -0.53155716409E+03  0.78656635641E+03  0.79440845096E+02 0.  0.
         13    1    5    5    0    0 -0.70415649440E+02 -0.16458253514E+03  0.15810247998E+02  0.17971015136E+03  0.00000000000E+00 0. -1.
        -14    1    5    5    0    0 -0.37503247028E+03 -0.65715544542E+03 -0.76821027488E+02  0.76052883146E+03  0.00000000000E+00 0.  1.
         15    1    3    3    0    0  0.51729303655E+03  0.99823587657E+03 -0.67886845799E+03  0.13133668535E+04  0.17770000000E+01 0. -1.
        -16    1    3    3    0    0  0.14470608557E+03  0.35541227483E+03 -0.26792081907E+03  0.46801634757E+03  0.00000000000E+00 0.  1.
          2    1    6    6  502    0 -0.14246361164E+03 -0.27009271285E+03 -0.31598363505E+03  0.43942190636E+03  0.00000000000E+00 0. -1.
         -1    1    6    6    0  502 -0.74087390756E+02 -0.26181745799E+03 -0.21557352904E+03  0.34714445005E+03  0.00000000000E+00 0.  1.
<mgrwt>
<rscale>  0 0.15105814E+04</rscale>
<asrwt>0</asrwt>
<pdfrwt beam="1">  1        1 0.15144856E+00 0.15105814E+04</pdfrwt>
<pdfrwt beam="2">  1       -2 0.38827275E+00 0.15105814E+04</pdfrwt>
<totfact> 0.11470488E-01</totfact>
</mgrwt>
</event>
<event>
12    3  0.1092576E-007  0.4674354E+03  0.7818608E-02  0.1022647E+00
          1   -1    0    0  501    0  0.00000000000E+00  0.00000000000E+00  0.29164781995E+03  0.29164781995E+03  0.00000000000E+00 0. -1.
         -2   -1    0    0    0  501 -0.00000000000E+00 -0.00000000000E+00 -0.95705520132E+03  0.95705520132E+03  0.00000000000E+00 0.  1.
        -24    2    1    2    0    0 -0.12995469327E+03  0.29993974827E+03 -0.38103801416E+03  0.50847814935E+03  0.80672084608E+02 0.  0.
    5000000    2    1    2    0    0  0.12995469327E+03 -0.29993974827E+03 -0.28436936722E+03  0.74022487193E+03  0.60017901422E+03 0.  0.
        -24    2    4    4    0    0  0.13976876036E+03 -0.44256844925E+03 -0.78192400402E+02  0.47708903589E+03  0.78088142766E+02 0.  0.
         24    2    4    4    0    0 -0.98140670937E+01  0.14262870098E+03 -0.20617696682E+03  0.26313583604E+03  0.79323794065E+02 0.  0.
         13    1    5    5    0    0  0.45228000942E+02 -0.11412311093E+03 -0.55016431083E+02  0.13452309916E+03  0.00000000000E+00 0. -1.
        -14    1    5    5    0    0  0.94540759419E+02 -0.32844533832E+03 -0.23175969319E+02  0.34256593673E+03  0.00000000000E+00 0.  1.
         15    1    3    3    0    0 -0.87018011974E+02  0.20023498456E+03 -0.30839449773E+03  0.37785778728E+03  0.17770000000E+01 0. -1.
        -16    1    3    3    0    0 -0.42936681292E+02  0.99704763715E+02 -0.72643516428E+02  0.13062036207E+03  0.00000000000E+00 0.  1.
          4    1    6    6  502    0  0.17955399388E+01  0.57101478001E+02 -0.14907019092E+03  0.15964248988E+03  0.00000000000E+00 0. -1.
         -3    1    6    6    0  502 -0.11609607032E+02  0.85527222978E+02 -0.57106775898E+02  0.10349334616E+03  0.00000000000E+00 0.  1.
<mgrwt>
<rscale>  0 0.46743543E+03</rscale>
<asrwt>0</asrwt>
<pdfrwt beam="1">  1        1 0.44868895E-01 0.46743543E+03</pdfrwt>
<pdfrwt beam="2">  1       -2 0.14723926E+00 0.46743543E+03</pdfrwt>
<totfact> 0.26069647E+01</totfact>
</mgrwt>
</event>
<event>
12    3  0.1092576E-007  0.4195298E+03  0.7818608E-02  0.1037219E+00
          1   -1    0    0  501    0  0.00000000000E+00  0.00000000000E+00  0.13990164044E+03  0.13990164044E+03  0.00000000000E+00 0. -1.
         -2   -1    0    0    0  501 -0.00000000000E+00 -0.00000000000E+00 -0.16460725862E+04  0.16460725862E+04  0.00000000000E+00 0.  1.
        -24    2    1    2    0    0 -0.20168354735E+03 -0.19885661791E+03 -0.41305914915E+03  0.50724753087E+03  0.80386498394E+02 0.  0.
    5000000    2    1    2    0    0  0.20168354735E+03  0.19885661791E+03 -0.10931117966E+04  0.12787266958E+04  0.60002362853E+03 0.  0.
        -24    2    4    4    0    0 -0.14755732978E+03  0.86546255611E+02 -0.73307018345E+03  0.75844299697E+03  0.92630804006E+02 0.  0.
         24    2    4    4    0    0  0.34924087713E+03  0.11231036229E+03 -0.36004161316E+03  0.52028369879E+03  0.80513081450E+02 0.  0.
         13    1    5    5    0    0 -0.40579155902E+02 -0.11613770750E+02 -0.26597647379E+03  0.26930471992E+03  0.00000000000E+00 0. -1.
        -14    1    5    5    0    0 -0.10697817388E+03  0.98160026361E+02 -0.46709370966E+03  0.48913827704E+03  0.00000000000E+00 0.  1.
         15    1    3    3    0    0 -0.80189787443E+02 -0.92068057392E+02 -0.24640920209E+03  0.27500469415E+03  0.17770000000E+01 0. -1.
        -16    1    3    3    0    0 -0.12149375991E+03 -0.10678856051E+03 -0.16664994705E+03  0.23224283672E+03  0.00000000000E+00 0.  1.
          4    1    6    6  502    0  0.35925973740E+01  0.44409753658E+01  0.38875725197E+01  0.69095758326E+01  0.00000000000E+00 0. -1.
         -3    1    6    6    0  502  0.34564827976E+03  0.10786938693E+03 -0.36392918568E+03  0.51337412296E+03  0.00000000000E+00 0.  1.
<mgrwt>
<rscale>  0 0.41952983E+03</rscale>
<asrwt>0</asrwt>
<pdfrwt beam="1">  1        1 0.21523330E-01 0.41952983E+03</pdfrwt>
<pdfrwt beam="2">  1       -2 0.25324193E+00 0.41952983E+03</pdfrwt>
<totfact> 0.13642085E+01</totfact>
</mgrwt>
</event>
<event>
12    3  0.1092576E-007  0.1177344E+04  0.7818608E-02  0.9132922E-01
         -2   -1    0    0    0  501 -0.00000000000E+00  0.00000000000E+00  0.66801852259E+03  0.66801852259E+03  0.00000000000E+00 0.  1.
          1   -1    0    0  501    0  0.00000000000E+00 -0.00000000000E+00 -0.34801524354E+04  0.34801524354E+04  0.00000000000E+00 0. -1.
        -24    2    1    2    0    0 -0.43977145337E+03 -0.10170915135E+04 -0.26553011510E+04  0.28783416880E+04  0.79703150544E+02 0.  0.
    5000000    2    1    2    0    0  0.43977145337E+03  0.10170915135E+04 -0.15683276188E+03  0.12698292701E+04  0.59999648481E+03 0.  0.
        -24    2    4    4    0    0 -0.12384086024E+03  0.16488419365E+03 -0.10332448931E+03  0.24366275086E+03  0.78563541727E+02 0.  0.
         24    2    4    4    0    0  0.56361231361E+03  0.85220731990E+03 -0.53508272570E+02  0.10261665192E+04  0.78983756271E+02 0.  0.
         11    1    5    5    0    0 -0.58631239311E+02  0.20487080424E+02 -0.32804706302E+02  0.70238817210E+02  0.00000000000E+00 0. -1.
        -12    1    5    5    0    0 -0.65209620924E+02  0.14439711322E+03 -0.70519783005E+02  0.17342393365E+03  0.00000000000E+00 0.  1.
         15    1    3    3    0    0 -0.15653293953E+03 -0.43764136506E+03 -0.11783041098E+04  0.12666634354E+04  0.17770000000E+01 0. -1.
        -16    1    3    3    0    0 -0.28323851384E+03 -0.57945014849E+03 -0.14769970411E+04  0.16116782526E+04  0.00000000000E+00 0.  1.
          4    1    6    6  502    0  0.11497267475E+03  0.23183509013E+03 -0.11490720841E+01  0.25878088284E+03  0.00000000000E+00 0. -1.
         -3    1    6    6    0  502  0.44863963885E+03  0.62037222977E+03 -0.52359200486E+02  0.76738563636E+03  0.00000000000E+00 0.  1.
<mgrwt>
<rscale>  0 0.11773442E+04</rscale>
<asrwt>0</asrwt>
<pdfrwt beam="1">  1        1 0.53540806E+00 0.11773442E+04</pdfrwt>
<pdfrwt beam="2">  1       -2 0.10277208E+00 0.11773442E+04</pdfrwt>
<totfact> 0.17653751E-01</totfact>
</mgrwt>
</event>
<event>
12    3  0.1092576E-007  0.4781585E+03  0.7818608E-02  0.1019642E+00
         -2   -1    0    0    0  501 -0.00000000000E+00  0.00000000000E+00  0.19599181155E+03  0.19599181155E+03  0.00000000000E+00 0.  1.
          1   -1    0    0  501    0  0.00000000000E+00 -0.00000000000E+00 -0.19898541950E+04  0.19898541950E+04  0.00000000000E+00 0. -1.
        -24    2    1    2    0    0  0.15812298579E+03  0.28743086270E+03 -0.12980180249E+04  0.13412544352E+04  0.80580937525E+02 0.  0.
    5000000    2    1    2    0    0 -0.15812298579E+03 -0.28743086270E+03 -0.49584435852E+03  0.84459157132E+03  0.59987825016E+03 0.  0.
        -24    2    4    4    0    0  0.67655400070E+02 -0.36697142840E+03 -0.13576373256E+03  0.40484434596E+03  0.78878837195E+02 0.  0.
         24    2    4    4    0    0 -0.22577838586E+03  0.79540565699E+02 -0.36008062596E+03  0.43974722537E+03  0.80106079134E+02 0.  0.
         11    1    5    5    0    0  0.79951364448E+02 -0.25057830888E+03 -0.10941534296E+03  0.28487440537E+03  0.00000000000E+00 0. -1.
        -12    1    5    5    0    0 -0.12295964378E+02 -0.11639311952E+03 -0.26348389599E+02  0.11996994059E+03  0.00000000000E+00 0.  1.
         15    1    3    3    0    0  0.88381415859E+02  0.20539329729E+03 -0.99061744954E+03  0.10155411219E+04  0.17770000000E+01 0. -1.
        -16    1    3    3    0    0  0.69741569929E+02  0.82037565411E+02 -0.30740057540E+03  0.32571331332E+03  0.00000000000E+00 0.  1.
          2    1    6    6  502    0 -0.14891804348E+03  0.77962055246E+02 -0.19370330942E+03  0.25646761553E+03  0.00000000000E+00 0. -1.
         -1    1    6    6    0  502 -0.76860342379E+02  0.15785104532E+01 -0.16637731654E+03  0.18327960984E+03  0.00000000000E+00 0.  1.
<mgrwt>
<rscale>  0 0.47815855E+03</rscale>
<asrwt>0</asrwt>
<pdfrwt beam="1">  1        1 0.30613140E+00 0.47815855E+03</pdfrwt>
<pdfrwt beam="2">  1       -2 0.30152587E-01 0.47815855E+03</pdfrwt>
<totfact> 0.29186880E+01</totfact>
</mgrwt>
</event>
<event>
12    3  0.1092576E-007  0.4639045E+03  0.7818608E-02  0.1023655E+00
         -2   -1    0    0    0  501 -0.00000000000E+00  0.00000000000E+00  0.17437744961E+03  0.17437744961E+03  0.00000000000E+00 0.  1.
          1   -1    0    0  501    0  0.00000000000E+00 -0.00000000000E+00 -0.23809614716E+04  0.23809614716E+04  0.00000000000E+00 0. -1.
        -24    2    1    2    0    0 -0.24806912621E+03  0.15338090668E+03 -0.65833761008E+02  0.31306922525E+03  0.92813047567E+02 0.  0.
    5000000    2    1    2    0    0  0.24806912621E+03 -0.15338090668E+03 -0.21407502610E+04  0.22422696960E+04  0.59991475696E+03 0.  0.
        -24    2    4    4    0    0  0.16726502462E+03 -0.35876021541E+03 -0.16719531444E+04  0.17200155306E+04  0.79621779721E+02 0.  0.
         24    2    4    4    0    0  0.80804101590E+02  0.20537930872E+03 -0.46879711657E+03  0.52225416535E+03  0.65335391940E+02 0.  0.
         13    1    5    5    0    0  0.10073853619E+02 -0.10096644565E+03 -0.38981036515E+03  0.40279998318E+03  0.00000000000E+00 0. -1.
        -14    1    5    5    0    0  0.15719117100E+03 -0.25779376976E+03 -0.12821427793E+04  0.13172155474E+04  0.00000000000E+00 0.  1.
         15    1    3    3    0    0 -0.13111430616E+03  0.34978560547E+02 -0.47726846441E+01  0.13579542417E+03  0.17770000000E+01 0. -1.
        -16    1    3    3    0    0 -0.11695482005E+03  0.11840234614E+03 -0.61061076364E+02  0.17727380108E+03  0.00000000000E+00 0.  1.
          4    1    6    6  502    0  0.19344818715E+02  0.24416415180E+02 -0.12587696679E+03  0.12967418444E+03  0.00000000000E+00 0. -1.
         -3    1    6    6    0  502  0.61459282876E+02  0.18096289354E+03 -0.34292014978E+03  0.39257998091E+03  0.00000000000E+00 0.  1.
<mgrwt>
<rscale>  0 0.46390447E+03</rscale>
<asrwt>0</asrwt>
<pdfrwt beam="1">  1        1 0.36630176E+00 0.46390447E+03</pdfrwt>
<pdfrwt beam="2">  1       -2 0.26827300E-01 0.46390447E+03</pdfrwt>
<totfact> 0.19936156E+01</totfact>
</mgrwt>
</event>
<event>
12    3  0.1092576E-007  0.4668048E+03  0.7818608E-02  0.1022826E+00
         -2   -1    0    0    0  501 -0.00000000000E+00  0.00000000000E+00  0.97858674081E+02  0.97858674081E+02  0.00000000000E+00 0.  1.
          1   -1    0    0  501    0  0.00000000000E+00 -0.00000000000E+00 -0.27043034470E+04  0.27043034470E+04  0.00000000000E+00 0. -1.
        -24    2    1    2    0    0  0.25998324839E+03  0.11300273593E+03 -0.13416285396E+04  0.13738939326E+04  0.85185045252E+02 0.  0.
    5000000    2    1    2    0    0 -0.25998324839E+03 -0.11300273593E+03 -0.12648162333E+04  0.14282681885E+04  0.59985748846E+03 0.  0.
        -24    2    4    4    0    0 -0.19063851964E+03  0.22349161727E+03 -0.49039900706E+03  0.57731692791E+03  0.80697589628E+02 0.  0.
         24    2    4    4    0    0 -0.69344728747E+02 -0.33649435320E+03 -0.77441722627E+03  0.85095126060E+03  0.79742500818E+02 0.  0.
         13    1    5    5    0    0 -0.19501723251E+02  0.43514344494E+02 -0.13947785404E+03  0.14740382340E+03  0.00000000000E+00 0. -1.
        -14    1    5    5    0    0 -0.17113679639E+03  0.17997727277E+03 -0.35092115302E+03  0.42991310451E+03  0.00000000000E+00 0.  1.
         15    1    3    3    0    0  0.10238881629E+03  0.86755053232E+02 -0.53339928421E+03  0.55002532950E+03  0.17770000000E+01 0. -1.
        -16    1    3    3    0    0  0.15759443210E+03  0.26247682699E+02 -0.80822925542E+03  0.82386860311E+03  0.00000000000E+00 0.  1.
          2    1    6    6  502    0 -0.20869321128E+02 -0.91594262001E+02 -0.30686021111E+03  0.32091778785E+03  0.00000000000E+00 0. -1.
         -1    1    6    6    0  502 -0.48475407619E+02 -0.24490009120E+03 -0.46755701516E+03  0.53003347275E+03  0.00000000000E+00 0.  1.
<mgrwt>
<rscale>  0 0.46680484E+03</rscale>
<asrwt>0</asrwt>
<pdfrwt beam="1">  1        1 0.41604672E+00 0.46680484E+03</pdfrwt>
<pdfrwt beam="2">  1       -2 0.15055179E-01 0.46680484E+03</pdfrwt>
<totfact> 0.32849341E+01</totfact>
</mgrwt>
</event>
<event>
12    3  0.1092576E-007  0.1645366E+03  0.7818608E-02  0.1183668E+00
          1   -1    0    0  501    0  0.00000000000E+00  0.00000000000E+00  0.14097182554E+04  0.14097182554E+04  0.00000000000E+00 0. -1.
         -2   -1    0    0    0  501 -0.00000000000E+00 -0.00000000000E+00 -0.10246632429E+03  0.10246632429E+03  0.00000000000E+00 0.  1.
        -24    2    1    2    0    0  0.61595391370E+02 -0.98024398922E+02  0.16528120225E+03  0.21689230689E+03  0.79508628157E+02 0.  0.
    5000000    2    1    2    0    0 -0.61595391370E+02  0.98024398922E+02  0.11419707289E+04  0.12952922728E+04  0.60023508009E+03 0.  0.
        -24    2    4    4    0    0 -0.64271958449E+02 -0.13762736730E+02 -0.33982590892E+02  0.11115834253E+03  0.82952173363E+02 0.  0.
         24    2    4    4    0    0  0.26765670789E+01  0.11178713565E+03  0.11759533198E+04  0.11841339303E+04  0.82482888217E+02 0.  0.
         13    1    5    5    0    0 -0.76904253851E+02 -0.25902418865E+02 -0.10448779374E+02  0.81819169843E+02  0.00000000000E+00 0. -1.
        -14    1    5    5    0    0  0.12632295403E+02  0.12139682134E+02 -0.23533811519E+02  0.29339172689E+02  0.00000000000E+00 0.  1.
         15    1    3    3    0    0  0.31617817993E+02 -0.56745202808E+02  0.15026156042E+03  0.16371132742E+03  0.17770000000E+01 0. -1.
        -16    1    3    3    0    0  0.29977573377E+02 -0.41279196114E+02  0.15019641828E+02  0.53180979476E+02  0.00000000000E+00 0.  1.
          2    1    6    6  502    0 -0.10549591919E+02  0.37804072050E+02  0.78747336823E+03  0.78845085289E+03  0.00000000000E+00 0. -1.
         -1    1    6    6    0  502  0.13226158998E+02  0.73983063602E+02  0.38847995155E+03  0.39568307740E+03  0.00000000000E+00 0.  1.
<mgrwt>
<rscale>  0 0.16453655E+03</rscale>
<asrwt>0</asrwt>
<pdfrwt beam="1">  1        1 0.21687972E+00 0.16453655E+03</pdfrwt>
<pdfrwt beam="2">  1       -2 0.15764051E-01 0.16453655E+03</pdfrwt>
<totfact> 0.23422950E+02</totfact>
</mgrwt>
</event>
<event>
12    3  0.1092576E-007  0.6973680E+03  0.7818608E-02  0.9721744E-01
          1   -1    0    0  501    0  0.00000000000E+00  0.00000000000E+00  0.38748431988E+03  0.38748431988E+03  0.00000000000E+00 0. -1.
         -2   -1    0    0    0  501 -0.00000000000E+00 -0.00000000000E+00 -0.15746080294E+04  0.15746080294E+04  0.00000000000E+00 0.  1.
        -24    2    1    2    0    0  0.54270568410E+03  0.20294442122E+03 -0.91313062552E+03  0.10844047200E+04  0.80063473581E+02 0.  0.
    5000000    2    1    2    0    0 -0.54270568410E+03 -0.20294442122E+03 -0.27399308400E+03  0.87768762929E+03  0.59962277048E+03 0.  0.
        -24    2    4    4    0    0  0.11668280934E+03 -0.40126167592E+02 -0.63049147555E+02  0.15971527931E+03  0.79427879980E+02 0.  0.
         24    2    4    4    0    0 -0.65938849343E+03 -0.16281825363E+03 -0.21094393644E+03  0.71797234998E+03  0.98407225445E+02 0.  0.
         11    1    5    5    0    0  0.73197477293E+02 -0.46455745923E+02 -0.49053111550E+01  0.86833571209E+02  0.00000000000E+00 0. -1.
        -12    1    5    5    0    0  0.43485332045E+02  0.63295783312E+01 -0.58143836400E+02  0.72881708104E+02  0.00000000000E+00 0.  1.
         15    1    3    3    0    0  0.13403635843E+03  0.20285129476E+02 -0.17866967384E+03  0.22428384235E+03  0.17770000000E+01 0. -1.
        -16    1    3    3    0    0  0.40866932567E+03  0.18265929175E+03 -0.73446095168E+03  0.86012087764E+03  0.00000000000E+00 0.  1.
          4    1    6    6  502    0 -0.44475713832E+03 -0.13286726189E+03 -0.10130599555E+03  0.47510580516E+03  0.00000000000E+00 0. -1.
         -3    1    6    6    0  502 -0.21463135512E+03 -0.29950991743E+02 -0.10963794090E+03  0.24286654481E+03  0.00000000000E+00 0.  1.
<mgrwt>
<rscale>  0 0.69736802E+03</rscale>
<asrwt>0</asrwt>
<pdfrwt beam="1">  1        1 0.59612973E-01 0.69736802E+03</pdfrwt>
<pdfrwt beam="2">  1       -2 0.24224739E+00 0.69736802E+03</pdfrwt>
<totfact> 0.40792487E+00</totfact>
</mgrwt>
</event>
<event>
12    3  0.1092576E-007  0.5396596E+03  0.7818608E-02  0.1003916E+00
         -2   -1    0    0    0  501 -0.00000000000E+00  0.00000000000E+00  0.15324096133E+03  0.15324096133E+03  0.00000000000E+00 0.  1.
          1   -1    0    0  501    0  0.00000000000E+00 -0.00000000000E+00 -0.30617767259E+04  0.30617767259E+04  0.00000000000E+00 0. -1.
        -24    2    1    2    0    0  0.44701570504E+03 -0.27865870788E+03 -0.15518536563E+04  0.16408031995E+04  0.80694812832E+02 0.  0.
    5000000    2    1    2    0    0 -0.44701570504E+03  0.27865870788E+03 -0.13566821083E+04  0.15742144877E+04  0.60007599059E+03 0.  0.
        -24    2    4    4    0    0 -0.28805756479E+03  0.25174931556E+03 -0.27602799821E+03  0.47857888666E+03  0.80569326955E+02 0.  0.
         24    2    4    4    0    0 -0.15895814025E+03  0.26909392325E+02 -0.10806541101E+04  0.10956356011E+04  0.81315798091E+02 0.  0.
         13    1    5    5    0    0 -0.14005621793E+03  0.15446951212E+03 -0.10967585596E+03  0.23559577189E+03  0.00000000000E+00 0. -1.
        -14    1    5    5    0    0 -0.14800134686E+03  0.97279803443E+02 -0.16635214226E+03  0.24298311477E+03  0.00000000000E+00 0.  1.
         15    1    3    3    0    0  0.16485230345E+03 -0.11294049845E+03 -0.47489405089E+03  0.51522747931E+03  0.17770000000E+01 0. -1.
        -16    1    3    3    0    0  0.28216340159E+03 -0.16571820943E+03 -0.10769596054E+04  0.11255757202E+04  0.00000000000E+00 0.  1.
          2    1    6    6  502    0 -0.47877795197E+02  0.28161103533E+02 -0.58773052621E+03  0.59034947486E+03  0.00000000000E+00 0. -1.
         -3    1    6    6    0  502 -0.11108034506E+03 -0.12517112084E+01 -0.49292358384E+03  0.50528612621E+03  0.00000000000E+00 0.  1.
<mgrwt>
<rscale>  0 0.53965962E+03</rscale>
<asrwt>0</asrwt>
<pdfrwt beam="1">  1        1 0.47104251E+00 0.53965962E+03</pdfrwt>
<pdfrwt beam="2">  1       -2 0.23575536E-01 0.53965962E+03</pdfrwt>
<totfact> 0.83639533E+00</totfact>
</mgrwt>
</event>
<event>
12    3  0.1092576E-007  0.1225180E+04  0.7818608E-02  0.9091098E-01
          1   -1    0    0  501    0  0.00000000000E+00  0.00000000000E+00  0.15705365687E+04  0.15705365687E+04  0.00000000000E+00 0. -1.
         -2   -1    0    0    0  501 -0.00000000000E+00 -0.00000000000E+00 -0.10900055047E+04  0.10900055047E+04  0.00000000000E+00 0.  1.
        -24    2    1    2    0    0 -0.56643630665E+03  0.10104368249E+04  0.67371799508E+03  0.13418556286E+04  0.69627038055E+02 0.  0.
    5000000    2    1    2    0    0  0.56643630665E+03 -0.10104368249E+04 -0.19318693108E+03  0.13186864448E+04  0.59981670769E+03 0.  0.
        -24    2    4    4    0    0  0.60954980061E+03 -0.54911206839E+03 -0.20091120577E+03  0.84863668580E+03  0.82121183629E+02 0.  0.
         24    2    4    4    0    0 -0.43113493965E+02 -0.46132475649E+03  0.77242746891E+01  0.47004975902E+03  0.78789639004E+02 0.  0.
         13    1    5    5    0    0  0.12449007234E+03 -0.12088275963E+03 -0.76983010405E+02  0.18983362078E+03  0.00000000000E+00 0. -1.
        -14    1    5    5    0    0  0.48505972827E+03 -0.42822930876E+03 -0.12392819536E+03  0.65880306501E+03  0.00000000000E+00 0.  1.
         15    1    3    3    0    0 -0.54533380984E+03  0.94430533040E+03  0.62294653388E+03  0.12558531216E+04  0.17770000000E+01 0. -1.
        -16    1    3    3    0    0 -0.21102496802E+02  0.66131494489E+02  0.50771461201E+02  0.86002506981E+02  0.00000000000E+00 0.  1.
          2    1    6    6  502    0  0.11115835018E+02 -0.88638948809E+01  0.16253980802E+01  0.14309868606E+02  0.00000000000E+00 0. -1.
         -1    1    6    6    0  502 -0.54229328983E+02 -0.45246086161E+03  0.60988766089E+01  0.45573989041E+03  0.00000000000E+00 0.  1.
<mgrwt>
<rscale>  0 0.12251797E+04</rscale>
<asrwt>0</asrwt>
<pdfrwt beam="1">  1        1 0.24162101E+00 0.12251797E+04</pdfrwt>
<pdfrwt beam="2">  1       -2 0.16769315E+00 0.12251797E+04</pdfrwt>
<totfact> 0.11036261E+00</totfact>
</mgrwt>
</event>
<event>
12    3  0.1092576E-007  0.2329016E+04  0.7818608E-02  0.8466568E-01
         -2   -1    0    0    0  501 -0.00000000000E+00  0.00000000000E+00  0.19944186379E+04  0.19944186379E+04  0.00000000000E+00 0.  1.
          1   -1    0    0  501    0  0.00000000000E+00 -0.00000000000E+00 -0.30781486163E+04  0.30781486163E+04  0.00000000000E+00 0. -1.
        -24    2    1    2    0    0  0.21095205314E+04  0.91406790988E+03 -0.13732180930E+04  0.26789812049E+04  0.74935633268E+02 0.  0.
    5000000    2    1    2    0    0 -0.21095205314E+04 -0.91406790988E+03  0.28948811464E+03  0.23935860492E+04  0.59987814605E+03 0.  0.
        -24    2    4    4    0    0 -0.31532634148E+03  0.41698680562E+02 -0.50965407920E+02  0.33092791328E+03  0.75804547340E+02 0.  0.
         24    2    4    4    0    0 -0.17941941899E+04 -0.95576659044E+03  0.34045352256E+03  0.20626581359E+04  0.77636447930E+02 0.  0.
         13    1    5    5    0    0 -0.67712751330E+02  0.36029645310E+02  0.54859085795E+01  0.76897641230E+02  0.00000000000E+00 0. -1.
        -14    1    5    5    0    0 -0.24761359015E+03  0.56690352524E+01 -0.56451316500E+02  0.25403027205E+03  0.00000000000E+00 0.  1.
         15    1    3    3    0    0  0.12120685211E+04  0.48678304290E+03 -0.76629572483E+03  0.15143579915E+04  0.17770000000E+01 0. -1.
        -16    1    3    3    0    0  0.89745201028E+03  0.42728486698E+03 -0.60692236819E+03  0.11646232135E+04  0.00000000000E+00 0.  1.
          2    1    6    6  502    0 -0.12975680759E+04 -0.66554686863E+03  0.21708050321E+03  0.14743674884E+04  0.00000000000E+00 0. -1.
         -1    1    6    6    0  502 -0.49662611403E+03 -0.29021972181E+03  0.12337301935E+03  0.58829064752E+03  0.00000000000E+00 0.  1.
<mgrwt>
<rscale>  0 0.23290162E+04</rscale>
<asrwt>0</asrwt>
<pdfrwt beam="1">  1        1 0.47356133E+00 0.23290162E+04</pdfrwt>
<pdfrwt beam="2">  1       -2 0.30683364E+00 0.23290162E+04</pdfrwt>
<totfact> 0.11327211E-02</totfact>
</mgrwt>
</event>
<event>
12    3  0.1361815E-007  0.1225986E+04  0.7818608E-02  0.9090410E-01
         -2   -1    0    0    0  501 -0.00000000000E+00  0.00000000000E+00  0.95758364748E+03  0.95758364748E+03  0.00000000000E+00 0.  1.
          1   -1    0    0  501    0  0.00000000000E+00 -0.00000000000E+00 -0.20151069366E+04  0.20151069366E+04  0.00000000000E+00 0. -1.
        -24    2    1    2    0    0  0.45221672756E+03 -0.11334802115E+04 -0.10520118243E+04  0.16128199068E+04  0.71984823349E+02 0.  0.
    5000000    2    1    2    0    0 -0.45221672756E+03  0.11334802115E+04 -0.55114647624E+01  0.13598706773E+04  0.59995043475E+03 0.  0.
        -24    2    4    4    0    0 -0.74168883604E+02  0.10807019384E+03  0.19281923036E+03  0.24627147075E+03  0.79310728236E+02 0.  0.
         24    2    4    4    0    0 -0.37804784396E+03  0.10254100176E+04 -0.19833069512E+03  0.11135992065E+04  0.79888995249E+02 0.  0.
         13    1    5    5    0    0 -0.48580914967E+02  0.95445615433E+02  0.91026153941E+02  0.14055508353E+03  0.00000000000E+00 0. -1.
        -14    1    5    5    0    0 -0.25587968637E+02  0.12624578412E+02  0.10179307642E+03  0.10571638722E+03  0.00000000000E+00 0.  1.
         15    1    3    3    0    0  0.88095176363E+02 -0.17515640484E+03 -0.19633629494E+03  0.27747364685E+03  0.17770000000E+01 0. -1.
        -16    1    3    3    0    0  0.36412155120E+03 -0.95832380661E+03 -0.85567552938E+03  0.13353462599E+04  0.00000000000E+00 0.  1.
          2    1    6    6  502    0 -0.19592897786E+03  0.43152960016E+03 -0.66239077381E+02  0.47853273196E+03  0.00000000000E+00 0. -1.
         -1    1    6    6    0  502 -0.18211886610E+03  0.59388041745E+03 -0.13209161774E+03  0.63506647455E+03  0.00000000000E+00 0.  1.
<mgrwt>
<rscale>  0 0.12259863E+04</rscale>
<asrwt>0</asrwt>
<pdfrwt beam="1">  1        1 0.31001645E+00 0.12259863E+04</pdfrwt>
<pdfrwt beam="2">  1       -2 0.14732056E+00 0.12259863E+04</pdfrwt>
<totfact> 0.78210218E-01</totfact>
</mgrwt>
</event>
<event>
12    3  0.1092576E-007  0.3282527E+03  0.7818608E-02  0.1071913E+00
         -2   -1    0    0    0  501 -0.00000000000E+00  0.00000000000E+00  0.10435174133E+03  0.10435174133E+03  0.00000000000E+00 0.  1.
          1   -1    0    0  501    0  0.00000000000E+00 -0.00000000000E+00 -0.13717920683E+04  0.13717920683E+04  0.00000000000E+00 0. -1.
        -24    2    1    2    0    0  0.86978844803E+02 -0.64902203750E+02 -0.14280899437E+03  0.19684699610E+03  0.81096951287E+02 0.  0.
    5000000    2    1    2    0    0 -0.86978844803E+02  0.64902203750E+02 -0.11246313326E+04  0.12792968135E+04  0.60002257236E+03 0.  0.
        -24    2    4    4    0    0  0.87326095254E+02 -0.19424974703E+03 -0.75587796921E+03  0.78942646431E+03  0.80522214782E+02 0.  0.
         24    2    4    4    0    0 -0.17430494006E+03  0.25915195078E+03 -0.36875336340E+03  0.48987034923E+03  0.80324157747E+02 0.  0.
         11    1    5    5    0    0  0.39630626276E+02 -0.63745962768E+02 -0.14891527678E+03  0.16676298740E+03  0.00000000000E+00 0. -1.
        -12    1    5    5    0    0  0.47695468978E+02 -0.13050378426E+03 -0.60696269244E+03  0.62266347691E+03  0.00000000000E+00 0.  1.
         15    1    3    3    0    0  0.57216658252E+02 -0.10773591391E+02 -0.11540024458E+03  0.12926790178E+03  0.17770000000E+01 0. -1.
        -16    1    3    3    0    0  0.29762186551E+02 -0.54128612359E+02 -0.27408749782E+02  0.67579094318E+02  0.00000000000E+00 0.  1.
          2    1    6    6  502    0 -0.95946633625E+02  0.73171708751E+02 -0.13903423936E+03  0.18409338711E+03  0.00000000000E+00 0. -1.
         -1    1    6    6    0  502 -0.78358306432E+02  0.18598024202E+03 -0.22971912404E+03  0.30577696211E+03  0.00000000000E+00 0.  1.
<mgrwt>
<rscale>  0 0.32825274E+03</rscale>
<asrwt>0</asrwt>
<pdfrwt beam="1">  1        1 0.21104491E+00 0.32825274E+03</pdfrwt>
<pdfrwt beam="2">  1       -2 0.16054116E-01 0.32825274E+03</pdfrwt>
<totfact> 0.23341784E+02</totfact>
</mgrwt>
</event>
<event>
12    3  0.1092576E-007  0.7086132E+03  0.7818608E-02  0.9702615E-01
         -2   -1    0    0    0  501 -0.00000000000E+00  0.00000000000E+00  0.52398956727E+03  0.52398956727E+03  0.00000000000E+00 0.  1.
          1   -1    0    0  501    0  0.00000000000E+00 -0.00000000000E+00 -0.12740943641E+04  0.12740943641E+04  0.00000000000E+00 0. -1.
        -24    2    1    2    0    0  0.35747615181E+03 -0.47970341049E+03 -0.73461450036E+03  0.95071322810E+03  0.79326015878E+02 0.  0.
    5000000    2    1    2    0    0 -0.35747615181E+03  0.47970341049E+03 -0.15490296489E+02  0.84737070328E+03  0.59991049195E+03 0.  0.
        -24    2    4    4    0    0  0.60497990326E+02  0.37788687403E+03  0.81560394962E+02  0.39904154081E+03  0.78253158835E+02 0.  0.
         24    2    4    4    0    0 -0.41797414214E+03  0.10181653646E+03 -0.97050691451E+02  0.44832916248E+03  0.80692072849E+02 0.  0.
         13    1    5    5    0    0  0.56652802900E+02  0.37284103284E+03  0.66820918963E+02  0.38299479246E+03  0.00000000000E+00 0. -1.
        -14    1    5    5    0    0  0.38451874259E+01  0.50458411896E+01  0.14739475999E+02  0.16046748342E+02  0.00000000000E+00 0.  1.
         15    1    3    3    0    0  0.30913735603E+03 -0.39181779982E+03 -0.56688050647E+03  0.75527727325E+03  0.17770000000E+01 0. -1.
        -16    1    3    3    0    0  0.48338795785E+02 -0.87885610670E+02 -0.16773399389E+03  0.19543595485E+03  0.00000000000E+00 0.  1.
          4    1    6    6  502    0 -0.16391749711E+03  0.99677854564E+01 -0.63643315579E+02  0.17612147576E+03  0.00000000000E+00 0. -1.
         -3    1    6    6    0  502 -0.25405664503E+03  0.91848751003E+02 -0.33407375872E+02  0.27220768672E+03  0.00000000000E+00 0.  1.
<mgrwt>
<rscale>  0 0.70861318E+03</rscale>
<asrwt>0</asrwt>
<pdfrwt beam="1">  1        1 0.19601452E+00 0.70861318E+03</pdfrwt>
<pdfrwt beam="2">  1       -2 0.80613780E-01 0.70861318E+03</pdfrwt>
<totfact> 0.11630803E+01</totfact>
</mgrwt>
</event>
<event>
12    3  0.1092576E-007  0.7434458E+03  0.7818608E-02  0.9645689E-01
         -2   -1    0    0    0  501 -0.00000000000E+00  0.00000000000E+00  0.75087158047E+03  0.75087158047E+03  0.00000000000E+00 0.  1.
          1   -1    0    0  501    0  0.00000000000E+00 -0.00000000000E+00 -0.87384827049E+03  0.87384827049E+03  0.00000000000E+00 0. -1.
        -24    2    1    2    0    0 -0.40208165314E+03 -0.55916190863E+03 -0.15696534822E+03  0.71072759231E+03  0.78510471084E+02 0.  0.
    5000000    2    1    2    0    0  0.40208165314E+03  0.55916190863E+03  0.33988658191E+02  0.91399225865E+03  0.59991243039E+03 0.  0.
        -24    2    4    4    0    0 -0.70619096174E+02  0.76148200925E+02  0.17496023470E+03  0.21898415856E+03  0.80977606336E+02 0.  0.
         24    2    4    4    0    0  0.47270074931E+03  0.48301370771E+03 -0.14097157651E+03  0.69500810009E+03  0.80093904688E+02 0.  0.
         11    1    5    5    0    0 -0.52045131635E+02  0.86068034153E+02  0.16972030301E+03  0.19728503107E+03  0.00000000000E+00 0. -1.
        -12    1    5    5    0    0 -0.18573964538E+02 -0.99198332280E+01  0.52399316869E+01  0.21699127494E+02  0.00000000000E+00 0.  1.
         15    1    3    3    0    0 -0.19038422293E+02 -0.18444952162E+02 -0.21965035305E+02  0.34471702723E+02  0.17770000000E+01 0. -1.
        -16    1    3    3    0    0 -0.38304323085E+03 -0.54071695647E+03 -0.13500031291E+03  0.67625588959E+03  0.00000000000E+00 0.  1.
          2    1    6    6  502    0  0.26483425008E+03  0.28256641269E+03 -0.41065179530E+02  0.38944486974E+03  0.00000000000E+00 0. -1.
         -1    1    6    6    0  502  0.20786649923E+03  0.20044729501E+03 -0.99906396978E+02  0.30556323034E+03  0.00000000000E+00 0.  1.
<mgrwt>
<rscale>  0 0.74344581E+03</rscale>
<asrwt>0</asrwt>
<pdfrwt beam="1">  1        1 0.13443819E+00 0.74344581E+03</pdfrwt>
<pdfrwt beam="2">  1       -2 0.11551871E+00 0.74344581E+03</pdfrwt>
<totfact> 0.10003146E+01</totfact>
</mgrwt>
</event>
<event>
12    3  0.1092576E-007  0.1576027E+04  0.7818608E-02  0.8835412E-01
         -2   -1    0    0    0  501 -0.00000000000E+00  0.00000000000E+00  0.95608143674E+03  0.95608143674E+03  0.00000000000E+00 0.  1.
          1   -1    0    0  501    0  0.00000000000E+00 -0.00000000000E+00 -0.44486262353E+04  0.44486262353E+04  0.00000000000E+00 0. -1.
        -24    2    1    2    0    0  0.11269553060E+04  0.10226372399E+04  0.26414587286E+02  0.15241341052E+04  0.80447834577E+02 0.  0.
    5000000    2    1    2    0    0 -0.11269553060E+04 -0.10226372399E+04 -0.35189593858E+04  0.38805735668E+04  0.59996738429E+03 0.  0.
        -24    2    4    4    0    0 -0.86422097200E+03 -0.40267892761E+03 -0.21281070324E+04  0.23333004706E+04  0.80145726418E+02 0.  0.
         24    2    4    4    0    0 -0.26273433403E+03 -0.61995831225E+03 -0.13908523534E+04  0.15472730962E+04  0.78778969865E+02 0.  0.
         13    1    5    5    0    0 -0.62613678877E+02 -0.13188965543E+02 -0.17930712631E+03  0.19038242340E+03  0.00000000000E+00 0. -1.
        -14    1    5    5    0    0 -0.80160729312E+03 -0.38948996206E+03 -0.19487999061E+04  0.21429180472E+04  0.00000000000E+00 0.  1.
         15    1    3    3    0    0  0.46550257298E+03  0.41764473081E+03 -0.28545443242E+02  0.62604933247E+03  0.17770000000E+01 0. -1.
        -16    1    3    3    0    0  0.66145273305E+03  0.60499250905E+03  0.54960030528E+02  0.89808477273E+03  0.00000000000E+00 0.  1.
          2    1    6    6  502    0 -0.14212107988E+03 -0.27402877184E+03 -0.70752399593E+03  0.77193288177E+03  0.00000000000E+00 0. -1.
         -1    1    6    6    0  502 -0.12061325415E+03 -0.34592954041E+03 -0.68332835747E+03  0.77534021444E+03  0.00000000000E+00 0.  1.
<mgrwt>
<rscale>  0 0.15760269E+04</rscale>
<asrwt>0</asrwt>
<pdfrwt beam="1">  1        1 0.68440404E+00 0.15760269E+04</pdfrwt>
<pdfrwt beam="2">  1       -2 0.14708945E+00 0.15760269E+04</pdfrwt>
<totfact> 0.96226490E-03</totfact>
</mgrwt>
</event>
<event>
12    3  0.1092576E-007  0.4438791E+03  0.7818608E-02  0.1029563E+00
          1   -1    0    0  501    0  0.00000000000E+00  0.00000000000E+00  0.12614626312E+04  0.12614626312E+04  0.00000000000E+00 0. -1.
         -2   -1    0    0    0  501 -0.00000000000E+00 -0.00000000000E+00 -0.16652280457E+03  0.16652280457E+03  0.00000000000E+00 0.  1.
        -24    2    1    2    0    0  0.10456211198E+03  0.21813516040E+03  0.19862893247E+03  0.32292628266E+03  0.79446508755E+02 0.  0.
    5000000    2    1    2    0    0 -0.10456211198E+03 -0.21813516040E+03  0.89631089421E+03  0.11050591532E+04  0.59938829603E+03 0.  0.
        -24    2    4    4    0    0  0.20724828990E+02  0.19288536042E+03  0.29095157305E+03  0.35810092762E+03  0.77130899759E+02 0.  0.
         24    2    4    4    0    0 -0.12528694097E+03 -0.41102052083E+03  0.60535932116E+03  0.74695822553E+03  0.82776789365E+02 0.  0.
         11    1    5    5    0    0  0.30867939374E+02  0.11069017889E+03  0.22341581069E+03  0.25123648193E+03  0.00000000000E+00 0. -1.
        -12    1    5    5    0    0 -0.10143110384E+02  0.82195181532E+02  0.67535762360E+02  0.10686444569E+03  0.00000000000E+00 0.  1.
         15    1    3    3    0    0  0.28710770433E+02  0.14553374804E+03  0.10028861713E+03  0.17906798880E+03  0.17770000000E+01 0. -1.
        -16    1    3    3    0    0  0.75851341548E+02  0.72601412359E+02  0.98340315338E+02  0.14385829386E+03  0.00000000000E+00 0.  1.
          4    1    6    6  502    0 -0.43102100130E+02 -0.27031917226E+03  0.40247372880E+03  0.48673950765E+03  0.00000000000E+00 0. -1.
         -3    1    6    6    0  502 -0.82184840842E+02 -0.14070134856E+03  0.20288559236E+03  0.26021871788E+03  0.00000000000E+00 0.  1.
<mgrwt>
<rscale>  0 0.44387906E+03</rscale>
<asrwt>0</asrwt>
<pdfrwt beam="1">  1        1 0.19407117E+00 0.44387906E+03</pdfrwt>
<pdfrwt beam="2">  1       -2 0.25618894E-01 0.44387906E+03</pdfrwt>
<totfact> 0.12180484E+02</totfact>
</mgrwt>
</event>
<event>
12    3  0.1092576E-007  0.6246474E+03  0.7818608E-02  0.9855550E-01
          1   -1    0    0  501    0  0.00000000000E+00  0.00000000000E+00  0.21977998444E+04  0.21977998444E+04  0.00000000000E+00 0. -1.
         -2   -1    0    0    0  501 -0.00000000000E+00 -0.00000000000E+00 -0.27350811891E+03  0.27350811891E+03  0.00000000000E+00 0.  1.
        -24    2    1    2    0    0  0.38839231771E+03  0.29748512212E+03  0.12370121513E+03  0.51133550830E+03  0.82559197494E+02 0.  0.
    5000000    2    1    2    0    0 -0.38839231771E+03 -0.29748512212E+03  0.18005905104E+04  0.19599724550E+04  0.60001653986E+03 0.  0.
        -24    2    4    4    0    0 -0.26306910827E+03 -0.46453639882E+03  0.14099829737E+04  0.15095669689E+04  0.75769557074E+02 0.  0.
         24    2    4    4    0    0 -0.12532320943E+03  0.16705127670E+03  0.39060753667E+03  0.45040548617E+03  0.81724038096E+02 0.  0.
         13    1    5    5    0    0 -0.15031991294E+03 -0.25337636054E+03  0.67232671747E+03  0.73404282663E+03  0.00000000000E+00 0. -1.
        -14    1    5    5    0    0 -0.11274919533E+03 -0.21116003828E+03  0.73765625624E+03  0.77552414223E+03  0.00000000000E+00 0.  1.
         15    1    3    3    0    0  0.22133215041E+03  0.11841376331E+03  0.54929141683E+02  0.25696324344E+03  0.17770000000E+01 0. -1.
        -16    1    3    3    0    0  0.16706016730E+03  0.17907135881E+03  0.68772073450E+02  0.25437226486E+03  0.00000000000E+00 0.  1.
          4    1    6    6  502    0 -0.91782690797E+02  0.66374947488E+02  0.24805850216E+03  0.27269528137E+03  0.00000000000E+00 0. -1.
         -3    1    6    6    0  502 -0.33540518636E+02  0.10067632921E+03  0.14254903451E+03  0.17771020481E+03  0.00000000000E+00 0.  1.
<mgrwt>
<rscale>  0 0.62464740E+03</rscale>
<asrwt>0</asrwt>
<pdfrwt beam="1">  1        1 0.33812304E+00 0.62464740E+03</pdfrwt>
<pdfrwt beam="2">  1       -2 0.42078174E-01 0.62464740E+03</pdfrwt>
<totfact> 0.10958645E+01</totfact>
</mgrwt>
</event>
<event>
12    3  0.1092576E-007  0.1581301E+04  0.7818608E-02  0.8832118E-01
         -2   -1    0    0    0  501 -0.00000000000E+00  0.00000000000E+00  0.22583047274E+04  0.22583047274E+04  0.00000000000E+00 0.  1.
          1   -1    0    0  501    0  0.00000000000E+00 -0.00000000000E+00 -0.19540712629E+04  0.19540712629E+04  0.00000000000E+00 0. -1.
        -24    2    1    2    0    0 -0.13289638422E+04  0.80695382010E+03  0.14995163184E+04  0.21615211050E+04  0.79403631995E+02 0.  0.
    5000000    2    1    2    0    0  0.13289638422E+04 -0.80695382010E+03 -0.11952828538E+04  0.20508548853E+04  0.59998774857E+03 0.  0.
        -24    2    4    4    0    0  0.21729250867E+03 -0.31247700203E+03 -0.54232494220E+03  0.66765564296E+03  0.82400264138E+02 0.  0.
         24    2    4    4    0    0  0.11116713335E+04 -0.49447681807E+03 -0.65295791162E+03  0.13831992424E+04  0.81028589772E+02 0.  0.
         11    1    5    5    0    0  0.10983107782E+03 -0.98041323189E+02 -0.17155558767E+03  0.22606699530E+03  0.00000000000E+00 0. -1.
        -12    1    5    5    0    0  0.10746143085E+03 -0.21443567884E+03 -0.37076935453E+03  0.44158864766E+03  0.00000000000E+00 0.  1.
         15    1    3    3    0    0 -0.54659561818E+03  0.37775518183E+03  0.64275802370E+03  0.92444944803E+03  0.17770000000E+01 0. -1.
        -16    1    3    3    0    0 -0.78236822401E+03  0.42919863827E+03  0.85675829465E+03  0.12370716570E+04  0.00000000000E+00 0.  1.
          4    1    6    6  502    0  0.12883406230E+03 -0.82854004407E+02 -0.97311809454E+02  0.18147338624E+03  0.00000000000E+00 0. -1.
         -3    1    6    6    0  502  0.98283727122E+03 -0.41162281366E+03 -0.55564610217E+03  0.12017258561E+04  0.00000000000E+00 0.  1.
<mgrwt>
<rscale>  0 0.15813014E+04</rscale>
<asrwt>0</asrwt>
<pdfrwt beam="1">  1        1 0.30062635E+00 0.15813014E+04</pdfrwt>
<pdfrwt beam="2">  1       -2 0.34743150E+00 0.15813014E+04</pdfrwt>
<totfact> 0.42249924E-02</totfact>
</mgrwt>
</event>
<event>
12    3  0.1092576E-007  0.1097288E+04  0.7818608E-02  0.9207839E-01
          1   -1    0    0  501    0  0.00000000000E+00  0.00000000000E+00  0.21019283921E+04  0.21019283921E+04  0.00000000000E+00 0. -1.
         -2   -1    0    0    0  501 -0.00000000000E+00 -0.00000000000E+00 -0.86351879848E+03  0.86351879848E+03  0.00000000000E+00 0.  1.
        -24    2    1    2    0    0 -0.45775434652E+03 -0.91567349186E+03  0.14329006915E+04  0.17628994363E+04  0.81320633017E+02 0.  0.
    5000000    2    1    2    0    0  0.45775434652E+03  0.91567349186E+03 -0.19449109782E+03  0.12025477543E+04  0.60024772291E+03 0.  0.
        -24    2    4    4    0    0  0.28656587487E+02  0.65714216530E+03 -0.20776039749E+03  0.69510665906E+03  0.85742983859E+02 0.  0.
         24    2    4    4    0    0  0.42909775904E+03  0.25853132656E+03  0.13269299669E+02  0.50744109527E+03  0.79731155988E+02 0.  0.
         11    1    5    5    0    0  0.42745894985E+02  0.21419610658E+03 -0.45094340617E+02  0.22302619391E+03  0.00000000000E+00 0. -1.
        -12    1    5    5    0    0 -0.14089307497E+02  0.44294605872E+03 -0.16266605687E+03  0.47208046516E+03  0.00000000000E+00 0.  1.
         15    1    3    3    0    0 -0.22201503491E+03 -0.36913317430E+03  0.56402611702E+03  0.70970317352E+03  0.17770000000E+01 0. -1.
        -16    1    3    3    0    0 -0.23573931161E+03 -0.54654031757E+03  0.86887457445E+03  0.10531962628E+04  0.00000000000E+00 0.  1.
          4    1    6    6  502    0  0.30633852721E+03  0.22397572368E+03  0.29729725209E+01  0.37949605613E+03  0.00000000000E+00 0. -1.
         -3    1    6    6    0  502  0.12275923183E+03  0.34555602880E+02  0.10296327149E+02  0.12794503914E+03  0.00000000000E+00 0.  1.
<mgrwt>
<rscale>  0 0.10972884E+04</rscale>
<asrwt>0</asrwt>
<pdfrwt beam="1">  1        1 0.32337360E+00 0.10972884E+04</pdfrwt>
<pdfrwt beam="2">  1       -2 0.13284905E+00 0.10972884E+04</pdfrwt>
<totfact> 0.90907979E-01</totfact>
</mgrwt>
</event>
<event>
12    3  0.1092576E-007  0.7352352E+03  0.7818608E-02  0.9658803E-01
          1   -1    0    0  501    0  0.00000000000E+00  0.00000000000E+00  0.55742275970E+03  0.55742275970E+03  0.00000000000E+00 0. -1.
         -2   -1    0    0    0  501 -0.00000000000E+00 -0.00000000000E+00 -0.11944582654E+04  0.11944582654E+04  0.00000000000E+00 0.  1.
        -24    2    1    2    0    0  0.24191846256E+03 -0.65323196282E+03 -0.17337022603E+03  0.72225588156E+03  0.79748250162E+02 0.  0.
    5000000    2    1    2    0    0 -0.24191846256E+03  0.65323196282E+03 -0.46366527965E+03  0.10296251435E+04  0.59992158222E+03 0.  0.
        -24    2    4    4    0    0 -0.23986109213E+03  0.20946303159E+03  0.65725273692E+02  0.33425245165E+03  0.77438909559E+02 0.  0.
         24    2    4    4    0    0 -0.20573704292E+01  0.44376893123E+03 -0.52939055334E+03  0.69537269185E+03  0.79710259774E+02 0.  0.
         13    1    5    5    0    0 -0.15033052907E+03  0.17161358115E+03  0.27472193462E+02  0.22979384374E+03  0.00000000000E+00 0. -1.
        -14    1    5    5    0    0 -0.89530563060E+02  0.37849450434E+02  0.38253080229E+02  0.10445860791E+03  0.00000000000E+00 0.  1.
         15    1    3    3    0    0  0.12569966171E+03 -0.24393342229E+03 -0.47084419386E+02  0.27843135553E+03  0.17770000000E+01 0. -1.
        -16    1    3    3    0    0  0.11621880085E+03 -0.40929854053E+03 -0.12628580664E+03  0.44382452603E+03  0.00000000000E+00 0.  1.
          2    1    6    6  502    0 -0.18853486568E+02  0.20604273004E+03 -0.19173119466E+03  0.28208139174E+03  0.00000000000E+00 0. -1.
         -1    1    6    6    0  502  0.16796116139E+02  0.23772620119E+03 -0.33765935868E+03  0.41329130011E+03  0.00000000000E+00 0.  1.
<mgrwt>
<rscale>  0 0.73523524E+03</rscale>
<asrwt>0</asrwt>
<pdfrwt beam="1">  1        1 0.85757347E-01 0.73523524E+03</pdfrwt>
<pdfrwt beam="2">  1       -2 0.18376281E+00 0.73523524E+03</pdfrwt>
<totfact> 0.58357866E+00</totfact>
</mgrwt>
</event>
<event>
12    3  0.1092576E-007  0.8559269E+03  0.7818608E-02  0.9482416E-01
          1   -1    0    0  501    0  0.00000000000E+00  0.00000000000E+00  0.73911170959E+03  0.73911170959E+03  0.00000000000E+00 0. -1.
         -2   -1    0    0    0  501 -0.00000000000E+00 -0.00000000000E+00 -0.12344757574E+04  0.12344757574E+04  0.00000000000E+00 0.  1.
        -24    2    1    2    0    0 -0.62890562069E+03  0.52335886859E+03  0.46215591158E+02  0.82336342397E+03  0.79778831870E+02 0.  0.
    5000000    2    1    2    0    0  0.62890562069E+03 -0.52335886859E+03 -0.54157963896E+03  0.11502240430E+04  0.60023333690E+03 0.  0.
        -24    2    4    4    0    0  0.28863315916E+03 -0.33204602750E+02  0.51762193060E+02  0.30516536339E+03  0.77684800155E+02 0.  0.
         24    2    4    4    0    0  0.34027246153E+03 -0.49015426583E+03 -0.59334183202E+03  0.84505867962E+03  0.77672968181E+02 0.  0.
         11    1    5    5    0    0  0.85044667330E+02 -0.24841992597E+02  0.49297777209E+02  0.10139028985E+03  0.00000000000E+00 0. -1.
        -12    1    5    5    0    0  0.20358849183E+03 -0.83626101535E+01  0.24644158510E+01  0.20377507354E+03  0.00000000000E+00 0.  1.
         15    1    3    3    0    0 -0.10782995929E+03  0.78043625084E+02  0.35779865751E+02  0.13784579812E+03  0.17770000000E+01 0. -1.
        -16    1    3    3    0    0 -0.52107566140E+03  0.44531524350E+03  0.10435725407E+02  0.68551762586E+03  0.00000000000E+00 0.  1.
          4    1    6    6  502    0 -0.34672944287E+01 -0.87000804256E+01 -0.15454396137E+02  0.18070746803E+02  0.00000000000E+00 0. -1.
         -3    1    6    6    0  502  0.34373975596E+03 -0.48145418541E+03 -0.57788743588E+03  0.82698793282E+03  0.00000000000E+00 0.  1.
<mgrwt>
<rscale>  0 0.85592694E+03</rscale>
<asrwt>0</asrwt>
<pdfrwt beam="1">  1        1 0.11370949E+00 0.85592694E+03</pdfrwt>
<pdfrwt beam="2">  1       -2 0.18991935E+00 0.85592694E+03</pdfrwt>
<totfact> 0.34501511E+00</totfact>
</mgrwt>
</event>
<event>
12    3  0.1701056E-007  0.7667919E+03  0.7818608E-02  0.9609369E-01
          1   -1    0    0  501    0  0.00000000000E+00  0.00000000000E+00  0.10511652630E+04  0.10511652630E+04  0.00000000000E+00 0. -1.
         -2   -1    0    0    0  501 -0.00000000000E+00 -0.00000000000E+00 -0.56707423199E+03  0.56707423199E+03  0.00000000000E+00 0.  1.
        -24    2    1    2    0    0 -0.65005477902E+03  0.52849626117E+02  0.17177372549E+03  0.67864429817E+03  0.75415992748E+02 0.  0.
    5000000    2    1    2    0    0  0.65005477902E+03 -0.52849626117E+02  0.31231730552E+03  0.93959519681E+03  0.59994394390E+03 0.  0.
        -24    2    4    4    0    0  0.38115449457E+03  0.25523270212E+03  0.12307677274E+03  0.48151063017E+03  0.79259788138E+02 0.  0.
         24    2    4    4    0    0  0.26890028445E+03 -0.30808232823E+03  0.18924053278E+03  0.45808456664E+03  0.82507011823E+02 0.  0.
         11    1    5    5    0    0  0.12236667075E+03  0.10733718427E+03  0.11265655415E+02  0.16316184673E+03  0.00000000000E+00 0. -1.
        -12    1    5    5    0    0  0.25878782382E+03  0.14789551785E+03  0.11181111732E+03  0.31834878344E+03  0.00000000000E+00 0.  1.
         15    1    3    3    0    0 -0.24957638345E+03  0.52759120617E+02  0.48926679229E+02  0.25974771155E+03  0.17770000000E+01 0. -1.
        -16    1    3    3    0    0 -0.40047839557E+03  0.90505499471E-01  0.12284704626E+03  0.41889658662E+03  0.00000000000E+00 0.  1.
          4    1    6    6  502    0  0.55189940169E+02 -0.12158374433E+03  0.60096097175E+02  0.14642430562E+03  0.00000000000E+00 0. -1.
         -3    1    6    6    0  502  0.21371034428E+03 -0.18649858391E+03  0.12914443560E+03  0.31166026102E+03  0.00000000000E+00 0.  1.
<mgrwt>
<rscale>  0 0.76679193E+03</rscale>
<asrwt>0</asrwt>
<pdfrwt beam="1">  1        1 0.16171773E+00 0.76679193E+03</pdfrwt>
<pdfrwt beam="2">  1       -2 0.87242189E-01 0.76679193E+03</pdfrwt>
<totfact> 0.14058016E+01</totfact>
</mgrwt>
</event>
<event>
12    3  0.1092576E-007  0.4870427E+03  0.7818608E-02  0.1017217E+00
         -2   -1    0    0    0  501 -0.00000000000E+00  0.00000000000E+00  0.43482175719E+03  0.43482175719E+03  0.00000000000E+00 0.  1.
          1   -1    0    0  501    0  0.00000000000E+00 -0.00000000000E+00 -0.73859682526E+03  0.73859682526E+03  0.00000000000E+00 0. -1.
        -24    2    1    2    0    0 -0.79728187470E+01  0.40167145438E+03 -0.14312910298E+03  0.43362119644E+03  0.78344615469E+02 0.  0.
    5000000    2    1    2    0    0  0.79728187470E+01 -0.40167145438E+03 -0.16064596509E+03  0.73979738602E+03  0.60007459799E+03 0.  0.
        -24    2    4    4    0    0 -0.17164242360E+03 -0.64535273461E+02  0.14275236153E+03  0.24556386898E+03  0.79356498955E+02 0.  0.
         24    2    4    4    0    0  0.17961524235E+03 -0.33713618092E+03 -0.30339832661E+03  0.49423351704E+03  0.79333378866E+02 0.  0.
         13    1    5    5    0    0 -0.90128422376E+02 -0.22276792471E+02  0.11861327042E+03  0.15062700927E+03  0.00000000000E+00 0. -1.
        -14    1    5    5    0    0 -0.81514001227E+02 -0.42258480990E+02  0.24139091105E+02  0.94936859707E+02  0.00000000000E+00 0.  1.
         15    1    3    3    0    0 -0.33354449496E+02  0.31525236265E+03 -0.12984432898E+03  0.34257740579E+03  0.17770000000E+01 0. -1.
        -16    1    3    3    0    0  0.25381630749E+02  0.86419091734E+02 -0.13284773998E+02  0.91043790650E+02  0.00000000000E+00 0.  1.
          2    1    6    6  502    0  0.75452650189E+02 -0.15880352383E+03 -0.18903488282E+03  0.25815857244E+03  0.00000000000E+00 0. -1.
         -1    1    6    6    0  502  0.10416259216E+03 -0.17833265709E+03 -0.11436344379E+03  0.23607494460E+03  0.00000000000E+00 0.  1.
<mgrwt>
<rscale>  0 0.48704266E+03</rscale>
<asrwt>0</asrwt>
<pdfrwt beam="1">  1        1 0.11363028E+00 0.48704266E+03</pdfrwt>
<pdfrwt beam="2">  1       -2 0.66895655E-01 0.48704266E+03</pdfrwt>
<totfact> 0.47148637E+01</totfact>
</mgrwt>
</event>
<event>
12    3  0.1092576E-007  0.7414972E+03  0.7818608E-02  0.9648785E-01
         -2   -1    0    0    0  501 -0.00000000000E+00  0.00000000000E+00  0.64324174636E+03  0.64324174636E+03  0.00000000000E+00 0.  1.
          1   -1    0    0  501    0  0.00000000000E+00 -0.00000000000E+00 -0.12539545248E+04  0.12539545248E+04  0.00000000000E+00 0. -1.
        -24    2    1    2    0    0 -0.23531326709E+03  0.69096101597E+03 -0.60649122322E+03  0.95237785705E+03  0.79953233249E+02 0.  0.
    5000000    2    1    2    0    0  0.23531326709E+03 -0.69096101597E+03 -0.42215552567E+01  0.94481841414E+03  0.59988711847E+03 0.  0.
        -24    2    4    4    0    0  0.13214890648E+03 -0.53713513043E+03 -0.26165089898E+03  0.61707377362E+03  0.79632702668E+02 0.  0.
         24    2    4    4    0    0  0.10316436062E+03 -0.15382588554E+03  0.25742934372E+03  0.32774464051E+03  0.82712719784E+02 0.  0.
         11    1    5    5    0    0  0.99544978403E+02 -0.24212259065E+03 -0.13200474093E+03  0.29318561229E+03  0.00000000000E+00 0. -1.
        -12    1    5    5    0    0  0.32603928074E+02 -0.29501253978E+03 -0.12964615805E+03  0.32388816133E+03  0.00000000000E+00 0.  1.
         15    1    3    3    0    0 -0.13949593009E+03  0.43623393155E+03 -0.33067279717E+03  0.56489540099E+03  0.17770000000E+01 0. -1.
        -16    1    3    3    0    0 -0.95817337000E+02  0.25472708442E+03 -0.27581842605E+03  0.38748245606E+03  0.00000000000E+00 0.  1.
          2    1    6    6  502    0  0.20289112766E+02 -0.89948804157E+00  0.66186682606E+02  0.69232464423E+02  0.00000000000E+00 0. -1.
         -1    1    6    6    0  502  0.82875247849E+02 -0.15292639749E+03  0.19124266111E+03  0.25851217609E+03  0.00000000000E+00 0.  1.
<mgrwt>
<rscale>  0 0.74149722E+03</rscale>
<asrwt>0</asrwt>
<pdfrwt beam="1">  1        1 0.19291608E+00 0.74149722E+03</pdfrwt>
<pdfrwt beam="2">  1       -2 0.98960271E-01 0.74149722E+03</pdfrwt>
<totfact> 0.74635821E+00</totfact>
</mgrwt>
</event>
<event>
12    3  0.1092576E-007  0.4765247E+03  0.7818608E-02  0.1020095E+00
          1   -1    0    0  501    0  0.00000000000E+00  0.00000000000E+00  0.70435894182E+03  0.70435894182E+03  0.00000000000E+00 0. -1.
         -2   -1    0    0    0  501 -0.00000000000E+00 -0.00000000000E+00 -0.36310998338E+03  0.36310998338E+03  0.00000000000E+00 0.  1.
        -24    2    1    2    0    0 -0.11151508654E+03 -0.28856526748E+03  0.20360671624E+03  0.37846701603E+03  0.77949080827E+02 0.  0.
    5000000    2    1    2    0    0  0.11151508654E+03  0.28856526748E+03  0.13764224220E+03  0.68900190917E+03  0.60006059350E+03 0.  0.
        -24    2    4    4    0    0  0.31765573194E+03  0.58722412454E+02 -0.22612557805E+02  0.33212391500E+03  0.73766397374E+02 0.  0.
         24    2    4    4    0    0 -0.20614064540E+03  0.22984285503E+03  0.16025480000E+03  0.35687799417E+03  0.79740818311E+02 0.  0.
         13    1    5    5    0    0  0.43386457542E+02  0.95531006991E+01 -0.29618859803E+02  0.53394037935E+02  0.00000000000E+00 0. -1.
        -14    1    5    5    0    0  0.27426927440E+03  0.49169311755E+02  0.70063019981E+01  0.27872987706E+03  0.00000000000E+00 0.  1.
         15    1    3    3    0    0 -0.11023333721E+03 -0.19406782293E+03  0.12690777818E+03  0.25675367655E+03  0.17770000000E+01 0. -1.
        -16    1    3    3    0    0 -0.12817493297E+01 -0.94497444555E+02  0.76698938067E+02  0.12171333949E+03  0.00000000000E+00 0.  1.
          2    1    6    6  502    0 -0.13426556062E+03  0.11492156182E+03  0.12606245680E+03  0.21708511961E+03  0.00000000000E+00 0. -1.
         -1    1    6    6    0  502 -0.71875084784E+02  0.11492129321E+03  0.34192343197E+02  0.13979287456E+03  0.00000000000E+00 0.  1.
<mgrwt>
<rscale>  0 0.47652471E+03</rscale>
<asrwt>0</asrwt>
<pdfrwt beam="1">  1        1 0.10836291E+00 0.47652471E+03</pdfrwt>
<pdfrwt beam="2">  1       -2 0.55863074E-01 0.47652471E+03</pdfrwt>
<totfact> 0.74129492E+01</totfact>
</mgrwt>
</event>
<event>
12    3  0.1092576E-007  0.8795732E+03  0.7818608E-02  0.9451482E-01
          1   -1    0    0  501    0  0.00000000000E+00  0.00000000000E+00  0.14899042676E+04  0.14899042676E+04  0.00000000000E+00 0. -1.
         -2   -1    0    0    0  501 -0.00000000000E+00 -0.00000000000E+00 -0.63266022940E+03  0.63266022940E+03  0.00000000000E+00 0.  1.
        -24    2    1    2    0    0  0.24790821747E+03  0.84044283505E+03  0.38594965365E+03  0.96071074067E+03  0.78774036454E+02 0.  0.
    5000000    2    1    2    0    0 -0.24790821747E+03 -0.84044283505E+03  0.47129438451E+03  0.11618537563E+04  0.59998592555E+03 0.  0.
        -24    2    4    4    0    0 -0.61314290545E+02 -0.25563676077E+03 -0.12413830274E+03  0.30282598761E+03  0.84756503506E+02 0.  0.
         24    2    4    4    0    0 -0.18659392693E+03 -0.58480607428E+03  0.59543268726E+03  0.85902776868E+03  0.81075176353E+02 0.  0.
         13    1    5    5    0    0 -0.29432999317E+02 -0.57450621243E+02  0.40078142361E+01  0.64675636100E+02  0.00000000000E+00 0. -1.
        -14    1    5    5    0    0 -0.31881291228E+02 -0.19818613952E+03 -0.12814611698E+03  0.23815035151E+03  0.00000000000E+00 0.  1.
         15    1    3    3    0    0  0.15109037271E+03  0.37419246332E+03  0.18113364783E+03  0.44233568298E+03  0.17770000000E+01 0. -1.
        -16    1    3    3    0    0  0.96817844766E+02  0.46625037172E+03  0.20481600582E+03  0.51837505769E+03  0.00000000000E+00 0.  1.
          4    1    6    6  502    0 -0.13283393265E+03 -0.38848706376E+03  0.34475741496E+03  0.53612006821E+03  0.00000000000E+00 0. -1.
         -3    1    6    6    0  502 -0.53759994276E+02 -0.19631901052E+03  0.25067527230E+03  0.32290770046E+03  0.00000000000E+00 0.  1.
<mgrwt>
<rscale>  0 0.87957322E+03</rscale>
<asrwt>0</asrwt>
<pdfrwt beam="1">  1        1 0.22921604E+00 0.87957322E+03</pdfrwt>
<pdfrwt beam="2">  1       -2 0.97332343E-01 0.87957322E+03</pdfrwt>
<totfact> 0.52126570E+00</totfact>
</mgrwt>
</event>
<event>
12    3  0.1092576E-007  0.6160894E+03  0.7818608E-02  0.9872577E-01
         -2   -1    0    0    0  501 -0.00000000000E+00  0.00000000000E+00  0.47991143359E+03  0.47991143359E+03  0.00000000000E+00 0.  1.
          1   -1    0    0  501    0  0.00000000000E+00 -0.00000000000E+00 -0.28120309379E+04  0.28120309379E+04  0.00000000000E+00 0. -1.
        -24    2    1    2    0    0  0.55715453828E+03  0.61095607679E+02  0.22268177613E+03  0.60846913498E+03  0.80583261294E+02 0.  0.
    5000000    2    1    2    0    0 -0.55715453828E+03 -0.61095607679E+02 -0.25548012805E+04  0.26834732365E+04  0.59988763584E+03 0.  0.
        -24    2    4    4    0    0 -0.52440952386E+03 -0.14619826154E+03 -0.11647437110E+04  0.12881192257E+04  0.79018650502E+02 0.  0.
         24    2    4    4    0    0 -0.32745014424E+02  0.85102653860E+02 -0.13900575695E+04  0.13953540108E+04  0.80237592002E+02 0.  0.
         11    1    5    5    0    0 -0.23542478548E+03 -0.59321581708E+02 -0.42969619267E+03  0.49354097871E+03  0.00000000000E+00 0. -1.
        -12    1    5    5    0    0 -0.28898473838E+03 -0.86876679830E+02 -0.73504751829E+03  0.79457824703E+03  0.00000000000E+00 0.  1.
         15    1    3    3    0    0  0.36204879500E+03  0.78168528244E+02  0.14388258705E+03  0.39736004499E+03  0.17770000000E+01 0. -1.
        -16    1    3    3    0    0  0.19510574328E+03 -0.17072920566E+02  0.78799189083E+02  0.21110909000E+03  0.00000000000E+00 0.  1.
          2    1    6    6  502    0 -0.44867139387E+02  0.10861693850E+02 -0.50523801919E+03  0.50734257915E+03  0.00000000000E+00 0. -1.
         -1    1    6    6    0  502  0.12122124963E+02  0.74240960010E+02 -0.88481955035E+03  0.88801143164E+03  0.00000000000E+00 0.  1.
<mgrwt>
<rscale>  0 0.61608935E+03</rscale>
<asrwt>0</asrwt>
<pdfrwt beam="1">  1        1 0.43262014E+00 0.61608935E+03</pdfrwt>
<pdfrwt beam="2">  1       -2 0.73832529E-01 0.61608935E+03</pdfrwt>
<totfact> 0.13030615E+00</totfact>
</mgrwt>
</event>
<event>
12    3  0.1092576E-007  0.4859556E+03  0.7818608E-02  0.1017511E+00
         -2   -1    0    0    0  501 -0.00000000000E+00  0.00000000000E+00  0.49361631139E+03  0.49361631139E+03  0.00000000000E+00 0.  1.
          1   -1    0    0  501    0  0.00000000000E+00 -0.00000000000E+00 -0.56631358484E+03  0.56631358484E+03  0.00000000000E+00 0. -1.
        -24    2    1    2    0    0  0.30198247272E+03 -0.16069119458E+03  0.34799241194E+02  0.36100672115E+03  0.10999905310E+03 0.  0.
    5000000    2    1    2    0    0 -0.30198247272E+03  0.16069119458E+03 -0.10749651465E+03  0.69892317508E+03  0.59993585503E+03 0.  0.
        -24    2    4    4    0    0 -0.44522220205E+03  0.10840270006E+03 -0.18831060092E+03  0.50164816100E+03  0.78841869844E+02 0.  0.
         24    2    4    4    0    0  0.14323972933E+03  0.52288494522E+02  0.80814086272E+02  0.19727501408E+03  0.95576189083E+02 0.  0.
         13    1    5    5    0    0 -0.18330357562E+03  0.72331754395E+02 -0.50173233623E+02  0.20334560949E+03  0.00000000000E+00 0. -1.
        -14    1    5    5    0    0 -0.26191862643E+03  0.36070945662E+02 -0.13813736730E+03  0.29830255151E+03  0.00000000000E+00 0.  1.
         15    1    3    3    0    0  0.19466483778E+03 -0.14392540590E+03 -0.12751850435E+02  0.24243491694E+03  0.17770000000E+01 0. -1.
        -16    1    3    3    0    0  0.10731763494E+03 -0.16765788676E+02  0.47551091629E+02  0.11857180421E+03  0.00000000000E+00 0.  1.
          4    1    6    6  502    0  0.75673339630E+02  0.52630325988E+02  0.90309936125E+02  0.12904375269E+03  0.00000000000E+00 0. -1.
         -3    1    6    6    0  502  0.67566389703E+02 -0.34183146658E+00 -0.94958498537E+01  0.68231261389E+02  0.00000000000E+00 0.  1.
<mgrwt>
<rscale>  0 0.48595562E+03</rscale>
<asrwt>0</asrwt>
<pdfrwt beam="1">  1        1 0.87125167E-01 0.48595562E+03</pdfrwt>
<pdfrwt beam="2">  1       -2 0.75940971E-01 0.48595562E+03</pdfrwt>
<totfact> 0.52661847E+01</totfact>
</mgrwt>
</event>
<event>
12    3  0.1092576E-007  0.7410626E+03  0.7818608E-02  0.9649477E-01
          1   -1    0    0  501    0  0.00000000000E+00  0.00000000000E+00  0.21371757029E+04  0.21371757029E+04  0.00000000000E+00 0. -1.
         -2   -1    0    0    0  501 -0.00000000000E+00 -0.00000000000E+00 -0.29334662472E+03  0.29334662472E+03  0.00000000000E+00 0.  1.
        -24    2    1    2    0    0 -0.35938617696E+03 -0.52136941228E+03  0.43110853425E+03  0.77015378230E+03  0.79358627930E+02 0.  0.
    5000000    2    1    2    0    0  0.35938617696E+03  0.52136941228E+03  0.14127205439E+04  0.16603685453E+04  0.60004990028E+03 0.  0.
        -24    2    4    4    0    0  0.50976329002E+03  0.43450082169E+03  0.11451207038E+04  0.13290498476E+04  0.80140472843E+02 0.  0.
         24    2    4    4    0    0 -0.15037711307E+03  0.86868590589E+02  0.26759984016E+03  0.33131869769E+03  0.89459358499E+02 0.  0.
         13    1    5    5    0    0  0.21130034886E+03  0.16189584613E+03  0.38384640467E+03  0.46711472338E+03  0.00000000000E+00 0. -1.
        -14    1    5    5    0    0  0.29846294116E+03  0.27260497557E+03  0.76127429910E+03  0.86193512425E+03  0.00000000000E+00 0.  1.
         15    1    3    3    0    0 -0.13887930484E+03 -0.15207375788E+03  0.11077288280E+03  0.23385396819E+03  0.17770000000E+01 0. -1.
        -16    1    3    3    0    0 -0.22050687212E+03 -0.36929565440E+03  0.32033565145E+03  0.53629981410E+03  0.00000000000E+00 0.  1.
          2    1    6    6  502    0 -0.46034045970E+02  0.41058082948E+02  0.31737043988E+02  0.69369586454E+02  0.00000000000E+00 0. -1.
         -1    1    6    6    0  502 -0.10434306709E+03  0.45810507642E+02  0.23586279617E+03  0.26194911124E+03  0.00000000000E+00 0.  1.
<mgrwt>
<rscale>  0 0.74106259E+03</rscale>
<asrwt>0</asrwt>
<pdfrwt beam="1">  1        1 0.32879625E+00 0.74106259E+03</pdfrwt>
<pdfrwt beam="2">  1       -2 0.45130251E-01 0.74106259E+03</pdfrwt>
<totfact> 0.10274484E+01</totfact>
</mgrwt>
</event>
<event>
12    3  0.1178067E-007  0.1202554E+04  0.7818608E-02  0.9110624E-01
          1   -1    0    0  501    0  0.00000000000E+00  0.00000000000E+00  0.17150832674E+04  0.17150832674E+04  0.00000000000E+00 0. -1.
         -2   -1    0    0    0  501 -0.00000000000E+00 -0.00000000000E+00 -0.97208941681E+03  0.97208941681E+03  0.00000000000E+00 0.  1.
        -24    2    1    2    0    0 -0.10914577930E+04 -0.45261236603E+03  0.35058256570E+02  0.11847345323E+04  0.78922511716E+02 0.  0.
    5000000    2    1    2    0    0  0.10914577930E+04  0.45261236603E+03  0.70793559405E+03  0.15024381520E+04  0.60000793948E+03 0.  0.
        -24    2    4    4    0    0  0.82951821158E+03  0.21610597835E+03  0.20959124019E+03  0.88623055730E+03  0.81693668753E+02 0.  0.
         24    2    4    4    0    0  0.26193958141E+03  0.23650638769E+03  0.49834435386E+03  0.61620759468E+03  0.82565664705E+02 0.  0.
         13    1    5    5    0    0  0.34562162045E+03  0.12928729809E+03  0.75620225021E+02  0.37668014071E+03  0.00000000000E+00 0. -1.
        -14    1    5    5    0    0  0.48389659112E+03  0.86818680250E+02  0.13397101517E+03  0.50955041659E+03  0.00000000000E+00 0.  1.
         15    1    3    3    0    0 -0.66285743023E+03 -0.31599320151E+03  0.16910455931E+02  0.73452079444E+03  0.17770000000E+01 0. -1.
        -16    1    3    3    0    0 -0.42860036276E+03 -0.13661916452E+03  0.18147800639E+02  0.45021373784E+03  0.00000000000E+00 0.  1.
          4    1    6    6  502    0  0.18201281119E+03  0.20563882699E+03  0.34974820009E+03  0.44467942843E+03  0.00000000000E+00 0. -1.
         -3    1    6    6    0  502  0.79926770215E+02  0.30867560699E+02  0.14859615377E+03  0.17152816625E+03  0.00000000000E+00 0.  1.
<mgrwt>
<rscale>  0 0.12025543E+04</rscale>
<asrwt>0</asrwt>
<pdfrwt beam="1">  1        1 0.26385896E+00 0.12025543E+04</pdfrwt>
<pdfrwt beam="2">  1       -2 0.14955222E+00 0.12025543E+04</pdfrwt>
<totfact> 0.12033646E+00</totfact>
</mgrwt>
</event>
<event>
12    3  0.1092576E-007  0.8743042E+03  0.7818608E-02  0.9458285E-01
          1   -1    0    0  501    0  0.00000000000E+00  0.00000000000E+00  0.40922701722E+04  0.40922701722E+04  0.00000000000E+00 0. -1.
         -2   -1    0    0    0  501 -0.00000000000E+00 -0.00000000000E+00 -0.30366683916E+03  0.30366683916E+03  0.00000000000E+00 0.  1.
        -24    2    1    2    0    0  0.13631906212E+03 -0.85938057834E+03  0.66455075790E+03  0.10979197777E+04  0.81745111441E+02 0.  0.
    5000000    2    1    2    0    0 -0.13631906212E+03  0.85938057834E+03  0.31240525752E+04  0.32980172337E+04  0.60007942507E+03 0.  0.
        -24    2    4    4    0    0 -0.19102170693E+02  0.38550025493E+03  0.23264627165E+04  0.23596172242E+04  0.79933308006E+02 0.  0.
         24    2    4    4    0    0 -0.11721689143E+03  0.47388032341E+03  0.79758985865E+03  0.93840000956E+03  0.78374962676E+02 0.  0.
         13    1    5    5    0    0 -0.10948302026E+02  0.48789337261E+02  0.48817954897E+03  0.49073367195E+03  0.00000000000E+00 0. -1.
        -14    1    5    5    0    0 -0.81538686666E+01  0.33671091767E+03  0.18382831675E+04  0.18688835522E+04  0.00000000000E+00 0.  1.
         15    1    3    3    0    0  0.73648130224E+02 -0.28029350484E+03  0.18921202596E+03  0.34611102906E+03  0.17770000000E+01 0. -1.
        -16    1    3    3    0    0  0.62670931901E+02 -0.57908707350E+03  0.47533873195E+03  0.75180874861E+03  0.00000000000E+00 0.  1.
          4    1    6    6  502    0 -0.12337512322E+02  0.11392571310E+03  0.13487656709E+03  0.17698296716E+03  0.00000000000E+00 0. -1.
         -3    1    6    6    0  502 -0.10487937911E+03  0.35995461030E+03  0.66271329156E+03  0.76141704240E+03  0.00000000000E+00 0.  1.
<mgrwt>
<rscale>  0 0.87430416E+03</rscale>
<asrwt>0</asrwt>
<pdfrwt beam="1">  1        1 0.62957999E+00 0.87430416E+03</pdfrwt>
<pdfrwt beam="2">  1       -2 0.46717978E-01 0.87430416E+03</pdfrwt>
<totfact> 0.32749693E-01</totfact>
</mgrwt>
</event>
<event>
12    3  0.1092576E-007  0.7523379E+03  0.7818608E-02  0.9631690E-01
          1   -1    0    0  501    0  0.00000000000E+00  0.00000000000E+00  0.33244260260E+04  0.33244260260E+04  0.00000000000E+00 0. -1.
         -2   -1    0    0    0  501 -0.00000000000E+00 -0.00000000000E+00 -0.18103402696E+03  0.18103402696E+03  0.00000000000E+00 0.  1.
        -24    2    1    2    0    0  0.64128862695E+03 -0.27903876717E+02  0.16584606143E+04  0.17801067968E+04  0.79113016650E+02 0.  0.
    5000000    2    1    2    0    0 -0.64128862695E+03  0.27903876717E+02  0.14849313848E+04  0.17253532562E+04  0.59982740166E+03 0.  0.
        -24    2    4    4    0    0 -0.74309677754E+03  0.37899388584E+02  0.12662609510E+04  0.14708695252E+04  0.80069843527E+02 0.  0.
         24    2    4    4    0    0  0.10180815058E+03 -0.99955118669E+01  0.21867043379E+03  0.25448373096E+03  0.80500937426E+02 0.  0.
         13    1    5    5    0    0 -0.49705662959E+03  0.67821953546E+01  0.90757689892E+03  0.10347981053E+04  0.00000000000E+00 0. -1.
        -14    1    5    5    0    0 -0.24604014795E+03  0.31117193229E+02  0.35868405205E+03  0.43607141996E+03  0.00000000000E+00 0.  1.
         15    1    3    3    0    0  0.37645344202E+03 -0.31414263547E+02  0.10719273603E+04  0.11365454120E+04  0.17770000000E+01 0. -1.
        -16    1    3    3    0    0  0.26483518493E+03  0.35103868298E+01  0.58653325396E+03  0.64356138480E+03  0.00000000000E+00 0.  1.
          2    1    6    6  502    0  0.52883250191E+02  0.23279272425E+02  0.52409821574E+02  0.78008666652E+02  0.00000000000E+00 0. -1.
         -1    1    6    6    0  502  0.48924900394E+02 -0.33274784292E+02  0.16626061221E+03  0.17647506431E+03  0.00000000000E+00 0.  1.
<mgrwt>
<rscale>  0 0.75233791E+03</rscale>
<asrwt>0</asrwt>
<pdfrwt beam="1">  1        1 0.51145011E+00 0.75233791E+03</pdfrwt>
<pdfrwt beam="2">  1       -2 0.27851391E-01 0.75233791E+03</pdfrwt>
<totfact> 0.37973426E+00</totfact>
</mgrwt>
</event>
<event>
12    3  0.1092576E-007  0.1003909E+04  0.7818608E-02  0.9304268E-01
         -2   -1    0    0    0  501 -0.00000000000E+00  0.00000000000E+00  0.47279175705E+03  0.47279175705E+03  0.00000000000E+00 0.  1.
          1   -1    0    0  501    0  0.00000000000E+00 -0.00000000000E+00 -0.28524925669E+04  0.28524925669E+04  0.00000000000E+00 0. -1.
        -24    2    1    2    0    0 -0.41488468255E+03  0.82015075234E+03 -0.29364384047E+03  0.96813492914E+03  0.79258940122E+02 0.  0.
    5000000    2    1    2    0    0  0.41488468255E+03 -0.82015075234E+03 -0.20860569694E+04  0.23571493948E+04  0.59978582312E+03 0.  0.
        -24    2    4    4    0    0 -0.12698429616E+03 -0.29420746608E+03 -0.76543985248E+03  0.83377956168E+03  0.81284347403E+02 0.  0.
         24    2    4    4    0    0  0.54186897871E+03 -0.52594328626E+03 -0.13206171169E+04  0.15233698332E+04  0.79923392280E+02 0.  0.
         11    1    5    5    0    0 -0.56271826807E+02 -0.52222801482E+02 -0.21674623267E+03  0.22994057681E+03  0.00000000000E+00 0. -1.
        -12    1    5    5    0    0 -0.70712469353E+02 -0.24198466460E+03 -0.54869361982E+03  0.60383898487E+03  0.00000000000E+00 0.  1.
         15    1    3    3    0    0 -0.22166115046E+03  0.52238489412E+03 -0.17394183161E+03  0.59353059040E+03  0.17770000000E+01 0. -1.
        -16    1    3    3    0    0 -0.19322353209E+03  0.29776585823E+03 -0.11970200886E+03  0.37460433874E+03  0.00000000000E+00 0.  1.
          4    1    6    6  502    0  0.34534651026E+03 -0.30428639694E+03 -0.86680941746E+03  0.98143414945E+03  0.00000000000E+00 0. -1.
         -3    1    6    6    0  502  0.19652246844E+03 -0.22165688933E+03 -0.45380769946E+03  0.54193568371E+03  0.00000000000E+00 0.  1.
<mgrwt>
<rscale>  0 0.10039091E+04</rscale>
<asrwt>0</asrwt>
<pdfrwt beam="1">  1        1 0.43884500E+00 0.10039091E+04</pdfrwt>
<pdfrwt beam="2">  1       -2 0.72737194E-01 0.10039091E+04</pdfrwt>
<totfact> 0.11709285E+00</totfact>
</mgrwt>
</event>
<event>
12    3  0.1092576E-007  0.1495854E+04  0.7818608E-02  0.8887215E-01
         -2   -1    0    0    0  501 -0.00000000000E+00  0.00000000000E+00  0.12656829252E+04  0.12656829252E+04  0.00000000000E+00 0.  1.
          1   -1    0    0  501    0  0.00000000000E+00 -0.00000000000E+00 -0.42050068869E+04  0.42050068869E+04  0.00000000000E+00 0. -1.
        -24    2    1    2    0    0 -0.82982964814E+03 -0.11722113599E+04  0.63490735756E+03  0.15723546771E+04  0.80592559675E+02 0.  0.
    5000000    2    1    2    0    0  0.82982964814E+03  0.11722113599E+04 -0.35742313192E+04  0.38983351351E+04  0.59932510782E+03 0.  0.
        -24    2    4    4    0    0  0.12407507192E+02  0.46060271688E+03 -0.10119181556E+04  0.11151029044E+04  0.84660054033E+02 0.  0.
         24    2    4    4    0    0  0.81742214095E+03  0.71160864299E+03 -0.25623131637E+04  0.27832322307E+04  0.79794010019E+02 0.  0.
         11    1    5    5    0    0 -0.35460010284E+02  0.18935695255E+03 -0.39403067255E+03  0.43860419369E+03  0.00000000000E+00 0. -1.
        -12    1    5    5    0    0  0.47867517476E+02  0.27124576433E+03 -0.61788748301E+03  0.67649871068E+03  0.00000000000E+00 0.  1.
         15    1    3    3    0    0 -0.59183487553E+03 -0.77441661669E+03  0.44362957683E+03  0.10708874709E+04  0.17770000000E+01 0. -1.
        -16    1    3    3    0    0 -0.23799477261E+03 -0.39779474319E+03  0.19127778073E+03  0.50146720621E+03  0.00000000000E+00 0.  1.
          4    1    6    6  502    0  0.52435657620E+03  0.49359450240E+03 -0.16343264249E+04  0.17859474278E+04  0.00000000000E+00 0. -1.
         -3    1    6    6    0  502  0.29306556475E+03  0.21801414059E+03 -0.92798673878E+03  0.99728480290E+03  0.00000000000E+00 0.  1.
<mgrwt>
<rscale>  0 0.14958538E+04</rscale>
<asrwt>0</asrwt>
<pdfrwt beam="1">  1        1 0.64692414E+00 0.14958538E+04</pdfrwt>
<pdfrwt beam="2">  1       -2 0.19472045E+00 0.14958538E+04</pdfrwt>
<totfact> 0.75807121E-03</totfact>
</mgrwt>
</event>
<event>
12    3  0.1092576E-007  0.6891324E+03  0.7818608E-02  0.9736000E-01
         -2   -1    0    0    0  501 -0.00000000000E+00  0.00000000000E+00  0.45866432951E+03  0.45866432951E+03  0.00000000000E+00 0.  1.
          1   -1    0    0  501    0  0.00000000000E+00 -0.00000000000E+00 -0.12732658513E+04  0.12732658513E+04  0.00000000000E+00 0. -1.
        -24    2    1    2    0    0 -0.32493913122E+03 -0.55403142110E+03 -0.30493620744E+03  0.71587164434E+03  0.83365856298E+02 0.  0.
    5000000    2    1    2    0    0  0.32493913122E+03  0.55403142110E+03 -0.50966531432E+03  0.10160585364E+04  0.60006663153E+03 0.  0.
        -24    2    4    4    0    0  0.17074049349E+03  0.28139239889E+02  0.80423895928E+02  0.20720837789E+03  0.80766180378E+02 0.  0.
         24    2    4    4    0    0  0.15419863773E+03  0.52589218121E+03 -0.59008921025E+03  0.80885015855E+03  0.75455263488E+02 0.  0.
         13    1    5    5    0    0  0.19798448223E+02  0.30077128207E+02  0.33361703345E+02  0.49087833965E+02  0.00000000000E+00 0. -1.
        -14    1    5    5    0    0  0.15094204527E+03 -0.19378883183E+01  0.47062192582E+02  0.15812054393E+03  0.00000000000E+00 0.  1.
         15    1    3    3    0    0 -0.29558989207E+03 -0.48363743044E+03 -0.23934375931E+03  0.61527810076E+03  0.17770000000E+01 0. -1.
        -16    1    3    3    0    0 -0.29349239150E+02 -0.70393990659E+02 -0.65592448124E+02  0.10059354358E+03  0.00000000000E+00 0.  1.
          2    1    6    6  502    0  0.43320361045E+02  0.17137657031E+03 -0.14144062725E+03  0.22638911981E+03  0.00000000000E+00 0. -1.
         -1    1    6    6    0  502  0.11087827668E+03  0.35451561090E+03 -0.44864858300E+03  0.58246103873E+03  0.00000000000E+00 0.  1.
<mgrwt>
<rscale>  0 0.68913235E+03</rscale>
<asrwt>0</asrwt>
<pdfrwt beam="1">  1        1 0.19588705E+00 0.68913235E+03</pdfrwt>
<pdfrwt beam="2">  1       -2 0.70563744E-01 0.68913235E+03</pdfrwt>
<totfact> 0.15686633E+01</totfact>
</mgrwt>
</event>
<event>
12    3  0.1092576E-007  0.1548415E+04  0.7818608E-02  0.8852881E-01
          1   -1    0    0  501    0  0.00000000000E+00  0.00000000000E+00  0.23303368199E+04  0.23303368199E+04  0.00000000000E+00 0. -1.
         -2   -1    0    0    0  501 -0.00000000000E+00 -0.00000000000E+00 -0.10597922067E+04  0.10597922067E+04  0.00000000000E+00 0.  1.
        -24    2    1    2    0    0  0.72056120094E+03 -0.13192651804E+04  0.79975501203E+03  0.17045106271E+04  0.77970111410E+02 0.  0.
    5000000    2    1    2    0    0 -0.72056120094E+03  0.13192651804E+04  0.47078960121E+03  0.16856183995E+04  0.59999789967E+03 0.  0.
        -24    2    4    4    0    0 -0.11137023198E+03  0.74261170546E+03  0.88006402934E+02  0.76010482606E+03  0.78350149875E+02 0.  0.
         24    2    4    4    0    0 -0.60919096896E+03  0.57665347494E+03  0.38278319828E+03  0.92551357344E+03  0.80059546051E+02 0.  0.
         11    1    5    5    0    0 -0.47296104869E+01  0.10069210441E+03  0.37046641988E+02  0.10739517116E+03  0.00000000000E+00 0. -1.
        -12    1    5    5    0    0 -0.10664062149E+03  0.64191960105E+03  0.50959760946E+02  0.65270965490E+03  0.00000000000E+00 0.  1.
         15    1    3    3    0    0  0.37912234882E+03 -0.61494001328E+03  0.39365503128E+03  0.82271040877E+03  0.17770000000E+01 0. -1.
        -16    1    3    3    0    0  0.34143885212E+03 -0.70432516711E+03  0.40609998075E+03  0.88180021837E+03  0.00000000000E+00 0.  1.
          2    1    6    6  502    0 -0.49662452285E+03  0.49432385714E+03  0.29204792764E+03  0.75913370658E+03  0.00000000000E+00 0. -1.
         -1    1    6    6    0  502 -0.11256644612E+03  0.82329617798E+02  0.90735270636E+02  0.16637986686E+03  0.00000000000E+00 0.  1.
<mgrwt>
<rscale>  0 0.15484152E+04</rscale>
<asrwt>0</asrwt>
<pdfrwt beam="1">  1        1 0.35851336E+00 0.15484152E+04</pdfrwt>
<pdfrwt beam="2">  1       -2 0.16304496E+00 0.15484152E+04</pdfrwt>
<totfact> 0.34999648E-01</totfact>
</mgrwt>
</event>
<event>
12    3  0.1092576E-007  0.1162961E+04  0.7818608E-02  0.9145909E-01
         -2   -1    0    0    0  501 -0.00000000000E+00  0.00000000000E+00  0.50269995067E+03  0.50269995067E+03  0.00000000000E+00 0.  1.
          1   -1    0    0  501    0  0.00000000000E+00 -0.00000000000E+00 -0.30382886051E+04  0.30382886051E+04  0.00000000000E+00 0. -1.
        -24    2    1    2    0    0  0.90987201803E+03  0.66524663715E+03 -0.15961133199E+04  0.19557419005E+04  0.83237453633E+02 0.  0.
    5000000    2    1    2    0    0 -0.90987201803E+03 -0.66524663715E+03 -0.93947533452E+03  0.15852466553E+04  0.59997739678E+03 0.  0.
        -24    2    4    4    0    0 -0.92617769130E+03 -0.62503257014E+03 -0.98407243639E+03  0.14910846241E+04  0.80398797614E+02 0.  0.
         24    2    4    4    0    0  0.16305673278E+02 -0.40214067012E+02  0.44597101868E+02  0.94162031203E+02  0.70672062787E+02 0.  0.
         13    1    5    5    0    0 -0.28901641246E+03 -0.19498995325E+03 -0.35761202904E+03  0.49943761558E+03  0.00000000000E+00 0. -1.
        -14    1    5    5    0    0 -0.63716127885E+03 -0.43004261688E+03 -0.62646040735E+03  0.99164700855E+03  0.00000000000E+00 0.  1.
         15    1    3    3    0    0  0.24233607427E+03  0.15651147232E+03 -0.46574242289E+03  0.54785196547E+03  0.17770000000E+01 0. -1.
        -16    1    3    3    0    0  0.66753594375E+03  0.50873516483E+03 -0.11303708970E+04  0.14078899350E+04  0.00000000000E+00 0.  1.
          4    1    6    6  502    0  0.33005634825E+02  0.42633490924E+01  0.80973894863E+01  0.34250777979E+02  0.00000000000E+00 0. -1.
         -3    1    6    6    0  502 -0.16699961546E+02 -0.44477416105E+02  0.36499712382E+02  0.59911253224E+02  0.00000000000E+00 0.  1.
<mgrwt>
<rscale>  0 0.11629613E+04</rscale>
<asrwt>0</asrwt>
<pdfrwt beam="1">  1        1 0.46742903E+00 0.11629613E+04</pdfrwt>
<pdfrwt beam="2">  1       -2 0.77338452E-01 0.11629613E+04</pdfrwt>
<totfact> 0.73445247E-01</totfact>
</mgrwt>
</event>
<event>
12    3  0.1092576E-007  0.5195306E+03  0.7818608E-02  0.1008803E+00
         -2   -1    0    0    0  501 -0.00000000000E+00  0.00000000000E+00  0.38722359256E+03  0.38722359256E+03  0.00000000000E+00 0.  1.
          1   -1    0    0  501    0  0.00000000000E+00 -0.00000000000E+00 -0.88974924513E+03  0.88974924513E+03  0.00000000000E+00 0. -1.
        -24    2    1    2    0    0  0.33051955520E+03 -0.27225390773E+03 -0.21072390265E+03  0.48410101978E+03  0.81141034959E+02 0.  0.
    5000000    2    1    2    0    0 -0.33051955520E+03  0.27225390773E+03 -0.29180174992E+03  0.79287181792E+03  0.60011006637E+03 0.  0.
        -24    2    4    4    0    0 -0.69194571248E+02  0.32569105118E+03 -0.37141149400E+03  0.50321888771E+03  0.66484596430E+02 0.  0.
         24    2    4    4    0    0 -0.26132498395E+03 -0.53437143447E+02  0.79609744085E+02  0.28965293021E+03  0.80092653154E+02 0.  0.
         11    1    5    5    0    0 -0.87271688242E+01  0.19615237337E+03 -0.22403488056E+03  0.29789854776E+03  0.00000000000E+00 0. -1.
        -12    1    5    5    0    0 -0.60467402424E+02  0.12953867781E+03 -0.14737661344E+03  0.20532033995E+03  0.00000000000E+00 0.  1.
         15    1    3    3    0    0  0.71038623578E+02 -0.43365491598E+02 -0.93750027044E+01  0.83774102836E+02  0.17770000000E+01 0. -1.
        -16    1    3    3    0    0  0.25948093162E+03 -0.22888841614E+03 -0.20134889995E+03  0.40032691694E+03  0.00000000000E+00 0.  1.
          2    1    6    6  502    0 -0.15142640442E+03 -0.81662179400E+01  0.78567190541E+02  0.17079065109E+03  0.00000000000E+00 0. -1.
         -1    1    6    6    0  502 -0.10989857953E+03 -0.45270925507E+02  0.10425535438E+01  0.11886227912E+03  0.00000000000E+00 0.  1.
<mgrwt>
<rscale>  0 0.51953058E+03</rscale>
<asrwt>0</asrwt>
<pdfrwt beam="1">  1        1 0.13688450E+00 0.51953058E+03</pdfrwt>
<pdfrwt beam="2">  1       -2 0.59572861E-01 0.51953058E+03</pdfrwt>
<totfact> 0.44692286E+01</totfact>
</mgrwt>
</event>
<event>
12    3  0.1092576E-007  0.5420475E+03  0.7818608E-02  0.1003352E+00
          1   -1    0    0  501    0  0.00000000000E+00  0.00000000000E+00  0.85447052303E+03  0.85447052303E+03  0.00000000000E+00 0. -1.
         -2   -1    0    0    0  501 -0.00000000000E+00 -0.00000000000E+00 -0.40677630881E+03  0.40677630881E+03  0.00000000000E+00 0.  1.
        -24    2    1    2    0    0  0.14152996467E+03 -0.40002158379E+03  0.79129363297E+02  0.43913312424E+03  0.80798801171E+02 0.  0.
    5000000    2    1    2    0    0 -0.14152996467E+03  0.40002158379E+03  0.36856485092E+03  0.82211370761E+03  0.59998575025E+03 0.  0.
        -24    2    4    4    0    0  0.14568338106E+03 -0.10627828998E+02 -0.39443271814E+02  0.17093885358E+03  0.79546977988E+02 0.  0.
         24    2    4    4    0    0 -0.28721334572E+03  0.41064941279E+03  0.40800812273E+03  0.65117485403E+03  0.80209825565E+02 0.  0.
         11    1    5    5    0    0  0.13064545379E+03  0.99144786129E+01 -0.53885609997E+02  0.14166929959E+03  0.00000000000E+00 0. -1.
        -12    1    5    5    0    0  0.15037927263E+02 -0.20542307611E+02  0.14442338183E+02  0.29269553986E+02  0.00000000000E+00 0.  1.
         15    1    3    3    0    0  0.56382830511E+02 -0.19553724539E+03 -0.11946254236E+01  0.20351516594E+03  0.17770000000E+01 0. -1.
        -16    1    3    3    0    0  0.85147134155E+02 -0.20448433840E+03  0.80323988721E+02  0.23561795829E+03  0.00000000000E+00 0.  1.
          4    1    6    6  502    0 -0.19542946620E+03  0.24693005781E+03  0.21094729211E+03  0.37903283467E+03  0.00000000000E+00 0. -1.
         -3    1    6    6    0  502 -0.91783879524E+02  0.16371935497E+03  0.19706083062E+03  0.27214201935E+03  0.00000000000E+00 0.  1.
<mgrwt>
<rscale>  0 0.54204747E+03</rscale>
<asrwt>0</asrwt>
<pdfrwt beam="1">  1        1 0.13145700E+00 0.54204747E+03</pdfrwt>
<pdfrwt beam="2">  1       -2 0.62580971E-01 0.54204747E+03</pdfrwt>
<totfact> 0.42934061E+01</totfact>
</mgrwt>
</event>
<event>
12    3  0.1092576E-007  0.1424631E+04  0.7818608E-02  0.8936180E-01
         -2   -1    0    0    0  501 -0.00000000000E+00  0.00000000000E+00  0.11077867957E+04  0.11077867957E+04  0.00000000000E+00 0.  1.
          1   -1    0    0  501    0  0.00000000000E+00 -0.00000000000E+00 -0.21162512326E+04  0.21162512326E+04  0.00000000000E+00 0. -1.
        -24    2    1    2    0    0 -0.34939349981E+02 -0.13739077943E+04 -0.10380764513E+04  0.17241639441E+04  0.79342309713E+02 0.  0.
    5000000    2    1    2    0    0  0.34939349981E+02  0.13739077943E+04  0.29612014391E+02  0.14998740841E+04  0.59991833736E+03 0.  0.
        -24    2    4    4    0    0 -0.23986696854E+03  0.73744723714E+03  0.14314675406E+03  0.79251255686E+03  0.78870586549E+02 0.  0.
         24    2    4    4    0    0  0.27480631852E+03  0.63646055711E+03 -0.11353473967E+03  0.70736152725E+03  0.82883289401E+02 0.  0.
         13    1    5    5    0    0 -0.10382711128E+02  0.47020907802E+01  0.45068542716E+01  0.12256511882E+02  0.00000000000E+00 0. -1.
        -14    1    5    5    0    0 -0.22948425741E+03  0.73274514636E+03  0.13863989979E+03  0.78025604498E+03  0.00000000000E+00 0.  1.
         15    1    3    3    0    0 -0.31833479015E+01 -0.50582013443E+03 -0.33611290682E+03  0.60732132019E+03  0.17770000000E+01 0. -1.
        -16    1    3    3    0    0 -0.31756002080E+02 -0.86808765982E+03 -0.70196354447E+03  0.11168426239E+04  0.00000000000E+00 0.  1.
          2    1    6    6  502    0  0.83763741023E+02  0.13467897589E+03 -0.52092585322E+02  0.16693839673E+03  0.00000000000E+00 0. -1.
         -1    1    6    6    0  502  0.19104257749E+03  0.50178158121E+03 -0.61442154348E+02  0.54042313051E+03  0.00000000000E+00 0.  1.
<mgrwt>
<rscale>  0 0.14246306E+04</rscale>
<asrwt>0</asrwt>
<pdfrwt beam="1">  1        1 0.32557711E+00 0.14246306E+04</pdfrwt>
<pdfrwt beam="2">  1       -2 0.17042874E+00 0.14246306E+04</pdfrwt>
<totfact> 0.43887195E-01</totfact>
</mgrwt>
</event>
<event>
12    3  0.1092576E-007  0.5222967E+03  0.7818608E-02  0.1008118E+00
          1   -1    0    0  501    0  0.00000000000E+00  0.00000000000E+00  0.19101485891E+04  0.19101485891E+04  0.00000000000E+00 0. -1.
         -2   -1    0    0    0  501 -0.00000000000E+00 -0.00000000000E+00 -0.24571749443E+03  0.24571749443E+03  0.00000000000E+00 0.  1.
        -24    2    1    2    0    0  0.28106241126E+03 -0.40933191629E+03  0.30295314811E+03  0.58732729398E+03  0.81388227623E+02 0.  0.
    5000000    2    1    2    0    0 -0.28106241126E+03  0.40933191629E+03  0.13614779466E+04  0.15685387896E+04  0.60011918704E+03 0.  0.
        -24    2    4    4    0    0 -0.28397823162E+03  0.25329335746E+03  0.13365858040E+04  0.13918371344E+04  0.77122217604E+02 0.  0.
         24    2    4    4    0    0  0.29158203607E+01  0.15603855883E+03  0.24892142625E+02  0.17670165515E+03  0.79040004547E+02 0.  0.
         13    1    5    5    0    0 -0.26325278248E+02  0.55413445011E+02  0.16472586291E+03  0.17577906609E+03  0.00000000000E+00 0. -1.
        -14    1    5    5    0    0 -0.25765295337E+03  0.19787991245E+03  0.11718599411E+04  0.12160580683E+04  0.00000000000E+00 0.  1.
         15    1    3    3    0    0  0.12665360804E+03 -0.19142979262E+03  0.93208248378E+02  0.24774470171E+03  0.17770000000E+01 0. -1.
        -16    1    3    3    0    0  0.15440880322E+03 -0.21790212367E+03  0.20974489974E+03  0.33958259227E+03  0.00000000000E+00 0.  1.
          4    1    6    6  502    0  0.18260419508E+02  0.32500209380E+02  0.35866546043E+02  0.51731186488E+02  0.00000000000E+00 0. -1.
         -3    1    6    6    0  502 -0.15344599147E+02  0.12353834945E+03 -0.10974403418E+02  0.12497046866E+03  0.00000000000E+00 0.  1.
<mgrwt>
<rscale>  0 0.52229672E+03</rscale>
<asrwt>0</asrwt>
<pdfrwt beam="1">  1        1 0.29386900E+00 0.52229672E+03</pdfrwt>
<pdfrwt beam="2">  1       -2 0.37802693E-01 0.52229672E+03</pdfrwt>
<totfact> 0.21354229E+01</totfact>
</mgrwt>
</event>
<event>
12    3  0.1092576E-007  0.4418943E+03  0.7818608E-02  0.1030167E+00
          1   -1    0    0  501    0  0.00000000000E+00  0.00000000000E+00  0.15230471018E+03  0.15230471018E+03  0.00000000000E+00 0. -1.
         -2   -1    0    0    0  501 -0.00000000000E+00 -0.00000000000E+00 -0.18186171929E+04  0.18186171929E+04  0.00000000000E+00 0.  1.
        -24    2    1    2    0    0  0.49093214833E+02  0.29612973041E+03 -0.23350465876E+03  0.38881846767E+03  0.80946983647E+02 0.  0.
    5000000    2    1    2    0    0 -0.49093214833E+02 -0.29612973041E+03 -0.14328078240E+04  0.15821034354E+04  0.60000838241E+03 0.  0.
        -24    2    4    4    0    0  0.19183758805E+03 -0.26501816333E+03 -0.41973260419E+03  0.53720534436E+03  0.73333729604E+02 0.  0.
         24    2    4    4    0    0 -0.24093080289E+03 -0.31111567080E+02 -0.10130752198E+04  0.10448980911E+04  0.80467623260E+02 0.  0.
         11    1    5    5    0    0  0.68824939956E+02 -0.44182834169E+02 -0.11809344611E+03  0.14364907661E+03  0.00000000000E+00 0. -1.
        -12    1    5    5    0    0  0.12301264810E+03 -0.22083532917E+03 -0.30163915808E+03  0.39355626775E+03  0.00000000000E+00 0.  1.
         15    1    3    3    0    0  0.52221837803E+02  0.19527856323E+03 -0.11278025635E+03  0.23148084489E+03  0.17770000000E+01 0. -1.
        -16    1    3    3    0    0 -0.31286229702E+01  0.10085116718E+03 -0.12072440241E+03  0.15733762278E+03  0.00000000000E+00 0.  1.
          2    1    6    6  502    0 -0.83852713272E+02 -0.30088679890E+02 -0.51472725995E+03  0.52237989846E+03  0.00000000000E+00 0. -1.
         -1    1    6    6    0  502 -0.15707808962E+03 -0.10228871897E+01 -0.49834795983E+03  0.52251819260E+03  0.00000000000E+00 0.  1.
<mgrwt>
<rscale>  0 0.44189433E+03</rscale>
<asrwt>0</asrwt>
<pdfrwt beam="1">  1        1 0.23431492E-01 0.44189433E+03</pdfrwt>
<pdfrwt beam="2">  1       -2 0.27978728E+00 0.44189433E+03</pdfrwt>
<totfact> 0.84701875E+00</totfact>
</mgrwt>
</event>
<event>
12    3  0.1092576E-007  0.8654518E+03  0.7818608E-02  0.9469830E-01
          1   -1    0    0  501    0  0.00000000000E+00  0.00000000000E+00  0.22970487478E+04  0.22970487478E+04  0.00000000000E+00 0. -1.
         -2   -1    0    0    0  501 -0.00000000000E+00 -0.00000000000E+00 -0.38102924657E+03  0.38102924657E+03  0.00000000000E+00 0.  1.
        -24    2    1    2    0    0  0.50968859888E+03  0.66246357197E+03  0.93014314773E+03  0.12531116506E+04  0.80511375433E+02 0.  0.
    5000000    2    1    2    0    0 -0.50968859888E+03 -0.66246357197E+03  0.98587635348E+03  0.14249663438E+04  0.59994703472E+03 0.  0.
        -24    2    4    4    0    0 -0.52278862025E+03 -0.54572163983E+03  0.47874850295E+03  0.89839517298E+03  0.82423953549E+02 0.  0.
         24    2    4    4    0    0  0.13100021370E+02 -0.11674193214E+03  0.50712785054E+03  0.52657117078E+03  0.79361526101E+02 0.  0.
         11    1    5    5    0    0 -0.40941673755E+03 -0.40257687208E+03  0.32565531925E+03  0.66010725634E+03  0.00000000000E+00 0. -1.
        -12    1    5    5    0    0 -0.11337188270E+03 -0.14314476775E+03  0.15309318370E+03  0.23828791664E+03  0.00000000000E+00 0.  1.
         15    1    3    3    0    0  0.28164420153E+03  0.38260083220E+03  0.58553865727E+03  0.75403284407E+03  0.17770000000E+01 0. -1.
        -16    1    3    3    0    0  0.22804439735E+03  0.27986273977E+03  0.34460449046E+03  0.49907880653E+03  0.00000000000E+00 0.  1.
          4    1    6    6  502    0  0.21098667642E+02 -0.98395128367E-01  0.13107557181E+03  0.13276282982E+03  0.00000000000E+00 0. -1.
         -3    1    6    6    0  502 -0.79986462716E+01 -0.11664353701E+03  0.37605227873E+03  0.39380834096E+03  0.00000000000E+00 0.  1.
<mgrwt>
<rscale>  0 0.86545179E+03</rscale>
<asrwt>0</asrwt>
<pdfrwt beam="1">  1        1 0.35339211E+00 0.86545179E+03</pdfrwt>
<pdfrwt beam="2">  1       -2 0.58619886E-01 0.86545179E+03</pdfrwt>
<totfact> 0.46064138E+00</totfact>
</mgrwt>
</event>
<event>
12    3  0.1092576E-007  0.1288247E+04  0.7818608E-02  0.9038937E-01
          1   -1    0    0  501    0  0.00000000000E+00  0.00000000000E+00  0.17698328650E+04  0.17698328650E+04  0.00000000000E+00 0. -1.
         -2   -1    0    0    0  501 -0.00000000000E+00 -0.00000000000E+00 -0.13965314972E+04  0.13965314972E+04  0.00000000000E+00 0.  1.
        -24    2    1    2    0    0 -0.73106451974E+03  0.10291594990E+04  0.10213164977E+04  0.16257055181E+04  0.78780940575E+02 0.  0.
    5000000    2    1    2    0    0  0.73106451974E+03 -0.10291594990E+04 -0.64801512988E+03  0.15406588441E+04  0.60006787861E+03 0.  0.
        -24    2    4    4    0    0  0.19952048881E+03 -0.58885580058E+03 -0.58454881958E+02  0.62946371591E+03  0.79044399475E+02 0.  0.
         24    2    4    4    0    0  0.53154403093E+03 -0.44030369841E+03 -0.58956024792E+03  0.91119512818E+03  0.79302408836E+02 0.  0.
         11    1    5    5    0    0  0.12888926347E+03 -0.32514664059E+03  0.23551839679E+01  0.34976896234E+03  0.00000000000E+00 0. -1.
        -12    1    5    5    0    0  0.70631225342E+02 -0.26370915999E+03 -0.60810065926E+02  0.27969475357E+03  0.00000000000E+00 0.  1.
         15    1    3    3    0    0 -0.37285224188E+03  0.51248449504E+03  0.56245261598E+03  0.84735780806E+03  0.17770000000E+01 0. -1.
        -16    1    3    3    0    0 -0.35821227786E+03  0.51667500395E+03  0.45886388174E+03  0.77834771001E+03  0.00000000000E+00 0.  1.
          2    1    6    6  502    0  0.33909593101E+02 -0.16974338466E+02 -0.13769478091E+02  0.40343366215E+02  0.00000000000E+00 0. -1.
         -1    1    6    6    0  502  0.49763443783E+03 -0.42332935994E+03 -0.57579076983E+03  0.87085176197E+03  0.00000000000E+00 0.  1.
<mgrwt>
<rscale>  0 0.12882473E+04</rscale>
<asrwt>0</asrwt>
<pdfrwt beam="1">  1        1 0.27228198E+00 0.12882473E+04</pdfrwt>
<pdfrwt beam="2">  1       -2 0.21485100E+00 0.12882473E+04</pdfrwt>
<totfact> 0.38488272E-01</totfact>
</mgrwt>
</event>
<event>
12    3  0.1092576E-007  0.1040312E+04  0.7818608E-02  0.9265404E-01
          1   -1    0    0  501    0  0.00000000000E+00  0.00000000000E+00  0.96911486065E+03  0.96911486065E+03  0.00000000000E+00 0. -1.
         -2   -1    0    0    0  501 -0.00000000000E+00 -0.00000000000E+00 -0.13330981779E+04  0.13330981779E+04  0.00000000000E+00 0.  1.
        -24    2    1    2    0    0 -0.10058248099E+04 -0.13030015472E+03  0.12742733310E+03  0.10253928137E+04  0.80814717112E+02 0.  0.
    5000000    2    1    2    0    0  0.10058248099E+04  0.13030015472E+03 -0.49141065032E+03  0.12768202248E+04  0.60010314172E+03 0.  0.
        -24    2    4    4    0    0  0.17522263303E+03 -0.86507501234E+02  0.97673354197E+02  0.23265325366E+03  0.80005833684E+02 0.  0.
         24    2    4    4    0    0  0.83060217691E+03  0.21680765596E+03 -0.58908400452E+03  0.10441669712E+04  0.79744362537E+02 0.  0.
         13    1    5    5    0    0  0.16254994675E+03 -0.61605254553E+02  0.56287647528E+02  0.18271834018E+03  0.00000000000E+00 0. -1.
        -14    1    5    5    0    0  0.12672686284E+02 -0.24902246681E+02  0.41385706669E+02  0.49934913477E+02  0.00000000000E+00 0.  1.
         15    1    3    3    0    0 -0.96786439627E+03 -0.10953188853E+03  0.11868419328E+03  0.98124809280E+03  0.17770000000E+01 0. -1.
        -16    1    3    3    0    0 -0.37960413673E+02 -0.20768266192E+02  0.87431398192E+01  0.44144720871E+02  0.00000000000E+00 0.  1.
          2    1    6    6  502    0  0.69434776075E+03  0.15263683832E+03 -0.47113890087E+03  0.85287084672E+03  0.00000000000E+00 0. -1.
         -1    1    6    6    0  502  0.13625441616E+03  0.64170817635E+02 -0.11794510365E+03  0.19129612446E+03  0.00000000000E+00 0.  1.
<mgrwt>
<rscale>  0 0.10403120E+04</rscale>
<asrwt>0</asrwt>
<pdfrwt beam="1">  1        1 0.14909460E+00 0.10403120E+04</pdfrwt>
<pdfrwt beam="2">  1       -2 0.20509203E+00 0.10403120E+04</pdfrwt>
<totfact> 0.17151412E+00</totfact>
</mgrwt>
</event>
<event>
12    3  0.1138878E-007  0.9157269E+03  0.7818608E-02  0.9406133E-01
         -2   -1    0    0    0  501 -0.00000000000E+00  0.00000000000E+00  0.10632683779E+04  0.10632683779E+04  0.00000000000E+00 0.  1.
          1   -1    0    0  501    0  0.00000000000E+00 -0.00000000000E+00 -0.11128231610E+04  0.11128231610E+04  0.00000000000E+00 0. -1.
        -24    2    1    2    0    0  0.77810879097E+03  0.36075452542E+03 -0.54387115299E+03  0.10185814684E+04  0.78200117943E+02 0.  0.
    5000000    2    1    2    0    0 -0.77810879097E+03 -0.36075452542E+03  0.49431636984E+03  0.11575100705E+04  0.59990313527E+03 0.  0.
        -24    2    4    4    0    0 -0.69406198466E+02 -0.23448285917E+03 -0.36352801543E+02  0.25955308949E+03  0.79037006876E+02 0.  0.
         24    2    4    4    0    0 -0.70870259251E+03 -0.12627166626E+03  0.53066917139E+03  0.89795698105E+03  0.80703606040E+02 0.  0.
         13    1    5    5    0    0 -0.42791202909E+02 -0.19639532559E+03 -0.73064785777E+00  0.20100434027E+03  0.00000000000E+00 0. -1.
        -14    1    5    5    0    0 -0.26614995557E+02 -0.38087533575E+02 -0.35622153685E+02  0.58548749222E+02  0.00000000000E+00 0.  1.
         15    1    3    3    0    0  0.47005779729E+03  0.18381370810E+03 -0.29201398702E+03  0.58310988538E+03  0.17770000000E+01 0. -1.
        -16    1    3    3    0    0  0.30805099368E+03  0.17694081732E+03 -0.25185716597E+03  0.43547158299E+03  0.00000000000E+00 0.  1.
          2    1    6    6  502    0 -0.37365694992E+03 -0.10577345334E+03  0.29877046160E+03  0.48997074236E+03  0.00000000000E+00 0. -1.
         -1    1    6    6    0  502 -0.33504564259E+03 -0.20498212917E+02  0.23189870979E+03  0.40798623868E+03  0.00000000000E+00 0.  1.
<mgrwt>
<rscale>  0 0.91572688E+03</rscale>
<asrwt>0</asrwt>
<pdfrwt beam="1">  1        1 0.17120356E+00 0.91572688E+03</pdfrwt>
<pdfrwt beam="2">  1       -2 0.16357975E+00 0.91572688E+03</pdfrwt>
<totfact> 0.25932523E+00</totfact>
</mgrwt>
</event>
<event>
12    3  0.1092576E-007  0.1394415E+04  0.7818608E-02  0.8957871E-01
          1   -1    0    0  501    0  0.00000000000E+00  0.00000000000E+00  0.12637035994E+04  0.12637035994E+04  0.00000000000E+00 0. -1.
         -2   -1    0    0    0  501 -0.00000000000E+00 -0.00000000000E+00 -0.16170774226E+04  0.16170774226E+04  0.00000000000E+00 0.  1.
        -24    2    1    2    0    0  0.13613995214E+04  0.10125717512E+03 -0.14781088004E+03  0.13754241010E+04  0.79257358903E+02 0.  0.
    5000000    2    1    2    0    0 -0.13613995214E+04 -0.10125717512E+03 -0.20556294310E+03  0.15053569210E+04  0.60015136727E+03 0.  0.
        -24    2    4    4    0    0 -0.26255158342E+03  0.13541868928E+03  0.12539966506E+03  0.33078915278E+03  0.80155051240E+02 0.  0.
         24    2    4    4    0    0 -0.10988479380E+04 -0.23667586440E+03 -0.33096260816E+03  0.11745677682E+04  0.81184595406E+02 0.  0.
         13    1    5    5    0    0 -0.16718569173E+03  0.87644339608E+02  0.37230166215E+02  0.19240236761E+03  0.00000000000E+00 0. -1.
        -14    1    5    5    0    0 -0.95365891687E+02  0.47774349670E+02  0.88169498846E+02  0.13838678517E+03  0.00000000000E+00 0.  1.
         15    1    3    3    0    0  0.96664906918E+03  0.35779919914E+02 -0.10345772993E+03  0.97282952527E+03  0.17770000000E+01 0. -1.
        -16    1    3    3    0    0  0.39475045221E+03  0.65477255208E+02 -0.44353150106E+02  0.40259457571E+03  0.00000000000E+00 0.  1.
          2    1    6    6  502    0 -0.38732422563E+03 -0.51614644965E+02 -0.91039571260E+02  0.40121357264E+03  0.00000000000E+00 0. -1.
         -1    1    6    6    0  502 -0.71152371234E+03 -0.18506121944E+03 -0.23992303690E+03  0.77335419556E+03  0.00000000000E+00 0.  1.
<mgrwt>
<rscale>  0 0.13944151E+04</rscale>
<asrwt>0</asrwt>
<pdfrwt beam="1">  1        1 0.19441594E+00 0.13944151E+04</pdfrwt>
<pdfrwt beam="2">  1       -2 0.24878114E+00 0.13944151E+04</pdfrwt>
<totfact> 0.52573828E-01</totfact>
</mgrwt>
</event>
<event>
12    3  0.1092576E-007  0.5221401E+03  0.7818608E-02  0.1008156E+00
          1   -1    0    0  501    0  0.00000000000E+00  0.00000000000E+00  0.37667334523E+04  0.37667334523E+04  0.00000000000E+00 0. -1.
         -2   -1    0    0    0  501 -0.00000000000E+00 -0.00000000000E+00 -0.85874295666E+02  0.85874295666E+02  0.00000000000E+00 0.  1.
        -24    2    1    2    0    0 -0.87410500350E+02 -0.38071920047E+03  0.96801580357E+03  0.10468795732E+04  0.79464078245E+02 0.  0.
    5000000    2    1    2    0    0  0.87410500350E+02  0.38071920047E+03  0.27128433531E+04  0.28057281748E+04  0.60000318917E+03 0.  0.
        -24    2    4    4    0    0  0.29500532753E+03  0.17922850421E+03  0.88229981602E+03  0.95073218347E+03  0.79295140694E+02 0.  0.
         24    2    4    4    0    0 -0.20759482718E+03  0.20149069626E+03  0.18305435371E+04  0.18549959913E+04  0.80164665702E+02 0.  0.
         11    1    5    5    0    0  0.17196219261E+03  0.14880498245E+03  0.57108555596E+03  0.61469718620E+03  0.00000000000E+00 0. -1.
        -12    1    5    5    0    0  0.12304313492E+03  0.30423521762E+02  0.31121426006E+03  0.33603499727E+03  0.00000000000E+00 0.  1.
         15    1    3    3    0    0 -0.73631517691E+02 -0.17213634694E+03  0.40094322753E+03  0.44250553869E+03  0.17770000000E+01 0. -1.
        -16    1    3    3    0    0 -0.13778982658E+02 -0.20858285352E+03  0.56707257604E+03  0.60437403455E+03  0.00000000000E+00 0.  1.
          4    1    6    6  502    0 -0.16259987558E+03  0.18407942320E+03  0.16472175713E+04  0.16654277771E+04  0.00000000000E+00 0. -1.
         -3    1    6    6    0  502 -0.44994951603E+02  0.17411273064E+02  0.18332596582E+03  0.18956821423E+03  0.00000000000E+00 0.  1.
<mgrwt>
<rscale>  0 0.52214010E+03</rscale>
<asrwt>0</asrwt>
<pdfrwt beam="1">  1        1 0.57949732E+00 0.52214010E+03</pdfrwt>
<pdfrwt beam="2">  1       -2 0.13211433E-01 0.52214010E+03</pdfrwt>
<totfact> 0.66181498E+00</totfact>
</mgrwt>
</event>
<event>
12    3  0.1092576E-007  0.7911080E+03  0.7818608E-02  0.9572978E-01
         -4   -1    0    0    0  501 -0.00000000000E+00  0.00000000000E+00  0.37231371125E+03  0.37231371125E+03  0.00000000000E+00 0.  1.
          3   -1    0    0  501    0  0.00000000000E+00 -0.00000000000E+00 -0.30574750851E+04  0.30574750851E+04  0.00000000000E+00 0. -1.
        -24    2    1    2    0    0  0.50105468766E+03  0.48269070444E+03 -0.12723578380E+03  0.71192510366E+03  0.81254491316E+02 0.  0.
    5000000    2    1    2    0    0 -0.50105468766E+03 -0.48269070444E+03 -0.25579255901E+04  0.27178636927E+04  0.59979464121E+03 0.  0.
        -24    2    4    4    0    0 -0.44289772445E+03 -0.49265855133E+02 -0.99661393815E+03  0.10946114951E+04  0.79683527811E+02 0.  0.
         24    2    4    4    0    0 -0.58156963209E+02 -0.43342484931E+03 -0.15613116519E+04  0.16232521976E+04  0.77551856008E+02 0.  0.
         11    1    5    5    0    0 -0.38527506026E+03 -0.49490038918E+02 -0.92084256814E+03  0.99941841654E+03  0.00000000000E+00 0. -1.
        -12    1    5    5    0    0 -0.57622664185E+02  0.22418378563E+00 -0.75771370013E+02  0.95193078529E+02  0.00000000000E+00 0.  1.
         15    1    3    3    0    0  0.46195270055E+03  0.42056728804E+03 -0.13143292443E+03  0.63840027621E+03  0.17770000000E+01 0. -1.
        -16    1    3    3    0    0  0.39101987109E+02  0.62123416407E+02  0.41971406279E+01  0.73524827449E+02  0.00000000000E+00 0.  1.
          2    1    6    6  502    0  0.88784323959E-01 -0.66826795395E+02 -0.15532265030E+03  0.16908859855E+03  0.00000000000E+00 0. -1.
         -1    1    6    6    0  502 -0.58245747533E+02 -0.36659805391E+03 -0.14059890016E+04  0.14541635991E+04  0.00000000000E+00 0.  1.
<mgrwt>
<rscale>  0 0.79110801E+03</rscale>
<asrwt>0</asrwt>
<pdfrwt beam="1">  1        3 0.47038079E+00 0.79110801E+03</pdfrwt>
<pdfrwt beam="2">  1       -4 0.57279032E-01 0.79110801E+03</pdfrwt>
<totfact> 0.32566548E-02</totfact>
</mgrwt>
</event>
<event>
12    3  0.1092576E-007  0.5247057E+03  0.7818608E-02  0.1007524E+00
          1   -1    0    0  501    0  0.00000000000E+00  0.00000000000E+00  0.65707739907E+03  0.65707739907E+03  0.00000000000E+00 0. -1.
         -2   -1    0    0    0  501 -0.00000000000E+00 -0.00000000000E+00 -0.76851929746E+03  0.76851929746E+03  0.00000000000E+00 0.  1.
        -24    2    1    2    0    0 -0.37436970278E+03  0.13541200834E+03 -0.47035922617E+03  0.62101889027E+03  0.77055655583E+02 0.  0.
    5000000    2    1    2    0    0  0.37436970278E+03 -0.13541200834E+03  0.35891732778E+03  0.80457780626E+03  0.60002892580E+03 0.  0.
        -24    2    4    4    0    0 -0.12305983186E+03  0.13305235852E+02  0.21114968540E+03  0.25883446513E+03  0.84204151786E+02 0.  0.
         24    2    4    4    0    0  0.49742953464E+03 -0.14871724420E+03  0.14776764238E+03  0.54574334113E+03  0.80296684868E+02 0.  0.
         13    1    5    5    0    0 -0.10484994064E+02  0.11254203798E+02 -0.40970911222E+01  0.15917862900E+02  0.00000000000E+00 0. -1.
        -14    1    5    5    0    0 -0.11257483780E+03  0.20510320539E+01  0.21524677652E+03  0.24291660223E+03  0.00000000000E+00 0.  1.
         15    1    3    3    0    0 -0.12270738517E+03  0.49105676400E+02 -0.21416244536E+03  0.25166879140E+03  0.17770000000E+01 0. -1.
        -16    1    3    3    0    0 -0.25166231760E+03  0.86306331945E+02 -0.25619678081E+03  0.36935009887E+03  0.00000000000E+00 0.  1.
          4    1    6    6  502    0  0.24647260306E+03 -0.39937548300E+02  0.45900463674E+02  0.25387123584E+03  0.00000000000E+00 0. -1.
         -3    1    6    6    0  502  0.25095693158E+03 -0.10877969590E+03  0.10186717870E+03  0.29187210529E+03  0.00000000000E+00 0.  1.
<mgrwt>
<rscale>  0 0.52470571E+03</rscale>
<asrwt>0</asrwt>
<pdfrwt beam="1">  1        1 0.10108883E+00 0.52470571E+03</pdfrwt>
<pdfrwt beam="2">  1       -2 0.11823374E+00 0.52470571E+03</pdfrwt>
<totfact> 0.15139621E+01</totfact>
</mgrwt>
</event>
<event>
12    3  0.1092576E-007  0.2233300E+04  0.7818608E-02  0.8504695E-01
         -2   -1    0    0    0  501 -0.00000000000E+00  0.00000000000E+00  0.12935445948E+04  0.12935445948E+04  0.00000000000E+00 0.  1.
          1   -1    0    0  501    0  0.00000000000E+00 -0.00000000000E+00 -0.38931327399E+04  0.38931327399E+04  0.00000000000E+00 0. -1.
        -24    2    1    2    0    0  0.73055489305E+03  0.20714889017E+04 -0.14754866856E+04  0.26473150502E+04  0.80245210494E+02 0.  0.
    5000000    2    1    2    0    0 -0.73055489305E+03 -0.20714889017E+04 -0.11241014595E+04  0.25393622845E+04  0.59998333231E+03 0.  0.
        -24    2    4    4    0    0 -0.40148237284E+03 -0.41244928614E+03 -0.33827551130E+03  0.67260829492E+03  0.81664481310E+02 0.  0.
         24    2    4    4    0    0 -0.32907252020E+03 -0.16590396156E+04 -0.78582594821E+03  0.18667539896E+04  0.80912713283E+02 0.  0.
         11    1    5    5    0    0 -0.15693175386E+03 -0.19176415645E+03 -0.18531162216E+03  0.30942117635E+03  0.00000000000E+00 0. -1.
        -12    1    5    5    0    0 -0.24455061898E+03 -0.22068512969E+03 -0.15296388914E+03  0.36318711857E+03  0.00000000000E+00 0.  1.
         15    1    3    3    0    0  0.43029311872E+03  0.11012402767E+04 -0.78641817691E+03  0.14199785286E+04  0.17770000000E+01 0. -1.
        -16    1    3    3    0    0  0.30026177433E+03  0.97024862501E+03 -0.68906850868E+03  0.12273365215E+04  0.00000000000E+00 0.  1.
          4    1    6    6  502    0 -0.16977850744E+03 -0.81558249721E+03 -0.34330147334E+03  0.90103021755E+03  0.00000000000E+00 0. -1.
         -3    1    6    6    0  502 -0.15929401276E+03 -0.84345711840E+03 -0.44252447487E+03  0.96572377207E+03  0.00000000000E+00 0.  1.
<mgrwt>
<rscale>  0 0.22332997E+04</rscale>
<asrwt>0</asrwt>
<pdfrwt beam="1">  1        1 0.59894349E+00 0.22332997E+04</pdfrwt>
<pdfrwt beam="2">  1       -2 0.19900686E+00 0.22332997E+04</pdfrwt>
<totfact> 0.12282754E-02</totfact>
</mgrwt>
</event>
<event>
12    3  0.1092576E-007  0.5222734E+03  0.7818608E-02  0.1008123E+00
         -2   -1    0    0    0  501 -0.00000000000E+00  0.00000000000E+00  0.37961323737E+03  0.37961323737E+03  0.00000000000E+00 0.  1.
          1   -1    0    0  501    0  0.00000000000E+00 -0.00000000000E+00 -0.16272977897E+04  0.16272977897E+04  0.00000000000E+00 0. -1.
        -24    2    1    2    0    0  0.15548610333E+03  0.35320074370E+03  0.16275605764E+03  0.42618917294E+03  0.78873209356E+02 0.  0.
    5000000    2    1    2    0    0 -0.15548610333E+03 -0.35320074370E+03 -0.14104406100E+04  0.15807218542E+04  0.60034337860E+03 0.  0.
        -24    2    4    4    0    0  0.15618530573E+03  0.24089302364E+02 -0.64511262459E+03  0.66897080681E+03  0.79859237078E+02 0.  0.
         24    2    4    4    0    0 -0.31167140906E+03 -0.37729004606E+03 -0.76532798540E+03  0.91175104735E+03  0.77949990495E+02 0.  0.
         13    1    5    5    0    0  0.81479821205E+01  0.10382633391E+01 -0.17556619223E+01  0.83994018943E+01  0.00000000000E+00 0. -1.
        -14    1    5    5    0    0  0.14803732361E+03  0.23051039025E+02 -0.64335696267E+03  0.66057140492E+03  0.00000000000E+00 0.  1.
         15    1    3    3    0    0  0.60620006068E+02  0.23290626401E+03  0.10126494392E+03  0.26110890362E+03  0.17770000000E+01 0. -1.
        -16    1    3    3    0    0  0.94866097266E+02  0.12029447969E+03  0.61491113716E+02  0.16508026932E+03  0.00000000000E+00 0.  1.
          2    1    6    6  502    0 -0.18431848221E+03 -0.17871113746E+03 -0.34940943898E+03  0.43358728024E+03  0.00000000000E+00 0. -1.
         -1    1    6    6    0  502 -0.12735292685E+03 -0.19857890861E+03 -0.41591854642E+03  0.47816376711E+03  0.00000000000E+00 0.  1.
<mgrwt>
<rscale>  0 0.52227339E+03</rscale>
<asrwt>0</asrwt>
<pdfrwt beam="1">  1        1 0.25035350E+00 0.52227339E+03</pdfrwt>
<pdfrwt beam="2">  1       -2 0.58402037E-01 0.52227339E+03</pdfrwt>
<totfact> 0.13787326E+01</totfact>
</mgrwt>
</event>
<event>
12    3  0.1092576E-007  0.6005408E+03  0.7818608E-02  0.9904285E-01
          3   -1    0    0  501    0  0.00000000000E+00  0.00000000000E+00  0.14177755421E+04  0.14177755421E+04  0.00000000000E+00 0. -1.
         -2   -1    0    0    0  501 -0.00000000000E+00 -0.00000000000E+00 -0.26335362618E+03  0.26335362618E+03  0.00000000000E+00 0.  1.
        -24    2    1    2    0    0  0.42913999276E+03 -0.16285766852E+03  0.46888761748E+03  0.66102929826E+03  0.80127284670E+02 0.  0.
    5000000    2    1    2    0    0 -0.42913999276E+03  0.16285766852E+03  0.68553429846E+03  0.10200998700E+04  0.59996892995E+03 0.  0.
        -24    2    4    4    0    0  0.11936583683E+03 -0.61284640553E+02  0.17405838437E+03  0.23352413382E+03  0.78950552507E+02 0.  0.
         24    2    4    4    0    0 -0.54850582959E+03  0.22414230907E+03  0.51147591409E+03  0.78657573621E+03  0.77429699052E+02 0.  0.
         11    1    5    5    0    0  0.96263655179E+02 -0.21290145266E+02  0.15469795907E+03  0.18344323410E+03  0.00000000000E+00 0. -1.
        -12    1    5    5    0    0  0.23102181648E+02 -0.39994495287E+02  0.19360425292E+02  0.50080899728E+02  0.00000000000E+00 0.  1.
         15    1    3    3    0    0  0.20458572924E+03 -0.71051606160E+02  0.27758578201E+03  0.35208049569E+03  0.17770000000E+01 0. -1.
        -16    1    3    3    0    0  0.22455426352E+03 -0.91806062360E+02  0.19130183547E+03  0.30894880257E+03  0.00000000000E+00 0.  1.
          4    1    6    6  502    0 -0.26680421588E+03  0.14894164122E+03  0.27689290130E+03  0.41235637608E+03  0.00000000000E+00 0. -1.
         -3    1    6    6    0  502 -0.28170161370E+03  0.75200667853E+02  0.23458301280E+03  0.37421936014E+03  0.00000000000E+00 0.  1.
<mgrwt>
<rscale>  0 0.60054081E+03</rscale>
<asrwt>0</asrwt>
<pdfrwt beam="1">  1        3 0.21811931E+00 0.60054081E+03</pdfrwt>
<pdfrwt beam="2">  1       -2 0.40515943E-01 0.60054081E+03</pdfrwt>
<totfact> 0.27620977E+00</totfact>
</mgrwt>
</event>
<event>
12    3  0.1092576E-007  0.9539029E+03  0.7818608E-02  0.9360600E-01
          1   -1    0    0  501    0  0.00000000000E+00  0.00000000000E+00  0.74127296070E+03  0.74127296070E+03  0.00000000000E+00 0. -1.
         -2   -1    0    0    0  501 -0.00000000000E+00 -0.00000000000E+00 -0.22576183370E+04  0.22576183370E+04  0.00000000000E+00 0.  1.
        -24    2    1    2    0    0 -0.79813527824E+03 -0.44243047951E+03 -0.16614384332E+04  0.18971771220E+04  0.78349941449E+02 0.  0.
    5000000    2    1    2    0    0  0.79813527824E+03  0.44243047951E+03  0.14509305689E+03  0.11017141757E+04  0.59996456414E+03 0.  0.
        -24    2    4    4    0    0  0.75901979044E+03  0.26020351487E+03  0.28539559375E+03  0.85538835354E+03  0.80135379267E+02 0.  0.
         24    2    4    4    0    0  0.39115487801E+02  0.18222696464E+03 -0.14030253686E+03  0.24632582217E+03  0.79088057174E+02 0.  0.
         11    1    5    5    0    0  0.64355133146E+03  0.20053959768E+03  0.26267673013E+03  0.72344558262E+03  0.00000000000E+00 0. -1.
        -12    1    5    5    0    0  0.11546845899E+03  0.59663917193E+02  0.22718863621E+02  0.13194277093E+03  0.00000000000E+00 0.  1.
         15    1    3    3    0    0 -0.62678239365E+03 -0.34822071877E+03 -0.12352842612E+04  0.14283011593E+04  0.17770000000E+01 0. -1.
        -16    1    3    3    0    0 -0.17135288459E+03 -0.94209760743E+02 -0.42615417196E+03  0.46887596266E+03  0.00000000000E+00 0.  1.
          2    1    6    6  502    0  0.47996855865E+02  0.13858528710E+03 -0.68586899658E+02  0.16190658658E+03  0.00000000000E+00 0. -1.
         -1    1    6    6    0  502 -0.88813680638E+01  0.43641677542E+02 -0.71715637203E+02  0.84419235585E+02  0.00000000000E+00 0.  1.
<mgrwt>
<rscale>  0 0.95390295E+03</rscale>
<asrwt>0</asrwt>
<pdfrwt beam="1">  1        1 0.11404200E+00 0.95390295E+03</pdfrwt>
<pdfrwt beam="2">  1       -2 0.34732589E+00 0.95390295E+03</pdfrwt>
<totfact> 0.36178853E-01</totfact>
</mgrwt>
</event>
<event>
12    3  0.1092576E-007  0.3297415E+03  0.7818608E-02  0.1071251E+00
         -2   -1    0    0    0  501 -0.00000000000E+00  0.00000000000E+00  0.72146860833E+02  0.72146860833E+02  0.00000000000E+00 0.  1.
          1   -1    0    0  501    0  0.00000000000E+00 -0.00000000000E+00 -0.18129244115E+04  0.18129244115E+04  0.00000000000E+00 0. -1.
        -24    2    1    2    0    0 -0.24299883141E+01 -0.78320026022E+02 -0.29644276576E+03  0.31915153892E+03  0.88540725691E+02 0.  0.
    5000000    2    1    2    0    0  0.24299883141E+01  0.78320026022E+02 -0.14443347849E+04  0.15659197334E+04  0.59988474665E+03 0.  0.
        -24    2    4    4    0    0 -0.26961156753E+03  0.39452136083E+02 -0.99381678083E+03  0.10326884833E+04  0.67281804676E+02 0.  0.
         24    2    4    4    0    0  0.27204155584E+03  0.38867889939E+02 -0.45051800405E+03  0.53323125011E+03  0.76496883263E+02 0.  0.
         13    1    5    5    0    0 -0.19559511299E+03  0.23889048602E+02 -0.81599279687E+03  0.83944766329E+03  0.00000000000E+00 0. -1.
        -14    1    5    5    0    0 -0.74016454539E+02  0.15563087481E+02 -0.17782398396E+03  0.19324081998E+03  0.00000000000E+00 0.  1.
         15    1    3    3    0    0 -0.34647850330E+02 -0.35694841477E+02 -0.22203890698E+03  0.22755005863E+03  0.17770000000E+01 0. -1.
        -16    1    3    3    0    0  0.32217862015E+02 -0.42625184545E+02 -0.74403858775E+02  0.91601480288E+02  0.00000000000E+00 0.  1.
          4    1    6    6  502    0  0.23199970702E+03  0.64794531590E+01 -0.38927883400E+03  0.45321502399E+03  0.00000000000E+00 0. -1.
         -3    1    6    6    0  502  0.40041848821E+02  0.32388436780E+02 -0.61239170048E+02  0.80016226119E+02  0.00000000000E+00 0.  1.
<mgrwt>
<rscale>  0 0.32974151E+03</rscale>
<asrwt>0</asrwt>
<pdfrwt beam="1">  1        1 0.27891145E+00 0.32974151E+03</pdfrwt>
<pdfrwt beam="2">  1       -2 0.11099517E-01 0.32974151E+03</pdfrwt>
<totfact> 0.21829735E+02</totfact>
</mgrwt>
</event>
<event>
12    3  0.1092576E-007  0.3680936E+03  0.7818608E-02  0.1055424E+00
         -2   -1    0    0    0  501 -0.00000000000E+00  0.00000000000E+00  0.34166720911E+03  0.34166720911E+03  0.00000000000E+00 0.  1.
          1   -1    0    0  501    0  0.00000000000E+00 -0.00000000000E+00 -0.80583602042E+03  0.80583602042E+03  0.00000000000E+00 0. -1.
        -24    2    1    2    0    0  0.33957784857E+03 -0.66699281238E+01 -0.79311935696E+02  0.35772650228E+03  0.79500088726E+02 0.  0.
    5000000    2    1    2    0    0 -0.33957784857E+03  0.66699281238E+01 -0.38485687561E+03  0.78977672725E+03  0.60022900715E+03 0.  0.
        -24    2    4    4    0    0 -0.23560152038E+03 -0.70254121610E+02  0.10340951362E+03  0.27861576052E+03  0.80557411182E+02 0.  0.
         24    2    4    4    0    0 -0.10397632820E+03  0.76924049734E+02 -0.48826638923E+03  0.51116096673E+03  0.78441575766E+02 0.  0.
         11    1    5    5    0    0 -0.45989366784E+02 -0.16068276663E+01  0.54089320639E+02  0.71015902160E+02  0.00000000000E+00 0. -1.
        -12    1    5    5    0    0 -0.18961215359E+03 -0.68647293944E+02  0.49320192980E+02  0.20759985836E+03  0.00000000000E+00 0.  1.
         15    1    3    3    0    0  0.11778465253E+03 -0.16914552480E+02  0.77017966182E+01  0.11925519635E+03  0.17770000000E+01 0. -1.
        -16    1    3    3    0    0  0.22179319604E+03  0.10244624356E+02 -0.87013732315E+02  0.23847130593E+03  0.00000000000E+00 0.  1.
          4    1    6    6  502    0 -0.18609058468E+02  0.56799754375E+02 -0.25603866664E+03  0.26292262735E+03  0.00000000000E+00 0. -1.
         -3    1    6    6    0  502 -0.85367269727E+02  0.20124295359E+02 -0.23222772258E+03  0.24823833938E+03  0.00000000000E+00 0.  1.
<mgrwt>
<rscale>  0 0.36809361E+03</rscale>
<asrwt>0</asrwt>
<pdfrwt beam="1">  1        1 0.12397477E+00 0.36809361E+03</pdfrwt>
<pdfrwt beam="2">  1       -2 0.52564186E-01 0.36809361E+03</pdfrwt>
<totfact> 0.69305744E+01</totfact>
</mgrwt>
</event>
<event>
12    3  0.1092576E-007  0.9577154E+03  0.7818608E-02  0.9356178E-01
         -2   -1    0    0    0  501 -0.00000000000E+00  0.00000000000E+00  0.14247685814E+04  0.14247685814E+04  0.00000000000E+00 0.  1.
          1   -1    0    0  501    0  0.00000000000E+00 -0.00000000000E+00 -0.17527291240E+04  0.17527291240E+04  0.00000000000E+00 0. -1.
        -24    2    1    2    0    0  0.77216547628E+03  0.47433700328E+03  0.10715821525E+04  0.14055054657E+04  0.76955761613E+02 0.  0.
    5000000    2    1    2    0    0 -0.77216547628E+03 -0.47433700328E+03 -0.13995426951E+04  0.17719922397E+04  0.60000135558E+03 0.  0.
        -24    2    4    4    0    0 -0.14511989700E+02  0.44276627662E+02  0.33591333387E+01  0.93493401144E+02  0.80985891849E+02 0.  0.
         24    2    4    4    0    0 -0.75765348658E+03 -0.51861363094E+03 -0.14029018284E+04  0.16784988385E+04  0.78904415978E+02 0.  0.
         11    1    5    5    0    0  0.28915125343E+02  0.25233250853E+02 -0.16893115297E+02  0.41930642335E+02  0.00000000000E+00 0. -1.
        -12    1    5    5    0    0 -0.43427115043E+02  0.19043376809E+02  0.20252248636E+02  0.51562758809E+02  0.00000000000E+00 0.  1.
         15    1    3    3    0    0  0.57951675920E+03  0.32478326245E+03  0.75017982582E+03  0.10020462916E+04  0.17770000000E+01 0. -1.
        -16    1    3    3    0    0  0.19264871708E+03  0.14955374083E+03  0.32140232664E+03  0.40345917409E+03  0.00000000000E+00 0.  1.
          2    1    6    6  502    0 -0.46124621547E+03 -0.26929305340E+03 -0.80044592652E+03  0.96227880637E+03  0.00000000000E+00 0. -1.
         -1    1    6    6    0  502 -0.29640727111E+03 -0.24932057754E+03 -0.60245590187E+03  0.71622003215E+03  0.00000000000E+00 0.  1.
<mgrwt>
<rscale>  0 0.95771543E+03</rscale>
<asrwt>0</asrwt>
<pdfrwt beam="1">  1        1 0.26965063E+00 0.95771543E+03</pdfrwt>
<pdfrwt beam="2">  1       -2 0.21919517E+00 0.95771543E+03</pdfrwt>
<totfact> 0.38872279E-01</totfact>
</mgrwt>
</event>
<event>
12    3  0.1092576E-007  0.3468743E+03  0.7818608E-02  0.1063905E+00
         -2   -1    0    0    0  501 -0.00000000000E+00  0.00000000000E+00  0.11775961075E+03  0.11775961075E+03  0.00000000000E+00 0.  1.
          1   -1    0    0  501    0  0.00000000000E+00 -0.00000000000E+00 -0.12775102915E+04  0.12775102915E+04  0.00000000000E+00 0. -1.
        -24    2    1    2    0    0 -0.86888027460E+02 -0.21436190396E+02 -0.44672050094E+03  0.45896864524E+03  0.55533519380E+02 0.  0.
    5000000    2    1    2    0    0  0.86888027460E+02  0.21436190396E+02 -0.71303017979E+03  0.93630125700E+03  0.60019910612E+03 0.  0.
        -24    2    4    4    0    0  0.30160007968E+03 -0.11847892099E+03 -0.33503295087E+03  0.47289556870E+03  0.79895418767E+02 0.  0.
         24    2    4    4    0    0 -0.21471205222E+03  0.13991511138E+03 -0.37799722892E+03  0.46340568831E+03  0.78647461012E+02 0.  0.
         11    1    5    5    0    0  0.21473042801E+03 -0.80162925424E+02 -0.18144770732E+03  0.29233289554E+03  0.00000000000E+00 0. -1.
        -12    1    5    5    0    0  0.86869651665E+02 -0.38315995562E+02 -0.15358524356E+03  0.18056267315E+03  0.00000000000E+00 0.  1.
         15    1    3    3    0    0 -0.63799639162E+02  0.89075576042E+01 -0.32816544015E+03  0.33443303123E+03  0.17770000000E+01 0. -1.
        -16    1    3    3    0    0 -0.23088388298E+02 -0.30343748000E+02 -0.11855506079E+03  0.12453561401E+03  0.00000000000E+00 0.  1.
          4    1    6    6  502    0 -0.11894813673E+03  0.12049083013E+03 -0.21957328204E+03  0.27727085235E+03  0.00000000000E+00 0. -1.
         -3    1    6    6    0  502 -0.95763915484E+02  0.19424281249E+02 -0.15842394688E+03  0.18613483595E+03  0.00000000000E+00 0.  1.
<mgrwt>
<rscale>  0 0.34687427E+03</rscale>
<asrwt>0</asrwt>
<pdfrwt beam="1">  1        1 0.19654003E+00 0.34687427E+03</pdfrwt>
<pdfrwt beam="2">  1       -2 0.18116865E-01 0.34687427E+03</pdfrwt>
<totfact> 0.22030391E+02</totfact>
</mgrwt>
</event>
<event>
12    3  0.1092576E-007  0.9204153E+03  0.7818608E-02  0.9400415E-01
          1   -1    0    0  501    0  0.00000000000E+00  0.00000000000E+00  0.17592673269E+04  0.17592673269E+04  0.00000000000E+00 0. -1.
         -2   -1    0    0    0  501 -0.00000000000E+00 -0.00000000000E+00 -0.54630334957E+03  0.54630334957E+03  0.00000000000E+00 0.  1.
        -24    2    1    2    0    0  0.80723076681E+03 -0.36036451654E+03  0.62948836085E+03  0.10882967357E+04  0.81548101799E+02 0.  0.
    5000000    2    1    2    0    0 -0.80723076681E+03  0.36036451654E+03  0.58347561646E+03  0.12172739407E+04  0.59985661291E+03 0.  0.
        -24    2    4    4    0    0 -0.28677350814E+03 -0.39748512920E+02 -0.37217919579E+02  0.30769246826E+03  0.97316454100E+02 0.  0.
         24    2    4    4    0    0 -0.52045725867E+03  0.40011302946E+03  0.62069353603E+03  0.90958147244E+03  0.10541249872E+03 0.  0.
         11    1    5    5    0    0 -0.22607950254E+03 -0.53074655834E+01  0.48770993271E+01  0.22619437826E+03  0.00000000000E+00 0. -1.
        -12    1    5    5    0    0 -0.60694005601E+02 -0.34441047336E+02 -0.42095018906E+02  0.81498090003E+02  0.00000000000E+00 0.  1.
         15    1    3    3    0    0  0.33371610429E+03 -0.10618900144E+03  0.23893048611E+03  0.42394985224E+03  0.17770000000E+01 0. -1.
        -16    1    3    3    0    0  0.47351466252E+03 -0.25417551510E+03  0.39055787473E+03  0.66434688350E+03  0.00000000000E+00 0.  1.
          4    1    6    6  502    0 -0.48601108848E+03  0.36278278648E+03  0.52906399054E+03  0.80481478266E+03  0.00000000000E+00 0. -1.
         -3    1    6    6    0  502 -0.34446170192E+02  0.37330242973E+02  0.91629545490E+02  0.10476668978E+03  0.00000000000E+00 0.  1.
<mgrwt>
<rscale>  0 0.92041527E+03</rscale>
<asrwt>0</asrwt>
<pdfrwt beam="1">  1        1 0.27065651E+00 0.92041527E+03</pdfrwt>
<pdfrwt beam="2">  1       -2 0.84046670E-01 0.92041527E+03</pdfrwt>
<totfact> 0.47777932E+00</totfact>
</mgrwt>
</event>
<event>
12    3  0.1092576E-007  0.5909060E+03  0.7818608E-02  0.9924455E-01
         -2   -1    0    0    0  501 -0.00000000000E+00  0.00000000000E+00  0.77955262874E+03  0.77955262874E+03  0.00000000000E+00 0.  1.
          1   -1    0    0  501    0  0.00000000000E+00 -0.00000000000E+00 -0.59811353143E+03  0.59811353143E+03  0.00000000000E+00 0. -1.
        -24    2    1    2    0    0 -0.50099315127E+03 -0.81511604527E+02  0.28083198763E+03  0.58558820240E+03  0.80054095612E+02 0.  0.
    5000000    2    1    2    0    0  0.50099315127E+03  0.81511604527E+02 -0.99392890313E+02  0.79207795777E+03  0.59989187797E+03 0.  0.
        -24    2    4    4    0    0 -0.34904229585E+02  0.11798062373E+03  0.13636125635E+03  0.20018053148E+03  0.79624871306E+02 0.  0.
         24    2    4    4    0    0  0.53589738085E+03 -0.36469019201E+02 -0.23575414666E+03  0.59189742630E+03  0.79035140408E+02 0.  0.
         13    1    5    5    0    0 -0.42862768313E+02  0.63680300366E+02  0.33831002251E+02  0.83886436779E+02  0.00000000000E+00 0. -1.
        -14    1    5    5    0    0  0.79585387276E+01  0.54300323363E+02  0.10253025410E+03  0.11629409470E+03  0.00000000000E+00 0.  1.
         15    1    3    3    0    0 -0.29176587182E+03 -0.53146440773E+02  0.11897680146E+03  0.31954734413E+03  0.17770000000E+01 0. -1.
        -16    1    3    3    0    0 -0.20922727945E+03 -0.28365163754E+02  0.16185518616E+03  0.26604085827E+03  0.00000000000E+00 0.  1.
          4    1    6    6  502    0  0.11982262953E+03 -0.40133873366E+02 -0.44678996546E+02  0.13403135108E+03  0.00000000000E+00 0. -1.
         -3    1    6    6    0  502  0.41607475132E+03  0.36648541649E+01 -0.19107515012E+03  0.45786607522E+03  0.00000000000E+00 0.  1.
<mgrwt>
<rscale>  0 0.59090600E+03</rscale>
<asrwt>0</asrwt>
<pdfrwt beam="1">  1        1 0.92017466E-01 0.59090600E+03</pdfrwt>
<pdfrwt beam="2">  1       -2 0.11993117E+00 0.59090600E+03</pdfrwt>
<totfact> 0.16600584E+01</totfact>
</mgrwt>
</event>
<event>
12    3  0.1092576E-007  0.4180819E+03  0.7818608E-02  0.1037692E+00
          1   -1    0    0  501    0  0.00000000000E+00  0.00000000000E+00  0.11101903747E+04  0.11101903747E+04  0.00000000000E+00 0. -1.
         -2   -1    0    0    0  501 -0.00000000000E+00 -0.00000000000E+00 -0.34634758172E+03  0.34634758172E+03  0.00000000000E+00 0.  1.
        -24    2    1    2    0    0  0.13050680594E+03  0.34363862538E+03  0.63901363845E+03  0.74199005190E+03  0.84209712877E+02 0.  0.
    5000000    2    1    2    0    0 -0.13050680594E+03 -0.34363862538E+03  0.12482915452E+03  0.71454790451E+03  0.59989737353E+03 0.  0.
        -24    2    4    4    0    0 -0.58454131480E+02 -0.36236393962E+03 -0.16091762402E+03  0.40871528408E+03  0.80182239304E+02 0.  0.
         24    2    4    4    0    0 -0.72052674457E+02  0.18725314238E+02  0.28574677854E+03  0.30583262042E+03  0.79625027322E+02 0.  0.
         11    1    5    5    0    0 -0.26236854399E+01 -0.74869493159E+02 -0.76256639575E+00  0.74919331541E+02  0.00000000000E+00 0. -1.
        -12    1    5    5    0    0 -0.55830446040E+02 -0.28749444646E+03 -0.16015505763E+03  0.33379595254E+03  0.00000000000E+00 0.  1.
         15    1    3    3    0    0  0.28974017357E+02  0.18847284762E+03  0.29722131575E+03  0.35313620069E+03  0.17770000000E+01 0. -1.
        -16    1    3    3    0    0  0.10153278858E+03  0.15516577777E+03  0.34179232270E+03  0.38885385121E+03  0.00000000000E+00 0.  1.
          4    1    6    6  502    0  0.34229918750E+01  0.16389582178E+02  0.14628443005E+03  0.14723949793E+03  0.00000000000E+00 0. -1.
         -1    1    6    6    0  502 -0.75475666332E+02  0.23357320596E+01  0.13946234850E+03  0.15859312249E+03  0.00000000000E+00 0.  1.
<mgrwt>
<rscale>  0 0.41808190E+03</rscale>
<asrwt>0</asrwt>
<pdfrwt beam="1">  1        1 0.17079852E+00 0.41808190E+03</pdfrwt>
<pdfrwt beam="2">  1       -2 0.53284244E-01 0.41808190E+03</pdfrwt>
<totfact> 0.38738085E+01</totfact>
</mgrwt>
</event>
<event>
12    3  0.1092576E-007  0.7609138E+03  0.7818608E-02  0.9618382E-01
         -2   -1    0    0    0  501 -0.00000000000E+00  0.00000000000E+00  0.40300425893E+03  0.40300425893E+03  0.00000000000E+00 0.  1.
          1   -1    0    0  501    0  0.00000000000E+00 -0.00000000000E+00 -0.25759407465E+04  0.25759407465E+04  0.00000000000E+00 0. -1.
        -24    2    1    2    0    0 -0.72698068081E+03 -0.25757677094E+02 -0.18376815847E+04  0.19781973384E+04  0.83825621041E+02 0.  0.
    5000000    2    1    2    0    0  0.72698068081E+03  0.25757677094E+02 -0.33525490297E+03  0.10007476671E+04  0.59994639350E+03 0.  0.
        -24    2    4    4    0    0  0.46005557624E+02 -0.44484393383E+02 -0.29252715948E+03  0.30995006384E+03  0.80009564766E+02 0.  0.
         24    2    4    4    0    0  0.68097512318E+03  0.70242070478E+02 -0.42727743484E+02  0.69079760327E+03  0.81942673615E+02 0.  0.
         11    1    5    5    0    0  0.43704043703E+02 -0.66904392027E+02 -0.22725418953E+03  0.24089563667E+03  0.00000000000E+00 0. -1.
        -12    1    5    5    0    0  0.23015139215E+01  0.22419998643E+02 -0.65272969953E+02  0.69054427171E+02  0.00000000000E+00 0.  1.
         15    1    3    3    0    0 -0.10565189368E+03 -0.30980017098E+02 -0.24523428410E+03  0.26882168053E+03  0.17770000000E+01 0. -1.
        -16    1    3    3    0    0 -0.62132878713E+03  0.52223400040E+01 -0.15924473005E+04  0.17093756578E+04  0.00000000000E+00 0.  1.
          4    1    6    6  502    0  0.49216311358E+03  0.20191246956E+02 -0.51536947056E+02  0.49526586167E+03  0.00000000000E+00 0. -1.
         -3    1    6    6    0  502  0.18881200960E+03  0.50050823522E+02  0.88092035714E+01  0.19553174159E+03  0.00000000000E+00 0.  1.
<mgrwt>
<rscale>  0 0.76091375E+03</rscale>
<asrwt>0</asrwt>
<pdfrwt beam="1">  1        1 0.39629858E+00 0.76091375E+03</pdfrwt>
<pdfrwt beam="2">  1       -2 0.62000655E-01 0.76091375E+03</pdfrwt>
<totfact> 0.26867726E+00</totfact>
</mgrwt>
</event>
<event>
12    3  0.1092576E-007  0.5710616E+03  0.7818608E-02  0.9967332E-01
         -2   -1    0    0    0  501 -0.00000000000E+00  0.00000000000E+00  0.68452343852E+03  0.68452343852E+03  0.00000000000E+00 0.  1.
          1   -1    0    0  501    0  0.00000000000E+00 -0.00000000000E+00 -0.55613816047E+03  0.55613816047E+03  0.00000000000E+00 0. -1.
        -24    2    1    2    0    0  0.45802137094E+03  0.80520695977E+02  0.14231592344E+02  0.47249553904E+03  0.82354948083E+02 0.  0.
    5000000    2    1    2    0    0 -0.45802137094E+03 -0.80520695977E+02  0.11415368571E+03  0.76816605996E+03  0.60065037500E+03 0.  0.
        -24    2    4    4    0    0  0.28147614439E+02  0.13132245843E+03 -0.10980246671E+03  0.18740210503E+03  0.70887876172E+02 0.  0.
         24    2    4    4    0    0 -0.48616898538E+03 -0.21184315441E+03  0.22395615242E+03  0.58076395492E+03  0.76763329265E+02 0.  0.
         11    1    5    5    0    0 -0.40363746737E+01  0.46949276804E+02 -0.25434608956E+01  0.47191059601E+02  0.00000000000E+00 0. -1.
        -12    1    5    5    0    0  0.32183989112E+02  0.84373181629E+02 -0.10725900581E+03  0.14021104543E+03  0.00000000000E+00 0.  1.
         15    1    3    3    0    0  0.22778218437E+03  0.41536817766E+01  0.27945417104E+02  0.22953448686E+03  0.17770000000E+01 0. -1.
        -16    1    3    3    0    0  0.23023918657E+03  0.76367014200E+02 -0.13713824760E+02  0.24296105218E+03  0.00000000000E+00 0.  1.
          2    1    6    6  502    0 -0.16504348993E+02 -0.22495420501E+02  0.22202964966E+02  0.35656824487E+02  0.00000000000E+00 0. -1.
         -1    1    6    6    0  502 -0.46966463638E+03 -0.18934773391E+03  0.20175318745E+03  0.54510713044E+03  0.00000000000E+00 0.  1.
<mgrwt>
<rscale>  0 0.57106162E+03</rscale>
<asrwt>0</asrwt>
<pdfrwt beam="1">  1        1 0.85559717E-01 0.57106162E+03</pdfrwt>
<pdfrwt beam="2">  1       -2 0.10531130E+00 0.57106162E+03</pdfrwt>
<totfact> 0.25269331E+01</totfact>
</mgrwt>
</event>
<event>
12    3  0.1290720E-007  0.6939668E+03  0.7818608E-02  0.9727606E-01
         -2   -1    0    0    0  501 -0.00000000000E+00  0.00000000000E+00  0.29091565989E+03  0.29091565989E+03  0.00000000000E+00 0.  1.
          1   -1    0    0  501    0  0.00000000000E+00 -0.00000000000E+00 -0.18495883401E+04  0.18495883401E+04  0.00000000000E+00 0. -1.
        -24    2    1    2    0    0  0.44769089986E+03  0.36627760362E+03 -0.37916473355E+03  0.69618882563E+03  0.79539682119E+02 0.  0.
    5000000    2    1    2    0    0 -0.44769089986E+03 -0.36627760362E+03 -0.11795079466E+04  0.14443151743E+04  0.60018405671E+03 0.  0.
        -24    2    4    4    0    0 -0.57220502399E+03 -0.26393510732E+03 -0.77815756327E+03  0.10044620340E+04  0.79589284188E+02 0.  0.
         24    2    4    4    0    0  0.12451412413E+03 -0.10234249630E+03 -0.40135038335E+03  0.43985314031E+03  0.80068103314E+02 0.  0.
         13    1    5    5    0    0 -0.22859270090E+03 -0.14881585006E+03 -0.33494823755E+03  0.43196192190E+03  0.00000000000E+00 0. -1.
        -14    1    5    5    0    0 -0.34361232309E+03 -0.11511925726E+03 -0.44320932572E+03  0.57250011212E+03  0.00000000000E+00 0.  1.
         15    1    3    3    0    0  0.24824763602E+03  0.15207299634E+03 -0.19442625308E+03  0.35008257686E+03  0.17770000000E+01 0. -1.
        -16    1    3    3    0    0  0.19944326384E+03  0.21420460727E+03 -0.18473848047E+03  0.34610624877E+03  0.00000000000E+00 0.  1.
          4    1    6    6  502    0  0.50369369464E+02 -0.74176762834E+02 -0.13595008429E+03  0.16285481553E+03  0.00000000000E+00 0. -1.
         -3    1    6    6    0  502  0.74144754669E+02 -0.28165733463E+02 -0.26540029906E+03  0.27699832478E+03  0.00000000000E+00 0.  1.
<mgrwt>
<rscale>  0 0.69396677E+03</rscale>
<asrwt>0</asrwt>
<pdfrwt beam="1">  1        1 0.28455206E+00 0.69396677E+03</pdfrwt>
<pdfrwt beam="2">  1       -2 0.44756255E-01 0.69396677E+03</pdfrwt>
<totfact> 0.16372366E+01</totfact>
</mgrwt>
</event>
<event>
12    3  0.1092576E-007  0.4611303E+03  0.7818608E-02  0.1024454E+00
          1   -1    0    0  501    0  0.00000000000E+00  0.00000000000E+00  0.13838181411E+04  0.13838181411E+04  0.00000000000E+00 0. -1.
         -2   -1    0    0    0  501 -0.00000000000E+00 -0.00000000000E+00 -0.26392413370E+03  0.26392413370E+03  0.00000000000E+00 0.  1.
        -24    2    1    2    0    0 -0.21649196777E+03  0.17163765435E+03  0.91113433429E+03  0.95501928419E+03  0.74617702720E+02 0.  0.
    5000000    2    1    2    0    0  0.21649196777E+03 -0.17163765435E+03  0.20875967307E+03  0.69272299056E+03  0.59996356894E+03 0.  0.
        -24    2    4    4    0    0  0.40703595299E+02 -0.36699079999E+03  0.67902793423E+02  0.38399144948E+03  0.80620183439E+02 0.  0.
         24    2    4    4    0    0  0.17578837247E+03  0.19535314563E+03  0.14085687964E+03  0.30873154108E+03  0.80063103292E+02 0.  0.
         11    1    5    5    0    0  0.54599164179E+02 -0.20514794049E+03  0.63152960361E+02  0.22148372992E+03  0.00000000000E+00 0. -1.
        -12    1    5    5    0    0 -0.13895568881E+02 -0.16184285949E+03  0.47498330622E+01  0.16250771956E+03  0.00000000000E+00 0.  1.
         15    1    3    3    0    0 -0.30958793077E+02 -0.13422612276E+01  0.13340432540E+03  0.13696758850E+03  0.17770000000E+01 0. -1.
        -16    1    3    3    0    0 -0.18553317469E+03  0.17297991558E+03  0.77773000889E+03  0.81805169570E+03  0.00000000000E+00 0.  1.
          4    1    6    6  502    0  0.13295483217E+03  0.15030495946E+03  0.14320069642E+03  0.24652587631E+03  0.00000000000E+00 0. -1.
         -3    1    6    6    0  502  0.42833540303E+02  0.45048186176E+02 -0.23438167735E+01  0.62205664772E+02  0.00000000000E+00 0.  1.
<mgrwt>
<rscale>  0 0.46113028E+03</rscale>
<asrwt>0</asrwt>
<pdfrwt beam="1">  1        1 0.21289509E+00 0.46113028E+03</pdfrwt>
<pdfrwt beam="2">  1       -2 0.40603714E-01 0.46113028E+03</pdfrwt>
<totfact> 0.42346889E+01</totfact>
</mgrwt>
</event>
<event>
12    3  0.1092576E-007  0.6024570E+03  0.7818608E-02  0.9900322E-01
         -2   -1    0    0    0  501 -0.00000000000E+00  0.00000000000E+00  0.19020830535E+03  0.19020830535E+03  0.00000000000E+00 0.  1.
          1   -1    0    0  501    0  0.00000000000E+00 -0.00000000000E+00 -0.20975864906E+04  0.20975864906E+04  0.00000000000E+00 0. -1.
        -24    2    1    2    0    0 -0.36158373897E+03  0.27939204931E+03 -0.44705253004E+03  0.64418244236E+03  0.79450216682E+02 0.  0.
    5000000    2    1    2    0    0  0.36158373897E+03 -0.27939204931E+03 -0.14603256552E+04  0.16436123536E+04  0.60008985335E+03 0.  0.
        -24    2    4    4    0    0 -0.98765326208E+01 -0.35642116269E+03 -0.75747803271E+03  0.84097588956E+03  0.79585712797E+02 0.  0.
         24    2    4    4    0    0  0.37146027159E+03  0.77029113372E+02 -0.70284762253E+03  0.80263646405E+03  0.79462539947E+02 0.  0.
         11    1    5    5    0    0  0.19389203990E+02 -0.30368292425E+03 -0.61159211863E+03  0.68311359179E+03  0.00000000000E+00 0. -1.
        -12    1    5    5    0    0 -0.29265736611E+02 -0.52738238440E+02 -0.14588591408E+03  0.15786229778E+03  0.00000000000E+00 0.  1.
         15    1    3    3    0    0 -0.15943860382E+03  0.15719946060E+03 -0.17712069795E+03  0.28549472530E+03  0.17770000000E+01 0. -1.
        -16    1    3    3    0    0 -0.20214513515E+03  0.12219258871E+03 -0.26993183208E+03  0.35868771706E+03  0.00000000000E+00 0.  1.
          4    1    6    6  502    0  0.17899001501E+03  0.24394728485E+02 -0.41264571346E+03  0.45045422974E+03  0.00000000000E+00 0. -1.
         -3    1    6    6    0  502  0.19247025657E+03  0.52634384887E+02 -0.29020190907E+03  0.35218223431E+03  0.00000000000E+00 0.  1.
<mgrwt>
<rscale>  0 0.60245705E+03</rscale>
<asrwt>0</asrwt>
<pdfrwt beam="1">  1        1 0.32270561E+00 0.60245705E+03</pdfrwt>
<pdfrwt beam="2">  1       -2 0.29262817E-01 0.60245705E+03</pdfrwt>
<totfact> 0.25585169E+01</totfact>
</mgrwt>
</event>
<event>
12    3  0.1092576E-007  0.1133534E+04  0.7818608E-02  0.9173110E-01
          1   -1    0    0  501    0  0.00000000000E+00  0.00000000000E+00  0.11959126993E+04  0.11959126993E+04  0.00000000000E+00 0. -1.
         -2   -1    0    0    0  501 -0.00000000000E+00 -0.00000000000E+00 -0.14576235009E+04  0.14576235009E+04  0.00000000000E+00 0.  1.
        -24    2    1    2    0    0  0.59902263292E+03  0.87422074326E+03 -0.79197117278E+03  0.13253573514E+04  0.79143841357E+02 0.  0.
    5000000    2    1    2    0    0 -0.59902263292E+03 -0.87422074326E+03  0.53026037122E+03  0.13281788488E+04  0.59982745050E+03 0.  0.
        -24    2    4    4    0    0 -0.25353569481E+03  0.87213123604E+01  0.10712583046E+03  0.28701504116E+03  0.80902907655E+02 0.  0.
         24    2    4    4    0    0 -0.34548693811E+03 -0.88294205562E+03  0.42313454076E+03  0.10411638076E+04  0.77661681298E+02 0.  0.
         11    1    5    5    0    0 -0.11357865864E+03  0.14611207982E+02  0.68060669958E+01  0.11471670169E+03  0.00000000000E+00 0. -1.
        -12    1    5    5    0    0 -0.13995703617E+03 -0.58898956214E+01  0.10031976347E+03  0.17229833947E+03  0.00000000000E+00 0.  1.
         15    1    3    3    0    0  0.34484531060E+03  0.56976912642E+03 -0.50524393762E+03  0.83596036981E+03  0.17770000000E+01 0. -1.
        -16    1    3    3    0    0  0.25417732232E+03  0.30445161683E+03 -0.28672723516E+03  0.48939698156E+03  0.00000000000E+00 0.  1.
          2    1    6    6  502    0 -0.73381593529E+02 -0.13025876419E+03  0.46162707154E+02  0.15647108183E+03  0.00000000000E+00 0. -1.
         -1    1    6    6    0  502 -0.27210534458E+03 -0.75268329142E+03  0.37697183361E+03  0.88469272579E+03  0.00000000000E+00 0.  1.
<mgrwt>
<rscale>  0 0.11335344E+04</rscale>
<asrwt>0</asrwt>
<pdfrwt beam="1">  1        1 0.18398657E+00 0.11335344E+04</pdfrwt>
<pdfrwt beam="2">  1       -2 0.22424977E+00 0.11335344E+04</pdfrwt>
<totfact> 0.86112398E-01</totfact>
</mgrwt>
</event>
<event>
12    3  0.1092576E-007  0.5890357E+03  0.7818608E-02  0.9928418E-01
          1   -1    0    0  501    0  0.00000000000E+00  0.00000000000E+00  0.42799049997E+03  0.42799049997E+03  0.00000000000E+00 0. -1.
         -2   -1    0    0    0  501 -0.00000000000E+00 -0.00000000000E+00 -0.85935742996E+03  0.85935742996E+03  0.00000000000E+00 0.  1.
        -24    2    1    2    0    0  0.27800103075E+03  0.35792285617E+03 -0.18715767627E+03  0.49661027656E+03  0.78742789718E+02 0.  0.
    5000000    2    1    2    0    0 -0.27800103075E+03 -0.35792285617E+03 -0.24420925372E+03  0.79073765336E+03  0.60019541216E+03 0.  0.
        -24    2    4    4    0    0 -0.30642700426E+03 -0.48951475555E+03 -0.13396898620E+03  0.59847846014E+03  0.81893669774E+02 0.  0.
         24    2    4    4    0    0  0.28425973508E+02  0.13159189938E+03 -0.11024026752E+03  0.19225919322E+03  0.81769290342E+02 0.  0.
         13    1    5    5    0    0 -0.16095774706E+03 -0.29532419565E+03 -0.41792198494E+02  0.33892530848E+03  0.00000000000E+00 0. -1.
        -14    1    5    5    0    0 -0.14546925720E+03 -0.19419055990E+03 -0.92176787702E+02  0.25955315166E+03  0.00000000000E+00 0.  1.
         15    1    3    3    0    0  0.13297075670E+03  0.23388363425E+03 -0.10418502543E+03  0.28851421761E+03  0.17770000000E+01 0. -1.
        -16    1    3    3    0    0  0.14503027405E+03  0.12403922192E+03 -0.82972650844E+02  0.20809605896E+03  0.00000000000E+00 0.  1.
          2    1    6    6  502    0  0.11255847209E+02  0.66010200233E+01 -0.51432422838E+02  0.53061866540E+02  0.00000000000E+00 0. -1.
         -1    1    6    6    0  502  0.17170126299E+02  0.12499087935E+03 -0.58807844686E+02  0.13919732668E+03  0.00000000000E+00 0.  1.
<mgrwt>
<rscale>  0 0.58903575E+03</rscale>
<asrwt>0</asrwt>
<pdfrwt beam="1">  1        1 0.65844693E-01 0.58903575E+03</pdfrwt>
<pdfrwt beam="2">  1       -2 0.13220883E+00 0.58903575E+03</pdfrwt>
<totfact> 0.20597576E+01</totfact>
</mgrwt>
</event>
<event>
12    3  0.1092576E-007  0.8414945E+03  0.7818608E-02  0.9501824E-01
          1   -1    0    0  501    0  0.00000000000E+00  0.00000000000E+00  0.21065225685E+04  0.21065225685E+04  0.00000000000E+00 0. -1.
         -2   -1    0    0    0  501 -0.00000000000E+00 -0.00000000000E+00 -0.51585772583E+03  0.51585772583E+03  0.00000000000E+00 0.  1.
        -24    2    1    2    0    0  0.73457365253E+03 -0.15547745060E+03 -0.10331555472E+02  0.75515449340E+03  0.79874146160E+02 0.  0.
    5000000    2    1    2    0    0 -0.73457365253E+03  0.15547745060E+03  0.16009963982E+04  0.18672258010E+04  0.59964242357E+03 0.  0.
        -24    2    4    4    0    0 -0.46751375323E+03  0.35297919946E+03  0.78445953332E+03  0.98207819097E+03  0.77054455147E+02 0.  0.
         24    2    4    4    0    0 -0.26705989930E+03 -0.19750174885E+03  0.81653686487E+03  0.88514761000E+03  0.80161768796E+02 0.  0.
         11    1    5    5    0    0 -0.12013318104E+03  0.50927252340E+02  0.17738436741E+03  0.22020622158E+03  0.00000000000E+00 0. -1.
        -12    1    5    5    0    0 -0.34738057219E+03  0.30205194712E+03  0.60707516591E+03  0.76187196940E+03  0.00000000000E+00 0.  1.
         15    1    3    3    0    0  0.23073891612E+03 -0.57954918064E+02 -0.39367000945E+02  0.24114754494E+03  0.17770000000E+01 0. -1.
        -16    1    3    3    0    0  0.50383473642E+03 -0.97522532540E+02  0.29035445473E+02  0.51400694846E+03  0.00000000000E+00 0.  1.
          2    1    6    6  502    0 -0.55313724817E+02 -0.61135736118E+01  0.15394625162E+03  0.16369615855E+03  0.00000000000E+00 0. -1.
         -1    1    6    6    0  502 -0.21174617448E+03 -0.19138817524E+03  0.66259061325E+03  0.72145145144E+03  0.00000000000E+00 0.  1.
<mgrwt>
<rscale>  0 0.84149450E+03</rscale>
<asrwt>0</asrwt>
<pdfrwt beam="1">  1        1 0.32408039E+00 0.84149450E+03</pdfrwt>
<pdfrwt beam="2">  1       -2 0.79362728E-01 0.84149450E+03</pdfrwt>
<totfact> 0.32139766E+00</totfact>
</mgrwt>
</event>
<event>
12    3  0.1092576E-007  0.7395721E+03  0.7818608E-02  0.9651854E-01
         -2   -1    0    0    0  501 -0.00000000000E+00  0.00000000000E+00  0.42437465089E+03  0.42437465089E+03  0.00000000000E+00 0.  1.
          1   -1    0    0  501    0  0.00000000000E+00 -0.00000000000E+00 -0.14900261932E+04  0.14900261932E+04  0.00000000000E+00 0. -1.
        -24    2    1    2    0    0 -0.15221295232E+03  0.62815669597E+03 -0.71056417946E+03  0.96385522712E+03  0.79786140174E+02 0.  0.
    5000000    2    1    2    0    0  0.15221295232E+03 -0.62815669597E+03 -0.35508736283E+03  0.95054561696E+03  0.59975021228E+03 0.  0.
        -24    2    4    4    0    0  0.21570193971E+03 -0.68877962449E+03 -0.38926611192E+03  0.82449746149E+03  0.85576049263E+02 0.  0.
         24    2    4    4    0    0 -0.63488987394E+02  0.60622928522E+02  0.34178749082E+02  0.12604815547E+03  0.83749385817E+02 0.  0.
         11    1    5    5    0    0  0.38176201907E+02 -0.13470954275E+03 -0.11543136994E+03  0.18146207446E+03  0.00000000000E+00 0. -1.
        -12    1    5    5    0    0  0.17752573780E+03 -0.55407008175E+03 -0.27383474198E+03  0.64303538704E+03  0.00000000000E+00 0.  1.
         15    1    3    3    0    0 -0.77807236710E+02  0.42835284307E+03 -0.51694312020E+03  0.67585018422E+03  0.17770000000E+01 0. -1.
        -16    1    3    3    0    0 -0.74405715606E+02  0.19980385290E+03 -0.19362105926E+03  0.28800504290E+03  0.00000000000E+00 0.  1.
          2    1    6    6  502    0 -0.48676989411E+02  0.24797731670E+01 -0.12163636220E+02  0.50234974064E+02  0.00000000000E+00 0. -1.
         -1    1    6    6    0  502 -0.14811997983E+02  0.58143155355E+02  0.46342385302E+02  0.75813181402E+02  0.00000000000E+00 0.  1.
<mgrwt>
<rscale>  0 0.73957209E+03</rscale>
<asrwt>0</asrwt>
<pdfrwt beam="1">  1        1 0.22923480E+00 0.73957209E+03</pdfrwt>
<pdfrwt beam="2">  1       -2 0.65288408E-01 0.73957209E+03</pdfrwt>
<totfact> 0.13028596E+01</totfact>
</mgrwt>
</event>
<event>
12    3  0.1092576E-007  0.7146400E+03  0.7818608E-02  0.9692518E-01
         -2   -1    0    0    0  501 -0.00000000000E+00  0.00000000000E+00  0.47306034298E+03  0.47306034298E+03  0.00000000000E+00 0.  1.
          1   -1    0    0  501    0  0.00000000000E+00 -0.00000000000E+00 -0.12270836854E+04  0.12270836854E+04  0.00000000000E+00 0. -1.
        -24    2    1    2    0    0  0.22350578357E+03 -0.55286580506E+03 -0.58167706640E+03  0.83689808838E+03  0.80216999828E+02 0.  0.
    5000000    2    1    2    0    0 -0.22350578357E+03  0.55286580506E+03 -0.17234627599E+03  0.86324593998E+03  0.59989572455E+03 0.  0.
        -24    2    4    4    0    0 -0.99644294795E+02  0.65489466048E+03 -0.12394109501E+03  0.67868052034E+03  0.80186356988E+02 0.  0.
         24    2    4    4    0    0 -0.12386148877E+03 -0.10202885542E+03 -0.48405180973E+02  0.18456541963E+03  0.77264330967E+02 0.  0.
         13    1    5    5    0    0  0.50790167980E+01  0.21562589718E+03 -0.39233639642E+02  0.21922500411E+03  0.00000000000E+00 0. -1.
        -14    1    5    5    0    0 -0.10472331159E+03  0.43926876330E+03 -0.84707455373E+02  0.45945551623E+03  0.00000000000E+00 0.  1.
         15    1    3    3    0    0  0.54468800907E+02 -0.21788446831E+03 -0.18613954410E+03  0.29170460986E+03  0.17770000000E+01 0. -1.
        -16    1    3    3    0    0  0.16903698266E+03 -0.33498133675E+03 -0.39553752230E+03  0.54519347852E+03  0.00000000000E+00 0.  1.
          4    1    6    6  502    0 -0.37623012535E+02 -0.45718944981E+02 -0.55729078612E+02  0.81310781606E+02  0.00000000000E+00 0. -1.
         -3    1    6    6    0  502 -0.86238476239E+02 -0.56309910437E+02  0.73238976385E+01  0.10325463803E+03  0.00000000000E+00 0.  1.
<mgrwt>
<rscale>  0 0.71464002E+03</rscale>
<asrwt>0</asrwt>
<pdfrwt beam="1">  1        1 0.18878210E+00 0.71464002E+03</pdfrwt>
<pdfrwt beam="2">  1       -2 0.72778515E-01 0.71464002E+03</pdfrwt>
<totfact> 0.15763493E+01</totfact>
</mgrwt>
</event>
<event>
12    3  0.1092576E-007  0.1335097E+04  0.7818608E-02  0.9002187E-01
          1   -1    0    0  501    0  0.00000000000E+00  0.00000000000E+00  0.12786988646E+04  0.12786988646E+04  0.00000000000E+00 0. -1.
         -2   -1    0    0    0  501 -0.00000000000E+00 -0.00000000000E+00 -0.17771913352E+04  0.17771913352E+04  0.00000000000E+00 0.  1.
        -24    2    1    2    0    0 -0.88758833247E+03 -0.96473985802E+03  0.38042512920E+03  0.13673706530E+04  0.80269434324E+02 0.  0.
    5000000    2    1    2    0    0  0.88758833247E+03  0.96473985802E+03 -0.87891759979E+03  0.16885195468E+04  0.60005505683E+03 0.  0.
        -24    2    4    4    0    0  0.76945413819E+03  0.63905857639E+03 -0.37454701432E+03  0.10711133022E+04  0.80886991496E+02 0.  0.
         24    2    4    4    0    0  0.11813419428E+03  0.32568128163E+03 -0.50437058547E+03  0.61740624463E+03  0.82321311669E+02 0.  0.
         13    1    5    5    0    0  0.55028863260E+02  0.21611626968E+02 -0.25723570629E+02  0.64474338289E+02  0.00000000000E+00 0. -1.
        -14    1    5    5    0    0  0.71442527493E+03  0.61744694942E+03 -0.34882344369E+03  0.10066389639E+04  0.00000000000E+00 0.  1.
         15    1    3    3    0    0 -0.46654523193E+03 -0.52438255425E+03  0.16376511876E+03  0.72073829404E+03  0.17770000000E+01 0. -1.
        -16    1    3    3    0    0 -0.42104310054E+03 -0.44035730377E+03  0.21666001044E+03  0.64663235894E+03  0.00000000000E+00 0.  1.
          2    1    6    6  502    0  0.11759810807E+03  0.21565663167E+03 -0.36211502279E+03  0.43756643785E+03  0.00000000000E+00 0. -1.
         -1    1    6    6    0  502  0.53608621224E+00  0.11002464996E+03 -0.14225556268E+03  0.17983980678E+03  0.00000000000E+00 0.  1.
<mgrwt>
<rscale>  0 0.13350967E+04</rscale>
<asrwt>0</asrwt>
<pdfrwt beam="1">  1        1 0.19672290E+00 0.13350967E+04</pdfrwt>
<pdfrwt beam="2">  1       -2 0.27341405E+00 0.13350967E+04</pdfrwt>
<totfact> 0.36492199E-01</totfact>
</mgrwt>
</event>
<event>
12    3  0.1092576E-007  0.6614874E+03  0.7818608E-02  0.9785459E-01
          3   -1    0    0  501    0  0.00000000000E+00  0.00000000000E+00  0.11674069750E+04  0.11674069750E+04  0.00000000000E+00 0. -1.
         -4   -1    0    0    0  501 -0.00000000000E+00 -0.00000000000E+00 -0.43884616855E+03  0.43884616855E+03  0.00000000000E+00 0.  1.
        -24    2    1    2    0    0  0.15536587768E+03  0.54170272672E+03  0.11771780929E+03  0.58139826533E+03  0.81154545278E+02 0.  0.
    5000000    2    1    2    0    0 -0.15536587768E+03 -0.54170272672E+03  0.61084299713E+03  0.10248548782E+04  0.59968154394E+03 0.  0.
        -24    2    4    4    0    0  0.16816093750E+03 -0.73231882518E+02  0.20511207489E+02  0.20087879130E+03  0.79313111436E+02 0.  0.
         24    2    4    4    0    0 -0.32352681518E+03 -0.46847084420E+03  0.59033178964E+03  0.82397608689E+03  0.79438264755E+02 0.  0.
         11    1    5    5    0    0  0.45900046966E+02 -0.24252041781E+01  0.36498364763E+02  0.58692644830E+02  0.00000000000E+00 0. -1.
        -12    1    5    5    0    0  0.12226089053E+03 -0.70806678340E+02 -0.15987157274E+02  0.14218614647E+03  0.00000000000E+00 0.  1.
         15    1    3    3    0    0  0.97384313561E+02  0.37855284290E+03  0.44500204330E+02  0.39340740373E+03  0.17770000000E+01 0. -1.
        -16    1    3    3    0    0  0.57981564118E+02  0.16314988382E+03  0.73217604963E+02  0.18799086160E+03  0.00000000000E+00 0.  1.
          2    1    6    6  502    0 -0.18398240085E+03 -0.22066321184E+03  0.33969403799E+03  0.44489753464E+03  0.00000000000E+00 0. -1.
         -1    1    6    6    0  502 -0.13954441432E+03 -0.24780763237E+03  0.25063775165E+03  0.37907855226E+03  0.00000000000E+00 0.  1.
<mgrwt>
<rscale>  0 0.66148742E+03</rscale>
<asrwt>0</asrwt>
<pdfrwt beam="1">  1        3 0.17960107E+00 0.66148742E+03</pdfrwt>
<pdfrwt beam="2">  1       -4 0.67514796E-01 0.66148742E+03</pdfrwt>
<totfact> 0.91966642E-01</totfact>
</mgrwt>
</event>
<event>
12    3  0.1092576E-007  0.6709264E+03  0.7818608E-02  0.9768286E-01
          1   -1    0    0  501    0  0.00000000000E+00  0.00000000000E+00  0.32924280115E+03  0.32924280115E+03  0.00000000000E+00 0. -1.
         -2   -1    0    0    0  501 -0.00000000000E+00 -0.00000000000E+00 -0.14362046279E+04  0.14362046279E+04  0.00000000000E+00 0.  1.
        -24    2    1    2    0    0 -0.80473583741E+02 -0.54550001069E+03 -0.49751243186E+03  0.74786959969E+03  0.88000334941E+02 0.  0.
    5000000    2    1    2    0    0  0.80473583741E+02  0.54550001069E+03 -0.60944939489E+03  0.10175778294E+04  0.59999151206E+03 0.  0.
        -24    2    4    4    0    0  0.26986884573E+03  0.50920657714E+03 -0.32951620243E+03  0.66843174087E+03  0.78099503444E+02 0.  0.
         24    2    4    4    0    0 -0.18939526199E+03  0.36293433545E+02 -0.27993319246E+03  0.34914608850E+03  0.79703326727E+02 0.  0.
         11    1    5    5    0    0  0.25994562453E+03  0.50399102821E+03 -0.33176471153E+03  0.65699810353E+03  0.00000000000E+00 0. -1.
        -12    1    5    5    0    0  0.99232211948E+01  0.52155489305E+01  0.22485090996E+01  0.11433637335E+02  0.00000000000E+00 0.  1.
         15    1    3    3    0    0  0.14686276169E+02 -0.12502623971E+03 -0.13509232395E+03  0.18466277654E+03  0.17770000000E+01 0. -1.
        -16    1    3    3    0    0 -0.95159859911E+02 -0.42047377098E+03 -0.36242010791E+03  0.56320682315E+03  0.00000000000E+00 0.  1.
          2    1    6    6  502    0 -0.51022506201E+02 -0.23061105482E+02 -0.99220872154E+02  0.11392932983E+03  0.00000000000E+00 0. -1.
         -1    1    6    6    0  502 -0.13837275578E+03  0.59354539028E+02 -0.18071232031E+03  0.23521675867E+03  0.00000000000E+00 0.  1.
<mgrwt>
<rscale>  0 0.67092642E+03</rscale>
<asrwt>0</asrwt>
<pdfrwt beam="1">  1        1 0.50652737E-01 0.67092642E+03</pdfrwt>
<pdfrwt beam="2">  1       -2 0.22095456E+00 0.67092642E+03</pdfrwt>
<totfact> 0.68489173E+00</totfact>
</mgrwt>
</event>
<event>
12    3  0.1092576E-007  0.7626309E+03  0.7818608E-02  0.9615740E-01
          1   -1    0    0  501    0  0.00000000000E+00  0.00000000000E+00  0.68528020021E+03  0.68528020021E+03  0.00000000000E+00 0. -1.
         -2   -1    0    0    0  501 -0.00000000000E+00 -0.00000000000E+00 -0.12056223711E+04  0.12056223711E+04  0.00000000000E+00 0.  1.
        -24    2    1    2    0    0  0.44910273482E+03  0.48433742948E+03  0.25144718484E+03  0.71113251694E+03  0.78789325844E+02 0.  0.
    5000000    2    1    2    0    0 -0.44910273482E+03 -0.48433742948E+03 -0.77178935569E+03  0.11797700543E+04  0.59993546281E+03 0.  0.
        -24    2    4    4    0    0  0.12935312792E+03 -0.55970384913E+02 -0.19425198102E+03  0.25352170077E+03  0.81697643434E+02 0.  0.
         24    2    4    4    0    0 -0.57845586275E+03 -0.42836704456E+03 -0.57753737467E+03  0.92624835356E+03  0.79228046320E+02 0.  0.
         11    1    5    5    0    0  0.94729785979E+02 -0.41620929270E+02 -0.18927902261E+03  0.21571412217E+03  0.00000000000E+00 0. -1.
        -12    1    5    5    0    0  0.34623341942E+02 -0.14349455643E+02 -0.49729584142E+01  0.37807578604E+02  0.00000000000E+00 0.  1.
         15    1    3    3    0    0  0.15426790415E+03  0.13305464734E+03  0.47377560199E+02  0.20916480672E+03  0.17770000000E+01 0. -1.
        -16    1    3    3    0    0  0.29483483067E+03  0.35128278214E+03  0.20406962464E+03  0.50196771022E+03  0.00000000000E+00 0.  1.
          4    1    6    6  502    0 -0.22422799157E+03 -0.20037081730E+03 -0.27621308194E+03  0.40831400082E+03  0.00000000000E+00 0. -1.
         -3    1    6    6    0  502 -0.35422787117E+03 -0.22799622726E+03 -0.30132429273E+03  0.51793435274E+03  0.00000000000E+00 0.  1.
<mgrwt>
<rscale>  0 0.76263090E+03</rscale>
<asrwt>0</asrwt>
<pdfrwt beam="1">  1        1 0.10542772E+00 0.76263090E+03</pdfrwt>
<pdfrwt beam="2">  1       -2 0.18548036E+00 0.76263090E+03</pdfrwt>
<totfact> 0.41950156E+00</totfact>
</mgrwt>
</event>
<event>
12    3  0.1092576E-007  0.7186161E+03  0.7818608E-02  0.9685915E-01
         -2   -1    0    0    0  501 -0.00000000000E+00  0.00000000000E+00  0.87905263830E+03  0.87905263830E+03  0.00000000000E+00 0.  1.
          1   -1    0    0  501    0  0.00000000000E+00 -0.00000000000E+00 -0.11755396676E+04  0.11755396676E+04  0.00000000000E+00 0. -1.
        -24    2    1    2    0    0 -0.40922311541E+02  0.60117321360E+03  0.57527149968E+03  0.83670708101E+03  0.77830410156E+02 0.  0.
    5000000    2    1    2    0    0  0.40922311541E+02 -0.60117321360E+03 -0.87175852894E+03  0.12178852249E+04  0.60016466058E+03 0.  0.
        -24    2    4    4    0    0 -0.20461981358E+03 -0.47490161097E+02 -0.13990593157E+03  0.26432874047E+03  0.78558448558E+02 0.  0.
         24    2    4    4    0    0  0.24554212512E+03 -0.55368305250E+03 -0.73185259737E+03  0.95355648439E+03  0.82497798786E+02 0.  0.
         13    1    5    5    0    0  0.61617737390E+01  0.23182183025E+01 -0.93534948155E+01  0.11438070509E+02  0.00000000000E+00 0. -1.
        -14    1    5    5    0    0 -0.21078158732E+03 -0.49808379400E+02 -0.13055243675E+03  0.25289066996E+03  0.00000000000E+00 0.  1.
         15    1    3    3    0    0  0.90686003078E+01  0.63701212119E+02  0.91384473078E+02  0.11177818922E+03  0.17770000000E+01 0. -1.
        -16    1    3    3    0    0 -0.49990911849E+02  0.53747200148E+03  0.48388702660E+03  0.72492889179E+03  0.00000000000E+00 0.  1.
          4    1    6    6  502    0  0.19919203603E+03 -0.50410460020E+03 -0.62895047029E+03  0.83028766656E+03  0.00000000000E+00 0. -1.
         -3    1    6    6    0  502  0.46350089090E+02 -0.49578452298E+02 -0.10290212708E+03  0.12326881783E+03  0.00000000000E+00 0.  1.
<mgrwt>
<rscale>  0 0.71861611E+03</rscale>
<asrwt>0</asrwt>
<pdfrwt beam="1">  1        1 0.18085225E+00 0.71861611E+03</pdfrwt>
<pdfrwt beam="2">  1       -2 0.13523887E+00 0.71861611E+03</pdfrwt>
<totfact> 0.39615533E+00</totfact>
</mgrwt>
</event>
<event>
12    3  0.1092576E-007  0.7768265E+03  0.7818608E-02  0.9594179E-01
         -2   -1    0    0    0  501 -0.00000000000E+00  0.00000000000E+00  0.38516768685E+03  0.38516768685E+03  0.00000000000E+00 0.  1.
          1   -1    0    0  501    0  0.00000000000E+00 -0.00000000000E+00 -0.21668502553E+04  0.21668502553E+04  0.00000000000E+00 0. -1.
        -24    2    1    2    0    0 -0.55842071626E+03 -0.38518661493E+03 -0.14227859133E+04  0.15777926867E+04  0.70054140570E+02 0.  0.
    5000000    2    1    2    0    0  0.55842071626E+03  0.38518661493E+03 -0.35889665518E+03  0.97422525542E+03  0.60008800565E+03 0.  0.
        -24    2    4    4    0    0  0.20248682847E+03  0.45509748407E+03 -0.32835845176E+03  0.60192247122E+03  0.79854572857E+02 0.  0.
         24    2    4    4    0    0  0.35593388779E+03 -0.69910869135E+02 -0.30538203421E+02  0.37230278420E+03  0.78104539912E+02 0.  0.
         11    1    5    5    0    0  0.58107919154E+02  0.22785414824E+03 -0.15890145603E+03  0.28380224782E+03  0.00000000000E+00 0. -1.
        -12    1    5    5    0    0  0.14437890931E+03  0.22724333582E+03 -0.16945699573E+03  0.31812022339E+03  0.00000000000E+00 0.  1.
         15    1    3    3    0    0 -0.11944828451E+03 -0.88552953289E+02 -0.24983177741E+03  0.29073801427E+03  0.17770000000E+01 0. -1.
        -16    1    3    3    0    0 -0.43897243175E+03 -0.29663366164E+03 -0.11729541359E+04  0.12870546725E+04  0.00000000000E+00 0.  1.
          2    1    6    6  502    0  0.23911146362E+00 -0.10077577566E+02  0.14965258372E+01  0.10190894635E+02  0.00000000000E+00 0. -1.
         -1    1    6    6    0  502  0.35569477633E+03 -0.59833291570E+02 -0.32034729258E+02  0.36211188957E+03  0.00000000000E+00 0.  1.
<mgrwt>
<rscale>  0 0.77682649E+03</rscale>
<asrwt>0</asrwt>
<pdfrwt beam="1">  1        1 0.33336158E+00 0.77682649E+03</pdfrwt>
<pdfrwt beam="2">  1       -2 0.59256566E-01 0.77682649E+03</pdfrwt>
<totfact> 0.55848819E+00</totfact>
</mgrwt>
</event>
<event>
12    3  0.1092576E-007  0.1431349E+04  0.7818608E-02  0.8931434E-01
          1   -1    0    0  501    0  0.00000000000E+00  0.00000000000E+00  0.99684881402E+03  0.99684881402E+03  0.00000000000E+00 0. -1.
         -2   -1    0    0    0  501 -0.00000000000E+00 -0.00000000000E+00 -0.21433858513E+04  0.21433858513E+04  0.00000000000E+00 0.  1.
        -24    2    1    2    0    0 -0.13959904678E+04  0.40041690960E+02 -0.63775798056E+03  0.15373489484E+04  0.79459575501E+02 0.  0.
    5000000    2    1    2    0    0  0.13959904678E+04 -0.40041690960E+02 -0.50877905674E+03  0.16028857170E+04  0.59999480828E+03 0.  0.
        -24    2    4    4    0    0  0.10258831899E+03 -0.12496368078E+03 -0.19748118252E+03  0.26739432000E+03  0.79753496549E+02 0.  0.
         24    2    4    4    0    0  0.12934021488E+04  0.84921989821E+02 -0.31129787422E+03  0.13354913970E+04  0.80808675610E+02 0.  0.
         13    1    5    5    0    0  0.88093072588E+02 -0.74172788089E+02 -0.85011793568E+02  0.14313978125E+03  0.00000000000E+00 0. -1.
        -14    1    5    5    0    0  0.14495246401E+02 -0.50790892692E+02 -0.11246938895E+03  0.12425453875E+03  0.00000000000E+00 0.  1.
         15    1    3    3    0    0 -0.81624931091E+03  0.58882161120E+01 -0.41097484747E+03  0.91389336995E+03  0.17770000000E+01 0. -1.
        -16    1    3    3    0    0 -0.57974115687E+03  0.34153474848E+02 -0.22678313309E+03  0.62345557843E+03  0.00000000000E+00 0.  1.
          2    1    6    6  502    0  0.10137378217E+04  0.40641595143E+02 -0.26492347323E+03  0.10485707210E+04  0.00000000000E+00 0. -1.
         -1    1    6    6    0  502  0.27966432711E+03  0.44280394678E+02 -0.46374400988E+02  0.28692067593E+03  0.00000000000E+00 0.  1.
<mgrwt>
<rscale>  0 0.14313493E+04</rscale>
<asrwt>0</asrwt>
<pdfrwt beam="1">  1        1 0.15336136E+00 0.14313493E+04</pdfrwt>
<pdfrwt beam="2">  1       -2 0.32975167E+00 0.14313493E+04</pdfrwt>
<totfact> 0.26591318E-01</totfact>
</mgrwt>
</event>
<event>
12    3  0.1092576E-007  0.6248217E+03  0.7818608E-02  0.9855206E-01
          1   -1    0    0  501    0  0.00000000000E+00  0.00000000000E+00  0.11903644279E+04  0.11903644279E+04  0.00000000000E+00 0. -1.
         -2   -1    0    0    0  501 -0.00000000000E+00 -0.00000000000E+00 -0.49194969980E+03  0.49194969980E+03  0.00000000000E+00 0.  1.
        -24    2    1    2    0    0 -0.33515799445E+03  0.43902310037E+03  0.66228872323E+03  0.86606257134E+03  0.79786343750E+02 0.  0.
    5000000    2    1    2    0    0  0.33515799445E+03 -0.43902310037E+03  0.36126004888E+02  0.81625155638E+03  0.59990778554E+03 0.  0.
        -24    2    4    4    0    0  0.36290787320E+03 -0.14477839790E+03  0.22358217011E+03  0.45719655912E+03  0.79854855551E+02 0.  0.
         24    2    4    4    0    0 -0.27749878754E+02 -0.29424470247E+03 -0.18745616522E+03  0.35905499725E+03  0.80191498725E+02 0.  0.
         13    1    5    5    0    0  0.10871847631E+03 -0.39269362226E+02  0.26223912240E+02  0.11853051705E+03  0.00000000000E+00 0. -1.
        -14    1    5    5    0    0  0.25418939690E+03 -0.10550903567E+03  0.19735825787E+03  0.33866604207E+03  0.00000000000E+00 0.  1.
         15    1    3    3    0    0 -0.11944843500E+03  0.22080500211E+03  0.28715927908E+03  0.38142677786E+03  0.17770000000E+01 0. -1.
        -16    1    3    3    0    0 -0.21570955945E+03  0.21821809826E+03  0.37512944416E+03  0.48463579348E+03  0.00000000000E+00 0.  1.
          2    1    6    6  502    0  0.12326958614E+02 -0.16890389031E+03 -0.13806039734E+03  0.21849748599E+03  0.00000000000E+00 0. -1.
         -1    1    6    6    0  502 -0.40076837368E+02 -0.12534081216E+03 -0.49395767876E+02  0.14055751126E+03  0.00000000000E+00 0.  1.
<mgrwt>
<rscale>  0 0.62482170E+03</rscale>
<asrwt>0</asrwt>
<pdfrwt beam="1">  1        1 0.18313299E+00 0.62482170E+03</pdfrwt>
<pdfrwt beam="2">  1       -2 0.75684570E-01 0.62482170E+03</pdfrwt>
<totfact> 0.15549065E+01</totfact>
</mgrwt>
</event>
<event>
12    3  0.1092576E-007  0.7717558E+03  0.7818608E-02  0.9601824E-01
         -2   -1    0    0    0  501 -0.00000000000E+00  0.00000000000E+00  0.99845613876E+03  0.99845613876E+03  0.00000000000E+00 0.  1.
          1   -1    0    0  501    0  0.00000000000E+00 -0.00000000000E+00 -0.60737078459E+03  0.60737078459E+03  0.00000000000E+00 0. -1.
        -24    2    1    2    0    0  0.46919413973E+03  0.45832818412E+03  0.24591972046E+03  0.70512643333E+03  0.80739785464E+02 0.  0.
    5000000    2    1    2    0    0 -0.46919413973E+03 -0.45832818412E+03  0.14516563371E+03  0.90070049001E+03  0.59998370509E+03 0.  0.
        -24    2    4    4    0    0 -0.48117655398E+03 -0.57038548764E+03  0.12414653901E+03  0.76072542465E+03  0.80126948956E+02 0.  0.
         24    2    4    4    0    0  0.11982414248E+02  0.11205730352E+03  0.21019094699E+02  0.13997506536E+03  0.80316866589E+02 0.  0.
         11    1    5    5    0    0 -0.90665422078E+02 -0.85975496920E+02 -0.58118377396E+01  0.12508310153E+03  0.00000000000E+00 0. -1.
        -12    1    5    5    0    0 -0.39051113190E+03 -0.48440999072E+03  0.12995837675E+03  0.63564232311E+03  0.00000000000E+00 0.  1.
         15    1    3    3    0    0  0.15887385829E+03  0.19129637535E+03  0.12454077625E+03  0.27811646616E+03  0.17770000000E+01 0. -1.
        -16    1    3    3    0    0  0.31032028144E+03  0.26703180877E+03  0.12137894421E+03  0.42700996717E+03  0.00000000000E+00 0.  1.
          4    1    6    6  502    0  0.39254845767E+02  0.23804006545E+02  0.43743751765E+01  0.46116253122E+02  0.00000000000E+00 0. -1.
         -3    1    6    6    0  502 -0.27272431519E+02  0.88253296972E+02  0.16644719522E+02  0.93858812241E+02  0.00000000000E+00 0.  1.
<mgrwt>
<rscale>  0 0.77175578E+03</rscale>
<asrwt>0</asrwt>
<pdfrwt beam="1">  1        1 0.93441659E-01 0.77175578E+03</pdfrwt>
<pdfrwt beam="2">  1       -2 0.15360864E+00 0.77175578E+03</pdfrwt>
<totfact> 0.84390138E+00</totfact>
</mgrwt>
</event>
<event>
12    3  0.1092576E-007  0.8488561E+03  0.7818608E-02  0.9491873E-01
         -2   -1    0    0    0  501 -0.00000000000E+00  0.00000000000E+00  0.32074941501E+03  0.32074941501E+03  0.00000000000E+00 0.  1.
          1   -1    0    0  501    0  0.00000000000E+00 -0.00000000000E+00 -0.24192717655E+04  0.24192717655E+04  0.00000000000E+00 0. -1.
        -24    2    1    2    0    0 -0.30167335653E+03 -0.71475430289E+03 -0.87912674508E+03  0.11751451515E+04  0.78878169298E+02 0.  0.
    5000000    2    1    2    0    0  0.30167335653E+03  0.71475430289E+03 -0.12193956054E+04  0.15648760290E+04  0.60002567959E+03 0.  0.
        -24    2    4    4    0    0  0.32064901838E+03  0.15318679498E+03 -0.72674606403E+03  0.81294364034E+03  0.80221777898E+02 0.  0.
         24    2    4    4    0    0 -0.18975661845E+02  0.56156750791E+03 -0.49264954137E+03  0.75193238867E+03  0.83550013978E+02 0.  0.
         13    1    5    5    0    0  0.17143042302E+03  0.82535813280E+02 -0.47714222740E+03  0.51367816343E+03  0.00000000000E+00 0. -1.
        -14    1    5    5    0    0  0.14921859535E+03  0.70650981704E+02 -0.24960383663E+03  0.29926547692E+03  0.00000000000E+00 0.  1.
         15    1    3    3    0    0 -0.11544057775E+03 -0.36789453740E+03 -0.41332657450E+03  0.56525651925E+03  0.17770000000E+01 0. -1.
        -16    1    3    3    0    0 -0.18623277878E+03 -0.34685976549E+03 -0.46580017058E+03  0.60988863223E+03  0.00000000000E+00 0.  1.
          2    1    6    6  502    0 -0.26498966389E+02  0.24788227182E+03 -0.26804046479E+03  0.36605123503E+03  0.00000000000E+00 0. -1.
         -1    1    6    6    0  502  0.75233045448E+01  0.31368523608E+03 -0.22460907658E+03  0.38588115363E+03  0.00000000000E+00 0.  1.
<mgrwt>
<rscale>  0 0.84885615E+03</rscale>
<asrwt>0</asrwt>
<pdfrwt beam="1">  1        1 0.37219566E+00 0.84885615E+03</pdfrwt>
<pdfrwt beam="2">  1       -2 0.49346064E-01 0.84885615E+03</pdfrwt>
<totfact> 0.54487115E+00</totfact>
</mgrwt>
</event>
<event>
12    3  0.1105139E-007  0.4834179E+03  0.7818608E-02  0.1018200E+00
         -2   -1    0    0    0  501 -0.00000000000E+00  0.00000000000E+00  0.17558659981E+03  0.17558659981E+03  0.00000000000E+00 0.  1.
          1   -1    0    0  501    0  0.00000000000E+00 -0.00000000000E+00 -0.18754173735E+04  0.18754173735E+04  0.00000000000E+00 0. -1.
        -24    2    1    2    0    0  0.31495565390E+03 -0.25776878665E+03 -0.50777029134E+03  0.65571273205E+03  0.80540095040E+02 0.  0.
    5000000    2    1    2    0    0 -0.31495565390E+03  0.25776878665E+03 -0.11920604823E+04  0.13952912412E+04  0.60015634884E+03 0.  0.
        -24    2    4    4    0    0  0.63548157346E+02  0.80895000476E+02 -0.81947198831E+03  0.82981608682E+03  0.80486203221E+02 0.  0.
         24    2    4    4    0    0 -0.37850381125E+03  0.17687378617E+03 -0.37258849401E+03  0.56547515441E+03  0.79940559330E+02 0.  0.
         13    1    5    5    0    0  0.40121112568E+02  0.93872506092E+02 -0.58754482258E+03  0.59634777573E+03  0.00000000000E+00 0. -1.
        -14    1    5    5    0    0  0.23427044778E+02 -0.12977505616E+02 -0.23192716574E+03  0.23346831109E+03  0.00000000000E+00 0.  1.
         15    1    3    3    0    0  0.10908117519E+03 -0.14073840169E+03 -0.21777297854E+03  0.28130806672E+03  0.17770000000E+01 0. -1.
        -16    1    3    3    0    0  0.20587447871E+03 -0.11703038496E+03 -0.28999731280E+03  0.37440466532E+03  0.00000000000E+00 0.  1.
          2    1    6    6  502    0 -0.25235767624E+03  0.15171945438E+03 -0.23156678243E+03  0.37460160747E+03  0.00000000000E+00 0. -1.
         -1    1    6    6    0  502 -0.12614613501E+03  0.25154331790E+02 -0.14102171158E+03  0.19087354694E+03  0.00000000000E+00 0.  1.
<mgrwt>
<rscale>  0 0.48341787E+03</rscale>
<asrwt>0</asrwt>
<pdfrwt beam="1">  1        1 0.28852576E+00 0.48341787E+03</pdfrwt>
<pdfrwt beam="2">  1       -2 0.27013323E-01 0.48341787E+03</pdfrwt>
<totfact> 0.42424276E+01</totfact>
</mgrwt>
</event>
<event>
12    3  0.1120645E-007  0.7927352E+03  0.7818608E-02  0.9570592E-01
         -2   -1    0    0    0  501 -0.00000000000E+00  0.00000000000E+00  0.47362552485E+03  0.47362552485E+03  0.00000000000E+00 0.  1.
          1   -1    0    0  501    0  0.00000000000E+00 -0.00000000000E+00 -0.21042714044E+04  0.21042714044E+04  0.00000000000E+00 0. -1.
        -24    2    1    2    0    0  0.67473393821E+03 -0.11433985596E+03  0.23887321891E+02  0.68952116563E+03  0.80804354236E+02 0.  0.
    5000000    2    1    2    0    0 -0.67473393821E+03  0.11433985596E+03 -0.16545332014E+04  0.18883757636E+04  0.60011950470E+03 0.  0.
        -24    2    4    4    0    0 -0.42651125598E+03  0.35352963526E+03 -0.97394229874E+03  0.11225198821E+04  0.67765993470E+02 0.  0.
         24    2    4    4    0    0 -0.24822268224E+03 -0.23918977930E+03 -0.68059090266E+03  0.76585588152E+03  0.67119326399E+02 0.  0.
         13    1    5    5    0    0 -0.16402393110E+03  0.14271886087E+03 -0.31793591138E+03  0.38516978979E+03  0.00000000000E+00 0. -1.
        -14    1    5    5    0    0 -0.26248732488E+03  0.21081077440E+03 -0.65600638736E+03  0.73735009228E+03  0.00000000000E+00 0.  1.
         15    1    3    3    0    0  0.15338764468E+03 -0.49404118972E+02  0.30933006336E+02  0.16409919293E+03  0.17770000000E+01 0. -1.
        -16    1    3    3    0    0  0.52134629353E+03 -0.64935736991E+02 -0.70456844451E+01  0.52542197269E+03  0.00000000000E+00 0.  1.
          4    1    6    6  502    0 -0.87419070633E+02 -0.77712979705E+02 -0.16607653446E+03  0.20313250952E+03  0.00000000000E+00 0. -1.
         -3    1    6    6    0  502 -0.16080361160E+03 -0.16147679959E+03 -0.51451436820E+03  0.56272337200E+03  0.00000000000E+00 0.  1.
<mgrwt>
<rscale>  0 0.79273522E+03</rscale>
<asrwt>0</asrwt>
<pdfrwt beam="1">  1        1 0.32373406E+00 0.79273522E+03</pdfrwt>
<pdfrwt beam="2">  1       -2 0.72865466E-01 0.79273522E+03</pdfrwt>
<totfact> 0.39302580E+00</totfact>
</mgrwt>
</event>
<event>
12    3  0.1092576E-007  0.7460881E+03  0.7818608E-02  0.9641508E-01
          1   -1    0    0  501    0  0.00000000000E+00  0.00000000000E+00  0.11966693893E+04  0.11966693893E+04  0.00000000000E+00 0. -1.
         -2   -1    0    0    0  501 -0.00000000000E+00 -0.00000000000E+00 -0.60380992127E+03  0.60380992127E+03  0.00000000000E+00 0.  1.
        -24    2    1    2    0    0 -0.51350238241E+03  0.51004650826E+03  0.43139555247E+03  0.84646389290E+03  0.81036176852E+02 0.  0.
    5000000    2    1    2    0    0  0.51350238241E+03 -0.51004650826E+03  0.16146391558E+03  0.95401541770E+03  0.60020220247E+03 0.  0.
        -24    2    4    4    0    0  0.18636147296E+03 -0.33212747697E+03  0.35538620786E+03  0.52664334521E+03  0.77553831340E+02 0.  0.
         24    2    4    4    0    0  0.32714090945E+03 -0.17791903129E+03 -0.19392229228E+03  0.42737207249E+03  0.79778923089E+02 0.  0.
         11    1    5    5    0    0  0.62161585708E+01 -0.64381740193E+02  0.44215840990E+02  0.78349790632E+02  0.00000000000E+00 0. -1.
        -12    1    5    5    0    0  0.18014531439E+03 -0.26774573678E+03  0.31117036687E+03  0.44829355458E+03  0.00000000000E+00 0.  1.
         15    1    3    3    0    0 -0.27505383936E+03  0.23697765955E+03  0.17948015453E+03  0.40500532005E+03  0.17770000000E+01 0. -1.
        -16    1    3    3    0    0 -0.23844854306E+03  0.27306884870E+03  0.25191539794E+03  0.44145857284E+03  0.00000000000E+00 0.  1.
          2    1    6    6  502    0  0.22152335039E+03 -0.81051543584E+02 -0.10118422583E+03  0.25667137558E+03  0.00000000000E+00 0. -1.
         -1    1    6    6    0  502  0.10561755906E+03 -0.96867487706E+02 -0.92738066449E+02  0.17070069691E+03  0.00000000000E+00 0.  1.
<mgrwt>
<rscale>  0 0.74608806E+03</rscale>
<asrwt>0</asrwt>
<pdfrwt beam="1">  1        1 0.18410298E+00 0.74608806E+03</pdfrwt>
<pdfrwt beam="2">  1       -2 0.92893834E-01 0.74608806E+03</pdfrwt>
<totfact> 0.95112136E+00</totfact>
</mgrwt>
</event>
<event>
12    3  0.1092576E-007  0.6507176E+03  0.7818608E-02  0.9805434E-01
          1   -1    0    0  501    0  0.00000000000E+00  0.00000000000E+00  0.15557389244E+04  0.15557389244E+04  0.00000000000E+00 0. -1.
         -2   -1    0    0    0  501 -0.00000000000E+00 -0.00000000000E+00 -0.28796501969E+03  0.28796501969E+03  0.00000000000E+00 0.  1.
        -24    2    1    2    0    0  0.39257356755E+03 -0.35053408454E+03  0.41206406460E+03  0.67355810750E+03  0.83039631971E+02 0.  0.
    5000000    2    1    2    0    0 -0.39257356755E+03  0.35053408454E+03  0.85570984015E+03  0.11701458366E+04  0.60001149830E+03 0.  0.
        -24    2    4    4    0    0 -0.23969214632E+03 -0.11899024399E+03  0.20094740902E+03  0.34660876732E+03  0.90259477175E+02 0.  0.
         24    2    4    4    0    0 -0.15288142123E+03  0.46952432853E+03  0.65476243113E+03  0.82353706931E+03  0.75323563811E+02 0.  0.
         11    1    5    5    0    0 -0.12910332022E+03 -0.99159780268E+02  0.79508254480E+02  0.18116813143E+03  0.00000000000E+00 0. -1.
        -12    1    5    5    0    0 -0.11058882609E+03 -0.19830463726E+02  0.12143915454E+03  0.16544063589E+03  0.00000000000E+00 0.  1.
         15    1    3    3    0    0  0.13841129470E+03 -0.75808613556E+02  0.13847302951E+03  0.20995849595E+03  0.17770000000E+01 0. -1.
        -16    1    3    3    0    0  0.25416227285E+03 -0.27472547098E+03  0.27359103509E+03  0.46359961155E+03  0.00000000000E+00 0.  1.
          4    1    6    6  502    0 -0.15282546164E+02  0.70131196244E+02  0.14255837843E+03  0.15960837123E+03  0.00000000000E+00 0. -1.
         -3    1    6    6    0  502 -0.13759887507E+03  0.39939313229E+03  0.51220405269E+03  0.66392869808E+03  0.00000000000E+00 0.  1.
<mgrwt>
<rscale>  0 0.65071755E+03</rscale>
<asrwt>0</asrwt>
<pdfrwt beam="1">  1        1 0.23934444E+00 0.65071755E+03</pdfrwt>
<pdfrwt beam="2">  1       -2 0.44302312E-01 0.65071755E+03</pdfrwt>
<totfact> 0.26479195E+01</totfact>
</mgrwt>
</event>
<event>
12    3  0.1092576E-007  0.7102457E+03  0.7818608E-02  0.9699869E-01
         -4   -1    0    0    0  501 -0.00000000000E+00  0.00000000000E+00  0.72747227844E+03  0.72747227844E+03  0.00000000000E+00 0.  1.
          3   -1    0    0  501    0  0.00000000000E+00 -0.00000000000E+00 -0.91078122195E+03  0.91078122195E+03  0.00000000000E+00 0. -1.
        -24    2    1    2    0    0  0.60975169851E+03 -0.19786658231E+03  0.20524953652E+03  0.67805852274E+03  0.81778174238E+02 0.  0.
    5000000    2    1    2    0    0 -0.60975169851E+03  0.19786658231E+03 -0.38855848004E+03  0.96019497765E+03  0.60004031903E+03 0.  0.
        -24    2    4    4    0    0 -0.28693161506E+03  0.31709387438E+03  0.19151292551E+01  0.43432918104E+03  0.75893958180E+02 0.  0.
         24    2    4    4    0    0 -0.32282008345E+03 -0.11922729207E+03 -0.39047360929E+03  0.52586579662E+03  0.75081575943E+02 0.  0.
         11    1    5    5    0    0 -0.19407128765E+03  0.24513419831E+03  0.28263805463E+02  0.31393197125E+03  0.00000000000E+00 0. -1.
        -12    1    5    5    0    0 -0.92860327414E+02  0.71959676067E+02 -0.26348676208E+02  0.12039720979E+03  0.00000000000E+00 0.  1.
         15    1    3    3    0    0  0.34106698153E+03 -0.68501773947E+02  0.10301084651E+03  0.36281341093E+03  0.17770000000E+01 0. -1.
        -16    1    3    3    0    0  0.26868471698E+03 -0.12936480836E+03  0.10223869001E+03  0.31524511181E+03  0.00000000000E+00 0.  1.
          2    1    6    6  502    0 -0.16245569393E+03 -0.65108224771E+02 -0.25394208478E+03  0.30841127710E+03  0.00000000000E+00 0. -1.
         -1    1    6    6    0  502 -0.16036438952E+03 -0.54119067296E+02 -0.13653152451E+03  0.21745451951E+03  0.00000000000E+00 0.  1.
<mgrwt>
<rscale>  0 0.71024566E+03</rscale>
<asrwt>0</asrwt>
<pdfrwt beam="1">  1        3 0.14012019E+00 0.71024566E+03</pdfrwt>
<pdfrwt beam="2">  1       -4 0.11191881E+00 0.71024566E+03</pdfrwt>
<totfact> 0.54565887E-01</totfact>
</mgrwt>
</event>
<event>
12    3  0.1092576E-007  0.1249958E+04  0.7818608E-02  0.9070218E-01
          1   -1    0    0  501    0  0.00000000000E+00  0.00000000000E+00  0.95520261784E+03  0.95520261784E+03  0.00000000000E+00 0. -1.
         -2   -1    0    0    0  501 -0.00000000000E+00 -0.00000000000E+00 -0.18044983484E+04  0.18044983484E+04  0.00000000000E+00 0.  1.
        -24    2    1    2    0    0 -0.16103507751E+03  0.11748850383E+04 -0.12225115895E+02  0.11889302461E+04  0.84371365293E+02 0.  0.
    5000000    2    1    2    0    0  0.16103507751E+03 -0.11748850383E+04 -0.83707061470E+03  0.15707707201E+04  0.60028850709E+03 0.  0.
        -24    2    4    4    0    0  0.30040382587E+03 -0.29723150722E+03 -0.34839303159E+03  0.55355960902E+03  0.80383510755E+02 0.  0.
         24    2    4    4    0    0 -0.13936874836E+03 -0.87765353110E+03 -0.48867758311E+03  0.10172111111E+04  0.78824460884E+02 0.  0.
         13    1    5    5    0    0  0.11522698377E+03 -0.12313466161E+03 -0.90162461973E+02  0.19122937073E+03  0.00000000000E+00 0. -1.
        -14    1    5    5    0    0  0.18517684210E+03 -0.17409684561E+03 -0.25823056962E+03  0.36233023830E+03  0.00000000000E+00 0.  1.
         15    1    3    3    0    0 -0.12445592442E+03  0.80810776158E+03 -0.45031925876E+02  0.81887634203E+03  0.17770000000E+01 0. -1.
        -16    1    3    3    0    0 -0.36579153084E+02  0.36677727674E+03  0.32806809981E+02  0.37005390412E+03  0.00000000000E+00 0.  1.
          2    1    6    6  502    0 -0.10414973323E+03 -0.45545985997E+03 -0.22922717701E+03  0.52041901354E+03  0.00000000000E+00 0. -1.
         -1    1    6    6    0  502 -0.35219015133E+02 -0.42219367114E+03 -0.25945040609E+03  0.49679209756E+03  0.00000000000E+00 0.  1.
<mgrwt>
<rscale>  0 0.12499578E+04</rscale>
<asrwt>0</asrwt>
<pdfrwt beam="1">  1        1 0.14695425E+00 0.12499578E+04</pdfrwt>
<pdfrwt beam="2">  1       -2 0.27761513E+00 0.12499578E+04</pdfrwt>
<totfact> 0.61031221E-01</totfact>
</mgrwt>
</event>
<event>
12    3  0.1092576E-007  0.8994558E+03  0.7818608E-02  0.9426262E-01
         -2   -1    0    0    0  501 -0.00000000000E+00  0.00000000000E+00  0.11443950024E+04  0.11443950024E+04  0.00000000000E+00 0.  1.
          1   -1    0    0  501    0  0.00000000000E+00 -0.00000000000E+00 -0.82739996389E+03  0.82739996389E+03  0.00000000000E+00 0. -1.
        -24    2    1    2    0    0  0.22214455048E+03 -0.83703613388E+03 -0.64293255565E+01  0.86969675595E+03  0.79708345660E+02 0.  0.
    5000000    2    1    2    0    0 -0.22214455048E+03  0.83703613388E+03  0.32342436406E+03  0.11020982103E+04  0.60003287846E+03 0.  0.
        -24    2    4    4    0    0 -0.17025900939E+03  0.12135792391E+03  0.30705357409E+03  0.37962663815E+03  0.78221551107E+02 0.  0.
         24    2    4    4    0    0 -0.51885541087E+02  0.71567820997E+03  0.16370789975E+02  0.72247157219E+03  0.82521271572E+02 0.  0.
         13    1    5    5    0    0 -0.97694400759E+02  0.98578019258E+02  0.24452794243E+03  0.28116851966E+03  0.00000000000E+00 0. -1.
        -14    1    5    5    0    0 -0.72564608630E+02  0.22779904654E+02  0.62525631662E+02  0.98458118489E+02  0.00000000000E+00 0.  1.
         15    1    3    3    0    0  0.17549873249E+03 -0.67433542577E+03 -0.36653402222E+02  0.69776407272E+03  0.17770000000E+01 0. -1.
        -16    1    3    3    0    0  0.46645817988E+02 -0.16270070811E+03  0.30224076665E+02  0.17193268323E+03  0.00000000000E+00 0.  1.
          4    1    6    6  502    0 -0.52544918317E+02  0.59070960263E+03  0.43342652445E+02  0.59462373700E+03  0.00000000000E+00 0. -1.
         -3    1    6    6    0  502  0.65937722959E+00  0.12496860733E+03 -0.26971862470E+02  0.12784783519E+03  0.00000000000E+00 0.  1.
<mgrwt>
<rscale>  0 0.89945575E+03</rscale>
<asrwt>0</asrwt>
<pdfrwt beam="1">  1        1 0.12729230E+00 0.89945575E+03</pdfrwt>
<pdfrwt beam="2">  1       -2 0.17606077E+00 0.89945575E+03</pdfrwt>
<totfact> 0.35677984E+00</totfact>
</mgrwt>
</event>
<event>
12    3  0.1092576E-007  0.7033039E+03  0.7818608E-02  0.9711599E-01
          3   -1    0    0  501    0  0.00000000000E+00  0.00000000000E+00  0.39307986702E+03  0.39307986702E+03  0.00000000000E+00 0. -1.
         -4   -1    0    0    0  501 -0.00000000000E+00 -0.00000000000E+00 -0.14660692330E+04  0.14660692330E+04  0.00000000000E+00 0.  1.
        -24    2    1    2    0    0  0.26823817550E+03  0.55077104755E+03 -0.67054678323E+03  0.91190177195E+03  0.81433332007E+02 0.  0.
    5000000    2    1    2    0    0 -0.26823817550E+03 -0.55077104755E+03 -0.40244258272E+03  0.94724732804E+03  0.60001416856E+03 0.  0.
        -24    2    4    4    0    0  0.10618781889E+03 -0.34036255891E+03 -0.17826134031E+02  0.36513552675E+03  0.76705002805E+02 0.  0.
         24    2    4    4    0    0 -0.37442599439E+03 -0.21040848865E+03 -0.38461644869E+03  0.58211180129E+03  0.80360308782E+02 0.  0.
         13    1    5    5    0    0  0.79483857025E+02 -0.20517794500E+03 -0.45239923864E+02  0.22463820546E+03  0.00000000000E+00 0. -1.
        -14    1    5    5    0    0  0.26703961864E+02 -0.13518461391E+03  0.27413789833E+02  0.14049732129E+03  0.00000000000E+00 0.  1.
         15    1    3    3    0    0  0.18061709058E+03  0.28802510592E+03 -0.34285734714E+03  0.48284087779E+03  0.17770000000E+01 0. -1.
        -16    1    3    3    0    0  0.87621084912E+02  0.26274594164E+03 -0.32768943610E+03  0.42906089416E+03  0.00000000000E+00 0.  1.
          2    1    6    6  502    0 -0.14464237127E+03 -0.56621144632E+02 -0.18229362359E+03  0.23949600161E+03  0.00000000000E+00 0. -1.
         -1    1    6    6    0  502 -0.22978362311E+03 -0.15378734402E+03 -0.20232282510E+03  0.34261579968E+03  0.00000000000E+00 0.  1.
<mgrwt>
<rscale>  0 0.70330391E+03</rscale>
<asrwt>0</asrwt>
<pdfrwt beam="1">  1        3 0.60473827E-01 0.70330391E+03</pdfrwt>
<pdfrwt beam="2">  1       -4 0.22554911E+00 0.70330391E+03</pdfrwt>
<totfact> 0.54921922E-01</totfact>
</mgrwt>
</event>
<event>
12    3  0.1092576E-007  0.4320502E+03  0.7818608E-02  0.1033214E+00
         -2   -1    0    0    0  501 -0.00000000000E+00  0.00000000000E+00  0.86428317012E+03  0.86428317012E+03  0.00000000000E+00 0.  1.
          1   -1    0    0  501    0  0.00000000000E+00 -0.00000000000E+00 -0.35547764988E+03  0.35547764988E+03  0.00000000000E+00 0. -1.
        -24    2    1    2    0    0 -0.29442598034E+03  0.21846707446E+03  0.46195145606E+02  0.37808585367E+03  0.80002504645E+02 0.  0.
    5000000    2    1    2    0    0  0.29442598034E+03 -0.21846707446E+03  0.46261037463E+03  0.84167496633E+03  0.59999489140E+03 0.  0.
        -24    2    4    4    0    0 -0.48022055457E+02 -0.70525992645E+02  0.44472461094E+03  0.45987305692E+03  0.80144965235E+02 0.  0.
         24    2    4    4    0    0  0.34244803579E+03 -0.14794108182E+03  0.17885763688E+02  0.38180190941E+03  0.79344669504E+02 0.  0.
         11    1    5    5    0    0 -0.57806691493E+02 -0.14069197127E+02  0.21096778920E+03  0.21919617690E+03  0.00000000000E+00 0. -1.
        -12    1    5    5    0    0  0.97846360355E+01 -0.56456795518E+02  0.23375682175E+03  0.24067688002E+03  0.00000000000E+00 0.  1.
         15    1    3    3    0    0 -0.10790231999E+03  0.12293090322E+03  0.40138770636E+02  0.16843157739E+03  0.17770000000E+01 0. -1.
        -16    1    3    3    0    0 -0.18652366035E+03  0.95536171239E+02  0.60563749709E+01  0.20965427628E+03  0.00000000000E+00 0.  1.
          2    1    6    6  502    0  0.14921136034E+03 -0.80175535380E+02 -0.28683204811E+02  0.17179893121E+03  0.00000000000E+00 0. -1.
         -1    1    6    6    0  502  0.19323667546E+03 -0.67765546437E+02  0.46568968499E+02  0.21000297820E+03  0.00000000000E+00 0.  1.
<mgrwt>
<rscale>  0 0.43205018E+03</rscale>
<asrwt>0</asrwt>
<pdfrwt beam="1">  1        1 0.54688869E-01 0.43205018E+03</pdfrwt>
<pdfrwt beam="2">  1       -2 0.13296664E+00 0.43205018E+03</pdfrwt>
<totfact> 0.26363680E+01</totfact>
</mgrwt>
</event>
<event>
12    3  0.1092576E-007  0.7517243E+03  0.7818608E-02  0.9632649E-01
         -2   -1    0    0    0  501 -0.00000000000E+00  0.00000000000E+00  0.65094646138E+03  0.65094646138E+03  0.00000000000E+00 0.  1.
          1   -1    0    0  501    0  0.00000000000E+00 -0.00000000000E+00 -0.12321082926E+04  0.12321082926E+04  0.00000000000E+00 0. -1.
        -24    2    1    2    0    0  0.28082523161E+03 -0.66923814292E+03  0.77853814075E+02  0.73372277167E+03  0.74467352896E+02 0.  0.
    5000000    2    1    2    0    0 -0.28082523161E+03  0.66923814292E+03 -0.65901564529E+03  0.11493319823E+04  0.59993323143E+03 0.  0.
        -24    2    4    4    0    0 -0.10582329530E+02  0.37052636116E+02  0.91234506361E+02  0.12712262882E+03  0.79696575001E+02 0.  0.
         24    2    4    4    0    0 -0.27024290208E+03  0.63218550681E+03 -0.75025015165E+03  0.10222093535E+04  0.96679528142E+02 0.  0.
         11    1    5    5    0    0  0.32224261064E+02  0.62997786304E+01  0.19782043879E+02  0.38333007604E+02  0.00000000000E+00 0. -1.
        -12    1    5    5    0    0 -0.42806590594E+02  0.30752857486E+02  0.71452462482E+02  0.88789621221E+02  0.00000000000E+00 0.  1.
         15    1    3    3    0    0  0.18986543421E+03 -0.41858721945E+03  0.82776102447E+02  0.46703231608E+03  0.17770000000E+01 0. -1.
        -16    1    3    3    0    0  0.90959797399E+02 -0.25065092347E+03 -0.49222883730E+01  0.26669045559E+03  0.00000000000E+00 0.  1.
          2    1    6    6  502    0 -0.94196556336E+02  0.31588784986E+03 -0.40240556349E+03  0.52018108621E+03  0.00000000000E+00 0. -1.
         -1    1    6    6    0  502 -0.17604634574E+03  0.31629765694E+03 -0.34784458816E+03  0.50202826728E+03  0.00000000000E+00 0.  1.
<mgrwt>
<rscale>  0 0.75172431E+03</rscale>
<asrwt>0</asrwt>
<pdfrwt beam="1">  1        1 0.18955512E+00 0.75172431E+03</pdfrwt>
<pdfrwt beam="2">  1       -2 0.10014561E+00 0.75172431E+03</pdfrwt>
<totfact> 0.75123758E+00</totfact>
</mgrwt>
</event>
<event>
12    3  0.1092576E-007  0.9286852E+03  0.7818608E-02  0.9390417E-01
          1   -1    0    0  501    0  0.00000000000E+00  0.00000000000E+00  0.12192134966E+04  0.12192134966E+04  0.00000000000E+00 0. -1.
         -2   -1    0    0    0  501 -0.00000000000E+00 -0.00000000000E+00 -0.85507076861E+03  0.85507076861E+03  0.00000000000E+00 0.  1.
        -24    2    1    2    0    0  0.17160868007E+03 -0.91084369040E+03  0.25781786566E+03  0.96536674139E+03  0.79856910203E+02 0.  0.
    5000000    2    1    2    0    0 -0.17160868007E+03  0.91084369040E+03  0.10632486233E+03  0.11089175238E+04  0.59942249780E+03 0.  0.
        -24    2    4    4    0    0 -0.20607114035E+02  0.17276636016E+03 -0.21457255230E+03  0.28752068760E+03  0.79711336992E+02 0.  0.
         24    2    4    4    0    0 -0.15100156603E+03  0.73807733024E+03  0.32089741463E+03  0.82139683622E+03  0.64482505164E+02 0.  0.
         13    1    5    5    0    0  0.28638737501E+01  0.17842578617E+02 -0.76724465032E+02  0.78823872773E+02  0.00000000000E+00 0. -1.
        -14    1    5    5    0    0 -0.23470987786E+02  0.15492378154E+03 -0.13784808727E+03  0.20869681483E+03  0.00000000000E+00 0.  1.
         15    1    3    3    0    0  0.86514680979E+02 -0.33223803140E+03  0.12720156278E+03  0.36612879542E+03  0.17770000000E+01 0. -1.
        -16    1    3    3    0    0  0.85093999088E+02 -0.57860565901E+03  0.13061630288E+03  0.59923794597E+03  0.00000000000E+00 0.  1.
          4    1    6    6  502    0 -0.22048274009E+02  0.19674372539E+03  0.60565649250E+02  0.20703240745E+03  0.00000000000E+00 0. -1.
         -3    1    6    6    0  502 -0.12895329202E+03  0.54133360486E+03  0.26033176538E+03  0.61436442877E+03  0.00000000000E+00 0.  1.
<mgrwt>
<rscale>  0 0.92868518E+03</rscale>
<asrwt>0</asrwt>
<pdfrwt beam="1">  1        1 0.18757131E+00 0.92868518E+03</pdfrwt>
<pdfrwt beam="2">  1       -2 0.13154935E+00 0.92868518E+03</pdfrwt>
<totfact> 0.38434918E+00</totfact>
</mgrwt>
</event>
<event>
12    3  0.1092576E-007  0.7736303E+03  0.7818608E-02  0.9598991E-01
          1   -1    0    0  501    0  0.00000000000E+00  0.00000000000E+00  0.15639662187E+04  0.15639662187E+04  0.00000000000E+00 0. -1.
         -2   -1    0    0    0  501 -0.00000000000E+00 -0.00000000000E+00 -0.46701676170E+03  0.46701676170E+03  0.00000000000E+00 0.  1.
        -24    2    1    2    0    0 -0.21877862183E+03  0.64760129055E+03  0.84050496234E+03  0.10859964871E+04  0.75420563210E+02 0.  0.
    5000000    2    1    2    0    0  0.21877862183E+03 -0.64760129055E+03  0.25644449466E+03  0.94498649331E+03  0.59998681385E+03 0.  0.
        -24    2    4    4    0    0 -0.17294911787E+03 -0.17482378032E+03  0.19418832223E+03  0.32277104236E+03  0.77442170412E+02 0.  0.
         24    2    4    4    0    0  0.39172773970E+03 -0.47277751023E+03  0.62256172430E+02  0.62221545095E+03  0.79416875826E+02 0.  0.
         13    1    5    5    0    0 -0.15115816644E+03 -0.16284601450E+03  0.13859630684E+03  0.26187125078E+03  0.00000000000E+00 0. -1.
        -14    1    5    5    0    0 -0.21790951432E+02 -0.11977765824E+02  0.55592015395E+02  0.60899791577E+02  0.00000000000E+00 0.  1.
         15    1    3    3    0    0 -0.11889992990E+03  0.29967612588E+03  0.34296940112E+03  0.47071662557E+03  0.17770000000E+01 0. -1.
        -16    1    3    3    0    0 -0.99878691931E+02  0.34792516467E+03  0.49753556122E+03  0.61527986152E+03  0.00000000000E+00 0.  1.
          2    1    6    6  502    0  0.36273961660E+03 -0.45468418941E+03  0.73420861057E+02  0.58626646193E+03  0.00000000000E+00 0. -1.
         -1    1    6    6    0  502  0.28988123100E+02 -0.18093320821E+02 -0.11164688628E+02  0.35948989017E+02  0.00000000000E+00 0.  1.
<mgrwt>
<rscale>  0 0.77363028E+03</rscale>
<asrwt>0</asrwt>
<pdfrwt beam="1">  1        1 0.24061019E+00 0.77363028E+03</pdfrwt>
<pdfrwt beam="2">  1       -2 0.71848733E-01 0.77363028E+03</pdfrwt>
<totfact> 0.93778167E+00</totfact>
</mgrwt>
</event>
<event>
12    3  0.1092576E-007  0.1499097E+04  0.7818608E-02  0.8885054E-01
          1   -1    0    0  501    0  0.00000000000E+00  0.00000000000E+00  0.11536460168E+04  0.11536460168E+04  0.00000000000E+00 0. -1.
         -2   -1    0    0    0  501 -0.00000000000E+00 -0.00000000000E+00 -0.20918460293E+04  0.20918460293E+04  0.00000000000E+00 0.  1.
        -24    2    1    2    0    0 -0.40782830925E+03  0.14332845536E+04 -0.57159818729E+03  0.15977751362E+04  0.74379814703E+02 0.  0.
    5000000    2    1    2    0    0  0.40782830925E+03 -0.14332845536E+04 -0.36660182512E+03  0.16477169099E+04  0.59995464463E+03 0.  0.
        -24    2    4    4    0    0  0.28956058546E+02 -0.19817658024E+03  0.14100793794E+03  0.25736271884E+03  0.78993165552E+02 0.  0.
         24    2    4    4    0    0  0.37887225070E+03 -0.12351079733E+04 -0.50760976306E+03  0.13903541910E+04  0.79882519153E+02 0.  0.
         13    1    5    5    0    0  0.12932804993E+02  0.63354151157E+00 -0.25413563441E+00  0.12950807108E+02  0.00000000000E+00 0. -1.
        -14    1    5    5    0    0  0.16023253553E+02 -0.19881012175E+03  0.14126207357E+03  0.24441191173E+03  0.00000000000E+00 0.  1.
         15    1    3    3    0    0 -0.24222504337E+03  0.96859285763E+03 -0.39738971619E+03  0.10746007816E+04  0.17770000000E+01 0. -1.
        -16    1    3    3    0    0 -0.16560326588E+03  0.46469169594E+03 -0.17420847110E+03  0.52317435464E+03  0.00000000000E+00 0.  1.
          4    1    6    6  502    0  0.13032417846E+03 -0.31339273079E+03 -0.14700910378E+03  0.36987980723E+03  0.00000000000E+00 0. -1.
         -3    1    6    6    0  502  0.24854807224E+03 -0.92171524254E+03 -0.36060065928E+03  0.10204743838E+04  0.00000000000E+00 0.  1.
<mgrwt>
<rscale>  0 0.14990966E+04</rscale>
<asrwt>0</asrwt>
<pdfrwt beam="1">  1        1 0.17748400E+00 0.14990966E+04</pdfrwt>
<pdfrwt beam="2">  1       -2 0.32182246E+00 0.14990966E+04</pdfrwt>
<totfact> 0.22397214E-01</totfact>
</mgrwt>
</event>
<event>
12    3  0.1092576E-007  0.2416808E+03  0.7818608E-02  0.1118678E+00
          1   -1    0    0  501    0  0.00000000000E+00  0.00000000000E+00  0.13590380959E+03  0.13590380959E+03  0.00000000000E+00 0. -1.
         -2   -1    0    0    0  501 -0.00000000000E+00 -0.00000000000E+00 -0.96719944162E+03  0.96719944162E+03  0.00000000000E+00 0.  1.
        -24    2    1    2    0    0  0.16031997136E+02 -0.63278713985E+02 -0.47361191996E+02  0.11349994241E+03  0.79861967449E+02 0.  0.
    5000000    2    1    2    0    0 -0.16031997136E+02  0.63278713985E+02 -0.78393444003E+03  0.98960330880E+03  0.60041675688E+03 0.  0.
        -24    2    4    4    0    0 -0.17315600628E+03 -0.42142707689E+02 -0.18507886240E+02  0.19720102967E+03  0.82381393103E+02 0.  0.
         24    2    4    4    0    0  0.15712400914E+03  0.10542142167E+03 -0.76542655379E+03  0.79240227912E+03  0.78879226120E+02 0.  0.
         11    1    5    5    0    0 -0.15864376768E+01 -0.19978464237E+02  0.91106229391E+01  0.22014978267E+02  0.00000000000E+00 0. -1.
        -12    1    5    5    0    0 -0.17156956860E+03 -0.22164243452E+02 -0.27618509179E+02  0.17518605141E+03  0.00000000000E+00 0.  1.
         15    1    3    3    0    0 -0.31293464984E+02 -0.22776913081E+02 -0.72667783850E+01  0.39421219125E+02  0.17770000000E+01 0. -1.
        -16    1    3    3    0    0  0.47325462120E+02 -0.40501800904E+02 -0.40094413611E+02  0.74078723289E+02  0.00000000000E+00 0.  1.
          2    1    6    6  502    0  0.45142849518E+02  0.27398160932E+02 -0.37731939131E+03  0.38099666553E+03  0.00000000000E+00 0. -1.
         -1    1    6    6    0  502  0.11198115963E+03  0.78023260742E+02 -0.38810716248E+03  0.41140561359E+03  0.00000000000E+00 0.  1.
<mgrwt>
<rscale>  0 0.24168079E+03</rscale>
<asrwt>0</asrwt>
<pdfrwt beam="1">  1        1 0.20908278E-01 0.24168079E+03</pdfrwt>
<pdfrwt beam="2">  1       -2 0.14879991E+00 0.24168079E+03</pdfrwt>
<totfact> 0.69101984E+01</totfact>
</mgrwt>
</event>
<event>
12    3  0.1092576E-007  0.4946917E+03  0.7818608E-02  0.1015174E+00
         -2   -1    0    0    0  501 -0.00000000000E+00  0.00000000000E+00  0.90010632759E+03  0.90010632759E+03  0.00000000000E+00 0.  1.
          1   -1    0    0  501    0  0.00000000000E+00 -0.00000000000E+00 -0.29980089264E+03  0.29980089264E+03  0.00000000000E+00 0. -1.
        -24    2    1    2    0    0 -0.20469709044E+03 -0.23372050417E+03  0.43936393524E+02  0.32456742882E+03  0.82990579434E+02 0.  0.
    5000000    2    1    2    0    0  0.20469709044E+03  0.23372050417E+03  0.55636904142E+03  0.87533979141E+03  0.60012254354E+03 0.  0.
        -24    2    4    4    0    0 -0.12180773745E+03 -0.11695424249E+03  0.18815557105E+03  0.26587541391E+03  0.82290929412E+02 0.  0.
         24    2    4    4    0    0  0.32650482789E+03  0.35067474666E+03  0.36821347038E+03  0.60946437750E+03  0.79293676232E+02 0.  0.
         11    1    5    5    0    0 -0.43015700401E+02  0.22730442686E+01  0.28754789847E+02  0.51791458276E+02  0.00000000000E+00 0. -1.
        -12    1    5    5    0    0 -0.78792037053E+02 -0.11922728676E+03  0.15940078120E+03  0.21408395563E+03  0.00000000000E+00 0.  1.
         15    1    3    3    0    0 -0.14149637878E+03 -0.10790242337E+03  0.31561523882E+01  0.17798111474E+03  0.17770000000E+01 0. -1.
        -16    1    3    3    0    0 -0.63200711660E+02 -0.12581808080E+03  0.40780241136E+02  0.14658631408E+03  0.00000000000E+00 0.  1.
          2    1    6    6  502    0  0.25328023335E+03  0.31190313619E+03  0.31960871924E+03  0.51340449588E+03  0.00000000000E+00 0. -1.
         -1    1    6    6    0  502  0.73224594539E+02  0.38771610468E+02  0.48604751133E+02  0.96059881617E+02  0.00000000000E+00 0.  1.
<mgrwt>
<rscale>  0 0.49469173E+03</rscale>
<asrwt>0</asrwt>
<pdfrwt beam="1">  1        1 0.46123214E-01 0.49469173E+03</pdfrwt>
<pdfrwt beam="2">  1       -2 0.13847790E+00 0.49469173E+03</pdfrwt>
<totfact> 0.29402040E+01</totfact>
</mgrwt>
</event>
<event>
12    3  0.1092576E-007  0.6056676E+03  0.7818608E-02  0.9893717E-01
          1   -1    0    0  501    0  0.00000000000E+00  0.00000000000E+00  0.81207218240E+03  0.81207218240E+03  0.00000000000E+00 0. -1.
         -2   -1    0    0    0  501 -0.00000000000E+00 -0.00000000000E+00 -0.71189900017E+03  0.71189900017E+03  0.00000000000E+00 0.  1.
        -24    2    1    2    0    0 -0.89204216069E+02 -0.53649992524E+03 -0.29432307280E+03  0.62323888593E+03  0.77531127984E+02 0.  0.
    5000000    2    1    2    0    0  0.89204216069E+02  0.53649992524E+03  0.39449625503E+03  0.90073229664E+03  0.59991817194E+03 0.  0.
        -24    2    4    4    0    0  0.20739556937E+03  0.46475541988E+03  0.49204710602E+03  0.71247358726E+03  0.80608532383E+02 0.  0.
         24    2    4    4    0    0 -0.11819135330E+03  0.71744505354E+02 -0.97550850986E+02  0.18825870938E+03  0.82514865846E+02 0.  0.
         11    1    5    5    0    0  0.62762339989E+02  0.10784170749E+03  0.16739371309E+03  0.20878122612E+03  0.00000000000E+00 0. -1.
        -12    1    5    5    0    0  0.14463322938E+03  0.35691371239E+03  0.32465339293E+03  0.50369236114E+03  0.00000000000E+00 0.  1.
         15    1    3    3    0    0  0.77477085720E+00 -0.93041766156E+02 -0.79242519204E+02  0.12222890451E+03  0.17770000000E+01 0. -1.
        -16    1    3    3    0    0 -0.89978986926E+02 -0.44345815908E+03 -0.21508055360E+03  0.50100998142E+03  0.00000000000E+00 0.  1.
          4    1    6    6  502    0 -0.67601976726E+01 -0.13833348991E+02 -0.26899637965E+02  0.30994392066E+02  0.00000000000E+00 0. -1.
         -3    1    6    6    0  502 -0.11143115563E+03  0.85577854345E+02 -0.70651213021E+02  0.15726431731E+03  0.00000000000E+00 0.  1.
<mgrwt>
<rscale>  0 0.60566757E+03</rscale>
<asrwt>0</asrwt>
<pdfrwt beam="1">  1        1 0.12493418E+00 0.60566757E+03</pdfrwt>
<pdfrwt beam="2">  1       -2 0.10952292E+00 0.60566757E+03</pdfrwt>
<totfact> 0.13049136E+01</totfact>
</mgrwt>
</event>
<event>
12    3  0.1092576E-007  0.1255659E+04  0.7818608E-02  0.9065487E-01
         -2   -1    0    0    0  501 -0.00000000000E+00  0.00000000000E+00  0.52952922488E+03  0.52952922488E+03  0.00000000000E+00 0.  1.
          1   -1    0    0  501    0  0.00000000000E+00 -0.00000000000E+00 -0.33239489134E+04  0.33239489134E+04  0.00000000000E+00 0. -1.
        -24    2    1    2    0    0 -0.25505342158E+03 -0.11603335945E+04 -0.19262717730E+04  0.22644352439E+04  0.75615687057E+02 0.  0.
    5000000    2    1    2    0    0  0.25505342158E+03  0.11603335945E+04 -0.86814791549E+03  0.15890428943E+04  0.59995851395E+03 0.  0.
        -24    2    4    4    0    0 -0.67509299182E+02 -0.15247290525E+02 -0.41568927584E+02  0.11397281166E+03  0.80447751445E+02 0.  0.
         24    2    4    4    0    0  0.32256272076E+03  0.11755808850E+04 -0.82657898790E+03  0.14750700827E+04  0.81004934931E+02 0.  0.
         11    1    5    5    0    0 -0.22633670117E+02  0.29871880657E+02  0.86166671050E+00  0.37488061386E+02  0.00000000000E+00 0. -1.
        -12    1    5    5    0    0 -0.44875629064E+02 -0.45119171182E+02 -0.42430594294E+02  0.76484750272E+02  0.00000000000E+00 0.  1.
         15    1    3    3    0    0 -0.19926788850E+03 -0.10154381058E+04 -0.16934949362E+04  0.19846285533E+04  0.17770000000E+01 0. -1.
        -16    1    3    3    0    0 -0.55785533079E+02 -0.14489548871E+03 -0.23277683682E+03  0.27980669061E+03  0.00000000000E+00 0.  1.
          2    1    6    6  502    0  0.89413698328E+02  0.41938492093E+03 -0.25493009892E+03  0.49886659207E+03  0.00000000000E+00 0. -1.
         -1    1    6    6    0  502  0.23314902243E+03  0.75619596408E+03 -0.57164888898E+03  0.97620349058E+03  0.00000000000E+00 0.  1.
<mgrwt>
<rscale>  0 0.12556587E+04</rscale>
<asrwt>0</asrwt>
<pdfrwt beam="1">  1        1 0.51137675E+00 0.12556587E+04</pdfrwt>
<pdfrwt beam="2">  1       -2 0.81466035E-01 0.12556587E+04</pdfrwt>
<totfact> 0.39575954E-01</totfact>
</mgrwt>
</event>
<event>
12    3  0.1092576E-007  0.1174756E+04  0.7818608E-02  0.9135244E-01
         -2   -1    0    0    0  501 -0.00000000000E+00  0.00000000000E+00  0.14338172354E+04  0.14338172354E+04  0.00000000000E+00 0.  1.
          1   -1    0    0  501    0  0.00000000000E+00 -0.00000000000E+00 -0.10489324520E+04  0.10489324520E+04  0.00000000000E+00 0. -1.
        -24    2    1    2    0    0 -0.84386074235E+03 -0.74614731318E+03 -0.60460884319E+02  0.11308564849E+04  0.79649892884E+02 0.  0.
    5000000    2    1    2    0    0  0.84386074235E+03  0.74614731318E+03  0.44534566767E+03  0.13518932025E+04  0.60037130330E+03 0.  0.
        -24    2    4    4    0    0  0.53255094783E+03  0.16325160660E+03  0.38873355502E+03  0.68395270883E+03  0.80099513236E+02 0.  0.
         24    2    4    4    0    0  0.31130979452E+03  0.58289570658E+03  0.56612112651E+02  0.66794049368E+03  0.79109916522E+02 0.  0.
         13    1    5    5    0    0  0.20359019106E+03  0.33943928762E+02  0.11048956662E+03  0.23411343517E+03  0.00000000000E+00 0. -1.
        -14    1    5    5    0    0  0.32896075677E+03  0.12930767784E+03  0.27824398840E+03  0.44983927365E+03  0.00000000000E+00 0.  1.
         15    1    3    3    0    0 -0.24100277120E+02 -0.31887463118E+02  0.10183324616E+02  0.41285487651E+02  0.17770000000E+01 0. -1.
        -16    1    3    3    0    0 -0.81976046523E+03 -0.71425985006E+03 -0.70644208935E+02  0.10895709972E+04  0.00000000000E+00 0.  1.
          2    1    6    6  502    0  0.13076601919E+03  0.29276419446E+03  0.59987569887E+02  0.32620412915E+03  0.00000000000E+00 0. -1.
         -1    1    6    6    0  502  0.18054377533E+03  0.29013151212E+03 -0.33754572366E+01  0.34173636454E+03  0.00000000000E+00 0.  1.
<mgrwt>
<rscale>  0 0.11747559E+04</rscale>
<asrwt>0</asrwt>
<pdfrwt beam="1">  1        1 0.16137422E+00 0.11747559E+04</pdfrwt>
<pdfrwt beam="2">  1       -2 0.22058727E+00 0.11747559E+04</pdfrwt>
<totfact> 0.11651552E+00</totfact>
</mgrwt>
</event>
<event>
12    3  0.1092576E-007  0.1515203E+04  0.7818608E-02  0.8874406E-01
         -2   -1    0    0    0  501 -0.00000000000E+00  0.00000000000E+00  0.21707110155E+04  0.21707110155E+04  0.00000000000E+00 0.  1.
          1   -1    0    0  501    0  0.00000000000E+00 -0.00000000000E+00 -0.17790813436E+04  0.17790813436E+04  0.00000000000E+00 0. -1.
        -24    2    1    2    0    0  0.10387441492E+04  0.10360262024E+04  0.14337473284E+04  0.20527993530E+04  0.77550515111E+02 0.  0.
    5000000    2    1    2    0    0 -0.10387441492E+04 -0.10360262024E+04 -0.10421176566E+04  0.18969930061E+04  0.60019459811E+03 0.  0.
        -24    2    4    4    0    0 -0.49579426571E+03 -0.14972560679E+03 -0.49020486299E+03  0.71755627750E+03  0.79727614030E+02 0.  0.
         24    2    4    4    0    0 -0.54294988347E+03 -0.88630059561E+03 -0.55191279356E+03  0.11794367286E+04  0.78357790638E+02 0.  0.
         11    1    5    5    0    0 -0.12672664656E+03 -0.11212453758E+02 -0.90217830011E+02  0.15596351791E+03  0.00000000000E+00 0. -1.
        -12    1    5    5    0    0 -0.36906761915E+03 -0.13851315303E+03 -0.39998703298E+03  0.56159275959E+03  0.00000000000E+00 0.  1.
         15    1    3    3    0    0  0.12548387985E+03  0.16165514308E+03  0.20958300765E+03  0.29292795054E+03  0.17770000000E+01 0. -1.
        -16    1    3    3    0    0  0.91326026934E+03  0.87437105931E+03  0.12241643208E+04  0.17598714025E+04  0.00000000000E+00 0.  1.
          4    1    6    6  502    0 -0.30428501099E+03 -0.46301982134E+03 -0.25444972833E+03  0.60968958259E+03  0.00000000000E+00 0. -1.
         -3    1    6    6    0  502 -0.23866487248E+03 -0.42328077427E+03 -0.29746306524E+03  0.56974714602E+03  0.00000000000E+00 0.  1.
<mgrwt>
<rscale>  0 0.15152028E+04</rscale>
<asrwt>0</asrwt>
<pdfrwt beam="1">  1        1 0.27370482E+00 0.15152028E+04</pdfrwt>
<pdfrwt beam="2">  1       -2 0.33395554E+00 0.15152028E+04</pdfrwt>
<totfact> 0.68072048E-02</totfact>
</mgrwt>
</event>
<event>
12    3  0.1092576E-007  0.8009515E+03  0.7818608E-02  0.9558641E-01
         -2   -1    0    0    0  501 -0.00000000000E+00  0.00000000000E+00  0.96561014030E+03  0.96561014030E+03  0.00000000000E+00 0.  1.
          1   -1    0    0  501    0  0.00000000000E+00 -0.00000000000E+00 -0.69829982211E+03  0.69829982211E+03  0.00000000000E+00 0. -1.
        -24    2    1    2    0    0 -0.64257205790E+03  0.26480353603E+03  0.25767435887E+03  0.74592893563E+03  0.83630972201E+02 0.  0.
    5000000    2    1    2    0    0  0.64257205790E+03 -0.26480353603E+03  0.96359593238E+01  0.91798102677E+03  0.59964702243E+03 0.  0.
        -24    2    4    4    0    0  0.60781484346E+03  0.26701734477E+02  0.25524065864E+02  0.61383878122E+03  0.77425479265E+02 0.  0.
         24    2    4    4    0    0  0.34757214438E+02 -0.29150527051E+03 -0.15888106540E+02  0.30414224555E+03  0.77888939584E+02 0.  0.
         11    1    5    5    0    0  0.29097460148E+03 -0.16236103645E+02 -0.13439789923E+02  0.29173696667E+03  0.00000000000E+00 0. -1.
        -12    1    5    5    0    0  0.31684024198E+03  0.42937838122E+02  0.38963855788E+02  0.32210181455E+03  0.00000000000E+00 0.  1.
         15    1    3    3    0    0 -0.92713893908E+02  0.18279694019E+02  0.59049042038E+02  0.11144487620E+03  0.17770000000E+01 0. -1.
        -16    1    3    3    0    0 -0.54985816399E+03  0.24652384201E+03  0.19862531683E+03  0.63448405943E+03  0.00000000000E+00 0.  1.
          4    1    6    6  502    0  0.78760457534E+01 -0.89365101426E+02  0.30972424496E+02  0.94907557807E+02  0.00000000000E+00 0. -1.
         -3    1    6    6    0  502  0.26881168685E+02 -0.20214016908E+03 -0.46860531037E+02  0.20923468774E+03  0.00000000000E+00 0.  1.
<mgrwt>
<rscale>  0 0.80095154E+03</rscale>
<asrwt>0</asrwt>
<pdfrwt beam="1">  1        1 0.10743074E+00 0.80095154E+03</pdfrwt>
<pdfrwt beam="2">  1       -2 0.14855541E+00 0.80095154E+03</pdfrwt>
<totfact> 0.74800965E+00</totfact>
</mgrwt>
</event>
<event>
12    3  0.1092576E-007  0.4918571E+03  0.7818608E-02  0.1015926E+00
          1   -1    0    0  501    0  0.00000000000E+00  0.00000000000E+00  0.60176575942E+03  0.60176575942E+03  0.00000000000E+00 0. -1.
         -2   -1    0    0    0  501 -0.00000000000E+00 -0.00000000000E+00 -0.43916736550E+03  0.43916736550E+03  0.00000000000E+00 0.  1.
        -24    2    1    2    0    0 -0.10260539850E+03  0.31317430121E+03  0.99992526995E+02  0.35370607812E+03  0.80644116376E+02 0.  0.
    5000000    2    1    2    0    0  0.10260539850E+03 -0.31317430121E+03  0.62605866927E+02  0.68722704681E+03  0.59979622252E+03 0.  0.
        -24    2    4    4    0    0 -0.10249372198E+03  0.11642627374E+03 -0.64967546761E+02  0.18761266979E+03  0.83172660600E+02 0.  0.
         24    2    4    4    0    0  0.20509912048E+03 -0.42960057494E+03  0.12757341369E+03  0.49961437702E+03  0.81958810551E+02 0.  0.
         13    1    5    5    0    0 -0.28277837116E+02  0.79925681542E+02 -0.61675881486E+02  0.10484114173E+03  0.00000000000E+00 0. -1.
        -14    1    5    5    0    0 -0.74215884868E+02  0.36500592194E+02 -0.32916652746E+01  0.82771528061E+02  0.00000000000E+00 0.  1.
         15    1    3    3    0    0 -0.74661312647E+02  0.29834890152E+03  0.93021976954E+02  0.32131390348E+03  0.17770000000E+01 0. -1.
        -16    1    3    3    0    0 -0.27944085851E+02  0.14825399687E+02  0.69705500409E+01  0.32392174639E+02  0.00000000000E+00 0.  1.
          2    1    6    6  502    0  0.94294990825E+02 -0.16264678448E+03  0.12190497544E+02  0.18839885888E+03  0.00000000000E+00 0. -1.
         -1    1    6    6    0  502  0.11080412966E+03 -0.26695379046E+03  0.11538291614E+03  0.31121551814E+03  0.00000000000E+00 0.  1.
<mgrwt>
<rscale>  0 0.49185711E+03</rscale>
<asrwt>0</asrwt>
<pdfrwt beam="1">  1        1 0.92579348E-01 0.49185711E+03</pdfrwt>
<pdfrwt beam="2">  1       -2 0.67564210E-01 0.49185711E+03</pdfrwt>
<totfact> 0.62333365E+01</totfact>
</mgrwt>
</event>
<event>
12    3  0.1092576E-007  0.2299045E+03  0.7818608E-02  0.1126707E+00
         -2   -1    0    0    0  501 -0.00000000000E+00  0.00000000000E+00  0.17394092377E+03  0.17394092377E+03  0.00000000000E+00 0.  1.
          1   -1    0    0  501    0  0.00000000000E+00 -0.00000000000E+00 -0.10077807852E+04  0.10077807852E+04  0.00000000000E+00 0. -1.
        -24    2    1    2    0    0 -0.17655054282E+03 -0.16894672411E+02 -0.30977004846E+03  0.36524622107E+03  0.77406685471E+02 0.  0.
    5000000    2    1    2    0    0  0.17655054282E+03  0.16894672411E+02 -0.52406981298E+03  0.81647548792E+03  0.60043944688E+03 0.  0.
        -24    2    4    4    0    0  0.16144286960E+02  0.88654263693E+02  0.10701088140E+03  0.15704087709E+03  0.71346281387E+02 0.  0.
         24    2    4    4    0    0  0.16040625586E+03 -0.71759591282E+02 -0.63108069438E+03  0.65943461083E+03  0.75574845532E+02 0.  0.
         11    1    5    5    0    0  0.15907913985E+02  0.85036467305E+02  0.50012960889E+02  0.99927767693E+02  0.00000000000E+00 0. -1.
        -12    1    5    5    0    0  0.23637297538E+00  0.36177963879E+01  0.56997920510E+02  0.57113109400E+02  0.00000000000E+00 0.  1.
         15    1    3    3    0    0 -0.72729105898E+02 -0.43487241521E+02 -0.16024251208E+03  0.18127736601E+03  0.17770000000E+01 0. -1.
        -16    1    3    3    0    0 -0.10382143693E+03  0.26592569110E+02 -0.14952753638E+03  0.18396885507E+03  0.00000000000E+00 0.  1.
          4    1    6    6  502    0  0.33648299234E+02 -0.36550070744E+01 -0.24654801748E+03  0.24886038664E+03  0.00000000000E+00 0. -1.
         -3    1    6    6    0  502  0.12675795663E+03 -0.68104584207E+02 -0.38453267690E+03  0.41057422418E+03  0.00000000000E+00 0.  1.
<mgrwt>
<rscale>  0 0.22990448E+03</rscale>
<asrwt>0</asrwt>
<pdfrwt beam="1">  1        1 0.15504320E+00 0.22990448E+03</pdfrwt>
<pdfrwt beam="2">  1       -2 0.26760141E-01 0.22990448E+03</pdfrwt>
<totfact> 0.17735983E+02</totfact>
</mgrwt>
</event>
<event>
12    3  0.1092576E-007  0.7572661E+03  0.7818608E-02  0.9624019E-01
          1   -1    0    0  501    0  0.00000000000E+00  0.00000000000E+00  0.30825580882E+04  0.30825580882E+04  0.00000000000E+00 0. -1.
         -2   -1    0    0    0  501 -0.00000000000E+00 -0.00000000000E+00 -0.18928603929E+03  0.18928603929E+03  0.00000000000E+00 0.  1.
        -24    2    1    2    0    0 -0.98376023152E+02 -0.63467152008E+03  0.11527271551E+04  0.13219843552E+04  0.79855875221E+02 0.  0.
    5000000    2    1    2    0    0  0.98376023152E+02  0.63467152008E+03  0.17405448938E+04  0.19498597723E+04  0.59997568627E+03 0.  0.
        -24    2    4    4    0    0 -0.20465586700E+03  0.76838527821E+02  0.57276682200E+03  0.61825861588E+03  0.79960618260E+02 0.  0.
         24    2    4    4    0    0  0.30303189015E+03  0.55783299225E+03  0.11677780718E+04  0.13316011565E+04  0.80312148530E+02 0.  0.
         11    1    5    5    0    0 -0.27163519749E+02 -0.16347423663E+02  0.94552716124E+02  0.99726181076E+02  0.00000000000E+00 0. -1.
        -12    1    5    5    0    0 -0.17749234725E+03  0.93185951484E+02  0.47821410588E+03  0.51853243481E+03  0.00000000000E+00 0.  1.
         15    1    3    3    0    0 -0.11812455726E+02 -0.22416857990E+03  0.34112885077E+03  0.40836642477E+03  0.17770000000E+01 0. -1.
        -16    1    3    3    0    0 -0.86563567426E+02 -0.41050294017E+03  0.81159830438E+03  0.91361793041E+03  0.00000000000E+00 0.  1.
          4    1    6    6  502    0  0.28606089961E+03  0.48079546951E+03  0.99083811182E+03  0.11378731413E+04  0.00000000000E+00 0. -1.
         -3    1    6    6    0  502  0.16970990543E+02  0.77037522740E+02  0.17693995998E+03  0.19372801518E+03  0.00000000000E+00 0.  1.
<mgrwt>
<rscale>  0 0.75726607E+03</rscale>
<asrwt>0</asrwt>
<pdfrwt beam="1">  1        1 0.47423967E+00 0.75726607E+03</pdfrwt>
<pdfrwt beam="2">  1       -2 0.29120931E-01 0.75726607E+03</pdfrwt>
<totfact> 0.52699079E+00</totfact>
</mgrwt>
</event>
<event>
12    3  0.1092576E-007  0.8835051E+03  0.7818608E-02  0.9446439E-01
          1   -1    0    0  501    0  0.00000000000E+00  0.00000000000E+00  0.70848034395E+03  0.70848034395E+03  0.00000000000E+00 0. -1.
         -2   -1    0    0    0  501 -0.00000000000E+00 -0.00000000000E+00 -0.12117658164E+04  0.12117658164E+04  0.00000000000E+00 0.  1.
        -24    2    1    2    0    0 -0.76152090950E+03  0.22017053200E+03  0.19741322343E+02  0.79697642415E+03  0.79953374373E+02 0.  0.
    5000000    2    1    2    0    0  0.76152090950E+03 -0.22017053200E+03 -0.52302679478E+03  0.11232697362E+04  0.59982390201E+03 0.  0.
        -24    2    4    4    0    0  0.37994896972E+03  0.17960337109E+03 -0.29829196588E+03  0.52136641409E+03  0.78906592445E+02 0.  0.
         24    2    4    4    0    0  0.38157193978E+03 -0.39977390309E+03 -0.22473482890E+03  0.60190332211E+03  0.79784378308E+02 0.  0.
         11    1    5    5    0    0  0.47647658866E+02  0.23745247313E+02 -0.89218787041E+01  0.53979033754E+02  0.00000000000E+00 0. -1.
        -12    1    5    5    0    0  0.33230131085E+03  0.15585812378E+03 -0.28937008718E+03  0.46738738033E+03  0.00000000000E+00 0.  1.
         15    1    3    3    0    0 -0.60887103421E+03  0.15645280447E+03  0.42083332665E+02  0.63005998202E+03  0.17770000000E+01 0. -1.
        -16    1    3    3    0    0 -0.15264987529E+03  0.63717727525E+02 -0.22342010322E+02  0.16691644213E+03  0.00000000000E+00 0.  1.
          4    1    6    6  502    0  0.94624840072E+02 -0.10242036094E+03 -0.20435580812E+02  0.14093049229E+03  0.00000000000E+00 0. -1.
         -3    1    6    6    0  502  0.28694709971E+03 -0.29735354215E+03 -0.20429924809E+03  0.46097282982E+03  0.00000000000E+00 0.  1.
<mgrwt>
<rscale>  0 0.88350507E+03</rscale>
<asrwt>0</asrwt>
<pdfrwt beam="1">  1        1 0.10899698E+00 0.88350507E+03</pdfrwt>
<pdfrwt beam="2">  1       -2 0.18642551E+00 0.88350507E+03</pdfrwt>
<totfact> 0.38740525E+00</totfact>
</mgrwt>
</event>
<event>
12    3  0.1092576E-007  0.1238244E+04  0.7818608E-02  0.9080025E-01
          1   -1    0    0  501    0  0.00000000000E+00  0.00000000000E+00  0.16097338043E+04  0.16097338043E+04  0.00000000000E+00 0. -1.
         -2   -1    0    0    0  501 -0.00000000000E+00 -0.00000000000E+00 -0.10501413342E+04  0.10501413342E+04  0.00000000000E+00 0.  1.
        -24    2    1    2    0    0 -0.34139470289E+03  0.11461934385E+04  0.55751911211E+03  0.13218259025E+04  0.78015476152E+02 0.  0.
    5000000    2    1    2    0    0  0.34139470289E+03 -0.11461934385E+04  0.20733579819E+01  0.13380492360E+04  0.60005142894E+03 0.  0.
        -24    2    4    4    0    0 -0.66123852905E+02 -0.50656087578E+03  0.19272954990E+03  0.55175141901E+03  0.79427099781E+02 0.  0.
         24    2    4    4    0    0  0.40751855580E+03 -0.63963256275E+03 -0.19065619191E+03  0.78629781697E+03  0.81934637341E+02 0.  0.
         11    1    5    5    0    0 -0.18327082298E+02 -0.39732954460E+03  0.14661990149E+03  0.42391513829E+03  0.00000000000E+00 0. -1.
        -12    1    5    5    0    0 -0.47796770607E+02 -0.10923133118E+03  0.46109648409E+02  0.12783628072E+03  0.00000000000E+00 0.  1.
         15    1    3    3    0    0 -0.21198187044E+03  0.82879414918E+03  0.38570387827E+03  0.93840646553E+03  0.17770000000E+01 0. -1.
        -16    1    3    3    0    0 -0.12941283245E+03  0.31739928936E+03  0.17181523384E+03  0.38341943699E+03  0.00000000000E+00 0.  1.
          2    1    6    6  502    0  0.14083566461E+03 -0.16585298714E+03 -0.31853708834E+02  0.21990124269E+03  0.00000000000E+00 0. -1.
         -1    1    6    6    0  502  0.26668289119E+03 -0.47377957562E+03 -0.15880248308E+03  0.56639657428E+03  0.00000000000E+00 0.  1.
<mgrwt>
<rscale>  0 0.12382440E+04</rscale>
<asrwt>0</asrwt>
<pdfrwt beam="1">  1        1 0.24765136E+00 0.12382440E+04</pdfrwt>
<pdfrwt beam="2">  1       -2 0.16156020E+00 0.12382440E+04</pdfrwt>
<totfact> 0.11481288E+00</totfact>
</mgrwt>
</event>
<event>
12    3  0.1092576E-007  0.6485561E+03  0.7818608E-02  0.9809492E-01
         -2   -1    0    0    0  501 -0.00000000000E+00  0.00000000000E+00  0.14188096294E+04  0.14188096294E+04  0.00000000000E+00 0.  1.
          1   -1    0    0  501    0  0.00000000000E+00 -0.00000000000E+00 -0.44823892762E+03  0.44823892762E+03  0.00000000000E+00 0. -1.
        -24    2    1    2    0    0 -0.55754358278E+03  0.19129540902E+03  0.16442994734E+02  0.59500538814E+03  0.79449730206E+02 0.  0.
    5000000    2    1    2    0    0  0.55754358278E+03 -0.19129540902E+03  0.95412770705E+03  0.12720431689E+04  0.60023775451E+03 0.  0.
        -24    2    4    4    0    0  0.58870053466E+02  0.98836803712E+02  0.53877433815E+03  0.55662488513E+03  0.79492630681E+02 0.  0.
         24    2    4    4    0    0  0.49867352931E+03 -0.29013221273E+03  0.41535336890E+03  0.71541828376E+03  0.80330006712E+02 0.  0.
         13    1    5    5    0    0  0.48576601383E+02  0.32238842028E+02  0.13193814442E+03  0.14424528793E+03  0.00000000000E+00 0. -1.
        -14    1    5    5    0    0  0.10293452083E+02  0.66597961684E+02  0.40683619374E+03  0.41237959720E+03  0.00000000000E+00 0.  1.
         15    1    3    3    0    0 -0.29903402198E+03  0.14053655175E+03 -0.72536864301E+01  0.33049605501E+03  0.17770000000E+01 0. -1.
        -16    1    3    3    0    0 -0.25850956080E+03  0.50758857265E+02  0.23696681164E+02  0.26450933313E+03  0.00000000000E+00 0.  1.
          4    1    6    6  502    0  0.35950886575E+03 -0.19501889052E+03  0.33500872893E+03  0.52868690231E+03  0.00000000000E+00 0. -1.
         -3    1    6    6    0  502  0.13916466356E+03 -0.95113322210E+02  0.80344639968E+02  0.18673138145E+03  0.00000000000E+00 0.  1.
<mgrwt>
<rscale>  0 0.64855613E+03</rscale>
<asrwt>0</asrwt>
<pdfrwt beam="1">  1        1 0.68959835E-01 0.64855613E+03</pdfrwt>
<pdfrwt beam="2">  1       -2 0.21827840E+00 0.64855613E+03</pdfrwt>
<totfact> 0.47540394E+00</totfact>
</mgrwt>
</event>
<event>
12    3  0.1092576E-007  0.6022574E+03  0.7818608E-02  0.9900734E-01
         -4   -1    0    0    0  501 -0.00000000000E+00  0.00000000000E+00  0.76836213165E+03  0.76836213165E+03  0.00000000000E+00 0.  1.
          3   -1    0    0  501    0  0.00000000000E+00 -0.00000000000E+00 -0.53018256570E+03  0.53018256570E+03  0.00000000000E+00 0. -1.
        -24    2    1    2    0    0 -0.16184356001E+03 -0.45186907755E+03  0.20908879335E+03  0.52971491646E+03  0.80627340653E+02 0.  0.
    5000000    2    1    2    0    0  0.16184356001E+03  0.45186907755E+03  0.29090772594E+02  0.76882978088E+03  0.59989495561E+03 0.  0.
        -24    2    4    4    0    0  0.28755806559E+02  0.54982713573E+03  0.11170830342E+03  0.56741612361E+03  0.79658876979E+02 0.  0.
         24    2    4    4    0    0  0.13308775345E+03 -0.97958058183E+02 -0.82617530828E+02  0.20141365727E+03  0.80210184238E+02 0.  0.
         11    1    5    5    0    0  0.10789846781E+02  0.28282100815E+03  0.16982412805E+02  0.28353579279E+03  0.00000000000E+00 0. -1.
        -12    1    5    5    0    0  0.17965959778E+02  0.26700612757E+03  0.94725890618E+02  0.28388033082E+03  0.00000000000E+00 0.  1.
         15    1    3    3    0    0 -0.90558619652E+02 -0.15175043765E+03  0.56276866485E+02  0.18547048917E+03  0.17770000000E+01 0. -1.
        -16    1    3    3    0    0 -0.71284940355E+02 -0.30011863989E+03  0.15281192687E+03  0.34424442730E+03  0.00000000000E+00 0.  1.
          4    1    6    6  502    0  0.32688977448E+02 -0.43662453311E+02 -0.66711445704E+02  0.86170737862E+02  0.00000000000E+00 0. -1.
         -3    1    6    6    0  502  0.10039877600E+03 -0.54295604872E+02 -0.15906085125E+02  0.11524291941E+03  0.00000000000E+00 0.  1.
<mgrwt>
<rscale>  0 0.60225736E+03</rscale>
<asrwt>0</asrwt>
<pdfrwt beam="1">  1        3 0.81566549E-01 0.60225736E+03</pdfrwt>
<pdfrwt beam="2">  1       -4 0.11820956E+00 0.60225736E+03</pdfrwt>
<totfact> 0.17320550E+00</totfact>
</mgrwt>
</event>
<event>
12    3  0.1092576E-007  0.4057327E+03  0.7818608E-02  0.1041813E+00
         -2   -1    0    0    0  501 -0.00000000000E+00  0.00000000000E+00  0.33368503565E+03  0.33368503565E+03  0.00000000000E+00 0.  1.
          1   -1    0    0  501    0  0.00000000000E+00 -0.00000000000E+00 -0.97203985479E+03  0.97203985479E+03  0.00000000000E+00 0. -1.
        -24    2    1    2    0    0 -0.33663928264E+03  0.28334844968E+02 -0.49148886917E+03  0.60154917575E+03  0.78557191075E+02 0.  0.
    5000000    2    1    2    0    0  0.33663928264E+03 -0.28334844968E+02 -0.14686594997E+03  0.70417571469E+03  0.60013745079E+03 0.  0.
        -24    2    4    4    0    0  0.37456730822E+03 -0.92701327525E+01 -0.32627307303E+03  0.50350724219E+03  0.81724054021E+02 0.  0.
         24    2    4    4    0    0 -0.37928025574E+02 -0.19064712216E+02  0.17940712305E+03  0.20066847250E+03  0.79239647136E+02 0.  0.
         13    1    5    5    0    0  0.25284620760E+03  0.51399438791E+01 -0.16924427936E+03  0.30430453466E+03  0.00000000000E+00 0. -1.
        -14    1    5    5    0    0  0.12172110062E+03 -0.14410076632E+02 -0.15702879367E+03  0.19920270753E+03  0.00000000000E+00 0.  1.
         15    1    3    3    0    0 -0.15928022681E+03 -0.24718772362E+02 -0.24527795881E+03  0.29350578046E+03  0.17770000000E+01 0. -1.
        -16    1    3    3    0    0 -0.17735905584E+03  0.53053617330E+02 -0.24621091036E+03  0.30804339528E+03  0.00000000000E+00 0.  1.
          2    1    6    6  502    0 -0.16983095157E+02 -0.49724134052E+02  0.11193983989E+03  0.12365857343E+03  0.00000000000E+00 0. -1.
         -1    1    6    6    0  502 -0.20944930417E+02  0.30659421837E+02  0.67467283167E+02  0.77009899074E+02  0.00000000000E+00 0.  1.
<mgrwt>
<rscale>  0 0.40573271E+03</rscale>
<asrwt>0</asrwt>
<pdfrwt beam="1">  1        1 0.14954459E+00 0.40573271E+03</pdfrwt>
<pdfrwt beam="2">  1       -2 0.51336160E-01 0.40573271E+03</pdfrwt>
<totfact> 0.53143708E+01</totfact>
</mgrwt>
</event>
<event>
12    3  0.1092576E-007  0.4724812E+03  0.7818608E-02  0.1021222E+00
          1   -1    0    0  501    0  0.00000000000E+00  0.00000000000E+00  0.39810388719E+03  0.39810388719E+03  0.00000000000E+00 0. -1.
         -2   -1    0    0    0  501 -0.00000000000E+00 -0.00000000000E+00 -0.68850337748E+03  0.68850337748E+03  0.00000000000E+00 0.  1.
        -24    2    1    2    0    0 -0.15326396951E+03 -0.23915930491E+03 -0.30158113673E+03  0.42271422717E+03  0.83959027781E+02 0.  0.
    5000000    2    1    2    0    0  0.15326396951E+03  0.23915930491E+03  0.11181646436E+02  0.66389303750E+03  0.59995159684E+03 0.  0.
        -24    2    4    4    0    0 -0.71629507524E+02  0.36804941826E+03  0.63395921151E+02  0.38816333487E+03  0.77849669807E+02 0.  0.
         24    2    4    4    0    0  0.22489347704E+03 -0.12889011335E+03 -0.52214274715E+02  0.27572970263E+03  0.78171613099E+02 0.  0.
         13    1    5    5    0    0  0.15321212774E+02  0.61353110496E+02  0.52691225078E+00  0.63239397253E+02  0.00000000000E+00 0. -1.
        -14    1    5    5    0    0 -0.86950720298E+02  0.30669630777E+03  0.62869008901E+02  0.32492393762E+03  0.00000000000E+00 0.  1.
         15    1    3    3    0    0 -0.95870272546E+01 -0.70866839767E+02 -0.47930573662E+02  0.86107593688E+02  0.17770000000E+01 0. -1.
        -16    1    3    3    0    0 -0.14367694226E+03 -0.16829246515E+03 -0.25365056306E+03  0.33660663348E+03  0.00000000000E+00 0.  1.
          2    1    6    6  502    0  0.37101274620E+02  0.77264981887E+01 -0.13877529199E+02  0.40358260237E+02  0.00000000000E+00 0. -1.
         -1    1    6    6    0  502  0.18779220242E+03 -0.13661661154E+03 -0.38336745517E+02  0.23537144239E+03  0.00000000000E+00 0.  1.
<mgrwt>
<rscale>  0 0.47248115E+03</rscale>
<asrwt>0</asrwt>
<pdfrwt beam="1">  1        1 0.61246753E-01 0.47248115E+03</pdfrwt>
<pdfrwt beam="2">  1       -2 0.10592359E+00 0.47248115E+03</pdfrwt>
<totfact> 0.39529817E+01</totfact>
</mgrwt>
</event>
<event>
12    3  0.1092576E-007  0.2594309E+03  0.7818608E-02  0.1107486E+00
          1   -1    0    0  501    0  0.00000000000E+00  0.00000000000E+00  0.27326756017E+04  0.27326756017E+04  0.00000000000E+00 0. -1.
         -2   -1    0    0    0  501 -0.00000000000E+00 -0.00000000000E+00 -0.80025875397E+02  0.80025875397E+02  0.00000000000E+00 0.  1.
        -24    2    1    2    0    0 -0.75648677726E+02  0.16459465547E+03  0.19864275714E+03  0.27983923430E+03  0.77697677175E+02 0.  0.
    5000000    2    1    2    0    0  0.75648677726E+02 -0.16459465547E+03  0.24540069692E+04  0.25328622428E+04  0.60035557234E+03 0.  0.
        -24    2    4    4    0    0 -0.20317436335E+02 -0.20241940827E+03  0.28613212881E+03  0.36100548182E+03  0.84065139666E+02 0.  0.
         24    2    4    4    0    0  0.95966114061E+02  0.37824752797E+02  0.21678748404E+04  0.21718567610E+04  0.81487789145E+02 0.  0.
         13    1    5    5    0    0  0.46096230272E+01 -0.11103843197E+03  0.21679216276E+03  0.24361778226E+03  0.00000000000E+00 0. -1.
        -14    1    5    5    0    0 -0.24927059362E+02 -0.91380976292E+02  0.69339966047E+02  0.11738769956E+03  0.00000000000E+00 0.  1.
         15    1    3    3    0    0 -0.36479449207E+02  0.65094325874E+02  0.13804075173E+03  0.15692809928E+03  0.17770000000E+01 0. -1.
        -16    1    3    3    0    0 -0.39169228519E+02  0.99500329595E+02  0.60602005404E+02  0.12291113502E+03  0.00000000000E+00 0.  1.
          2    1    6    6  502    0  0.96749561410E+02  0.32008987293E+01  0.15798120196E+04  0.15827750126E+04  0.00000000000E+00 0. -1.
         -1    1    6    6    0  502 -0.78344734881E+00  0.34623854068E+02  0.58806282082E+03  0.58908174839E+03  0.00000000000E+00 0.  1.
<mgrwt>
<rscale>  0 0.25943092E+03</rscale>
<asrwt>0</asrwt>
<pdfrwt beam="1">  1        1 0.42041156E+00 0.25943092E+03</pdfrwt>
<pdfrwt beam="2">  1       -2 0.12311675E-01 0.25943092E+03</pdfrwt>
<totfact> 0.46449821E+01</totfact>
</mgrwt>
</event>
<event>
12    3  0.1092576E-007  0.3552727E+03  0.7818608E-02  0.1060471E+00
          1   -1    0    0  501    0  0.00000000000E+00  0.00000000000E+00  0.10358947231E+04  0.10358947231E+04  0.00000000000E+00 0. -1.
         -2   -1    0    0    0  501 -0.00000000000E+00 -0.00000000000E+00 -0.21111413235E+03  0.21111413235E+03  0.00000000000E+00 0.  1.
        -24    2    1    2    0    0  0.22089088539E+03  0.14971187035E+03  0.25856301958E+03  0.37990520040E+03  0.79162483704E+02 0.  0.
    5000000    2    1    2    0    0 -0.22089088539E+03 -0.14971187035E+03  0.56621757113E+03  0.86710365502E+03  0.60004998401E+03 0.  0.
        -24    2    4    4    0    0 -0.21866965746E+03  0.43719945114E+02 -0.26851922594E+02  0.23812976268E+03  0.79100603252E+02 0.  0.
         24    2    4    4    0    0 -0.22212279286E+01 -0.19343181547E+03  0.59306949373E+03  0.62897389233E+03  0.80348813061E+02 0.  0.
         11    1    5    5    0    0 -0.35812503765E+02  0.24761334285E+02  0.20747911790E+02  0.48230021202E+02  0.00000000000E+00 0. -1.
        -12    1    5    5    0    0 -0.18285715369E+03  0.18958610830E+02 -0.47599834384E+02  0.18989974148E+03  0.00000000000E+00 0.  1.
         15    1    3    3    0    0 -0.97934563637E+00  0.13562722133E+02  0.31964967733E+02  0.34782516307E+02  0.17770000000E+01 0. -1.
        -16    1    3    3    0    0  0.22187023102E+03  0.13614914822E+03  0.22659805185E+03  0.34512268410E+03  0.00000000000E+00 0.  1.
          4    1    6    6  502    0 -0.29588971032E+02 -0.25698936474E+02  0.98015455620E+02  0.10556027701E+03  0.00000000000E+00 0. -1.
         -3    1    6    6    0  502  0.27367743104E+02 -0.16773287899E+03  0.49505403811E+03  0.52341361532E+03  0.00000000000E+00 0.  1.
<mgrwt>
<rscale>  0 0.35527271E+03</rscale>
<asrwt>0</asrwt>
<pdfrwt beam="1">  1        1 0.15936842E+00 0.35527271E+03</pdfrwt>
<pdfrwt beam="2">  1       -2 0.32479098E-01 0.35527271E+03</pdfrwt>
<totfact> 0.11634717E+02</totfact>
</mgrwt>
</event>
<event>
12    3  0.1092576E-007  0.3976471E+03  0.7818608E-02  0.1044597E+00
          1   -1    0    0  501    0  0.00000000000E+00  0.00000000000E+00  0.18371231445E+04  0.18371231445E+04  0.00000000000E+00 0. -1.
         -2   -1    0    0    0  501 -0.00000000000E+00 -0.00000000000E+00 -0.12779525834E+03  0.12779525834E+03  0.00000000000E+00 0.  1.
        -24    2    1    2    0    0  0.93394432117E+02 -0.27289882623E+03  0.45082382566E+03  0.54115755286E+03  0.80081745297E+02 0.  0.
    5000000    2    1    2    0    0 -0.93394432117E+02  0.27289882623E+03  0.12585040605E+04  0.14237608500E+04  0.60005516274E+03 0.  0.
        -24    2    4    4    0    0  0.28771110186E+02  0.33691341451E+03  0.12188394908E+04  0.12674488130E+04  0.80736383285E+02 0.  0.
         24    2    4    4    0    0 -0.12216554230E+03 -0.64014588278E+02  0.39664569651E+02  0.15631203693E+03  0.61950686563E+02 0.  0.
         13    1    5    5    0    0  0.53329140343E+02  0.19249500239E+03  0.75869044617E+03  0.78454414552E+03  0.00000000000E+00 0. -1.
        -14    1    5    5    0    0 -0.24558030157E+02  0.14441841212E+03  0.46014904465E+03  0.48290466751E+03  0.00000000000E+00 0.  1.
         15    1    3    3    0    0  0.91042901387E+02 -0.15208978346E+03  0.24346922008E+03  0.30116528848E+03  0.17770000000E+01 0. -1.
        -16    1    3    3    0    0  0.23515307305E+01 -0.12080904277E+03  0.20735460558E+03  0.23999226439E+03  0.00000000000E+00 0.  1.
          2    1    6    6  502    0 -0.79083562615E+02 -0.68523755509E+01  0.25220403880E+02  0.83290057621E+02  0.00000000000E+00 0. -1.
         -1    1    6    6    0  502 -0.43081979688E+02 -0.57162212727E+02  0.14444165771E+02  0.73021979311E+02  0.00000000000E+00 0.  1.
<mgrwt>
<rscale>  0 0.39764713E+03</rscale>
<asrwt>0</asrwt>
<pdfrwt beam="1">  1        1 0.28263431E+00 0.39764713E+03</pdfrwt>
<pdfrwt beam="2">  1       -2 0.19660810E-01 0.39764713E+03</pdfrwt>
<totfact> 0.80109290E+01</totfact>
</mgrwt>
</event>
<event>
12    3  0.1092576E-007  0.9337578E+03  0.7818608E-02  0.9384339E-01
         -2   -1    0    0    0  501 -0.00000000000E+00  0.00000000000E+00  0.10745404322E+04  0.10745404322E+04  0.00000000000E+00 0.  1.
          1   -1    0    0  501    0  0.00000000000E+00 -0.00000000000E+00 -0.89172804327E+03  0.89172804327E+03  0.00000000000E+00 0. -1.
        -24    2    1    2    0    0 -0.79655216042E+03  0.33228354034E+03 -0.11372850594E+03  0.87413516241E+03  0.79185943507E+02 0.  0.
    5000000    2    1    2    0    0  0.79655216042E+03 -0.33228354034E+03  0.29654089483E+03  0.10921333130E+04  0.59992580847E+03 0.  0.
        -24    2    4    4    0    0 -0.40702525692E+01  0.75954033247E+02  0.13840990393E+03  0.17647550221E+03  0.78744645872E+02 0.  0.
         24    2    4    4    0    0  0.80062241298E+03 -0.40823757359E+03  0.15813099090E+03  0.91565781081E+03  0.75958222417E+02 0.  0.
         13    1    5    5    0    0  0.40356562348E+01  0.86812020617E+02  0.85706970130E+02  0.12205858501E+03  0.00000000000E+00 0. -1.
        -14    1    5    5    0    0 -0.81059088040E+01 -0.10857987370E+02  0.52702933801E+02  0.54416917208E+02  0.00000000000E+00 0.  1.
         15    1    3    3    0    0 -0.57883770197E+03  0.20744148940E+03 -0.63172942635E+02  0.61812542025E+03  0.17770000000E+01 0. -1.
        -16    1    3    3    0    0 -0.21771445844E+03  0.12484205094E+03 -0.50555563302E+02  0.25600974216E+03  0.00000000000E+00 0.  1.
          2    1    6    6  502    0  0.40219999387E+03 -0.16740228065E+03  0.94436745944E+02  0.44576524946E+03  0.00000000000E+00 0. -1.
         -1    1    6    6    0  502  0.39842241911E+03 -0.24083529294E+03  0.63694244957E+02  0.46989256135E+03  0.00000000000E+00 0.  1.
<mgrwt>
<rscale>  0 0.93375780E+03</rscale>
<asrwt>0</asrwt>
<pdfrwt beam="1">  1        1 0.13718893E+00 0.93375780E+03</pdfrwt>
<pdfrwt beam="2">  1       -2 0.16531391E+00 0.93375780E+03</pdfrwt>
<totfact> 0.37417694E+00</totfact>
</mgrwt>
</event>
<event>
12    3  0.1092576E-007  0.1060163E+04  0.7818608E-02  0.9244914E-01
         -2   -1    0    0    0  501 -0.00000000000E+00  0.00000000000E+00  0.93043691152E+03  0.93043691152E+03  0.00000000000E+00 0.  1.
          1   -1    0    0  501    0  0.00000000000E+00 -0.00000000000E+00 -0.12950301884E+04  0.12950301884E+04  0.00000000000E+00 0. -1.
        -24    2    1    2    0    0 -0.94916198862E+03  0.30263362053E+03 -0.36078709365E+03  0.10625401102E+04  0.79552310026E+02 0.  0.
    5000000    2    1    2    0    0  0.94916198862E+03 -0.30263362053E+03 -0.38061832226E+01  0.11629269897E+04  0.59990758231E+03 0.  0.
        -24    2    4    4    0    0  0.15943749103E+01  0.91880644073E+02  0.53730843007E+02  0.13183932791E+03  0.77781810894E+02 0.  0.
         24    2    4    4    0    0  0.94756761371E+03 -0.39451426460E+03 -0.57537026230E+02  0.10310876617E+04  0.79406355490E+02 0.  0.
         13    1    5    5    0    0  0.87878423918E+01  0.14074686341E+02 -0.18905941540E+02  0.25154673422E+02  0.00000000000E+00 0. -1.
        -14    1    5    5    0    0 -0.71934674815E+01  0.77805957733E+02  0.72636784547E+02  0.10668465448E+03  0.00000000000E+00 0.  1.
         15    1    3    3    0    0 -0.29757636595E+03  0.10956365819E+03 -0.15160254023E+03  0.35148595520E+03  0.17770000000E+01 0. -1.
        -16    1    3    3    0    0 -0.65158562267E+03  0.19306996233E+03 -0.20918455342E+03  0.71105415505E+03  0.00000000000E+00 0.  1.
          2    1    6    6  502    0  0.42098955028E+03 -0.21383356722E+03 -0.90992973000E+01  0.47227088956E+03  0.00000000000E+00 0. -1.
         -1    1    6    6    0  502  0.52657806343E+03 -0.18068069738E+03 -0.48437728930E+02  0.55881677218E+03  0.00000000000E+00 0.  1.
<mgrwt>
<rscale>  0 0.10601629E+04</rscale>
<asrwt>0</asrwt>
<pdfrwt beam="1">  1        1 0.19923541E+00 0.10601629E+04</pdfrwt>
<pdfrwt beam="2">  1       -2 0.14314414E+00 0.10601629E+04</pdfrwt>
<totfact> 0.26850181E+00</totfact>
</mgrwt>
</event>
<event>
12    3  0.1092576E-007  0.3901898E+03  0.7818608E-02  0.1047231E+00
         -2   -1    0    0    0  501 -0.00000000000E+00  0.00000000000E+00  0.13402196482E+03  0.13402196482E+03  0.00000000000E+00 0.  1.
          1   -1    0    0  501    0  0.00000000000E+00 -0.00000000000E+00 -0.16200252025E+04  0.16200252025E+04  0.00000000000E+00 0. -1.
        -24    2    1    2    0    0  0.21685197841E+03  0.13354822015E+02 -0.72494144098E+03  0.76082069965E+03  0.78133938528E+02 0.  0.
    5000000    2    1    2    0    0 -0.21685197841E+03 -0.13354822015E+02 -0.76106179673E+03  0.99322646770E+03  0.60006718448E+03 0.  0.
        -24    2    4    4    0    0 -0.21732147902E+03  0.22615432791E+03 -0.63182609026E+03  0.70985897769E+03  0.79505689123E+02 0.  0.
         24    2    4    4    0    0  0.46950061133E+00 -0.23950914992E+03 -0.12923570647E+03  0.28336749001E+03  0.78932966737E+02 0.  0.
         13    1    5    5    0    0 -0.10900312538E+03  0.13559374248E+03 -0.26714087485E+03  0.31879710061E+03  0.00000000000E+00 0. -1.
        -14    1    5    5    0    0 -0.10831835364E+03  0.90560585430E+02 -0.36468521541E+03  0.39106187708E+03  0.00000000000E+00 0.  1.
         15    1    3    3    0    0  0.60049648413E+01  0.13133058845E+02 -0.18217634735E+02  0.23314733147E+02  0.17770000000E+01 0. -1.
        -16    1    3    3    0    0  0.21084701357E+03  0.22176317005E+00 -0.70672380625E+03  0.73750596650E+03  0.00000000000E+00 0.  1.
          4    1    6    6  502    0  0.60998406563E+01 -0.15700214747E+03 -0.40888659790E+02  0.16235382615E+03  0.00000000000E+00 0. -1.
         -3    1    6    6    0  502 -0.56303400450E+01 -0.82507002454E+02 -0.88347046680E+02  0.12101366386E+03  0.00000000000E+00 0.  1.
<mgrwt>
<rscale>  0 0.39018980E+03</rscale>
<asrwt>0</asrwt>
<pdfrwt beam="1">  1        1 0.24923465E+00 0.39018980E+03</pdfrwt>
<pdfrwt beam="2">  1       -2 0.20618764E-01 0.39018980E+03</pdfrwt>
<totfact> 0.10276301E+02</totfact>
</mgrwt>
</event>
<event>
12    3  0.1092576E-007  0.7390408E+03  0.7818608E-02  0.9652702E-01
          1   -1    0    0  501    0  0.00000000000E+00  0.00000000000E+00  0.24470206892E+04  0.24470206892E+04  0.00000000000E+00 0. -1.
         -2   -1    0    0    0  501 -0.00000000000E+00 -0.00000000000E+00 -0.28706109621E+03  0.28706109621E+03  0.00000000000E+00 0.  1.
        -24    2    1    2    0    0 -0.44168998597E+03 -0.54951036667E+03  0.12421629865E+04  0.14304539626E+04  0.78600047615E+02 0.  0.
    5000000    2    1    2    0    0  0.44168998597E+03  0.54951036667E+03  0.91779660650E+03  0.13036278228E+04  0.60003600106E+03 0.  0.
        -24    2    4    4    0    0  0.36893236671E+03  0.24892359091E+03  0.15900943048E+03  0.48030701879E+03  0.85655052405E+02 0.  0.
         24    2    4    4    0    0  0.72757619259E+02  0.30058677576E+03  0.75878717602E+03  0.82332080396E+03  0.80331107400E+02 0.  0.
         13    1    5    5    0    0  0.34706074889E+03  0.20500157671E+03  0.15176816823E+03  0.43070916726E+03  0.00000000000E+00 0. -1.
        -14    1    5    5    0    0  0.21871617817E+02  0.43922014204E+02  0.72412622486E+01  0.49597851533E+02  0.00000000000E+00 0.  1.
         15    1    3    3    0    0 -0.16855918219E+03 -0.24849764035E+03  0.46739262445E+03  0.55553784595E+03  0.17770000000E+01 0. -1.
        -16    1    3    3    0    0 -0.27313080378E+03 -0.30101272632E+03  0.77477036203E+03  0.87491611670E+03  0.00000000000E+00 0.  1.
          2    1    6    6  502    0  0.88683071028E+02  0.22293027466E+03  0.58622880444E+03  0.63342466451E+03  0.00000000000E+00 0. -1.
         -1    1    6    6    0  502 -0.15925451769E+02  0.77656501105E+02  0.17255837157E+03  0.18989613945E+03  0.00000000000E+00 0.  1.
<mgrwt>
<rscale>  0 0.73904085E+03</rscale>
<asrwt>0</asrwt>
<pdfrwt beam="1">  1        1 0.37646471E+00 0.73904085E+03</pdfrwt>
<pdfrwt beam="2">  1       -2 0.44163247E-01 0.73904085E+03</pdfrwt>
<totfact> 0.66333137E+00</totfact>
</mgrwt>
</event>
<event>
12    3  0.1092576E-007  0.7953091E+03  0.7818608E-02  0.9566832E-01
          1   -1    0    0  501    0  0.00000000000E+00  0.00000000000E+00  0.17537672036E+04  0.17537672036E+04  0.00000000000E+00 0. -1.
         -2   -1    0    0    0  501 -0.00000000000E+00 -0.00000000000E+00 -0.80529898328E+03  0.80529898328E+03  0.00000000000E+00 0.  1.
        -24    2    1    2    0    0  0.65095750739E+03  0.30000449938E+03 -0.46966949481E+03  0.86053639257E+03  0.78645231967E+02 0.  0.
    5000000    2    1    2    0    0 -0.65095750739E+03 -0.30000449938E+03  0.14181377152E+04  0.16985297944E+04  0.60011707779E+03 0.  0.
        -24    2    4    4    0    0 -0.62029654740E+00 -0.21345970154E+03  0.63257034694E+03  0.67192219816E+03  0.75952403606E+02 0.  0.
         24    2    4    4    0    0 -0.65033721084E+03 -0.86544797846E+02  0.78556736823E+03  0.10266075962E+04  0.79865992069E+02 0.  0.
         11    1    5    5    0    0 -0.17806627108E+02 -0.45673160343E+02  0.23492706007E+03  0.23998716028E+03  0.00000000000E+00 0. -1.
        -12    1    5    5    0    0  0.17186330561E+02 -0.16778654120E+03  0.39764328686E+03  0.43193503788E+03  0.00000000000E+00 0.  1.
         15    1    3    3    0    0  0.38408773737E+03  0.17416129511E+03 -0.22977193143E+03  0.48026434899E+03  0.17770000000E+01 0. -1.
        -16    1    3    3    0    0  0.26686977002E+03  0.12584320428E+03 -0.23989756338E+03  0.38027204358E+03  0.00000000000E+00 0.  1.
          4    1    6    6  502    0 -0.58300477596E+03 -0.74501737113E+02  0.73726768844E+03  0.94287259057E+03  0.00000000000E+00 0. -1.
         -3    1    6    6    0  502 -0.67332434882E+02 -0.12043060733E+02  0.48299679788E+02  0.83735005622E+02  0.00000000000E+00 0.  1.
<mgrwt>
<rscale>  0 0.79530911E+03</rscale>
<asrwt>0</asrwt>
<pdfrwt beam="1">  1        1 0.26981034E+00 0.79530911E+03</pdfrwt>
<pdfrwt beam="2">  1       -2 0.12389215E+00 0.79530911E+03</pdfrwt>
<totfact> 0.19440076E+00</totfact>
</mgrwt>
</event>
<event>
12    3  0.1092576E-007  0.1191974E+04  0.7818608E-02  0.9119911E-01
          1   -1    0    0  501    0  0.00000000000E+00  0.00000000000E+00  0.81451038889E+03  0.81451038889E+03  0.00000000000E+00 0. -1.
         -2   -1    0    0    0  501 -0.00000000000E+00 -0.00000000000E+00 -0.27061186896E+04  0.27061186896E+04  0.00000000000E+00 0.  1.
        -24    2    1    2    0    0  0.10365775309E+03 -0.11705163591E+04 -0.18590792314E+04  0.22007440956E+04  0.79028534440E+02 0.  0.
    5000000    2    1    2    0    0 -0.10365775309E+03  0.11705163591E+04 -0.32529069251E+02  0.13198849828E+04  0.60015393932E+03 0.  0.
        -24    2    4    4    0    0 -0.18421724402E+03  0.96276248033E+03  0.18214529116E+03  0.10001667829E+04  0.79429843717E+02 0.  0.
         24    2    4    4    0    0  0.80559490934E+02  0.20775387873E+03 -0.21467436041E+03  0.31971819986E+03  0.80517952030E+02 0.  0.
         11    1    5    5    0    0 -0.11622194403E+03  0.73146553270E+03  0.11181991808E+03  0.74903475211E+03  0.00000000000E+00 0. -1.
        -12    1    5    5    0    0 -0.67995299996E+02  0.23129694763E+03  0.70325373080E+02  0.25113203082E+03  0.00000000000E+00 0.  1.
         15    1    3    3    0    0  0.28608378128E+02 -0.69323002991E+03 -0.10563436708E+04  0.12638241263E+04  0.17770000000E+01 0. -1.
        -16    1    3    3    0    0  0.75049374959E+02 -0.47728632914E+03 -0.80273556064E+03  0.93691996936E+03  0.00000000000E+00 0.  1.
          4    1    6    6  502    0  0.28047637616E+02  0.11776570966E+03 -0.65158579196E+02  0.13748117250E+03  0.00000000000E+00 0. -1.
         -1    1    6    6    0  502  0.52511853318E+02  0.89988169064E+02 -0.14951578122E+03  0.18223702737E+03  0.00000000000E+00 0.  1.
<mgrwt>
<rscale>  0 0.11919737E+04</rscale>
<asrwt>0</asrwt>
<pdfrwt beam="1">  1        1 0.12530929E+00 0.11919737E+04</pdfrwt>
<pdfrwt beam="2">  1       -2 0.41632595E+00 0.11919737E+04</pdfrwt>
<totfact> 0.10827821E-01</totfact>
</mgrwt>
</event>
<event>
12    3  0.1092576E-007  0.8124166E+03  0.7818608E-02  0.9542217E-01
         -2   -1    0    0    0  501 -0.00000000000E+00  0.00000000000E+00  0.32614033420E+03  0.32614033420E+03  0.00000000000E+00 0.  1.
          1   -1    0    0  501    0  0.00000000000E+00 -0.00000000000E+00 -0.20891075031E+04  0.20891075031E+04  0.00000000000E+00 0. -1.
        -24    2    1    2    0    0  0.56966320642E+03 -0.42079679160E+03 -0.63774087941E+03  0.95659742777E+03  0.82335295984E+02 0.  0.
    5000000    2    1    2    0    0 -0.56966320642E+03  0.42079679160E+03 -0.11252262895E+04  0.14586504095E+04  0.59995058636E+03 0.  0.
        -24    2    4    4    0    0  0.45033932600E+02  0.27595698887E+03 -0.34842149061E+03  0.45422929902E+03  0.82136509430E+02 0.  0.
         24    2    4    4    0    0 -0.61469713902E+03  0.14483980273E+03 -0.77680479887E+03  0.10044211105E+04  0.81270723381E+02 0.  0.
         11    1    5    5    0    0  0.34038229117E+02  0.18759001496E+03 -0.29226729186E+03  0.34895384314E+03  0.00000000000E+00 0. -1.
        -12    1    5    5    0    0  0.10995703484E+02  0.88366973914E+02 -0.56154198749E+02  0.10527545588E+03  0.00000000000E+00 0.  1.
         15    1    3    3    0    0  0.34733068967E+03 -0.20713143305E+03 -0.34971854065E+03  0.53464778495E+03  0.17770000000E+01 0. -1.
        -16    1    3    3    0    0  0.22233251674E+03 -0.21366535856E+03 -0.28802233876E+03  0.42194964282E+03  0.00000000000E+00 0.  1.
          4    1    6    6  502    0 -0.23862912887E+03  0.72543788669E+02 -0.36494875965E+03  0.44203400275E+03  0.00000000000E+00 0. -1.
         -1    1    6    6    0  502 -0.37606801015E+03  0.72296014065E+02 -0.41185603922E+03  0.56238710774E+03  0.00000000000E+00 0.  1.
<mgrwt>
<rscale>  0 0.81241656E+03</rscale>
<asrwt>0</asrwt>
<pdfrwt beam="1">  1        1 0.32140115E+00 0.81241656E+03</pdfrwt>
<pdfrwt beam="2">  1       -2 0.50175437E-01 0.81241656E+03</pdfrwt>
<totfact> 0.88444297E+00</totfact>
</mgrwt>
</event>
<event>
12    3  0.1092576E-007  0.6207277E+03  0.7818608E-02  0.9863312E-01
         -2   -1    0    0    0  501 -0.00000000000E+00  0.00000000000E+00  0.28485298610E+03  0.28485298610E+03  0.00000000000E+00 0.  1.
          1   -1    0    0  501    0  0.00000000000E+00 -0.00000000000E+00 -0.15496866717E+04  0.15496866717E+04  0.00000000000E+00 0. -1.
        -24    2    1    2    0    0 -0.51687675151E+03  0.48533056248E+02 -0.61675594139E+03  0.81008434596E+03  0.79572121558E+02 0.  0.
    5000000    2    1    2    0    0  0.51687675151E+03 -0.48533056248E+02 -0.64807774420E+03  0.10244553118E+04  0.59998907458E+03 0.  0.
        -24    2    4    4    0    0 -0.86402252254E+02  0.53553064322E+02  0.11833757244E+01  0.12866930011E+03  0.78874004082E+02 0.  0.
         24    2    4    4    0    0  0.60327900376E+03 -0.10208612057E+03 -0.64926111992E+03  0.89578601172E+03  0.80780223801E+02 0.  0.
         13    1    5    5    0    0 -0.76753715513E+02  0.38819703504E+02  0.33144325424E+02  0.92177266899E+02  0.00000000000E+00 0. -1.
        -14    1    5    5    0    0 -0.96485367407E+01  0.14733360819E+02 -0.31960949699E+02  0.36492033212E+02  0.00000000000E+00 0.  1.
         15    1    3    3    0    0 -0.17771086550E+03  0.54366178185E+02 -0.20916962169E+03  0.27980693597E+03  0.17770000000E+01 0. -1.
        -16    1    3    3    0    0 -0.33916588600E+03 -0.58331219371E+01 -0.40758631969E+03  0.53027740999E+03  0.00000000000E+00 0.  1.
          2    1    6    6  502    0  0.40654059307E+03 -0.84620395912E+02 -0.38839935777E+03  0.56858590058E+03  0.00000000000E+00 0. -1.
         -1    1    6    6    0  502  0.19673841069E+03 -0.17465724658E+02 -0.26086176215E+03  0.32720011114E+03  0.00000000000E+00 0.  1.
<mgrwt>
<rscale>  0 0.62072766E+03</rscale>
<asrwt>0</asrwt>
<pdfrwt beam="1">  1        1 0.23841333E+00 0.62072766E+03</pdfrwt>
<pdfrwt beam="2">  1       -2 0.43823537E-01 0.62072766E+03</pdfrwt>
<totfact> 0.27425346E+01</totfact>
</mgrwt>
</event>
<event>
12    3  0.1092576E-007  0.9364845E+03  0.7818608E-02  0.9381089E-01
         -2   -1    0    0    0  501 -0.00000000000E+00  0.00000000000E+00  0.61428498809E+03  0.61428498809E+03  0.00000000000E+00 0.  1.
          1   -1    0    0  501    0  0.00000000000E+00 -0.00000000000E+00 -0.18043062236E+04  0.18043062236E+04  0.00000000000E+00 0. -1.
        -24    2    1    2    0    0  0.46606371025E+02 -0.85462869218E+03 -0.10607996840E+04  0.13653671843E+04  0.79807412650E+02 0.  0.
    5000000    2    1    2    0    0 -0.46606371025E+02  0.85462869218E+03 -0.12922155153E+03  0.10532240274E+04  0.60001690573E+03 0.  0.
        -24    2    4    4    0    0 -0.34133568465E+02 -0.60820317162E+02  0.59331594380E+02  0.11506152950E+03  0.69675720326E+02 0.  0.
         24    2    4    4    0    0 -0.12472802560E+02  0.91544900934E+03 -0.18855314591E+03  0.93816249788E+03  0.79963267198E+02 0.  0.
         13    1    5    5    0    0  0.45568572340E+00 -0.63748766654E+02  0.41117983831E+02  0.75860407946E+02  0.00000000000E+00 0. -1.
        -14    1    5    5    0    0 -0.34589254188E+02  0.29284494918E+01  0.18213610548E+02  0.39201121552E+02  0.00000000000E+00 0.  1.
         15    1    3    3    0    0  0.46828447857E+02 -0.43416450425E+03 -0.48877059554E+03  0.65543235583E+03  0.17770000000E+01 0. -1.
        -16    1    3    3    0    0 -0.22207683121E+00 -0.42046418793E+03 -0.57202908841E+03  0.70993482844E+03  0.00000000000E+00 0.  1.
          2    1    6    6  502    0  0.23213553327E+02  0.32410359028E+03 -0.39890653011E+02  0.32737328921E+03  0.00000000000E+00 0. -1.
         -1    1    6    6    0  502 -0.35686355888E+02  0.59134541905E+03 -0.14866249289E+03  0.61078920867E+03  0.00000000000E+00 0.  1.
<mgrwt>
<rscale>  0 0.93648449E+03</rscale>
<asrwt>0</asrwt>
<pdfrwt beam="1">  1        1 0.27758558E+00 0.93648449E+03</pdfrwt>
<pdfrwt beam="2">  1       -2 0.94505382E-01 0.93648449E+03</pdfrwt>
<totfact> 0.33910850E+00</totfact>
</mgrwt>
</event>
<event>
12    3  0.1092576E-007  0.5285093E+03  0.7818608E-02  0.1006594E+00
         -2   -1    0    0    0  501 -0.00000000000E+00  0.00000000000E+00  0.17654915012E+03  0.17654915012E+03  0.00000000000E+00 0.  1.
          1   -1    0    0  501    0  0.00000000000E+00 -0.00000000000E+00 -0.19395193879E+04  0.19395193879E+04  0.00000000000E+00 0. -1.
        -24    2    1    2    0    0  0.38309406361E+03  0.15645149425E+03 -0.84150988597E+03  0.94114483489E+03  0.79853493574E+02 0.  0.
    5000000    2    1    2    0    0 -0.38309406361E+03 -0.15645149425E+03 -0.92146035182E+03  0.11749237031E+04  0.60009865572E+03 0.  0.
        -24    2    4    4    0    0 -0.49285664294E+03 -0.15132668965E+03 -0.46506540690E+03  0.69914684514E+03  0.81933148853E+02 0.  0.
         24    2    4    4    0    0  0.10976257933E+03 -0.51248045983E+01 -0.45639494492E+03  0.47577685800E+03  0.77415666513E+02 0.  0.
         13    1    5    5    0    0 -0.21660681306E+03 -0.10334709961E+03 -0.24229883830E+03  0.34103938410E+03  0.00000000000E+00 0. -1.
        -14    1    5    5    0    0 -0.27624982988E+03 -0.47979590037E+02 -0.22276656860E+03  0.35810746104E+03  0.00000000000E+00 0.  1.
         15    1    3    3    0    0  0.18719888659E+03  0.66822335931E+02 -0.31762422498E+03  0.37469581496E+03  0.17770000000E+01 0. -1.
        -16    1    3    3    0    0  0.19589517701E+03  0.89629158315E+02 -0.52388566099E+03  0.56644901994E+03  0.00000000000E+00 0.  1.
          4    1    6    6  502    0 -0.32104689338E+01 -0.88341708709E+01 -0.54159787408E+01  0.10848157054E+02  0.00000000000E+00 0. -1.
         -3    1    6    6    0  502  0.11297304826E+03  0.37093662727E+01 -0.45097896618E+03  0.46492870095E+03  0.00000000000E+00 0.  1.
<mgrwt>
<rscale>  0 0.52850934E+03</rscale>
<asrwt>0</asrwt>
<pdfrwt beam="1">  1        1 0.29838762E+00 0.52850934E+03</pdfrwt>
<pdfrwt beam="2">  1       -2 0.27161406E-01 0.52850934E+03</pdfrwt>
<totfact> 0.37798961E+01</totfact>
</mgrwt>
</event>
<event>
12    3  0.1092576E-007  0.1149928E+04  0.7818608E-02  0.9157850E-01
         -2   -1    0    0    0  501 -0.00000000000E+00  0.00000000000E+00  0.30153530687E+04  0.30153530687E+04  0.00000000000E+00 0.  1.
          1   -1    0    0  501    0  0.00000000000E+00 -0.00000000000E+00 -0.63776476647E+03  0.63776476647E+03  0.00000000000E+00 0. -1.
        -24    2    1    2    0    0  0.26097924984E+03 -0.10448597689E+04  0.12738980347E+03  0.10873412144E+04  0.78997777714E+02 0.  0.
    5000000    2    1    2    0    0 -0.26097924984E+03  0.10448597689E+04  0.22501984988E+04  0.25657766208E+04  0.59997856506E+03 0.  0.
        -24    2    4    4    0    0 -0.15864160059E+03  0.47472785592E+01  0.26431387536E+03  0.31997187244E+03  0.85618224422E+02 0.  0.
         24    2    4    4    0    0 -0.10233764925E+03  0.10401124904E+04  0.19858846234E+04  0.22458047484E+04  0.87144955675E+02 0.  0.
         13    1    5    5    0    0 -0.56974490033E+02 -0.30883912427E+02  0.14725690428E+03  0.16088661977E+03  0.00000000000E+00 0. -1.
        -14    1    5    5    0    0 -0.10166711056E+03  0.35631190986E+02  0.11705697108E+03  0.15908525267E+03  0.00000000000E+00 0.  1.
         15    1    3    3    0    0  0.20226046251E+03 -0.65828481188E+03  0.71576573644E+02  0.69236879758E+03  0.17770000000E+01 0. -1.
        -16    1    3    3    0    0  0.58718787328E+02 -0.38657495704E+03  0.55813229831E+02  0.39497241678E+03  0.00000000000E+00 0.  1.
          2    1    6    6  502    0  0.11496097480E+02  0.82829184609E+02  0.13220189575E+03  0.15642945797E+03  0.00000000000E+00 0. -1.
         -1    1    6    6    0  502 -0.11383374673E+03  0.95728330574E+03  0.18536827277E+04  0.20893752904E+04  0.00000000000E+00 0.  1.
<mgrwt>
<rscale>  0 0.11499279E+04</rscale>
<asrwt>0</asrwt>
<pdfrwt beam="1">  1        1 0.98117658E-01 0.11499279E+04</pdfrwt>
<pdfrwt beam="2">  1       -2 0.46390046E+00 0.11499279E+04</pdfrwt>
<totfact> 0.76995852E-02</totfact>
</mgrwt>
</event>
<event>
12    3  0.1092576E-007  0.4551942E+03  0.7818608E-02  0.1026184E+00
         -4   -1    0    0    0  501 -0.00000000000E+00  0.00000000000E+00  0.25921373132E+04  0.25921373132E+04  0.00000000000E+00 0.  1.
          3   -1    0    0  501    0  0.00000000000E+00 -0.00000000000E+00 -0.17338037412E+03  0.17338037412E+03  0.00000000000E+00 0. -1.
        -24    2    1    2    0    0 -0.80671182052E+02 -0.37003272721E+03  0.19947961386E+03  0.43561023174E+03  0.80821400848E+02 0.  0.
    5000000    2    1    2    0    0  0.80671182052E+02  0.37003272721E+03  0.22192773252E+04  0.23299074555E+04  0.59987069145E+03 0.  0.
        -24    2    4    4    0    0  0.12369641739E+03  0.43148484723E+03  0.21600021118E+04  0.22076371780E+04  0.81072867254E+02 0.  0.
         24    2    4    4    0    0 -0.43025235333E+02 -0.61452120021E+02  0.59275213402E+02  0.12227027752E+03  0.76216375599E+02 0.  0.
         11    1    5    5    0    0  0.69046846210E+02  0.35403779416E+03  0.16615380468E+04  0.17002408381E+04  0.00000000000E+00 0. -1.
        -12    1    5    5    0    0  0.54649571175E+02  0.77447053067E+02  0.49846406496E+03  0.50739633987E+03  0.00000000000E+00 0.  1.
         15    1    3    3    0    0 -0.76043568815E+02 -0.33211994515E+03  0.20404440916E+03  0.39714425712E+03  0.17770000000E+01 0. -1.
        -16    1    3    3    0    0 -0.46276132370E+01 -0.37912782056E+02 -0.45647952999E+01  0.38465974622E+02  0.00000000000E+00 0.  1.
          4    1    6    6  502    0 -0.30528961772E+02 -0.33284708324E+02  0.75095783291E+02  0.87631421209E+02  0.00000000000E+00 0. -1.
         -3    1    6    6    0  502 -0.12496273562E+02 -0.28167411697E+02 -0.15820569889E+02  0.34638856307E+02  0.00000000000E+00 0.  1.
<mgrwt>
<rscale>  0 0.45519421E+03</rscale>
<asrwt>0</asrwt>
<pdfrwt beam="1">  1        3 0.26673906E-01 0.45519421E+03</pdfrwt>
<pdfrwt beam="2">  1       -4 0.39879033E+00 0.45519421E+03</pdfrwt>
<totfact> 0.23525900E-01</totfact>
</mgrwt>
</event>
<event>
12    3  0.1092576E-007  0.5671214E+03  0.7818608E-02  0.9976069E-01
         -2   -1    0    0    0  501 -0.00000000000E+00  0.00000000000E+00  0.15757785968E+03  0.15757785968E+03  0.00000000000E+00 0.  1.
          1   -1    0    0  501    0  0.00000000000E+00 -0.00000000000E+00 -0.23973970916E+04  0.23973970916E+04  0.00000000000E+00 0. -1.
        -24    2    1    2    0    0  0.80971994487E+02  0.44529578370E+03 -0.64460489175E+03  0.79164925534E+03  0.79676082695E+02 0.  0.
    5000000    2    1    2    0    0 -0.80971994487E+02 -0.44529578370E+03 -0.15952143402E+04  0.17633256959E+04  0.59980323437E+03 0.  0.
        -24    2    4    4    0    0  0.14917437013E+03 -0.41062921457E+03 -0.65626498541E+03  0.79269202526E+03  0.82508007323E+02 0.  0.
         24    2    4    4    0    0 -0.23014636462E+03 -0.34666569125E+02 -0.93894935476E+03  0.97063367066E+03  0.79590901878E+02 0.  0.
         11    1    5    5    0    0  0.11196277352E+03 -0.21487538520E+03 -0.31351871961E+03  0.39623361968E+03  0.00000000000E+00 0. -1.
        -12    1    5    5    0    0  0.37211596617E+02 -0.19575382937E+03 -0.34274626580E+03  0.39645840558E+03  0.00000000000E+00 0.  1.
         15    1    3    3    0    0  0.63414790189E+02  0.33611048350E+03 -0.54132279364E+03  0.64033211490E+03  0.17770000000E+01 0. -1.
        -16    1    3    3    0    0  0.17557204297E+02  0.10918530020E+03 -0.10328209811E+03  0.15131714044E+03  0.00000000000E+00 0.  1.
          2    1    6    6  502    0 -0.25532786451E+02  0.14847289991E+02 -0.20403377539E+03  0.20616048773E+03  0.00000000000E+00 0. -1.
         -1    1    6    6    0  502 -0.20461357817E+03 -0.49513859116E+02 -0.73491557937E+03  0.76447318293E+03  0.00000000000E+00 0.  1.
<mgrwt>
<rscale>  0 0.56712140E+03</rscale>
<asrwt>0</asrwt>
<pdfrwt beam="1">  1        1 0.36883031E+00 0.56712140E+03</pdfrwt>
<pdfrwt beam="2">  1       -2 0.24242748E-01 0.56712140E+03</pdfrwt>
<totfact> 0.22826258E+01</totfact>
</mgrwt>
</event>
<event>
12    3  0.1092576E-007  0.4439728E+03  0.7818608E-02  0.1029535E+00
         -2   -1    0    0    0  501 -0.00000000000E+00  0.00000000000E+00  0.64869242484E+03  0.64869242484E+03  0.00000000000E+00 0.  1.
          1   -1    0    0  501    0  0.00000000000E+00 -0.00000000000E+00 -0.60753170108E+03  0.60753170108E+03  0.00000000000E+00 0. -1.
        -24    2    1    2    0    0  0.31033382806E+03  0.25136007298E+03  0.28307141461E+03  0.49599067570E+03  0.79927176151E+02 0.  0.
    5000000    2    1    2    0    0 -0.31033382806E+03 -0.25136007298E+03 -0.24191069085E+03  0.76023345022E+03  0.59995428606E+03 0.  0.
        -24    2    4    4    0    0 -0.34259679390E+03 -0.14354186932E+03  0.98461626964E+02  0.39254109133E+03  0.80106085645E+02 0.  0.
         24    2    4    4    0    0  0.32262965841E+02 -0.10781820366E+03 -0.34037231781E+03  0.36769235890E+03  0.81723265048E+02 0.  0.
         13    1    5    5    0    0 -0.12289005714E+03 -0.38713155883E+02 -0.28294057800E+01  0.12887466826E+03  0.00000000000E+00 0. -1.
        -14    1    5    5    0    0 -0.21970673677E+03 -0.10482871343E+03  0.10129103274E+03  0.26366642307E+03  0.00000000000E+00 0.  1.
         15    1    3    3    0    0  0.20064144417E+03  0.14389136509E+03  0.21737756237E+03  0.32896485590E+03  0.17770000000E+01 0. -1.
        -16    1    3    3    0    0  0.10969238389E+03  0.10746870788E+03  0.65693852240E+02  0.16702581980E+03  0.00000000000E+00 0.  1.
          2    1    6    6  502    0  0.21237311404E+02 -0.98481342972E+02 -0.17684677396E+03  0.20352980069E+03  0.00000000000E+00 0. -1.
         -1    1    6    6    0  502  0.11025654437E+02 -0.93368606906E+01 -0.16352554386E+03  0.16416255821E+03  0.00000000000E+00 0.  1.
<mgrwt>
<rscale>  0 0.44397275E+03</rscale>
<asrwt>0</asrwt>
<pdfrwt beam="1">  1        1 0.93466416E-01 0.44397275E+03</pdfrwt>
<pdfrwt beam="2">  1       -2 0.99798835E-01 0.44397275E+03</pdfrwt>
<totfact> 0.25751733E+01</totfact>
</mgrwt>
</event>
<event>
12    3  0.1092576E-007  0.9146626E+03  0.7818608E-02  0.9407436E-01
         -2   -1    0    0    0  501 -0.00000000000E+00  0.00000000000E+00  0.99354228910E+03  0.99354228910E+03  0.00000000000E+00 0.  1.
          1   -1    0    0  501    0  0.00000000000E+00 -0.00000000000E+00 -0.98324667862E+03  0.98324667862E+03  0.00000000000E+00 0. -1.
        -24    2    1    2    0    0 -0.83124504078E+03 -0.14061286320E+03  0.30631622252E+03  0.90054633927E+03  0.80086115318E+02 0.  0.
    5000000    2    1    2    0    0  0.83124504078E+03  0.14061286320E+03 -0.29602061204E+03  0.10762426285E+04  0.59994141167E+03 0.  0.
        -24    2    4    4    0    0  0.74572316979E+03 -0.74301943342E+02 -0.35308656897E+03  0.83234622099E+03  0.80661525386E+02 0.  0.
         24    2    4    4    0    0  0.85521870993E+02  0.21491480654E+03  0.57065956928E+02  0.24389640746E+03  0.52216564856E+02 0.  0.
         11    1    5    5    0    0  0.73056051269E+03 -0.61524545668E+02 -0.34951985713E+03  0.81219952164E+03  0.00000000000E+00 0. -1.
        -12    1    5    5    0    0  0.15162657093E+02 -0.12777397675E+02 -0.35667118352E+01  0.20146699352E+02  0.00000000000E+00 0.  1.
         15    1    3    3    0    0 -0.14563126209E+03 -0.30811948831E+02  0.86797529445E+02  0.17232181967E+03  0.17770000000E+01 0. -1.
        -16    1    3    3    0    0 -0.68561377869E+03 -0.10980091437E+03  0.21951869308E+03  0.72822451959E+03  0.00000000000E+00 0.  1.
          4    1    6    6  502    0  0.19594894293E+02  0.87573297448E+02  0.48006751091E+00  0.89740028823E+02  0.00000000000E+00 0. -1.
         -3    1    6    6    0  502  0.65926976700E+02  0.12734150909E+03  0.56585889417E+02  0.15415637864E+03  0.00000000000E+00 0.  1.
<mgrwt>
<rscale>  0 0.91466264E+03</rscale>
<asrwt>0</asrwt>
<pdfrwt beam="1">  1        1 0.15126872E+00 0.91466264E+03</pdfrwt>
<pdfrwt beam="2">  1       -2 0.15285266E+00 0.91466264E+03</pdfrwt>
<totfact> 0.39160559E+00</totfact>
</mgrwt>
</event>
<event>
12    3  0.1092576E-007  0.5938034E+03  0.7818608E-02  0.9918346E-01
         -2   -1    0    0    0  501 -0.00000000000E+00  0.00000000000E+00  0.19234034580E+04  0.19234034580E+04  0.00000000000E+00 0.  1.
          1   -1    0    0  501    0  0.00000000000E+00 -0.00000000000E+00 -0.25189083887E+03  0.25189083887E+03  0.00000000000E+00 0. -1.
        -24    2    1    2    0    0 -0.53640867947E+03  0.61137238632E+02  0.94155705487E+03  0.10870129743E+04  0.59962365608E+02 0.  0.
    5000000    2    1    2    0    0  0.53640867947E+03 -0.61137238632E+02  0.72995556426E+03  0.10882813226E+04  0.60004089691E+03 0.  0.
        -24    2    4    4    0    0  0.26526530935E+03 -0.20436973715E+03  0.68658405546E+03  0.76786252029E+03  0.77990454800E+02 0.  0.
         24    2    4    4    0    0  0.27114337012E+03  0.14323249852E+03  0.43371508797E+02  0.32041880231E+03  0.82175697772E+02 0.  0.
         13    1    5    5    0    0  0.13919134084E+03 -0.96473434279E+02  0.43159322482E+03  0.46363138871E+03  0.00000000000E+00 0. -1.
        -14    1    5    5    0    0  0.12607396851E+03 -0.10789630288E+03  0.25499083064E+03  0.30423113158E+03  0.00000000000E+00 0.  1.
         15    1    3    3    0    0 -0.21050512951E+03  0.23872218575E+02  0.31217294382E+03  0.37727628729E+03  0.17770000000E+01 0. -1.
        -16    1    3    3    0    0 -0.32590354995E+03  0.37265020057E+02  0.62938411104E+03  0.70973668697E+03  0.00000000000E+00 0.  1.
          4    1    6    6  502    0  0.76069633270E+02  0.72024762485E+02  0.41688973325E+02  0.11274806435E+03  0.00000000000E+00 0. -1.
         -3    1    6    6    0  502  0.19507373685E+03  0.71207736038E+02  0.16825354712E+01  0.20767073796E+03  0.00000000000E+00 0.  1.
<mgrwt>
<rscale>  0 0.59380338E+03</rscale>
<asrwt>0</asrwt>
<pdfrwt beam="1">  1        1 0.38752438E-01 0.59380338E+03</pdfrwt>
<pdfrwt beam="2">  1       -2 0.29590821E+00 0.59380338E+03</pdfrwt>
<totfact> 0.34546662E+00</totfact>
</mgrwt>
</event>
<event>
12    3  0.1092576E-007  0.5070870E+03  0.7818608E-02  0.1011945E+00
         -2   -1    0    0    0  501 -0.00000000000E+00  0.00000000000E+00  0.23884794602E+03  0.23884794602E+03  0.00000000000E+00 0.  1.
          1   -1    0    0  501    0  0.00000000000E+00 -0.00000000000E+00 -0.15584321627E+04  0.15584321627E+04  0.00000000000E+00 0. -1.
        -24    2    1    2    0    0  0.42098696628E+03 -0.77648666135E+02 -0.74430562057E+03  0.86221273319E+03  0.78489485530E+02 0.  0.
    5000000    2    1    2    0    0 -0.42098696628E+03  0.77648666135E+02 -0.57527859607E+03  0.93506737549E+03  0.60012181470E+03 0.  0.
        -24    2    4    4    0    0 -0.46160298913E+03 -0.28086597436E+02 -0.16717212890E+03  0.50393795172E+03  0.11018512592E+03 0.  0.
         24    2    4    4    0    0  0.40616022856E+02  0.10573526357E+03 -0.40810646718E+03  0.43112942377E+03  0.80573470881E+02 0.  0.
         13    1    5    5    0    0 -0.41317672189E+03 -0.39025946716E+02 -0.11230258527E+03  0.42994173871E+03  0.00000000000E+00 0. -1.
        -14    1    5    5    0    0 -0.48426267241E+02  0.10939349280E+02 -0.54869543626E+02  0.73996213007E+02  0.00000000000E+00 0.  1.
         15    1    3    3    0    0  0.29255486834E+03 -0.37886517101E+02 -0.44256510324E+03  0.53187476675E+03  0.17770000000E+01 0. -1.
        -16    1    3    3    0    0  0.12843209794E+03 -0.39762149034E+02 -0.30174051733E+03  0.33033796644E+03  0.00000000000E+00 0.  1.
          4    1    6    6  502    0  0.13444360699E+02  0.84537687248E+02 -0.36990627992E+03  0.37968148141E+03  0.00000000000E+00 0. -1.
         -3    1    6    6    0  502  0.27171662157E+02  0.21197576323E+02 -0.38200187255E+02  0.51447942356E+02  0.00000000000E+00 0.  1.
<mgrwt>
<rscale>  0 0.50708697E+03</rscale>
<asrwt>0</asrwt>
<pdfrwt beam="1">  1        1 0.23975878E+00 0.50708697E+03</pdfrwt>
<pdfrwt beam="2">  1       -2 0.36745839E-01 0.50708697E+03</pdfrwt>
<totfact> 0.38759014E+01</totfact>
</mgrwt>
</event>
<event>
12    3  0.1092576E-007  0.5327665E+03  0.7818608E-02  0.1005563E+00
         -2   -1    0    0    0  501 -0.00000000000E+00  0.00000000000E+00  0.30363756848E+03  0.30363756848E+03  0.00000000000E+00 0.  1.
          1   -1    0    0  501    0  0.00000000000E+00 -0.00000000000E+00 -0.16155357839E+04  0.16155357839E+04  0.00000000000E+00 0. -1.
        -24    2    1    2    0    0 -0.42089001548E+03  0.46998603911E+02 -0.17703719457E+02  0.43110873786E+03  0.78638719957E+02 0.  0.
    5000000    2    1    2    0    0  0.42089001548E+03 -0.46998603911E+02 -0.12941944959E+04  0.14880646145E+04  0.60003302385E+03 0.  0.
        -24    2    4    4    0    0  0.14888098618E+03 -0.25475648683E+03 -0.94313921337E+03  0.99141261410E+03  0.79504590868E+02 0.  0.
         24    2    4    4    0    0  0.27200902930E+03  0.20775788292E+03 -0.35105528256E+03  0.49665200039E+03  0.79190581177E+02 0.  0.
         13    1    5    5    0    0  0.67108059064E+02 -0.14374359999E+03 -0.38300599989E+03  0.41455917561E+03  0.00000000000E+00 0. -1.
        -14    1    5    5    0    0  0.81772927114E+02 -0.11101288684E+03 -0.56013321348E+03  0.57685343849E+03  0.00000000000E+00 0.  1.
         15    1    3    3    0    0 -0.14404868388E+03 -0.88185274423E+01 -0.33813774544E+02  0.14823737326E+03  0.17770000000E+01 0. -1.
        -16    1    3    3    0    0 -0.27684133160E+03  0.55817131354E+02  0.16110055087E+02  0.28287136460E+03  0.00000000000E+00 0.  1.
          4    1    6    6  502    0  0.23675797295E+02  0.17984036924E+02 -0.46552307642E+01  0.30093855438E+02  0.00000000000E+00 0. -1.
         -3    1    6    6    0  502  0.24833323201E+03  0.18977384599E+03 -0.34640005179E+03  0.46655814496E+03  0.00000000000E+00 0.  1.
<mgrwt>
<rscale>  0 0.53276651E+03</rscale>
<asrwt>0</asrwt>
<pdfrwt beam="1">  1        1 0.24854396E+00 0.53276651E+03</pdfrwt>
<pdfrwt beam="2">  1       -2 0.46713473E-01 0.53276651E+03</pdfrwt>
<totfact> 0.22113309E+01</totfact>
</mgrwt>
</event>
<event>
12    3  0.1092576E-007  0.1088402E+04  0.7818608E-02  0.9216570E-01
         -4   -1    0    0    0  501 -0.00000000000E+00  0.00000000000E+00  0.19785330266E+04  0.19785330266E+04  0.00000000000E+00 0.  1.
          1   -1    0    0  501    0  0.00000000000E+00 -0.00000000000E+00 -0.68620599198E+03  0.68620599198E+03  0.00000000000E+00 0. -1.
        -24    2    1    2    0    0  0.77288689066E+02  0.10596092205E+04  0.86374233148E+03  0.13715144652E+04  0.79094067685E+02 0.  0.
    5000000    2    1    2    0    0 -0.77288689066E+02 -0.10596092205E+04  0.42858470318E+03  0.12932245534E+04  0.59999971345E+03 0.  0.
        -24    2    4    4    0    0  0.89442232356E+02 -0.69996173265E+03  0.51641234090E+03  0.87807758384E+03  0.79951218246E+02 0.  0.
         24    2    4    4    0    0 -0.16673092142E+03 -0.35964748782E+03 -0.87827637728E+02  0.41514696955E+03  0.86532056061E+02 0.  0.
         11    1    5    5    0    0  0.82279922235E+02 -0.45463648276E+03  0.37318896204E+03  0.59391440330E+03  0.00000000000E+00 0. -1.
        -12    1    5    5    0    0  0.71623101210E+01 -0.24532524990E+03  0.14322337886E+03  0.28416318054E+03  0.00000000000E+00 0.  1.
         15    1    3    3    0    0  0.11866741648E+02  0.67823161736E+03  0.54198414427E+03  0.86826776787E+03  0.17770000000E+01 0. -1.
        -16    1    3    3    0    0  0.65421947418E+02  0.38137760311E+03  0.32175818720E+03  0.50324669735E+03  0.00000000000E+00 0.  1.
          4    1    6    6  502    0 -0.12102214359E+03 -0.16804538199E+03 -0.26122530719E+02  0.20872948105E+03  0.00000000000E+00 0. -1.
         -3    1    6    6    0  502 -0.45708777832E+02 -0.19160210583E+03 -0.61705107009E+02  0.20641748851E+03  0.00000000000E+00 0.  1.
<mgrwt>
<rscale>  0 0.10884025E+04</rscale>
<asrwt>0</asrwt>
<pdfrwt beam="1">  1        1 0.10557015E+00 0.10884025E+04</pdfrwt>
<pdfrwt beam="2">  1       -4 0.30438969E+00 0.10884025E+04</pdfrwt>
<totfact> 0.38437813E-01</totfact>
</mgrwt>
</event>
<event>
12    3  0.1092576E-007  0.3257437E+03  0.7818608E-02  0.1073036E+00
         -2   -1    0    0    0  501 -0.00000000000E+00  0.00000000000E+00  0.21165062603E+03  0.21165062603E+03  0.00000000000E+00 0.  1.
          1   -1    0    0  501    0  0.00000000000E+00 -0.00000000000E+00 -0.10420687429E+04  0.10420687429E+04  0.00000000000E+00 0. -1.
        -24    2    1    2    0    0 -0.22190794101E+03  0.55471179972E+02 -0.55054823783E+02  0.24657742609E+03  0.73818746553E+02 0.  0.
    5000000    2    1    2    0    0  0.22190794101E+03 -0.55471179972E+02 -0.77536329310E+03  0.10071419429E+04  0.60068833075E+03 0.  0.
        -24    2    4    4    0    0 -0.66927070226E+02 -0.84123813582E+02  0.38389128912E+02  0.13957043238E+03  0.80312711550E+02 0.  0.
         24    2    4    4    0    0  0.28883501124E+03  0.28652633610E+02 -0.81375242201E+03  0.86757151048E+03  0.78998002096E+02 0.  0.
         13    1    5    5    0    0  0.10911618198E+02 -0.30854975662E+02  0.30805421978E+02  0.44945155000E+02  0.00000000000E+00 0. -1.
        -14    1    5    5    0    0 -0.77838688424E+02 -0.53268837920E+02  0.75837069340E+01  0.94625277383E+02  0.00000000000E+00 0.  1.
         15    1    3    3    0    0 -0.18940063781E+03  0.27855468928E+02 -0.66066237682E+02  0.20252514472E+03  0.17770000000E+01 0. -1.
        -16    1    3    3    0    0 -0.32507303199E+02  0.27615711044E+02  0.11011413899E+02  0.44052281368E+02  0.00000000000E+00 0.  1.
          4    1    6    6  502    0  0.17891487032E+03  0.21193695379E+02 -0.38790376813E+03  0.42770204217E+03  0.00000000000E+00 0. -1.
         -3    1    6    6    0  502  0.10992014092E+03  0.74589382311E+01 -0.42584865389E+03  0.43986946831E+03  0.00000000000E+00 0.  1.
<mgrwt>
<rscale>  0 0.32574365E+03</rscale>
<asrwt>0</asrwt>
<pdfrwt beam="1">  1        1 0.16031827E+00 0.32574365E+03</pdfrwt>
<pdfrwt beam="2">  1       -2 0.32561635E-01 0.32574365E+03</pdfrwt>
<totfact> 0.11510689E+02</totfact>
</mgrwt>
</event>
<event>
12    3  0.1092576E-007  0.7636380E+03  0.7818608E-02  0.9614194E-01
          1   -1    0    0  501    0  0.00000000000E+00  0.00000000000E+00  0.25218997419E+03  0.25218997419E+03  0.00000000000E+00 0. -1.
         -2   -1    0    0    0  501 -0.00000000000E+00 -0.00000000000E+00 -0.24350087178E+04  0.24350087178E+04  0.00000000000E+00 0.  1.
        -24    2    1    2    0    0  0.15517347312E+03  0.64476649902E+03 -0.10390809613E+04  0.12353142178E+04  0.80680403970E+02 0.  0.
    5000000    2    1    2    0    0 -0.15517347312E+03 -0.64476649902E+03 -0.11437377823E+04  0.14518844742E+04  0.60002480505E+03 0.  0.
        -24    2    4    4    0    0  0.12922102731E+03 -0.53481334042E+03 -0.56158315800E+03  0.79027940013E+03  0.80265209985E+02 0.  0.
         24    2    4    4    0    0 -0.28439450043E+03 -0.10995315861E+03 -0.58215462431E+03  0.66160507406E+03  0.76467891595E+02 0.  0.
         13    1    5    5    0    0  0.16090817243E+02 -0.12539233987E+03 -0.17535462961E+03  0.21617446524E+03  0.00000000000E+00 0. -1.
        -14    1    5    5    0    0  0.11313021007E+03 -0.40942100055E+03 -0.38622852839E+03  0.57410493488E+03  0.00000000000E+00 0.  1.
         15    1    3    3    0    0  0.10984124029E+03  0.49727610516E+03 -0.85436215160E+03  0.99462880848E+03  0.17770000000E+01 0. -1.
        -16    1    3    3    0    0  0.45332232834E+02  0.14749039386E+03 -0.18471880973E+03  0.24068540937E+03  0.00000000000E+00 0.  1.
          2    1    6    6  502    0 -0.13083279688E+03 -0.87343651742E+02 -0.25740136438E+03  0.30166470895E+03  0.00000000000E+00 0. -1.
         -1    1    6    6    0  502 -0.15356170355E+03 -0.22609506863E+02 -0.32475325993E+03  0.35994036511E+03  0.00000000000E+00 0.  1.
<mgrwt>
<rscale>  0 0.76363800E+03</rscale>
<asrwt>0</asrwt>
<pdfrwt beam="1">  1        1 0.38798457E-01 0.76363800E+03</pdfrwt>
<pdfrwt beam="2">  1       -2 0.37461673E+00 0.76363800E+03</pdfrwt>
<totfact> 0.11022781E+00</totfact>
</mgrwt>
</event>
<event>
12    3  0.1092576E-007  0.4851128E+03  0.7818608E-02  0.1017739E+00
          1   -1    0    0  501    0  0.00000000000E+00  0.00000000000E+00  0.18184828719E+04  0.18184828719E+04  0.00000000000E+00 0. -1.
         -2   -1    0    0    0  501 -0.00000000000E+00 -0.00000000000E+00 -0.36626066368E+03  0.36626066368E+03  0.00000000000E+00 0.  1.
        -24    2    1    2    0    0  0.11673357835E+03  0.31058885551E+03  0.14599377991E+04  0.14992980819E+04  0.79901162378E+02 0.  0.
    5000000    2    1    2    0    0 -0.11673357835E+03 -0.31058885551E+03 -0.77155908518E+01  0.68544545368E+03  0.59973642056E+03 0.  0.
        -24    2    4    4    0    0  0.20354239463E+03 -0.88687290753E+02 -0.12893908200E+03  0.26948201526E+03  0.81855529606E+02 0.  0.
         24    2    4    4    0    0 -0.32027597298E+03 -0.22190156475E+03  0.12122349115E+03  0.41596343842E+03  0.80705910467E+02 0.  0.
         11    1    5    5    0    0  0.97893559849E+02 -0.86444753542E+02 -0.63835735769E+02  0.14536452675E+03  0.00000000000E+00 0. -1.
        -12    1    5    5    0    0  0.10564883478E+03 -0.22425372110E+01 -0.65103346233E+02  0.12411748851E+03  0.00000000000E+00 0.  1.
         15    1    3    3    0    0  0.57570380605E+02  0.23135913238E+03  0.11291620245E+04  0.11540586779E+04  0.17770000000E+01 0. -1.
        -16    1    3    3    0    0  0.59163197741E+02  0.79229723126E+02  0.33077577463E+03  0.34523940400E+03  0.00000000000E+00 0.  1.
          2    1    6    6  502    0 -0.16169678162E+03 -0.15677473940E+03  0.85136629604E+02  0.24077461204E+03  0.00000000000E+00 0. -1.
         -1    1    6    6    0  502 -0.15857919135E+03 -0.65126825352E+02  0.36086861547E+02  0.17518882638E+03  0.00000000000E+00 0.  1.
<mgrwt>
<rscale>  0 0.48511280E+03</rscale>
<asrwt>0</asrwt>
<pdfrwt beam="1">  1        1 0.27976659E+00 0.48511280E+03</pdfrwt>
<pdfrwt beam="2">  1       -2 0.56347795E-01 0.48511280E+03</pdfrwt>
<totfact> 0.11169018E+01</totfact>
</mgrwt>
</event>
<event>
12    3  0.1092576E-007  0.4182662E+03  0.7818608E-02  0.1037632E+00
         -2   -1    0    0    0  501 -0.00000000000E+00  0.00000000000E+00  0.16673364325E+04  0.16673364325E+04  0.00000000000E+00 0.  1.
          1   -1    0    0  501    0  0.00000000000E+00 -0.00000000000E+00 -0.17855144086E+03  0.17855144086E+03  0.00000000000E+00 0. -1.
        -24    2    1    2    0    0 -0.33094413793E+03  0.15146963393E+03  0.36492559168E+03  0.52112911671E+03  0.77057098229E+02 0.  0.
    5000000    2    1    2    0    0  0.33094413793E+03 -0.15146963393E+03  0.11238594000E+04  0.13247587567E+04  0.59954878036E+03 0.  0.
        -24    2    4    4    0    0  0.27556248272E+03 -0.21807984726E+03  0.11476087130E+04  0.12028894278E+04  0.80272757906E+02 0.  0.
         24    2    4    4    0    0  0.55381655213E+02  0.66610213324E+02 -0.23749312967E+02  0.12186932894E+03  0.82365376319E+02 0.  0.
         11    1    5    5    0    0  0.17526967598E+03 -0.18297872703E+03  0.77017901514E+03  0.81078751176E+03  0.00000000000E+00 0. -1.
        -12    1    5    5    0    0  0.10029280673E+03 -0.35101120230E+02  0.37742969783E+03  0.39210191599E+03  0.00000000000E+00 0.  1.
         15    1    3    3    0    0 -0.57519180348E+02  0.28514853163E+02  0.27798362417E+02  0.69981852225E+02  0.17770000000E+01 0. -1.
        -16    1    3    3    0    0 -0.27342495758E+03  0.12295478077E+03  0.33712722926E+03  0.45114726448E+03  0.00000000000E+00 0.  1.
          4    1    6    6  502    0  0.19890223376E+02 -0.14316180433E+02  0.11068647788E+02  0.26890313721E+02  0.00000000000E+00 0. -1.
         -3    1    6    6    0  502  0.35491431838E+02  0.80926393757E+02 -0.34817960756E+02  0.94979015217E+02  0.00000000000E+00 0.  1.
<mgrwt>
<rscale>  0 0.41826615E+03</rscale>
<asrwt>0</asrwt>
<pdfrwt beam="1">  1        1 0.27469453E-01 0.41826615E+03</pdfrwt>
<pdfrwt beam="2">  1       -2 0.25651329E+00 0.41826615E+03</pdfrwt>
<totfact> 0.95126166E+00</totfact>
</mgrwt>
</event>
<event>
12    3  0.1092576E-007  0.6515957E+03  0.7818608E-02  0.9803790E-01
         -2   -1    0    0    0  501 -0.00000000000E+00  0.00000000000E+00  0.10182688321E+04  0.10182688321E+04  0.00000000000E+00 0.  1.
          1   -1    0    0  501    0  0.00000000000E+00 -0.00000000000E+00 -0.45984237959E+03  0.45984237959E+03  0.00000000000E+00 0. -1.
        -24    2    1    2    0    0 -0.35914716163E+03  0.37306566634E+03  0.24947712978E+02  0.52258825238E+03  0.65661389305E+02 0.  0.
    5000000    2    1    2    0    0  0.35914716163E+03 -0.37306566634E+03  0.53347873957E+03  0.95552295935E+03  0.60021653190E+03 0.  0.
        -24    2    4    4    0    0 -0.15095565276E+03 -0.16107749766E+03  0.16720285246E+03  0.28792880904E+03  0.78820275653E+02 0.  0.
         24    2    4    4    0    0  0.51010281438E+03 -0.21198816868E+03  0.36627588711E+03  0.66759415031E+03  0.79875272436E+02 0.  0.
         13    1    5    5    0    0 -0.50423122147E+02 -0.12731325107E+02  0.18947273189E+02  0.55349589405E+02  0.00000000000E+00 0. -1.
        -14    1    5    5    0    0 -0.10053253061E+03 -0.14834617255E+03  0.14825557927E+03  0.23257921963E+03  0.00000000000E+00 0.  1.
         15    1    3    3    0    0 -0.17512273368E+03  0.17025956519E+03 -0.20004552089E+02  0.24507066578E+03  0.17770000000E+01 0. -1.
        -16    1    3    3    0    0 -0.18402442794E+03  0.20280610115E+03  0.44952265068E+02  0.27751758661E+03  0.00000000000E+00 0.  1.
          4    1    6    6  502    0  0.19295304445E+03 -0.59105201564E+02  0.17387322905E+03  0.26637605372E+03  0.00000000000E+00 0. -1.
         -3    1    6    6    0  502  0.31714976993E+03 -0.15288296711E+03  0.19240265806E+03  0.40121809659E+03  0.00000000000E+00 0.  1.
<mgrwt>
<rscale>  0 0.65159566E+03</rscale>
<asrwt>0</asrwt>
<pdfrwt beam="1">  1        1 0.70744982E-01 0.65159566E+03</pdfrwt>
<pdfrwt beam="2">  1       -2 0.15665674E+00 0.65159566E+03</pdfrwt>
<totfact> 0.11950117E+01</totfact>
</mgrwt>
</event>
<event>
12    3  0.1092576E-007  0.5175796E+03  0.7818608E-02  0.1009290E+00
         -2   -1    0    0    0  501 -0.00000000000E+00  0.00000000000E+00  0.23451360064E+04  0.23451360064E+04  0.00000000000E+00 0.  1.
          1   -1    0    0  501    0  0.00000000000E+00 -0.00000000000E+00 -0.11820924519E+03  0.11820924519E+03  0.00000000000E+00 0. -1.
        -24    2    1    2    0    0  0.34506150808E+03  0.98313736027E+01  0.62635199210E+03  0.71947524384E+03  0.78509287444E+02 0.  0.
    5000000    2    1    2    0    0 -0.34506150808E+03 -0.98313736027E+01  0.16005747691E+04  0.17438700077E+04  0.60006575655E+03 0.  0.
        -24    2    4    4    0    0 -0.15232660592E+03  0.28241190616E+03  0.69494902123E+03  0.76970295370E+03  0.80799846659E+02 0.  0.
         24    2    4    4    0    0 -0.19273490216E+03 -0.29224327977E+03  0.90562574783E+03  0.97416705401E+03  0.79313157199E+02 0.  0.
         11    1    5    5    0    0 -0.32276697243E+02  0.36270785273E+02  0.53536995487E+02  0.72274234240E+02  0.00000000000E+00 0. -1.
        -12    1    5    5    0    0 -0.12004990867E+03  0.24614112089E+03  0.64141202574E+03  0.69742871946E+03  0.00000000000E+00 0.  1.
         15    1    3    3    0    0  0.18332361557E+03  0.43925670436E+02  0.34587666761E+03  0.39391730030E+03  0.17770000000E+01 0. -1.
        -16    1    3    3    0    0  0.16173789251E+03 -0.34094296833E+02  0.28047532449E+03  0.32555794353E+03  0.00000000000E+00 0.  1.
          2    1    6    6  502    0 -0.57423007864E+02 -0.32299762939E+02  0.16921338045E+03  0.18158701672E+03  0.00000000000E+00 0. -1.
         -1    1    6    6    0  502 -0.13531189430E+03 -0.25994351683E+03  0.73641236738E+03  0.79258003729E+03  0.00000000000E+00 0.  1.
<mgrwt>
<rscale>  0 0.51757959E+03</rscale>
<asrwt>0</asrwt>
<pdfrwt beam="1">  1        1 0.18186039E-01 0.51757959E+03</pdfrwt>
<pdfrwt beam="2">  1       -2 0.36079012E+00 0.51757959E+03</pdfrwt>
<totfact> 0.37797817E+00</totfact>
</mgrwt>
</event>
<event>
12    3  0.1092576E-007  0.9604163E+03  0.7818608E-02  0.9353058E-01
          1   -1    0    0  501    0  0.00000000000E+00  0.00000000000E+00  0.95880140078E+03  0.95880140078E+03  0.00000000000E+00 0. -1.
         -2   -1    0    0    0  501 -0.00000000000E+00 -0.00000000000E+00 -0.11406835801E+04  0.11406835801E+04  0.00000000000E+00 0.  1.
        -24    2    1    2    0    0  0.39385748738E+03  0.80486029125E+03 -0.42357501765E+03  0.99434926578E+03  0.79942842005E+02 0.  0.
    5000000    2    1    2    0    0 -0.39385748738E+03 -0.80486029125E+03  0.24169283827E+03  0.11051357151E+04  0.59998809322E+03 0.  0.
        -24    2    4    4    0    0  0.24148747363E+02 -0.49150565303E+03  0.28591624314E+03  0.57470533579E+03  0.79857097022E+02 0.  0.
         24    2    4    4    0    0 -0.41800623474E+03 -0.31335463822E+03 -0.44223404862E+02  0.53043037935E+03  0.80500535498E+02 0.  0.
         13    1    5    5    0    0 -0.12701375279E+02 -0.30649203918E+03  0.20786292361E+03  0.37054782421E+03  0.00000000000E+00 0. -1.
        -14    1    5    5    0    0  0.36850122642E+02 -0.18501361384E+03  0.78053319524E+02  0.20415751158E+03  0.00000000000E+00 0.  1.
         15    1    3    3    0    0  0.30067645558E+03  0.55435270035E+03 -0.32507701197E+03  0.70950085889E+03  0.17770000000E+01 0. -1.
        -16    1    3    3    0    0  0.93181031802E+02  0.25050759090E+03 -0.98498005676E+02  0.28484840689E+03  0.00000000000E+00 0.  1.
          4    1    6    6  502    0 -0.21987950454E+03 -0.11922119960E+03 -0.37881347355E+02  0.25297368920E+03  0.00000000000E+00 0. -1.
         -3    1    6    6    0  502 -0.19812673021E+03 -0.19413343863E+03 -0.63420575066E+01  0.27745669015E+03  0.00000000000E+00 0.  1.
<mgrwt>
<rscale>  0 0.96041628E+03</rscale>
<asrwt>0</asrwt>
<pdfrwt beam="1">  1        1 0.14750791E+00 0.96041628E+03</pdfrwt>
<pdfrwt beam="2">  1       -2 0.17548978E+00 0.96041628E+03</pdfrwt>
<totfact> 0.27875400E+00</totfact>
</mgrwt>
</event>
<event>
12    3  0.1092576E-007  0.1243946E+04  0.7818608E-02  0.9075237E-01
          1   -1    0    0  501    0  0.00000000000E+00  0.00000000000E+00  0.19387490264E+04  0.19387490264E+04  0.00000000000E+00 0. -1.
         -2   -1    0    0    0  501 -0.00000000000E+00 -0.00000000000E+00 -0.89355532335E+03  0.89355532335E+03  0.00000000000E+00 0.  1.
        -24    2    1    2    0    0 -0.10865011472E+04  0.51240709965E+03  0.85383278205E+03  0.14759942093E+04  0.80515262594E+02 0.  0.
    5000000    2    1    2    0    0  0.10865011472E+04 -0.51240709965E+03  0.19136092100E+03  0.13563101405E+04  0.59992700925E+03 0.  0.
        -24    2    4    4    0    0  0.64981285747E+03 -0.68849312244E+02  0.29337566072E+03  0.72046150840E+03  0.77450172653E+02 0.  0.
         24    2    4    4    0    0  0.43668828972E+03 -0.44355778741E+03 -0.10201473972E+03  0.63584863207E+03  0.80351120978E+02 0.  0.
         11    1    5    5    0    0  0.31957637739E+03  0.49869188332E+01  0.13980511020E+03  0.34885440972E+03  0.00000000000E+00 0. -1.
        -12    1    5    5    0    0  0.33023648008E+03 -0.73836231077E+02  0.15357055052E+03  0.37160709867E+03  0.00000000000E+00 0.  1.
         15    1    3    3    0    0 -0.52287599336E+03  0.21887045824E+03  0.44108448683E+03  0.71823552138E+03  0.17770000000E+01 0. -1.
        -16    1    3    3    0    0 -0.56362515383E+03  0.29353664141E+03  0.41274829522E+03  0.75775868790E+03  0.00000000000E+00 0.  1.
          4    1    6    6  502    0  0.16811575375E+03 -0.11734754871E+03 -0.29708027173E+02  0.20716158120E+03  0.00000000000E+00 0. -1.
         -3    1    6    6    0  502  0.26857253597E+03 -0.32621023869E+03 -0.72306712548E+02  0.42868705087E+03  0.00000000000E+00 0.  1.
<mgrwt>
<rscale>  0 0.12439460E+04</rscale>
<asrwt>0</asrwt>
<pdfrwt beam="1">  1        1 0.29826908E+00 0.12439460E+04</pdfrwt>
<pdfrwt beam="2">  1       -2 0.13747005E+00 0.12439460E+04</pdfrwt>
<totfact> 0.10544081E+00</totfact>
</mgrwt>
</event>
<event>
12    3  0.1092576E-007  0.6866309E+03  0.7818608E-02  0.9740372E-01
          3   -1    0    0  501    0  0.00000000000E+00  0.00000000000E+00  0.19373645066E+04  0.19373645066E+04  0.00000000000E+00 0. -1.
         -4   -1    0    0    0  501 -0.00000000000E+00 -0.00000000000E+00 -0.28072332435E+03  0.28072332435E+03  0.00000000000E+00 0.  1.
        -24    2    1    2    0    0 -0.53456548959E+03 -0.16229650712E+03  0.31664554541E+03  0.64712187375E+03  0.80011868994E+02 0.  0.
    5000000    2    1    2    0    0  0.53456548959E+03  0.16229650712E+03  0.13399956368E+04  0.15709659572E+04  0.60020439273E+03 0.  0.
        -24    2    4    4    0    0 -0.11914570370E+03  0.32969980515E+02  0.29017809229E+03  0.32497750281E+03  0.78258122640E+02 0.  0.
         24    2    4    4    0    0  0.65371119329E+03  0.12932652660E+03  0.10498175446E+04  0.12459884544E+04  0.79414588905E+02 0.  0.
         11    1    5    5    0    0 -0.64105553600E+02 -0.21220510678E+02  0.11205987075E+03  0.13083289613E+03  0.00000000000E+00 0. -1.
        -12    1    5    5    0    0 -0.55040150100E+02  0.54190491193E+02  0.17811822154E+03  0.19414460668E+03  0.00000000000E+00 0.  1.
         15    1    3    3    0    0 -0.32285974071E+03 -0.10743402246E+03  0.14853271155E+03  0.37127564623E+03  0.17770000000E+01 0. -1.
        -16    1    3    3    0    0 -0.21170574888E+03 -0.54862484657E+02  0.16811283386E+03  0.27584622753E+03  0.00000000000E+00 0.  1.
          4    1    6    6  502    0  0.37278765411E+03  0.40953387254E+02  0.54547049260E+03  0.66195609619E+03  0.00000000000E+00 0. -1.
         -3    1    6    6    0  502  0.28092353918E+03  0.88373139347E+02  0.50434705196E+03  0.58403235821E+03  0.00000000000E+00 0.  1.
<mgrwt>
<rscale>  0 0.68663090E+03</rscale>
<asrwt>0</asrwt>
<pdfrwt beam="1">  1        3 0.29805607E+00 0.68663090E+03</pdfrwt>
<pdfrwt beam="2">  1       -4 0.43188205E-01 0.68663090E+03</pdfrwt>
<totfact> 0.48041631E-01</totfact>
</mgrwt>
</event>
<event>
12    3  0.1092576E-007  0.8136772E+03  0.7818608E-02  0.9540428E-01
         -2   -1    0    0    0  501 -0.00000000000E+00  0.00000000000E+00  0.79097603179E+03  0.79097603179E+03  0.00000000000E+00 0.  1.
          1   -1    0    0  501    0  0.00000000000E+00 -0.00000000000E+00 -0.87927627616E+03  0.87927627616E+03  0.00000000000E+00 0. -1.
        -24    2    1    2    0    0 -0.44925581317E+03 -0.54980400966E+03  0.10105385184E+03  0.72158513131E+03  0.79736980426E+02 0.  0.
    5000000    2    1    2    0    0  0.44925581317E+03  0.54980400966E+03 -0.18935409620E+03  0.94866717664E+03  0.59999933632E+03 0.  0.
        -24    2    4    4    0    0  0.11124655195E+02  0.46965033707E+03 -0.10389369509E+03  0.48818932024E+03  0.82702572218E+02 0.  0.
         24    2    4    4    0    0  0.43813115798E+03  0.80153672593E+02 -0.85460401111E+02  0.46047785641E+03  0.79704788203E+02 0.  0.
         11    1    5    5    0    0 -0.78688579666E+01  0.19918009220E+03 -0.44290150470E+01  0.19938466398E+03  0.00000000000E+00 0. -1.
        -12    1    5    5    0    0  0.18993513162E+02  0.27047024487E+03 -0.99464680045E+02  0.28880465626E+03  0.00000000000E+00 0.  1.
         15    1    3    3    0    0 -0.26482830811E+03 -0.30629022894E+03  0.19322618627E+02  0.40536928650E+03  0.17770000000E+01 0. -1.
        -16    1    3    3    0    0 -0.18442750506E+03 -0.24351378072E+03  0.81731233209E+02  0.31621584481E+03  0.00000000000E+00 0.  1.
          2    1    6    6  502    0  0.16906106289E+03  0.46480928213E+02  0.26468128364E+01  0.17535428507E+03  0.00000000000E+00 0. -1.
         -1    1    6    6    0  502  0.26907009508E+03  0.33672744380E+02 -0.88107213947E+02  0.28512357134E+03  0.00000000000E+00 0.  1.
<mgrwt>
<rscale>  0 0.81367719E+03</rscale>
<asrwt>0</asrwt>
<pdfrwt beam="1">  1        1 0.13527327E+00 0.81367719E+03</pdfrwt>
<pdfrwt beam="2">  1       -2 0.12168862E+00 0.81367719E+03</pdfrwt>
<totfact> 0.86386905E+00</totfact>
</mgrwt>
</event>
<event>
12    3  0.1092576E-007  0.7373517E+03  0.7818608E-02  0.9655405E-01
         -2   -1    0    0    0  501 -0.00000000000E+00  0.00000000000E+00  0.84030619200E+03  0.84030619200E+03  0.00000000000E+00 0.  1.
          1   -1    0    0  501    0  0.00000000000E+00 -0.00000000000E+00 -0.76122850895E+03  0.76122850895E+03  0.00000000000E+00 0. -1.
        -24    2    1    2    0    0 -0.55109423354E+03  0.30806197175E+03  0.29959663133E+03  0.70308654725E+03  0.77236770649E+02 0.  0.
    5000000    2    1    2    0    0  0.55109423354E+03 -0.30806197175E+03 -0.22051894828E+03  0.89844815370E+03  0.59997787098E+03 0.  0.
        -24    2    4    4    0    0  0.48515887480E+03  0.26016867225E+02 -0.14313547264E+02  0.49283742913E+03  0.81411563930E+02 0.  0.
         24    2    4    4    0    0  0.65935358741E+02 -0.33407883897E+03 -0.20620540101E+03  0.40561072458E+03  0.77738345111E+02 0.  0.
         13    1    5    5    0    0  0.41060408906E+03  0.44963529114E+02 -0.30660855166E+02  0.41419503249E+03  0.00000000000E+00 0. -1.
        -14    1    5    5    0    0  0.74554785738E+02 -0.18946661888E+02  0.16347307902E+02  0.78642396637E+02  0.00000000000E+00 0.  1.
         15    1    3    3    0    0 -0.61692755121E+02  0.63104581258E+02  0.32046125407E+02  0.93905783064E+02  0.17770000000E+01 0. -1.
        -16    1    3    3    0    0 -0.48940147842E+03  0.24495739049E+03  0.26755050592E+03  0.60918076418E+03  0.00000000000E+00 0.  1.
          4    1    6    6  502    0  0.82751958820E+02 -0.24736045146E+03 -0.14948311446E+03  0.30063313381E+03  0.00000000000E+00 0. -1.
         -3    1    6    6    0  502 -0.16816600079E+02 -0.86718387512E+02 -0.56722286550E+02  0.10497759076E+03  0.00000000000E+00 0.  1.
<mgrwt>
<rscale>  0 0.73735168E+03</rscale>
<asrwt>0</asrwt>
<pdfrwt beam="1">  1        1 0.11711208E+00 0.73735168E+03</pdfrwt>
<pdfrwt beam="2">  1       -2 0.12927788E+00 0.73735168E+03</pdfrwt>
<totfact> 0.94453845E+00</totfact>
</mgrwt>
</event>
<event>
12    3  0.1092576E-007  0.6296933E+03  0.7818608E-02  0.9845648E-01
         -2   -1    0    0    0  501 -0.00000000000E+00  0.00000000000E+00  0.30526746587E+03  0.30526746587E+03  0.00000000000E+00 0.  1.
          1   -1    0    0  501    0  0.00000000000E+00 -0.00000000000E+00 -0.17581045393E+04  0.17581045393E+04  0.00000000000E+00 0. -1.
        -24    2    1    2    0    0  0.24693054922E+03 -0.54197785162E+03 -0.44108592703E+03  0.74488551895E+03  0.74719164432E+02 0.  0.
    5000000    2    1    2    0    0 -0.24693054922E+03  0.54197785162E+03 -0.10117511464E+04  0.13184864862E+04  0.60004295203E+03 0.  0.
        -24    2    4    4    0    0 -0.79520154006E+02  0.35450285326E+02 -0.66709504442E+03  0.67838987839E+03  0.87274573555E+02 0.  0.
         24    2    4    4    0    0 -0.16741039521E+03  0.50652756629E+03 -0.34465610194E+03  0.64009660778E+03  0.79620492671E+02 0.  0.
         13    1    5    5    0    0  0.44092983722E+01 -0.19571723802E+02 -0.17641533193E+03  0.17755242500E+03  0.00000000000E+00 0. -1.
        -14    1    5    5    0    0 -0.83929452378E+02  0.55022009129E+02 -0.49067971250E+03  0.50083745339E+03  0.00000000000E+00 0.  1.
         15    1    3    3    0    0  0.85626319390E+02 -0.27218996227E+03 -0.19369553544E+03  0.34487731197E+03  0.17770000000E+01 0. -1.
        -16    1    3    3    0    0  0.16130422983E+03 -0.26978788934E+03 -0.24739039159E+03  0.40000820697E+03  0.00000000000E+00 0.  1.
          2    1    6    6  502    0 -0.24078939759E+02  0.17708902102E+02 -0.16397068284E+02  0.34091999089E+02  0.00000000000E+00 0. -1.
         -1    1    6    6    0  502 -0.14333145545E+03  0.48881866419E+03 -0.32825903365E+03  0.60600460869E+03  0.00000000000E+00 0.  1.
<mgrwt>
<rscale>  0 0.62969329E+03</rscale>
<asrwt>0</asrwt>
<pdfrwt beam="1">  1        1 0.27047763E+00 0.62969329E+03</pdfrwt>
<pdfrwt beam="2">  1       -2 0.46964224E-01 0.62969329E+03</pdfrwt>
<totfact> 0.17284330E+01</totfact>
</mgrwt>
</event>
<event>
12    3  0.1092576E-007  0.1213916E+04  0.7818608E-02  0.9100763E-01
         -2   -1    0    0    0  501 -0.00000000000E+00  0.00000000000E+00  0.13087945346E+04  0.13087945346E+04  0.00000000000E+00 0.  1.
          1   -1    0    0  501    0  0.00000000000E+00 -0.00000000000E+00 -0.12307896575E+04  0.12307896575E+04  0.00000000000E+00 0. -1.
        -24    2    1    2    0    0  0.94433795773E+03 -0.72756245464E+03 -0.70832661444E+02  0.11967335581E+04  0.77670066500E+02 0.  0.
    5000000    2    1    2    0    0 -0.94433795773E+03  0.72756245464E+03  0.14883753858E+03  0.13428506340E+04  0.59997825674E+03 0.  0.
        -24    2    4    4    0    0 -0.44132115728E+03  0.14820130233E+03  0.29659362236E+03  0.55746184553E+03  0.77896999458E+02 0.  0.
         24    2    4    4    0    0 -0.50301680045E+03  0.57936115231E+03 -0.14775608377E+03  0.78538878848E+03  0.79488630868E+02 0.  0.
         11    1    5    5    0    0 -0.44557325006E+02  0.94362630803E+01  0.59312762691E+02  0.74782364837E+02  0.00000000000E+00 0. -1.
        -12    1    5    5    0    0 -0.39676383228E+03  0.13876503925E+03  0.23728085966E+03  0.48267948070E+03  0.00000000000E+00 0.  1.
         15    1    3    3    0    0  0.33220990694E+03 -0.30310074032E+03 -0.30991104964E+02  0.45077387609E+03  0.17770000000E+01 0. -1.
        -16    1    3    3    0    0  0.61212805079E+03 -0.42446171432E+03 -0.39841556479E+02  0.74595968196E+03  0.00000000000E+00 0.  1.
          4    1    6    6  502    0 -0.89337008105E+02  0.11004275474E+03 -0.58925144149E+02  0.15350140554E+03  0.00000000000E+00 0. -1.
         -3    1    6    6    0  502 -0.41367979234E+03  0.46931839757E+03 -0.88830939625E+02  0.63188738294E+03  0.00000000000E+00 0.  1.
<mgrwt>
<rscale>  0 0.12139155E+04</rscale>
<asrwt>0</asrwt>
<pdfrwt beam="1">  1        1 0.18935226E+00 0.12139155E+04</pdfrwt>
<pdfrwt beam="2">  1       -2 0.20135301E+00 0.12139155E+04</pdfrwt>
<totfact> 0.11279807E+00</totfact>
</mgrwt>
</event>
<event>
12    3  0.1092576E-007  0.1722360E+04  0.7818608E-02  0.8748713E-01
          1   -1    0    0  501    0  0.00000000000E+00  0.00000000000E+00  0.24859367340E+04  0.24859367340E+04  0.00000000000E+00 0. -1.
         -2   -1    0    0    0  501 -0.00000000000E+00 -0.00000000000E+00 -0.12435445530E+04  0.12435445530E+04  0.00000000000E+00 0.  1.
        -24    2    1    2    0    0 -0.70785001586E+03  0.15478160938E+04  0.73042713432E+03  0.18537874555E+04  0.78853196395E+02 0.  0.
    5000000    2    1    2    0    0  0.70785001586E+03 -0.15478160938E+04  0.51196504667E+03  0.18756938314E+04  0.59944377146E+03 0.  0.
        -24    2    4    4    0    0  0.63532438850E+03 -0.10251820900E+04  0.57496248401E+03  0.13384102019E+04  0.78259914970E+02 0.  0.
         24    2    4    4    0    0  0.72525627355E+02 -0.52263400381E+03 -0.62997437334E+02  0.53728362954E+03  0.79364682949E+02 0.  0.
         13    1    5    5    0    0  0.11791109632E+03 -0.25186555980E+03  0.12622399073E+03  0.30540429382E+03  0.00000000000E+00 0. -1.
        -14    1    5    5    0    0  0.51741329218E+03 -0.77331653017E+03  0.44873849328E+03  0.10330059081E+04  0.00000000000E+00 0.  1.
         15    1    3    3    0    0 -0.17499190945E+03  0.33168400896E+03  0.18813332181E+03  0.41956376712E+03  0.17770000000E+01 0. -1.
        -16    1    3    3    0    0 -0.53285810640E+03  0.12161320848E+04  0.54229381251E+03  0.14342236884E+04  0.00000000000E+00 0.  1.
          4    1    6    6  502    0 -0.16956644889E+02 -0.71621608518E+02 -0.13421280356E+02  0.74815194840E+02  0.00000000000E+00 0. -1.
         -3    1    6    6    0  502  0.89482272244E+02 -0.45101239529E+03 -0.49576156978E+02  0.46246843470E+03  0.00000000000E+00 0.  1.
<mgrwt>
<rscale>  0 0.17223604E+04</rscale>
<asrwt>0</asrwt>
<pdfrwt beam="1">  1        1 0.38245180E+00 0.17223604E+04</pdfrwt>
<pdfrwt beam="2">  1       -2 0.19131455E+00 0.17223604E+04</pdfrwt>
<totfact> 0.16987258E-01</totfact>
</mgrwt>
</event>
<event>
12    3  0.1092576E-007  0.1270959E+04  0.7818608E-02  0.9052917E-01
          1   -1    0    0  501    0  0.00000000000E+00  0.00000000000E+00  0.80469471575E+03  0.80469471575E+03  0.00000000000E+00 0. -1.
         -2   -1    0    0    0  501 -0.00000000000E+00 -0.00000000000E+00 -0.21023846979E+04  0.21023846979E+04  0.00000000000E+00 0.  1.
        -24    2    1    2    0    0 -0.37188511929E+03  0.11532242321E+04 -0.85183864868E+03  0.14833507156E+04  0.80471053845E+02 0.  0.
    5000000    2    1    2    0    0  0.37188511929E+03 -0.11532242321E+04 -0.44585133350E+03  0.14237286981E+04  0.59999610218E+03 0.  0.
        -24    2    4    4    0    0  0.33053604786E+03 -0.11905525128E+04 -0.47003955058E+03  0.13245185657E+04  0.82115084054E+02 0.  0.
         24    2    4    4    0    0  0.41349071429E+02  0.37328280701E+02  0.24188217076E+02  0.99210132382E+02  0.78450202509E+02 0.  0.
         13    1    5    5    0    0  0.21031806381E+03 -0.75460155751E+03 -0.25542056767E+03  0.82395197976E+03  0.00000000000E+00 0. -1.
        -14    1    5    5    0    0  0.12021798405E+03 -0.43595095534E+03 -0.21461898291E+03  0.50056658596E+03  0.00000000000E+00 0.  1.
         15    1    3    3    0    0 -0.18577937042E+03  0.63634140631E+03 -0.42228820282E+03  0.78598654176E+03  0.17770000000E+01 0. -1.
        -16    1    3    3    0    0 -0.18610574887E+03  0.51688282584E+03 -0.42955044586E+03  0.69736417384E+03  0.00000000000E+00 0.  1.
          4    1    6    6  502    0  0.55471045310E+02  0.14390189828E+01  0.38871241836E+01  0.55625689909E+02  0.00000000000E+00 0. -1.
         -3    1    6    6    0  502 -0.14121973882E+02  0.35889261718E+02  0.20301092892E+02  0.43584442472E+02  0.00000000000E+00 0.  1.
<mgrwt>
<rscale>  0 0.12709588E+04</rscale>
<asrwt>0</asrwt>
<pdfrwt beam="1">  1        1 0.12379919E+00 0.12709588E+04</pdfrwt>
<pdfrwt beam="2">  1       -2 0.32344380E+00 0.12709588E+04</pdfrwt>
<totfact> 0.42745839E-01</totfact>
</mgrwt>
</event>
<event>
12    3  0.1092576E-007  0.9370032E+03  0.7818608E-02  0.9380472E-01
         -2   -1    0    0    0  501 -0.00000000000E+00  0.00000000000E+00  0.40272446564E+03  0.40272446564E+03  0.00000000000E+00 0.  1.
          1   -1    0    0  501    0  0.00000000000E+00 -0.00000000000E+00 -0.26108277740E+04  0.26108277740E+04  0.00000000000E+00 0. -1.
        -24    2    1    2    0    0  0.83903221606E+03 -0.16967345321E+03 -0.45642706048E+03  0.97365500448E+03  0.83152065024E+02 0.  0.
    5000000    2    1    2    0    0 -0.83903221606E+03  0.16967345321E+03 -0.17516762479E+04  0.20398972352E+04  0.60003909231E+03 0.  0.
        -24    2    4    4    0    0  0.56043746182E+02 -0.55792995281E+02 -0.25777428234E+03  0.28135869327E+03  0.80382671238E+02 0.  0.
         24    2    4    4    0    0 -0.89507596224E+03  0.22546644849E+03 -0.14939019655E+04  0.17585385419E+04  0.93373567304E+02 0.  0.
         11    1    5    5    0    0  0.32334733986E+02 -0.48764641457E+01 -0.23048983040E+02  0.40007131161E+02  0.00000000000E+00 0. -1.
        -12    1    5    5    0    0  0.23709012195E+02 -0.50916531135E+02 -0.23472529930E+03  0.24135156211E+03  0.00000000000E+00 0.  1.
         15    1    3    3    0    0  0.21354309589E+03 -0.93524923459E+01 -0.12915528386E+03  0.24974460553E+03  0.17770000000E+01 0. -1.
        -16    1    3    3    0    0  0.62548912017E+03 -0.16032096086E+03 -0.32727177662E+03  0.72391039895E+03  0.00000000000E+00 0.  1.
          2    1    6    6  502    0 -0.65688348673E+03  0.13328831517E+03 -0.10277043827E+04  0.12269629124E+04  0.00000000000E+00 0. -1.
         -1    1    6    6    0  502 -0.23819247551E+03  0.92178133323E+02 -0.46619758282E+03  0.53157562950E+03  0.00000000000E+00 0.  1.
<mgrwt>
<rscale>  0 0.93700315E+03</rscale>
<asrwt>0</asrwt>
<pdfrwt beam="1">  1        1 0.40166582E+00 0.93700315E+03</pdfrwt>
<pdfrwt beam="2">  1       -2 0.61957609E-01 0.93700315E+03</pdfrwt>
<totfact> 0.24738233E+00</totfact>
</mgrwt>
</event>
<event>
12    3  0.1092576E-007  0.3392933E+03  0.7818608E-02  0.1067097E+00
         -2   -1    0    0    0  501 -0.00000000000E+00  0.00000000000E+00  0.14195994322E+03  0.14195994322E+03  0.00000000000E+00 0.  1.
          1   -1    0    0  501    0  0.00000000000E+00 -0.00000000000E+00 -0.14996247539E+04  0.14996247539E+04  0.00000000000E+00 0. -1.
        -24    2    1    2    0    0  0.61150552695E+02  0.12631908646E+03 -0.78083923136E+03  0.79756849309E+03  0.81912723395E+02 0.  0.
    5000000    2    1    2    0    0 -0.61150552695E+02 -0.12631908646E+03 -0.57682557934E+03  0.84401620403E+03  0.59994974955E+03 0.  0.
        -24    2    4    4    0    0  0.10387591761E+03  0.15648191873E+03 -0.36559946058E+02  0.20669878106E+03  0.78172624909E+02 0.  0.
         24    2    4    4    0    0 -0.16502647031E+03 -0.28280100520E+03 -0.54026563328E+03  0.63731742297E+03  0.84121333055E+02 0.  0.
         13    1    5    5    0    0  0.11008176853E+03  0.15845240059E+03 -0.42856936334E+02  0.19764077516E+03  0.00000000000E+00 0. -1.
        -14    1    5    5    0    0 -0.62058509149E+01 -0.19704818546E+01  0.62969902756E+01  0.90580058980E+01  0.00000000000E+00 0.  1.
         15    1    3    3    0    0  0.42511912533E+02  0.10258214497E+03 -0.38825828728E+03  0.40382918982E+03  0.17770000000E+01 0. -1.
        -16    1    3    3    0    0  0.18638640163E+02  0.23736941494E+02 -0.39258094407E+03  0.39373930328E+03  0.00000000000E+00 0.  1.
          4    1    6    6  502    0 -0.22981579214E+02 -0.11851188032E+03 -0.18363280465E+03  0.21975947239E+03  0.00000000000E+00 0. -1.
         -3    1    6    6    0  502 -0.14204489110E+03 -0.16428912488E+03 -0.35663282863E+03  0.41755795058E+03  0.00000000000E+00 0.  1.
<mgrwt>
<rscale>  0 0.33929334E+03</rscale>
<asrwt>0</asrwt>
<pdfrwt beam="1">  1        1 0.23071150E+00 0.33929334E+03</pdfrwt>
<pdfrwt beam="2">  1       -2 0.21839991E-01 0.33929334E+03</pdfrwt>
<totfact> 0.11285240E+02</totfact>
</mgrwt>
</event>
<event>
12    3  0.1092576E-007  0.1136343E+04  0.7818608E-02  0.9170476E-01
         -2   -1    0    0    0  501 -0.00000000000E+00  0.00000000000E+00  0.12853863820E+04  0.12853863820E+04  0.00000000000E+00 0.  1.
          1   -1    0    0  501    0  0.00000000000E+00 -0.00000000000E+00 -0.19428140657E+04  0.19428140657E+04  0.00000000000E+00 0. -1.
        -24    2    1    2    0    0  0.62299257367E+02 -0.11251829230E+04 -0.13624139242E+04  0.17697719428E+04  0.77480455400E+02 0.  0.
    5000000    2    1    2    0    0 -0.62299257367E+02  0.11251829230E+04  0.70498624048E+03  0.14584285049E+04  0.60007524260E+03 0.  0.
        -24    2    4    4    0    0  0.41496129759E+02  0.72264030843E+03  0.73461335485E+03  0.10344379903E+04  0.80462603280E+02 0.  0.
         24    2    4    4    0    0 -0.10379538713E+03  0.40254261462E+03 -0.29627114369E+02  0.42399051456E+03  0.77949673269E+02 0.  0.
         11    1    5    5    0    0  0.41563412189E+02  0.66873931757E+03  0.64606072338E+03  0.93077078295E+03  0.00000000000E+00 0. -1.
        -12    1    5    5    0    0 -0.67282430387E-01  0.53900990861E+02  0.88552631467E+02  0.10366720736E+03  0.00000000000E+00 0.  1.
         15    1    3    3    0    0  0.51038784744E+02 -0.89941271604E+03 -0.10385876417E+04  0.13748511333E+04  0.17770000000E+01 0. -1.
        -16    1    3    3    0    0  0.11260472623E+02 -0.22577020701E+03 -0.32382628245E+03  0.39492080956E+03  0.00000000000E+00 0.  1.
          4    1    6    6  502    0 -0.86220661435E+02  0.39195376569E+03 -0.34798038090E+02  0.40283080859E+03  0.00000000000E+00 0. -1.
         -3    1    6    6    0  502 -0.17574725691E+02  0.10588848931E+02  0.51709237215E+01  0.21159705975E+02  0.00000000000E+00 0.  1.
<mgrwt>
<rscale>  0 0.11363431E+04</rscale>
<asrwt>0</asrwt>
<pdfrwt beam="1">  1        1 0.29889447E+00 0.11363431E+04</pdfrwt>
<pdfrwt beam="2">  1       -2 0.19775175E+00 0.11363431E+04</pdfrwt>
<totfact> 0.38694429E-01</totfact>
</mgrwt>
</event>
<event>
12    3  0.1092576E-007  0.7371678E+03  0.7818608E-02  0.9655700E-01
         -2   -1    0    0    0  501 -0.00000000000E+00  0.00000000000E+00  0.32678924792E+03  0.32678924792E+03  0.00000000000E+00 0.  1.
          1   -1    0    0  501    0  0.00000000000E+00 -0.00000000000E+00 -0.21392678445E+04  0.21392678445E+04  0.00000000000E+00 0. -1.
        -24    2    1    2    0    0  0.50048703273E+02 -0.68879973574E+03 -0.11217285998E+04  0.13196345465E+04  0.78805684757E+02 0.  0.
    5000000    2    1    2    0    0 -0.50048703273E+02  0.68879973574E+03 -0.69074999672E+03  0.11464225459E+04  0.60016593300E+03 0.  0.
        -24    2    4    4    0    0 -0.18408674380E+03  0.22895847148E+03 -0.31592186159E+01  0.30429299555E+03  0.79210703649E+02 0.  0.
         24    2    4    4    0    0  0.13403804053E+03  0.45984126427E+03 -0.68759077810E+03  0.84212955036E+03  0.83551881031E+02 0.  0.
         13    1    5    5    0    0 -0.11527850469E+03  0.14200610704E+03 -0.40412915794E+02  0.18731810335E+03  0.00000000000E+00 0. -1.
        -14    1    5    5    0    0 -0.68808239112E+02  0.86952364435E+02  0.37253697178E+02  0.11697489219E+03  0.00000000000E+00 0.  1.
         15    1    3    3    0    0  0.63187089210E+02 -0.37297732746E+03 -0.64060862000E+03  0.74396724175E+03  0.17770000000E+01 0. -1.
        -16    1    3    3    0    0 -0.13138385938E+02 -0.31582240828E+03 -0.48111997981E+03  0.57566730473E+03  0.00000000000E+00 0.  1.
          2    1    6    6  502    0  0.84659203395E+02  0.39856584145E+03 -0.58101686727E+03  0.70964956897E+03  0.00000000000E+00 0. -1.
         -1    1    6    6    0  502  0.49378837131E+02  0.61275422817E+02 -0.10657391083E+03  0.13247998139E+03  0.00000000000E+00 0.  1.
<mgrwt>
<rscale>  0 0.73716777E+03</rscale>
<asrwt>0</asrwt>
<pdfrwt beam="1">  1        1 0.32911812E+00 0.73716777E+03</pdfrwt>
<pdfrwt beam="2">  1       -2 0.50275270E-01 0.73716777E+03</pdfrwt>
<totfact> 0.82433629E+00</totfact>
</mgrwt>
</event>
<event>
12    3  0.1092576E-007  0.6176548E+03  0.7818608E-02  0.9869440E-01
          1   -1    0    0  501    0  0.00000000000E+00  0.00000000000E+00  0.39163015958E+03  0.39163015958E+03  0.00000000000E+00 0. -1.
         -2   -1    0    0    0  501 -0.00000000000E+00 -0.00000000000E+00 -0.10227539641E+04  0.10227539641E+04  0.00000000000E+00 0.  1.
        -24    2    1    2    0    0  0.33824227917E+03 -0.34229690237E+03 -0.32895637384E+03  0.58838341883E+03  0.80048378348E+02 0.  0.
    5000000    2    1    2    0    0 -0.33824227917E+03  0.34229690237E+03 -0.30216743068E+03  0.82600070486E+03  0.59949728896E+03 0.  0.
        -24    2    4    4    0    0 -0.85889822306E+02 -0.15484713288E+03 -0.14913001152E+03  0.24470586145E+03  0.79287465300E+02 0.  0.
         24    2    4    4    0    0 -0.25235245686E+03  0.49714403525E+03 -0.15303741916E+03  0.58129484341E+03  0.60409345596E+02 0.  0.
         13    1    5    5    0    0 -0.80012180415E+02 -0.64780993005E+02 -0.90543353510E+02  0.13710078386E+03  0.00000000000E+00 0. -1.
        -14    1    5    5    0    0 -0.58776418910E+01 -0.90066139879E+02 -0.58586658009E+02  0.10760507759E+03  0.00000000000E+00 0.  1.
         15    1    3    3    0    0  0.65013004494E+02 -0.88769326854E+02 -0.41229120526E+02  0.11751460442E+03  0.17770000000E+01 0. -1.
        -16    1    3    3    0    0  0.27322927468E+03 -0.25352757552E+03 -0.28772725331E+03  0.47086881441E+03  0.00000000000E+00 0.  1.
          2    1    6    6  502    0 -0.16814761258E+03  0.28251074568E+03 -0.11054581441E+03  0.34685201185E+03  0.00000000000E+00 0. -1.
         -1    1    6    6    0  502 -0.84204844281E+02  0.21463328958E+03 -0.42491604753E+02  0.23444283156E+03  0.00000000000E+00 0.  1.
<mgrwt>
<rscale>  0 0.61765481E+03</rscale>
<asrwt>0</asrwt>
<pdfrwt beam="1">  1        1 0.60250794E-01 0.61765481E+03</pdfrwt>
<pdfrwt beam="2">  1       -2 0.15734676E+00 0.61765481E+03</pdfrwt>
<totfact> 0.14678723E+01</totfact>
</mgrwt>
</event>
<event>
12    3  0.1092576E-007  0.1079772E+04  0.7818608E-02  0.9225135E-01
          1   -1    0    0  501    0  0.00000000000E+00  0.00000000000E+00  0.31694157433E+04  0.31694157433E+04  0.00000000000E+00 0. -1.
         -2   -1    0    0    0  501 -0.00000000000E+00 -0.00000000000E+00 -0.72845583531E+03  0.72845583531E+03  0.00000000000E+00 0.  1.
        -24    2    1    2    0    0  0.10038480894E+04 -0.34232497930E+03  0.24589482762E+04  0.26791231865E+04  0.79856402838E+02 0.  0.
    5000000    2    1    2    0    0 -0.10038480894E+04  0.34232497930E+03 -0.17988368198E+02  0.12187483922E+04  0.60010556072E+03 0.  0.
        -24    2    4    4    0    0 -0.81303527080E+03  0.36640277602E+03 -0.22603077009E+03  0.92451124272E+03  0.91399032041E+02 0.  0.
         24    2    4    4    0    0 -0.19081281860E+03 -0.24077796718E+02  0.20804240189E+03  0.29423714946E+03  0.79401430087E+02 0.  0.
         11    1    5    5    0    0  0.19558073849E-01 -0.14188653760E+01  0.29007478903E+01  0.32292258819E+01  0.00000000000E+00 0. -1.
        -12    1    5    5    0    0 -0.81305482887E+03  0.36782164139E+03 -0.22893151798E+03  0.92128201684E+03  0.00000000000E+00 0.  1.
         15    1    3    3    0    0  0.21993149931E+03 -0.56056870749E+02  0.45958329631E+03  0.51257409330E+03  0.17770000000E+01 0. -1.
        -16    1    3    3    0    0  0.78391659009E+03 -0.28626810855E+03  0.19993649799E+04  0.21665490931E+04  0.00000000000E+00 0.  1.
          4    1    6    6  502    0 -0.45634430540E+02  0.23648240783E+02  0.78858046576E+02  0.94129336833E+02  0.00000000000E+00 0. -1.
         -3    1    6    6    0  502 -0.14517838806E+03 -0.47726037502E+02  0.12918435531E+03  0.20010781263E+03  0.00000000000E+00 0.  1.
<mgrwt>
<rscale>  0 0.10797722E+04</rscale>
<asrwt>0</asrwt>
<pdfrwt beam="1">  1        1 0.48760241E+00 0.10797722E+04</pdfrwt>
<pdfrwt beam="2">  1       -2 0.11207013E+00 0.10797722E+04</pdfrwt>
<totfact> 0.24985989E-01</totfact>
</mgrwt>
</event>
<event>
12    3  0.1092576E-007  0.7836456E+03  0.7818608E-02  0.9583996E-01
         -2   -1    0    0    0  501 -0.00000000000E+00  0.00000000000E+00  0.22310829181E+04  0.22310829181E+04  0.00000000000E+00 0.  1.
          1   -1    0    0  501    0  0.00000000000E+00 -0.00000000000E+00 -0.33905579461E+03  0.33905579461E+03  0.00000000000E+00 0. -1.
        -24    2    1    2    0    0  0.17727943371E+03  0.74072746531E+03  0.75031272569E+03  0.10721992363E+04  0.80850730136E+02 0.  0.
    5000000    2    1    2    0    0 -0.17727943371E+03 -0.74072746531E+03  0.11417143978E+04  0.14979394764E+04  0.60017141992E+03 0.  0.
        -24    2    4    4    0    0 -0.22712950140E+03 -0.57043845518E+03  0.11473765196E+04  0.13037417659E+04  0.79258267008E+02 0.  0.
         24    2    4    4    0    0  0.49850067691E+02 -0.17028901013E+03 -0.56621217689E+01  0.19419771050E+03  0.78723026624E+02 0.  0.
         13    1    5    5    0    0 -0.11389587041E+03 -0.32826697340E+03  0.72336154384E+03  0.80248576201E+03  0.00000000000E+00 0. -1.
        -14    1    5    5    0    0 -0.11323363100E+03 -0.24217148177E+03  0.42401497575E+03  0.50125600388E+03  0.00000000000E+00 0.  1.
         15    1    3    3    0    0  0.10882002888E+03  0.37862166104E+03  0.43836827827E+03  0.58937769386E+03  0.17770000000E+01 0. -1.
        -16    1    3    3    0    0  0.68459404830E+02  0.36210580427E+03  0.31194444742E+03  0.48282154247E+03  0.00000000000E+00 0.  1.
          2    1    6    6  502    0  0.14334359509E+02 -0.14665911865E+03  0.12387843194E+02  0.14787775223E+03  0.00000000000E+00 0. -1.
         -1    1    6    6    0  502  0.35515708182E+02 -0.23629891482E+02 -0.18049964963E+02  0.46319958271E+02  0.00000000000E+00 0.  1.
<mgrwt>
<rscale>  0 0.78364561E+03</rscale>
<asrwt>0</asrwt>
<pdfrwt beam="1">  1        1 0.52162431E-01 0.78364561E+03</pdfrwt>
<pdfrwt beam="2">  1       -2 0.34324352E+00 0.78364561E+03</pdfrwt>
<totfact> 0.11761743E+00</totfact>
</mgrwt>
</event>
<event>
12    3  0.1092576E-007  0.1339729E+04  0.7818608E-02  0.8998640E-01
          1   -1    0    0  501    0  0.00000000000E+00  0.00000000000E+00  0.12854691151E+04  0.12854691151E+04  0.00000000000E+00 0. -1.
         -2   -1    0    0    0  501 -0.00000000000E+00 -0.00000000000E+00 -0.15010274102E+04  0.15010274102E+04  0.00000000000E+00 0.  1.
        -24    2    1    2    0    0  0.12105896729E+04 -0.48363729822E+03 -0.32809542746E+03  0.13469350727E+04  0.84587754052E+02 0.  0.
    5000000    2    1    2    0    0 -0.12105896729E+04  0.48363729822E+03  0.11253713238E+03  0.14395614527E+04  0.60020011464E+03 0.  0.
        -24    2    4    4    0    0  0.32127053204E+02  0.12601586858E+01 -0.41884454838E+02  0.95244686948E+02  0.79268576922E+02 0.  0.
         24    2    4    4    0    0 -0.12427167261E+04  0.48237713953E+03  0.15442158722E+03  0.13443167657E+04  0.79429050400E+02 0.  0.
         11    1    5    5    0    0  0.19225894828E+02 -0.10872762022E+02 -0.63540017121E+02  0.67269500976E+02  0.00000000000E+00 0. -1.
        -12    1    5    5    0    0  0.12901158376E+02  0.12132920708E+02  0.21655562283E+02  0.27975185972E+02  0.00000000000E+00 0.  1.
         15    1    3    3    0    0  0.90523904431E+03 -0.38087318798E+03 -0.27959116105E+03  0.10211251088E+04  0.17770000000E+01 0. -1.
        -16    1    3    3    0    0  0.30535062856E+03 -0.10276411024E+03 -0.48504266411E+02  0.32580996389E+03  0.00000000000E+00 0.  1.
          4    1    6    6  502    0 -0.28586518512E+03  0.14706545703E+03  0.41560932523E+02  0.32415191474E+03  0.00000000000E+00 0. -1.
         -3    1    6    6    0  502 -0.95685154095E+03  0.33531168250E+03  0.11286065470E+03  0.10201648510E+04  0.00000000000E+00 0.  1.
<mgrwt>
<rscale>  0 0.13397292E+04</rscale>
<asrwt>0</asrwt>
<pdfrwt beam="1">  1        1 0.19776448E+00 0.13397292E+04</pdfrwt>
<pdfrwt beam="2">  1       -2 0.23092730E+00 0.13397292E+04</pdfrwt>
<totfact> 0.65786166E-01</totfact>
</mgrwt>
</event>
<event>
12    3  0.1092576E-007  0.1185806E+04  0.7818608E-02  0.9125372E-01
         -2   -1    0    0    0  501 -0.00000000000E+00  0.00000000000E+00  0.18486577261E+04  0.18486577261E+04  0.00000000000E+00 0.  1.
          1   -1    0    0  501    0  0.00000000000E+00 -0.00000000000E+00 -0.14460914622E+04  0.14460914622E+04  0.00000000000E+00 0. -1.
        -24    2    1    2    0    0 -0.35094463684E+03 -0.11119080195E+04 -0.87811635490E+03  0.14618799160E+04  0.80641019788E+02 0.  0.
    5000000    2    1    2    0    0  0.35094463684E+03  0.11119080195E+04  0.12806826188E+04  0.18328692723E+04  0.59980014780E+03 0.  0.
        -24    2    4    4    0    0  0.23374490755E+03  0.10330942320E+04  0.81117240069E+03  0.13364670769E+04  0.78887324331E+02 0.  0.
         24    2    4    4    0    0  0.11719972929E+03  0.78813787437E+02  0.46951021810E+03  0.49640219537E+03  0.77639584205E+02 0.  0.
         11    1    5    5    0    0  0.12670065167E+03  0.62963713844E+03  0.44676195802E+03  0.78236323301E+03  0.00000000000E+00 0. -1.
        -12    1    5    5    0    0  0.10704425588E+03  0.40345709359E+03  0.36441044267E+03  0.55410384388E+03  0.00000000000E+00 0.  1.
         15    1    3    3    0    0 -0.12054897902E+03 -0.40726486002E+03 -0.36795730347E+03  0.56195414177E+03  0.17770000000E+01 0. -1.
        -16    1    3    3    0    0 -0.23039565782E+03 -0.70464315944E+03 -0.51015905143E+03  0.89992577419E+03  0.00000000000E+00 0.  1.
          4    1    6    6  502    0  0.21528307163E+02 -0.56378260444E+00  0.18063426547E+03  0.18191350616E+03  0.00000000000E+00 0. -1.
         -1    1    6    6    0  502  0.95671422130E+02  0.79377570041E+02  0.28887595263E+03  0.31448868922E+03  0.00000000000E+00 0.  1.
<mgrwt>
<rscale>  0 0.11858058E+04</rscale>
<asrwt>0</asrwt>
<pdfrwt beam="1">  1        1 0.22247561E+00 0.11858058E+04</pdfrwt>
<pdfrwt beam="2">  1       -2 0.28440888E+00 0.11858058E+04</pdfrwt>
<totfact> 0.24265289E-01</totfact>
</mgrwt>
</event>
<event>
12    3  0.1092576E-007  0.6393237E+03  0.7818608E-02  0.9827021E-01
         -2   -1    0    0    0  501 -0.00000000000E+00  0.00000000000E+00  0.62982913573E+03  0.62982913573E+03  0.00000000000E+00 0.  1.
          1   -1    0    0  501    0  0.00000000000E+00 -0.00000000000E+00 -0.83243996412E+03  0.83243996412E+03  0.00000000000E+00 0. -1.
        -24    2    1    2    0    0 -0.82516431360E+02 -0.54682049426E+03 -0.31053894654E+03  0.63919269193E+03  0.79443349052E+02 0.  0.
    5000000    2    1    2    0    0  0.82516431360E+02  0.54682049426E+03  0.10792811815E+03  0.82307640792E+03  0.59998723336E+03 0.  0.
        -24    2    4    4    0    0  0.12115246678E+03  0.60280324541E+03  0.23065496901E+03  0.66156602141E+03  0.80113750875E+02 0.  0.
         24    2    4    4    0    0 -0.38636035419E+02 -0.55982751146E+02 -0.12272685086E+03  0.16151038651E+03  0.79980706228E+02 0.  0.
         13    1    5    5    0    0  0.85906881288E+02  0.33345000580E+03  0.16632156871E+03  0.38240261876E+03  0.00000000000E+00 0. -1.
        -14    1    5    5    0    0  0.35245585491E+02  0.26935323961E+03  0.64333400302E+02  0.27916340265E+03  0.00000000000E+00 0.  1.
         15    1    3    3    0    0  0.94165073448E+01 -0.15129245083E+03 -0.10187141389E+03  0.18264451534E+03  0.17770000000E+01 0. -1.
        -16    1    3    3    0    0 -0.91932938705E+02 -0.39552804344E+03 -0.20866753265E+03  0.45654817659E+03  0.00000000000E+00 0.  1.
          4    1    6    6  502    0 -0.61756787901E+02 -0.25696330079E+02 -0.78599526732E+02  0.10320895230E+03  0.00000000000E+00 0. -1.
         -3    1    6    6    0  502  0.23120752482E+02 -0.30286421067E+02 -0.44127324126E+02  0.58301434210E+02  0.00000000000E+00 0.  1.
<mgrwt>
<rscale>  0 0.63932371E+03</rscale>
<asrwt>0</asrwt>
<pdfrwt beam="1">  1        1 0.12806769E+00 0.63932371E+03</pdfrwt>
<pdfrwt beam="2">  1       -2 0.96896790E-01 0.63932371E+03</pdfrwt>
<totfact> 0.16714556E+01</totfact>
</mgrwt>
</event>
<event>
12    3  0.1092576E-007  0.1314197E+04  0.7818608E-02  0.9018382E-01
         -2   -1    0    0    0  501 -0.00000000000E+00  0.00000000000E+00  0.85289947106E+03  0.85289947106E+03  0.00000000000E+00 0.  1.
          1   -1    0    0  501    0  0.00000000000E+00 -0.00000000000E+00 -0.21244127948E+04  0.21244127948E+04  0.00000000000E+00 0. -1.
        -24    2    1    2    0    0  0.12521676866E+04 -0.28933360200E+02 -0.88569726946E+03  0.15360789120E+04  0.79484061820E+02 0.  0.
    5000000    2    1    2    0    0 -0.12521676866E+04  0.28933360200E+02 -0.38581605427E+03  0.14412333538E+04  0.59961529132E+03 0.  0.
        -24    2    4    4    0    0 -0.27612560819E+03 -0.22392090547E+03 -0.16299386363E+02  0.36438222964E+03  0.78248424111E+02 0.  0.
         24    2    4    4    0    0 -0.97604207845E+03  0.25285426567E+03 -0.36951666791E+03  0.10768511242E+04  0.80450961353E+02 0.  0.
         13    1    5    5    0    0 -0.52828223644E+02 -0.82970311373E+02  0.10710053720E+02  0.98942402606E+02  0.00000000000E+00 0. -1.
        -14    1    5    5    0    0 -0.22329738455E+03 -0.14095059409E+03 -0.27009440083E+02  0.26543982703E+03  0.00000000000E+00 0.  1.
         15    1    3    3    0    0  0.11783862270E+04 -0.10286803830E+02 -0.84190253967E+03  0.14482758585E+04  0.17770000000E+01 0. -1.
        -16    1    3    3    0    0  0.73781459676E+02 -0.18646556370E+02 -0.43794729787E+02  0.87803053555E+02  0.00000000000E+00 0.  1.
          2    1    6    6  502    0 -0.72182955028E+03  0.22292146764E+03 -0.27962826011E+03  0.80555809489E+03  0.00000000000E+00 0. -1.
         -1    1    6    6    0  502 -0.25421252817E+03  0.29932798027E+02 -0.89888407804E+02  0.27129302927E+03  0.00000000000E+00 0.  1.
<mgrwt>
<rscale>  0 0.13141968E+04</rscale>
<asrwt>0</asrwt>
<pdfrwt beam="1">  1        1 0.32683273E+00 0.13141968E+04</pdfrwt>
<pdfrwt beam="2">  1       -2 0.13121530E+00 0.13141968E+04</pdfrwt>
<totfact> 0.88292276E-01</totfact>
</mgrwt>
</event>
<event>
12    3  0.1092576E-007  0.7378665E+03  0.7818608E-02  0.9654581E-01
          1   -1    0    0  501    0  0.00000000000E+00  0.00000000000E+00  0.43749574180E+03  0.43749574180E+03  0.00000000000E+00 0. -1.
         -2   -1    0    0    0  501 -0.00000000000E+00 -0.00000000000E+00 -0.17243776603E+04  0.17243776603E+04  0.00000000000E+00 0.  1.
        -24    2    1    2    0    0 -0.45924576932E+03 -0.48165667180E+03 -0.10316085089E+04  0.12301307981E+04  0.78139865582E+02 0.  0.
    5000000    2    1    2    0    0  0.45924576932E+03  0.48165667180E+03 -0.25527340961E+03  0.93174260404E+03  0.60006661330E+03 0.  0.
        -24    2    4    4    0    0 -0.21759939217E+02  0.27123826261E+03  0.91397165506E+02  0.29766480969E+03  0.78785829968E+02 0.  0.
         24    2    4    4    0    0  0.48100570854E+03  0.21041840919E+03 -0.34667057511E+03  0.63407779435E+03  0.78941516756E+02 0.  0.
         11    1    5    5    0    0 -0.43721684848E+02  0.19681385347E+03  0.88037009128E+02  0.21999498545E+03  0.00000000000E+00 0. -1.
        -12    1    5    5    0    0  0.21961745631E+02  0.74424409140E+02  0.33601563783E+01  0.77669824242E+02  0.00000000000E+00 0.  1.
         15    1    3    3    0    0 -0.11565164431E+03 -0.91695949688E+02 -0.18431677409E+03  0.23613403177E+03  0.17770000000E+01 0. -1.
        -16    1    3    3    0    0 -0.34359412501E+03 -0.38996072211E+03 -0.84729173480E+03  0.99399676629E+03  0.00000000000E+00 0.  1.
          2    1    6    6  502    0  0.46436052529E+03  0.18733258112E+03 -0.31532033064E+03  0.59173567098E+03  0.00000000000E+00 0. -1.
         -1    1    6    6    0  502  0.16645183248E+02  0.23085828062E+02 -0.31350244478E+02  0.42342123370E+02  0.00000000000E+00 0.  1.
<mgrwt>
<rscale>  0 0.73786645E+03</rscale>
<asrwt>0</asrwt>
<pdfrwt beam="1">  1        1 0.67307036E-01 0.73786645E+03</pdfrwt>
<pdfrwt beam="2">  1       -2 0.26528888E+00 0.73786645E+03</pdfrwt>
<totfact> 0.25052675E+00</totfact>
</mgrwt>
</event>
<event>
12    3  0.1092576E-007  0.9553066E+03  0.7818608E-02  0.9358969E-01
         -2   -1    0    0    0  501 -0.00000000000E+00  0.00000000000E+00  0.18927978253E+04  0.18927978253E+04  0.00000000000E+00 0.  1.
          1   -1    0    0  501    0  0.00000000000E+00 -0.00000000000E+00 -0.68602770026E+03  0.68602770026E+03  0.00000000000E+00 0. -1.
        -24    2    1    2    0    0  0.93448800666E+03 -0.92643766410E+02  0.83005035921E+01  0.94234052715E+03  0.78013259828E+02 0.  0.
    5000000    2    1    2    0    0 -0.93448800666E+03  0.92643766410E+02  0.11984696215E+04  0.16364849984E+04  0.59991917327E+03 0.  0.
        -24    2    4    4    0    0 -0.62697618388E+03  0.16133324236E+03  0.37897245055E+03  0.75481277995E+03  0.83634109404E+02 0.  0.
         24    2    4    4    0    0 -0.30751182278E+03 -0.68689475953E+02  0.81949717094E+03  0.88167221849E+03  0.80551365151E+02 0.  0.
         13    1    5    5    0    0 -0.55396727300E+03  0.16903579327E+03  0.34191234658E+03  0.67257482238E+03  0.00000000000E+00 0. -1.
        -14    1    5    5    0    0 -0.73008910880E+02 -0.77025509058E+01  0.37060103970E+02  0.82237957566E+02  0.00000000000E+00 0.  1.
         15    1    3    3    0    0  0.31162949589E+03 -0.66109801907E+02 -0.86437695749E+01  0.31868686998E+03  0.17770000000E+01 0. -1.
        -16    1    3    3    0    0  0.62285851077E+03 -0.26533964504E+02  0.16944273167E+02  0.62365365717E+03  0.00000000000E+00 0.  1.
          4    1    6    6  502    0 -0.15673180153E+02 -0.92297012817E+01  0.12054452834E+03  0.12190906150E+03  0.00000000000E+00 0. -1.
         -3    1    6    6    0  502 -0.29183864262E+03 -0.59459774672E+02  0.69895264260E+03  0.75976315699E+03  0.00000000000E+00 0.  1.
<mgrwt>
<rscale>  0 0.95530662E+03</rscale>
<asrwt>0</asrwt>
<pdfrwt beam="1">  1        1 0.10554272E+00 0.95530662E+03</pdfrwt>
<pdfrwt beam="2">  1       -2 0.29119966E+00 0.95530662E+03</pdfrwt>
<totfact> 0.89771495E-01</totfact>
</mgrwt>
</event>
<event>
12    3  0.1092576E-007  0.5794207E+03  0.7818608E-02  0.9949046E-01
          1   -1    0    0  501    0  0.00000000000E+00  0.00000000000E+00  0.88733136965E+03  0.88733136965E+03  0.00000000000E+00 0. -1.
         -2   -1    0    0    0  501 -0.00000000000E+00 -0.00000000000E+00 -0.10351939116E+04  0.10351939116E+04  0.00000000000E+00 0.  1.
        -24    2    1    2    0    0  0.34271968024E+03  0.43194614696E+03  0.59810641433E+03  0.81779717732E+03  0.83825337822E+02 0.  0.
    5000000    2    1    2    0    0 -0.34271968024E+03 -0.43194614696E+03 -0.74596895628E+03  0.11047281039E+04  0.59993353529E+03 0.  0.
        -24    2    4    4    0    0 -0.24674555893E+02 -0.12118423079E+02  0.83203390790E+02  0.11903002970E+03  0.80558387798E+02 0.  0.
         24    2    4    4    0    0 -0.31804512435E+03 -0.41982772388E+03 -0.82917234707E+03  0.98569807422E+03  0.81644923478E+02 0.  0.
         13    1    5    5    0    0 -0.80662196041E+01  0.28165882620E+02  0.65949841966E+02  0.72164828675E+02  0.00000000000E+00 0. -1.
        -14    1    5    5    0    0 -0.16608336289E+02 -0.40284305699E+02  0.17253548825E+02  0.46865201023E+02  0.00000000000E+00 0.  1.
         15    1    3    3    0    0  0.13680150226E+03  0.11802376169E+03  0.16583984871E+03  0.24525552490E+03  0.17770000000E+01 0. -1.
        -16    1    3    3    0    0  0.20591817798E+03  0.31392238527E+03  0.43226656562E+03  0.57254165241E+03  0.00000000000E+00 0.  1.
          4    1    6    6  502    0 -0.16080097343E+03 -0.16486479622E+03 -0.30811125276E+03  0.38466855624E+03  0.00000000000E+00 0. -1.
         -3    1    6    6    0  502 -0.15724415092E+03 -0.25496292766E+03 -0.52106109431E+03  0.60102951798E+03  0.00000000000E+00 0.  1.
<mgrwt>
<rscale>  0 0.57942067E+03</rscale>
<asrwt>0</asrwt>
<pdfrwt beam="1">  1        1 0.13651252E+00 0.57942067E+03</pdfrwt>
<pdfrwt beam="2">  1       -2 0.15926060E+00 0.57942067E+03</pdfrwt>
<totfact> 0.43850541E+00</totfact>
</mgrwt>
</event>
<event>
12    3  0.1092576E-007  0.6655923E+03  0.7818608E-02  0.9777953E-01
          3   -1    0    0  501    0  0.00000000000E+00  0.00000000000E+00  0.99305418470E+03  0.99305418470E+03  0.00000000000E+00 0. -1.
         -4   -1    0    0    0  501 -0.00000000000E+00 -0.00000000000E+00 -0.47066253835E+03  0.47066253835E+03  0.00000000000E+00 0.  1.
        -24    2    1    2    0    0  0.23952950608E+03 -0.48726678952E+03  0.12835204187E+03  0.56361171470E+03  0.79878719593E+02 0.  0.
    5000000    2    1    2    0    0 -0.23952950608E+03  0.48726678952E+03  0.39403960448E+03  0.90010500835E+03  0.60009874829E+03 0.  0.
        -24    2    4    4    0    0  0.18599243062E+03  0.17392701731E+03  0.79130642087E+02  0.27967435518E+03  0.84334422553E+02 0.  0.
         24    2    4    4    0    0 -0.42552193670E+03  0.31333977221E+03  0.31490896239E+03  0.62043065317E+03  0.80720563308E+02 0.  0.
         11    1    5    5    0    0  0.15616151571E+03  0.13367649824E+03  0.26924817312E+02  0.20731804301E+03  0.00000000000E+00 0. -1.
        -12    1    5    5    0    0  0.29830914913E+02  0.40250519070E+02  0.52205824775E+02  0.72356312167E+02  0.00000000000E+00 0.  1.
         15    1    3    3    0    0  0.17605430144E+03 -0.29194113890E+03  0.10598654190E+03  0.35701687695E+03  0.17770000000E+01 0. -1.
        -16    1    3    3    0    0  0.63475204638E+02 -0.19532565062E+03  0.22365499971E+02  0.20659483775E+03  0.00000000000E+00 0.  1.
          4    1    6    6  502    0 -0.15782145230E+03  0.99199958246E+02  0.15371737322E+03  0.24161389312E+03  0.00000000000E+00 0. -1.
         -3    1    6    6    0  502 -0.26770048440E+03  0.21413981397E+03  0.16119158917E+03  0.37881676005E+03  0.00000000000E+00 0.  1.
<mgrwt>
<rscale>  0 0.66559231E+03</rscale>
<asrwt>0</asrwt>
<pdfrwt beam="1">  1        3 0.15277757E+00 0.66559231E+03</pdfrwt>
<pdfrwt beam="2">  1       -4 0.72409621E-01 0.66559231E+03</pdfrwt>
<totfact> 0.12128233E+00</totfact>
</mgrwt>
</event>
<event>
12    3  0.1092576E-007  0.4586301E+03  0.7818608E-02  0.1025179E+00
          3   -1    0    0  501    0  0.00000000000E+00  0.00000000000E+00  0.16916108381E+04  0.16916108381E+04  0.00000000000E+00 0. -1.
         -4   -1    0    0    0  501 -0.00000000000E+00 -0.00000000000E+00 -0.14597374245E+03  0.14597374245E+03  0.00000000000E+00 0.  1.
        -24    2    1    2    0    0  0.15182472916E+03 -0.21593148948E+03  0.79231163157E+03  0.83893568481E+03  0.79863666276E+02 0.  0.
    5000000    2    1    2    0    0 -0.15182472916E+03  0.21593148948E+03  0.75332546407E+03  0.99864889573E+03  0.60010266254E+03 0.  0.
        -24    2    4    4    0    0 -0.28558454822E+03 -0.90057989475E+02  0.40946879641E+03  0.51320104183E+03  0.77727977269E+02 0.  0.
         24    2    4    4    0    0  0.13375981906E+03  0.30598947896E+03  0.34385666766E+03  0.48544785389E+03  0.76817709743E+02 0.  0.
         13    1    5    5    0    0 -0.56827249803E+02 -0.15905953334E+02  0.14059626896E+03  0.15247834770E+03  0.00000000000E+00 0. -1.
        -14    1    5    5    0    0 -0.22875729842E+03 -0.74152036141E+02  0.26887252745E+03  0.36072269413E+03  0.00000000000E+00 0.  1.
         15    1    3    3    0    0  0.13028695245E+03 -0.21775429561E+03  0.74141296790E+03  0.78363765220E+03  0.17770000000E+01 0. -1.
        -16    1    3    3    0    0  0.21537776711E+02  0.18228061283E+01  0.50898663666E+02  0.55298032613E+02  0.00000000000E+00 0.  1.
          2    1    6    6  502    0  0.40051308152E+02  0.27549156271E+02  0.42261653533E+02  0.64413590610E+02  0.00000000000E+00 0. -1.
         -1    1    6    6    0  502  0.93708510910E+02  0.27844032269E+03  0.30159501412E+03  0.42103426328E+03  0.00000000000E+00 0.  1.
<mgrwt>
<rscale>  0 0.45863013E+03</rscale>
<asrwt>0</asrwt>
<pdfrwt beam="1">  1        3 0.26024781E+00 0.45863013E+03</pdfrwt>
<pdfrwt beam="2">  1       -4 0.22457500E-01 0.45863013E+03</pdfrwt>
<totfact> 0.28071263E+00</totfact>
</mgrwt>
</event>
<event>
12    3  0.1092576E-007  0.1020426E+04  0.7818608E-02  0.9286421E-01
         -2   -1    0    0    0  501 -0.00000000000E+00  0.00000000000E+00  0.29196580430E+03  0.29196580430E+03  0.00000000000E+00 0.  1.
          1   -1    0    0  501    0  0.00000000000E+00 -0.00000000000E+00 -0.41430709808E+04  0.41430709808E+04  0.00000000000E+00 0. -1.
        -24    2    1    2    0    0 -0.56665264723E+03  0.80918446009E+03 -0.22684203813E+04  0.24753871463E+04  0.77044043980E+02 0.  0.
    5000000    2    1    2    0    0  0.56665264723E+03 -0.80918446009E+03 -0.15826847952E+04  0.19596496388E+04  0.59955052566E+03 0.  0.
        -24    2    4    4    0    0  0.37187159166E+03 -0.24793422508E+03 -0.29976279800E+03  0.54367517349E+03  0.77234050492E+02 0.  0.
         24    2    4    4    0    0  0.19478105557E+03 -0.56125023501E+03 -0.12829219972E+04  0.14159744653E+04  0.78443289104E+02 0.  0.
         13    1    5    5    0    0  0.58438575640E+02 -0.91660329895E+01 -0.46998714428E+02  0.75551058506E+02  0.00000000000E+00 0. -1.
        -14    1    5    5    0    0  0.31343301602E+03 -0.23876819209E+03 -0.25276408358E+03  0.46812411498E+03  0.00000000000E+00 0.  1.
         15    1    3    3    0    0 -0.45589347238E+03  0.61084467951E+03 -0.18026131230E+04  0.19571375296E+04  0.17770000000E+01 0. -1.
        -16    1    3    3    0    0 -0.11075917485E+03  0.19833978058E+03 -0.46580725826E+03  0.51824961671E+03  0.00000000000E+00 0.  1.
          4    1    6    6  502    0  0.17255932178E+03 -0.40157026124E+03 -0.90089826527E+03  0.10013256606E+04  0.00000000000E+00 0. -1.
         -3    1    6    6    0  502  0.22221733788E+02 -0.15967997377E+03 -0.38202373191E+03  0.41464880467E+03  0.00000000000E+00 0.  1.
<mgrwt>
<rscale>  0 0.10204262E+04</rscale>
<asrwt>0</asrwt>
<pdfrwt beam="1">  1        1 0.63739553E+00 0.10204262E+04</pdfrwt>
<pdfrwt beam="2">  1       -2 0.44917816E-01 0.10204262E+04</pdfrwt>
<totfact> 0.31029208E-01</totfact>
</mgrwt>
</event>
<event>
12    3  0.1092576E-007  0.8463781E+03  0.7818608E-02  0.9495211E-01
         -2   -1    0    0    0  501 -0.00000000000E+00  0.00000000000E+00  0.29363689194E+03  0.29363689194E+03  0.00000000000E+00 0.  1.
          1   -1    0    0  501    0  0.00000000000E+00 -0.00000000000E+00 -0.24952763500E+04  0.24952763500E+04  0.00000000000E+00 0. -1.
        -24    2    1    2    0    0  0.41237984379E+03 -0.61744348241E+03 -0.81832094263E+03  0.11081775912E+04  0.84349386502E+02 0.  0.
    5000000    2    1    2    0    0 -0.41237984379E+03  0.61744348241E+03 -0.13833185154E+04  0.16807356507E+04  0.60000718575E+03 0.  0.
        -24    2    4    4    0    0  0.13268340877E+03  0.23574266602E+03 -0.35529025423E+03  0.45351133138E+03  0.79131987212E+02 0.  0.
         24    2    4    4    0    0 -0.54506325256E+03  0.38170081639E+03 -0.10280282612E+04  0.12272243194E+04  0.80299200678E+02 0.  0.
         13    1    5    5    0    0  0.61265019538E+02  0.44937727156E+02 -0.12260588246E+03  0.14423939946E+03  0.00000000000E+00 0. -1.
        -14    1    5    5    0    0  0.71418389232E+02  0.19080493886E+03 -0.23268437176E+03  0.30927193193E+03  0.00000000000E+00 0.  1.
         15    1    3    3    0    0  0.26327027319E+03 -0.36637332186E+03 -0.43919700315E+03  0.62963307809E+03  0.17770000000E+01 0. -1.
        -16    1    3    3    0    0  0.14910957059E+03 -0.25107016055E+03 -0.37912393948E+03  0.47854451313E+03  0.00000000000E+00 0.  1.
          2    1    6    6  502    0 -0.32226986434E+03  0.17886048533E+03 -0.58602284246E+03  0.69229452588E+03  0.00000000000E+00 0. -1.
         -1    1    6    6    0  502 -0.22279338822E+03  0.20284033106E+03 -0.44200541875E+03  0.53492979347E+03  0.00000000000E+00 0.  1.
<mgrwt>
<rscale>  0 0.84637810E+03</rscale>
<asrwt>0</asrwt>
<pdfrwt beam="1">  1        1 0.38388867E+00 0.84637810E+03</pdfrwt>
<pdfrwt beam="2">  1       -2 0.45174906E-01 0.84637810E+03</pdfrwt>
<totfact> 0.57797859E+00</totfact>
</mgrwt>
</event>
<event>
12    3  0.1092576E-007  0.5450455E+03  0.7818608E-02  0.1002647E+00
          1   -1    0    0  501    0  0.00000000000E+00  0.00000000000E+00  0.29976126645E+04  0.29976126645E+04  0.00000000000E+00 0. -1.
         -2   -1    0    0    0  501 -0.00000000000E+00 -0.00000000000E+00 -0.13692249986E+03  0.13692249986E+03  0.00000000000E+00 0.  1.
        -24    2    1    2    0    0  0.42828867543E+03 -0.17574743531E+03  0.15622840762E+04  0.16311623977E+04  0.75105806689E+02 0.  0.
    5000000    2    1    2    0    0 -0.42828867543E+03  0.17574743531E+03  0.12984060884E+04  0.15033727667E+04  0.59996079428E+03 0.  0.
        -24    2    4    4    0    0 -0.25598567289E+03 -0.10667710376E+03  0.10308617255E+04  0.10705756205E+04  0.80917197766E+02 0.  0.
         24    2    4    4    0    0 -0.17230300254E+03  0.28242453907E+03  0.26754436293E+03  0.43279714621E+03  0.79255527777E+02 0.  0.
         11    1    5    5    0    0 -0.46975597739E+02  0.11606717726E+02  0.15423738481E+03  0.16164960115E+03  0.00000000000E+00 0. -1.
        -12    1    5    5    0    0 -0.20901007515E+03 -0.11828382149E+03  0.87662434065E+03  0.90892601930E+03  0.00000000000E+00 0.  1.
         15    1    3    3    0    0  0.24362077331E+03 -0.66138291476E+02  0.77241903830E+03  0.81262518005E+03  0.17770000000E+01 0. -1.
        -16    1    3    3    0    0  0.18466790212E+03 -0.10960914383E+03  0.78986503791E+03  0.81853721760E+03  0.00000000000E+00 0.  1.
          2    1    6    6  502    0 -0.89581824317E+02  0.19156894360E+03  0.20657744786E+03  0.29563119822E+03  0.00000000000E+00 0. -1.
         -1    1    6    6    0  502 -0.82721178218E+02  0.90855595477E+02  0.60966915067E+02  0.13716594799E+03  0.00000000000E+00 0.  1.
<mgrwt>
<rscale>  0 0.54504547E+03</rscale>
<asrwt>0</asrwt>
<pdfrwt beam="1">  1        1 0.46117113E+00 0.54504547E+03</pdfrwt>
<pdfrwt beam="2">  1       -2 0.21065002E-01 0.54504547E+03</pdfrwt>
<totfact> 0.11325603E+01</totfact>
</mgrwt>
</event>
<event>
12    3  0.1092576E-007  0.1019009E+04  0.7818608E-02  0.9287938E-01
         -2   -1    0    0    0  501 -0.00000000000E+00  0.00000000000E+00  0.59845024614E+03  0.59845024614E+03  0.00000000000E+00 0.  1.
          1   -1    0    0  501    0  0.00000000000E+00 -0.00000000000E+00 -0.27087270372E+04  0.27087270372E+04  0.00000000000E+00 0. -1.
        -24    2    1    2    0    0 -0.74076343251E+03  0.68698838620E+03 -0.15382912245E+03  0.10250186958E+04  0.79475921774E+02 0.  0.
    5000000    2    1    2    0    0  0.74076343251E+03 -0.68698838620E+03 -0.19564476686E+04  0.22821585875E+04  0.59989735196E+03 0.  0.
        -24    2    4    4    0    0  0.16345142474E+03 -0.10997403639E+03 -0.10000152462E+04  0.10223052578E+04  0.79163694921E+02 0.  0.
         24    2    4    4    0    0  0.57731200777E+03 -0.57701434982E+03 -0.95643242243E+03  0.12598533297E+04  0.78947574676E+02 0.  0.
         11    1    5    5    0    0  0.20782783564E+02  0.86736861224E+01 -0.18879809956E+03  0.19013647551E+03  0.00000000000E+00 0. -1.
        -12    1    5    5    0    0  0.14266864117E+03 -0.11864772251E+03 -0.81121714662E+03  0.83216878228E+03  0.00000000000E+00 0.  1.
         15    1    3    3    0    0 -0.56233121434E+03  0.47379501023E+03 -0.10600878428E+03  0.74292605717E+03  0.17770000000E+01 0. -1.
        -16    1    3    3    0    0 -0.17843221816E+03  0.21319337597E+03 -0.47820338176E+02  0.28209263865E+03  0.00000000000E+00 0.  1.
          2    1    6    6  502    0  0.42472720177E+02 -0.33746906164E+02 -0.37958861730E+02  0.66209220043E+02  0.00000000000E+00 0. -1.
         -1    1    6    6    0  502  0.53483928760E+03 -0.54326744365E+03 -0.91847356070E+03  0.11936441097E+04  0.00000000000E+00 0.  1.
<mgrwt>
<rscale>  0 0.10190094E+04</rscale>
<asrwt>0</asrwt>
<pdfrwt beam="1">  1        1 0.41672724E+00 0.10190094E+04</pdfrwt>
<pdfrwt beam="2">  1       -2 0.92069267E-01 0.10190094E+04</pdfrwt>
<totfact> 0.86400153E-01</totfact>
</mgrwt>
</event>
<event>
12    3  0.1092576E-007  0.4828014E+03  0.7818608E-02  0.1018368E+00
          1   -1    0    0  501    0  0.00000000000E+00  0.00000000000E+00  0.17649381774E+04  0.17649381774E+04  0.00000000000E+00 0. -1.
         -2   -1    0    0    0  501 -0.00000000000E+00 -0.00000000000E+00 -0.20930409277E+03  0.20930409277E+03  0.00000000000E+00 0.  1.
        -24    2    1    2    0    0 -0.41577217487E+03  0.21320276554E+02  0.29310228745E+03  0.51568205222E+03  0.81841141805E+02 0.  0.
    5000000    2    1    2    0    0  0.41577217487E+03 -0.21320276554E+02  0.12625317972E+04  0.14585602179E+04  0.60007525768E+03 0.  0.
        -24    2    4    4    0    0 -0.43437965423E+02 -0.55133256921E+02 -0.66851482356E+01  0.10613981556E+03  0.79337484093E+02 0.  0.
         24    2    4    4    0    0  0.45921014029E+03  0.33812980368E+02  0.12692169454E+04  0.13524204024E+04  0.78179406780E+02 0.  0.
         11    1    5    5    0    0 -0.50407897697E+02 -0.37350953269E+02  0.26297263251E+02  0.68026435412E+02  0.00000000000E+00 0. -1.
        -12    1    5    5    0    0  0.69699322749E+01 -0.17782303652E+02 -0.32982411487E+02  0.38113380151E+02  0.00000000000E+00 0.  1.
         15    1    3    3    0    0 -0.22094395389E+03  0.25216360115E+02  0.20255523940E+03  0.30080538279E+03  0.17770000000E+01 0. -1.
        -16    1    3    3    0    0 -0.19482822098E+03 -0.38960835616E+01  0.90547048046E+02  0.21487666943E+03  0.00000000000E+00 0.  1.
          2    1    6    6  502    0  0.50390902695E+02  0.28009980044E+02  0.13670092831E+03  0.14836086363E+03  0.00000000000E+00 0. -1.
         -1    1    6    6    0  502  0.40881923760E+03  0.58030003232E+01  0.11325160171E+04  0.12040595387E+04  0.00000000000E+00 0.  1.
<mgrwt>
<rscale>  0 0.48280141E+03</rscale>
<asrwt>0</asrwt>
<pdfrwt beam="1">  1        1 0.27152894E+00 0.48280141E+03</pdfrwt>
<pdfrwt beam="2">  1       -2 0.32200631E-01 0.48280141E+03</pdfrwt>
<totfact> 0.36355750E+01</totfact>
</mgrwt>
</event>
<event>
12    3  0.1092576E-007  0.2039235E+04  0.7818608E-02  0.8588493E-01
          1   -1    0    0  501    0  0.00000000000E+00  0.00000000000E+00  0.25311623179E+04  0.25311623179E+04  0.00000000000E+00 0. -1.
         -2   -1    0    0    0  501 -0.00000000000E+00 -0.00000000000E+00 -0.17491491322E+04  0.17491491322E+04  0.00000000000E+00 0.  1.
        -24    2    1    2    0    0  0.19238190789E+04 -0.56056056824E+03 -0.10505548956E+03  0.20082749313E+04  0.82604749535E+02 0.  0.
    5000000    2    1    2    0    0 -0.19238190789E+04  0.56056056824E+03  0.88706867526E+03  0.22720365188E+04  0.59995925632E+03 0.  0.
        -24    2    4    4    0    0 -0.61506442238E+03 -0.62516227997E+02  0.40074723856E+03  0.74103878434E+03  0.79546264819E+02 0.  0.
         24    2    4    4    0    0 -0.13087546565E+04  0.62307679624E+03  0.48632143670E+03  0.15309977345E+04  0.79887910375E+02 0.  0.
         13    1    5    5    0    0 -0.48086392274E+03 -0.15712972867E+02  0.30430386161E+03  0.56927835889E+03  0.00000000000E+00 0. -1.
        -14    1    5    5    0    0 -0.13420049964E+03 -0.46803255130E+02  0.96443376950E+02  0.17176042545E+03  0.00000000000E+00 0.  1.
         15    1    3    3    0    0  0.13654350465E+04 -0.36832278705E+03 -0.49304886403E+02  0.14151002337E+04  0.17770000000E+01 0. -1.
        -16    1    3    3    0    0  0.55838403236E+03 -0.19223778120E+03 -0.55750603159E+02  0.59317469759E+03  0.00000000000E+00 0.  1.
          2    1    6    6  502    0 -0.12425434409E+03  0.42688622796E+02  0.25976859029E+02  0.13392631462E+03  0.00000000000E+00 0. -1.
         -1    1    6    6    0  502 -0.11845003124E+04  0.58038817344E+03  0.46034457767E+03  0.13970714199E+04  0.00000000000E+00 0.  1.
<mgrwt>
<rscale>  0 0.20392354E+04</rscale>
<asrwt>0</asrwt>
<pdfrwt beam="1">  1        1 0.38940958E+00 0.20392354E+04</pdfrwt>
<pdfrwt beam="2">  1       -2 0.26909987E+00 0.20392354E+04</pdfrwt>
<totfact> 0.49105899E-02</totfact>
</mgrwt>
</event>
<event>
12    3  0.1092576E-007  0.8152627E+03  0.7818608E-02  0.9538184E-01
          1   -1    0    0  501    0  0.00000000000E+00  0.00000000000E+00  0.87646085255E+03  0.87646085255E+03  0.00000000000E+00 0. -1.
         -2   -1    0    0    0  501 -0.00000000000E+00 -0.00000000000E+00 -0.94027957752E+03  0.94027957752E+03  0.00000000000E+00 0.  1.
        -24    2    1    2    0    0 -0.71972907821E+03  0.35848122364E+03  0.34164997190E+02  0.80878012173E+03  0.80245277385E+02 0.  0.
    5000000    2    1    2    0    0  0.71972907821E+03 -0.35848122364E+03 -0.97983722160E+02  0.10079603083E+04  0.59988702242E+03 0.  0.
        -24    2    4    4    0    0  0.68650327388E+03 -0.35264809437E+03  0.10941147508E+03  0.78361116738E+03  0.80175852080E+02 0.  0.
         24    2    4    4    0    0  0.33225804332E+02 -0.58331292635E+01 -0.20739519724E+03  0.22434914096E+03  0.78624358447E+02 0.  0.
         11    1    5    5    0    0  0.32644860445E+03 -0.20149185977E+03  0.27445300786E+02  0.38460486923E+03  0.00000000000E+00 0. -1.
        -12    1    5    5    0    0  0.36005466943E+03 -0.15115623460E+03  0.81966174292E+02  0.39900629815E+03  0.00000000000E+00 0.  1.
         15    1    3    3    0    0 -0.51333334554E+03  0.27238375206E+03 -0.81274029725E+01  0.58118262572E+03  0.17770000000E+01 0. -1.
        -16    1    3    3    0    0 -0.20639573268E+03  0.86097471575E+02  0.42292400163E+02  0.22759749601E+03  0.00000000000E+00 0.  1.
          2    1    6    6  502    0 -0.42481675577E+01 -0.12837552734E+02 -0.17135331291E+03  0.17188603065E+03  0.00000000000E+00 0. -1.
         -1    1    6    6    0  502  0.37473971890E+02  0.70044234707E+01 -0.36041884331E+02  0.52463110311E+02  0.00000000000E+00 0.  1.
<mgrwt>
<rscale>  0 0.81526273E+03</rscale>
<asrwt>0</asrwt>
<pdfrwt beam="1">  1        1 0.13484013E+00 0.81526273E+03</pdfrwt>
<pdfrwt beam="2">  1       -2 0.14465840E+00 0.81526273E+03</pdfrwt>
<totfact> 0.55854470E+00</totfact>
</mgrwt>
</event>
<event>
12    3  0.1092576E-007  0.4956919E+03  0.7818608E-02  0.1014910E+00
         -4   -1    0    0    0  501 -0.00000000000E+00  0.00000000000E+00  0.37572835907E+03  0.37572835907E+03  0.00000000000E+00 0.  1.
          3   -1    0    0  501    0  0.00000000000E+00 -0.00000000000E+00 -0.75077936664E+03  0.75077936664E+03  0.00000000000E+00 0. -1.
        -24    2    1    2    0    0  0.34840120832E+03  0.61943063472E+02 -0.88288745942E+02  0.37324112584E+03  0.79332781893E+02 0.  0.
    5000000    2    1    2    0    0 -0.34840120832E+03 -0.61943063472E+02 -0.28676226162E+03  0.75326659987E+03  0.59996469122E+03 0.  0.
        -24    2    4    4    0    0 -0.47238247095E+03  0.29879515881E+02 -0.32267039019E+03  0.57842595170E+03  0.80139981019E+02 0.  0.
         24    2    4    4    0    0  0.12398126263E+03 -0.91822579352E+02  0.35908128569E+02  0.17484064817E+03  0.74007560372E+02 0.  0.
         11    1    5    5    0    0 -0.45160358497E+02 -0.16864925469E+02 -0.49996491783E+02  0.69451658593E+02  0.00000000000E+00 0. -1.
        -12    1    5    5    0    0 -0.42722211246E+03  0.46744441349E+02 -0.27267389841E+03  0.50897429311E+03  0.00000000000E+00 0.  1.
         15    1    3    3    0    0  0.16350860691E+03  0.11632910304E+02 -0.77485360850E+02  0.18132161484E+03  0.17770000000E+01 0. -1.
        -16    1    3    3    0    0  0.18489260142E+03  0.50310153168E+02 -0.10803385092E+02  0.19191951099E+03  0.00000000000E+00 0.  1.
          2    1    6    6  502    0  0.30883940736E+01  0.29307062053E+01 -0.12969456308E+02  0.13650421742E+02  0.00000000000E+00 0. -1.
         -1    1    6    6    0  502  0.12089286856E+03 -0.94753285558E+02  0.48877584876E+02  0.16119022643E+03  0.00000000000E+00 0.  1.
<mgrwt>
<rscale>  0 0.49569190E+03</rscale>
<asrwt>0</asrwt>
<pdfrwt beam="1">  1        3 0.11550452E+00 0.49569190E+03</pdfrwt>
<pdfrwt beam="2">  1       -4 0.57804363E-01 0.49569190E+03</pdfrwt>
<totfact> 0.39866169E+00</totfact>
</mgrwt>
</event>
<event>
12    3  0.1092576E-007  0.2920398E+03  0.7818608E-02  0.1089289E+00
          1   -1    0    0  501    0  0.00000000000E+00  0.00000000000E+00  0.48288393944E+03  0.48288393944E+03  0.00000000000E+00 0. -1.
         -2   -1    0    0    0  501 -0.00000000000E+00 -0.00000000000E+00 -0.51109425562E+03  0.51109425562E+03  0.00000000000E+00 0.  1.
        -24    2    1    2    0    0 -0.25809885580E+03  0.13691240243E+02 -0.17777906555E+03  0.32337090076E+03  0.78491234459E+02 0.  0.
    5000000    2    1    2    0    0  0.25809885580E+03 -0.13691240243E+02  0.14956874937E+03  0.67060729429E+03  0.60045054996E+03 0.  0.
        -24    2    4    4    0    0  0.25776359469E+02  0.63642808974E+02 -0.20899025468E+03  0.22918130887E+03  0.64283107749E+02 0.  0.
         24    2    4    4    0    0  0.23232249633E+03 -0.77334049217E+02  0.35855900406E+03  0.44142598542E+03  0.79611831714E+02 0.  0.
         13    1    5    5    0    0  0.20209463643E+02  0.43954227792E+02 -0.52623708565E+02  0.71481824716E+02  0.00000000000E+00 0. -1.
        -14    1    5    5    0    0  0.55668958261E+01  0.19688581181E+02 -0.15636654612E+03  0.15769948416E+03  0.00000000000E+00 0.  1.
         15    1    3    3    0    0 -0.94399930060E+02  0.92552699342E+01 -0.22072950783E+02  0.97403181171E+02  0.17770000000E+01 0. -1.
        -16    1    3    3    0    0 -0.16369892574E+03  0.44359703092E+01 -0.15570611477E+03  0.22596771959E+03  0.00000000000E+00 0.  1.
          2    1    6    6  502    0  0.47765502462E+02 -0.51526837314E+02  0.82628285443E+02  0.10846193685E+03  0.00000000000E+00 0. -1.
         -1    1    6    6    0  502  0.18455699387E+03 -0.25807211903E+02  0.27593071861E+03  0.33296404858E+03  0.00000000000E+00 0.  1.
<mgrwt>
<rscale>  0 0.29203979E+03</rscale>
<asrwt>0</asrwt>
<pdfrwt beam="1">  1        1 0.74289838E-01 0.29203979E+03</pdfrwt>
<pdfrwt beam="2">  1       -2 0.78629885E-01 0.29203979E+03</pdfrwt>
<totfact> 0.62094620E+01</totfact>
</mgrwt>
</event>
<event>
12    3  0.1092576E-007  0.4298649E+03  0.7818608E-02  0.1033903E+00
          1   -1    0    0  501    0  0.00000000000E+00  0.00000000000E+00  0.17151376495E+04  0.17151376495E+04  0.00000000000E+00 0. -1.
         -2   -1    0    0    0  501 -0.00000000000E+00 -0.00000000000E+00 -0.11571140835E+03  0.11571140835E+03  0.00000000000E+00 0.  1.
        -24    2    1    2    0    0  0.19493175159E+02  0.23180581095E+03  0.39963906779E+03  0.46932589108E+03  0.80258891509E+02 0.  0.
    5000000    2    1    2    0    0 -0.19493175159E+02 -0.23180581095E+03  0.11997871734E+04  0.13615231668E+04  0.60011845034E+03 0.  0.
        -24    2    4    4    0    0 -0.12439212684E+03 -0.40089102515E+03  0.77603124686E+03  0.88575232027E+03  0.78394269578E+02 0.  0.
         24    2    4    4    0    0  0.10489895168E+03  0.16908521420E+03  0.42375592653E+03  0.47577084652E+03  0.84824603801E+02 0.  0.
         13    1    5    5    0    0 -0.79634568506E+02 -0.13578505327E+03  0.31195175453E+03  0.34941829138E+03  0.00000000000E+00 0. -1.
        -14    1    5    5    0    0 -0.44757558335E+02 -0.26510597188E+03  0.46407949233E+03  0.53633402890E+03  0.00000000000E+00 0.  1.
         15    1    3    3    0    0 -0.29771528220E+01  0.76621463669E+02  0.20812822991E+03  0.22181124847E+03  0.17770000000E+01 0. -1.
        -16    1    3    3    0    0  0.22470327981E+02  0.15518434728E+03  0.19151083788E+03  0.24751464261E+03  0.00000000000E+00 0.  1.
          4    1    6    6  502    0  0.93351167787E+02  0.13636276354E+03  0.40243482342E+03  0.43504371149E+03  0.00000000000E+00 0. -1.
         -1    1    6    6    0  502  0.11547783896E+02  0.32722450662E+02  0.21321103107E+02  0.40727135033E+02  0.00000000000E+00 0.  1.
<mgrwt>
<rscale>  0 0.42986492E+03</rscale>
<asrwt>0</asrwt>
<pdfrwt beam="1">  1        1 0.26386731E+00 0.42986492E+03</pdfrwt>
<pdfrwt beam="2">  1       -2 0.17801756E-01 0.42986492E+03</pdfrwt>
<totfact> 0.11371108E+02</totfact>
</mgrwt>
</event>
<event>
12    3  0.1092576E-007  0.8395403E+03  0.7818608E-02  0.9504484E-01
         -2   -1    0    0    0  501 -0.00000000000E+00  0.00000000000E+00  0.51739990491E+03  0.51739990491E+03  0.00000000000E+00 0.  1.
          1   -1    0    0  501    0  0.00000000000E+00 -0.00000000000E+00 -0.26872103099E+04  0.26872103099E+04  0.00000000000E+00 0. -1.
        -24    2    1    2    0    0  0.53988246335E+03  0.51390391331E+03  0.85979475583E+02  0.75423108799E+03  0.76822897161E+02 0.  0.
    5000000    2    1    2    0    0 -0.53988246335E+03 -0.51390391331E+03 -0.22557898805E+04  0.24503791268E+04  0.60016628823E+03 0.  0.
        -24    2    4    4    0    0  0.11615561153E+03 -0.11642618632E+03 -0.38822821435E+03  0.42979829700E+03  0.83416105942E+02 0.  0.
         24    2    4    4    0    0 -0.65603807488E+03 -0.39747772699E+03 -0.18675616662E+04  0.20205808298E+04  0.81153025662E+02 0.  0.
         13    1    5    5    0    0  0.21284275648E+00 -0.18236570358E+01  0.43474985136E+01  0.47192976542E+01  0.00000000000E+00 0. -1.
        -14    1    5    5    0    0  0.11594276878E+03 -0.11460252928E+03 -0.39257571287E+03  0.42507899934E+03  0.00000000000E+00 0.  1.
         15    1    3    3    0    0  0.10217588954E+03  0.12305016476E+03 -0.69480879712E+01  0.16010212086E+03  0.17770000000E+01 0. -1.
        -16    1    3    3    0    0  0.43770657381E+03  0.39085374855E+03  0.92927563554E+02  0.59412896712E+03  0.00000000000E+00 0.  1.
          2    1    6    6  502    0 -0.56207615966E+03 -0.35047668860E+03 -0.15350981253E+04  0.16719120111E+04  0.00000000000E+00 0. -1.
         -1    1    6    6    0  502 -0.93961915221E+02 -0.47001038388E+02 -0.33246354085E+03  0.34866881868E+03  0.00000000000E+00 0.  1.
<mgrwt>
<rscale>  0 0.83954033E+03</rscale>
<asrwt>0</asrwt>
<pdfrwt beam="1">  1        1 0.41341696E+00 0.83954033E+03</pdfrwt>
<pdfrwt beam="2">  1       -2 0.79599987E-01 0.83954033E+03</pdfrwt>
<totfact> 0.12848655E+00</totfact>
</mgrwt>
</event>
<event>
12    3  0.1092576E-007  0.1281605E+04  0.7818608E-02  0.9044281E-01
         -2   -1    0    0    0  501 -0.00000000000E+00  0.00000000000E+00  0.49115448711E+03  0.49115448711E+03  0.00000000000E+00 0.  1.
          1   -1    0    0  501    0  0.00000000000E+00 -0.00000000000E+00 -0.35039540573E+04  0.35039540573E+04  0.00000000000E+00 0. -1.
        -24    2    1    2    0    0  0.11619676889E+04 -0.35326818949E+03 -0.10340565099E+04  0.15971131491E+04  0.80809785166E+02 0.  0.
    5000000    2    1    2    0    0 -0.11619676889E+04  0.35326818949E+03 -0.19787430602E+04  0.23979953953E+04  0.59999207811E+03 0.  0.
        -24    2    4    4    0    0 -0.39489971566E+03 -0.15207319995E+03 -0.67913374612E+03  0.80447264079E+03  0.82955054693E+02 0.  0.
         24    2    4    4    0    0 -0.76706797325E+03  0.50534138944E+03 -0.12996093141E+04  0.15935227545E+04  0.81038289749E+02 0.  0.
         11    1    5    5    0    0 -0.23868087428E+03 -0.73397898830E+02 -0.32852344162E+03  0.41265416875E+03  0.00000000000E+00 0. -1.
        -12    1    5    5    0    0 -0.15621884138E+03 -0.78675301116E+02 -0.35061030450E+03  0.39181847204E+03  0.00000000000E+00 0.  1.
         15    1    3    3    0    0  0.10263927202E+04 -0.33855475218E+03 -0.92001933114E+03  0.14193449418E+04  0.17770000000E+01 0. -1.
        -16    1    3    3    0    0  0.13557496871E+03 -0.14713437314E+02 -0.11403717881E+03  0.17776820730E+03  0.00000000000E+00 0.  1.
          2    1    6    6  502    0 -0.34666422687E+03  0.18541196960E+03 -0.52377985654E+03  0.65490382712E+03  0.00000000000E+00 0. -1.
         -1    1    6    6    0  502 -0.42040374639E+03  0.31992941984E+03 -0.77582945754E+03  0.93861892738E+03  0.00000000000E+00 0.  1.
<mgrwt>
<rscale>  0 0.12816049E+04</rscale>
<asrwt>0</asrwt>
<pdfrwt beam="1">  1        1 0.53906986E+00 0.12816049E+04</pdfrwt>
<pdfrwt beam="2">  1       -2 0.75562228E-01 0.12816049E+04</pdfrwt>
<totfact> 0.33959809E-01</totfact>
</mgrwt>
</event>
<event>
12    3  0.1092576E-007  0.6953798E+03  0.7818608E-02  0.9725166E-01
         -2   -1    0    0    0  501 -0.00000000000E+00  0.00000000000E+00  0.14479304592E+03  0.14479304592E+03  0.00000000000E+00 0.  1.
          1   -1    0    0  501    0  0.00000000000E+00 -0.00000000000E+00 -0.42456452470E+04  0.42456452470E+04  0.00000000000E+00 0. -1.
        -24    2    1    2    0    0  0.42161177851E+03  0.41923444937E+03 -0.91173073019E+03  0.10913622899E+04  0.79402192532E+02 0.  0.
    5000000    2    1    2    0    0 -0.42161177851E+03 -0.41923444937E+03 -0.31891214709E+04  0.32990760030E+04  0.59991057848E+03 0.  0.
        -24    2    4    4    0    0 -0.49695824793E+03 -0.48458835750E+03 -0.29000950265E+04  0.29830674420E+04  0.79666959452E+02 0.  0.
         24    2    4    4    0    0  0.75346469417E+02  0.65353908127E+02 -0.28902644437E+03  0.31600856098E+03  0.79855502646E+02 0.  0.
         13    1    5    5    0    0 -0.19996745723E+03 -0.19538434063E+03 -0.13386311699E+04  0.13675143267E+04  0.00000000000E+00 0. -1.
        -14    1    5    5    0    0 -0.29699079070E+03 -0.28920401687E+03 -0.15614638566E+04  0.16155531154E+04  0.00000000000E+00 0.  1.
         15    1    3    3    0    0  0.17963780835E+03  0.21459168684E+03 -0.37273221258E+03  0.46610277222E+03  0.17770000000E+01 0. -1.
        -16    1    3    3    0    0  0.24197397016E+03  0.20464276253E+03 -0.53899851761E+03  0.62525951770E+03  0.00000000000E+00 0.  1.
          4    1    6    6  502    0  0.34087603214E+02  0.26144949986E+02 -0.23012305106E+03  0.23409857268E+03  0.00000000000E+00 0. -1.
         -3    1    6    6    0  502  0.41258866202E+02  0.39208958142E+02 -0.58903393316E+02  0.81909988298E+02  0.00000000000E+00 0.  1.
<mgrwt>
<rscale>  0 0.69537978E+03</rscale>
<asrwt>0</asrwt>
<pdfrwt beam="1">  1        1 0.65317623E+00 0.69537978E+03</pdfrwt>
<pdfrwt beam="2">  1       -2 0.22275852E-01 0.69537978E+03</pdfrwt>
<totfact> 0.10008014E+00</totfact>
</mgrwt>
</event>
<event>
12    3  0.1092576E-007  0.7670513E+03  0.7818608E-02  0.9608973E-01
          1   -1    0    0  501    0  0.00000000000E+00  0.00000000000E+00  0.31408479355E+04  0.31408479355E+04  0.00000000000E+00 0. -1.
         -2   -1    0    0    0  501 -0.00000000000E+00 -0.00000000000E+00 -0.20053942679E+03  0.20053942679E+03  0.00000000000E+00 0.  1.
        -24    2    1    2    0    0 -0.58341237302E+03 -0.33738846051E+03  0.11177640683E+04  0.13077057953E+04  0.80603749554E+02 0.  0.
    5000000    2    1    2    0    0  0.58341237302E+03  0.33738846051E+03  0.18225444404E+04  0.20336815670E+04  0.59999292356E+03 0.  0.
        -24    2    4    4    0    0  0.35411656715E+03  0.46870975972E+03  0.14796446604E+04  0.15934215986E+04  0.67503242515E+02 0.  0.
         24    2    4    4    0    0  0.22929580586E+03 -0.13132129921E+03  0.34289978003E+03  0.44025996843E+03  0.80166891181E+02 0.  0.
         13    1    5    5    0    0  0.22343866630E+03  0.24541721390E+03  0.79304865494E+03  0.85969797928E+03  0.00000000000E+00 0. -1.
        -14    1    5    5    0    0  0.13067790085E+03  0.22329254582E+03  0.68659600546E+03  0.73372361929E+03  0.00000000000E+00 0.  1.
         15    1    3    3    0    0 -0.36324648522E+03 -0.25352446657E+03  0.74376812317E+03  0.86568865243E+03  0.17770000000E+01 0. -1.
        -16    1    3    3    0    0 -0.22016588780E+03 -0.83863993936E+02  0.37399594510E+03  0.44201714286E+03  0.00000000000E+00 0.  1.
          2    1    6    6  502    0  0.79088747656E+02 -0.35067857510E+02  0.58153305917E+02  0.10424294521E+03  0.00000000000E+00 0. -1.
         -1    1    6    6    0  502  0.15020705821E+03 -0.96253441699E+02  0.28474647411E+03  0.33601702322E+03  0.00000000000E+00 0.  1.
<mgrwt>
<rscale>  0 0.76705130E+03</rscale>
<asrwt>0</asrwt>
<pdfrwt beam="1">  1        1 0.48320734E+00 0.76705130E+03</pdfrwt>
<pdfrwt beam="2">  1       -2 0.30852222E-01 0.76705130E+03</pdfrwt>
<totfact> 0.42861243E+00</totfact>
</mgrwt>
</event>
<event>
12    3  0.1224908E-007  0.8727189E+03  0.7818608E-02  0.9460342E-01
         -2   -1    0    0    0  501 -0.00000000000E+00  0.00000000000E+00  0.74332736179E+03  0.74332736179E+03  0.00000000000E+00 0.  1.
          1   -1    0    0  501    0  0.00000000000E+00 -0.00000000000E+00 -0.18490671906E+04  0.18490671906E+04  0.00000000000E+00 0. -1.
        -24    2    1    2    0    0 -0.32439738339E+03 -0.73026293264E+03 -0.13436312636E+04  0.15652950318E+04  0.79283988140E+02 0.  0.
    5000000    2    1    2    0    0  0.32439738339E+03  0.73026293264E+03  0.23789143478E+03  0.10270995207E+04  0.59985287983E+03 0.  0.
        -24    2    4    4    0    0  0.43697550235E+03  0.46207337718E+03  0.31733299846E+03  0.71506555002E+03  0.78480018951E+02 0.  0.
         24    2    4    4    0    0 -0.11257811896E+03  0.26818955547E+03 -0.79441563676E+02  0.31203397063E+03  0.80341559969E+02 0.  0.
         13    1    5    5    0    0  0.19872562195E+03  0.15444677615E+03  0.12675271359E+03  0.28180122407E+03  0.00000000000E+00 0. -1.
        -14    1    5    5    0    0  0.23824988040E+03  0.30762660102E+03  0.19058028486E+03  0.43326432595E+03  0.00000000000E+00 0.  1.
         15    1    3    3    0    0 -0.18317326417E+03 -0.50319020772E+03 -0.88479323303E+03  0.10342219553E+04  0.17770000000E+01 0. -1.
        -16    1    3    3    0    0 -0.14122411922E+03 -0.22707272492E+03 -0.45883803057E+03  0.53107307647E+03  0.00000000000E+00 0.  1.
          4    1    6    6  502    0 -0.94782655488E+02  0.12204343086E+03 -0.40843678929E+02  0.15983290308E+03  0.00000000000E+00 0. -1.
         -3    1    6    6    0  502 -0.17795463470E+02  0.14614612460E+03 -0.38597884746E+02  0.15220106755E+03  0.00000000000E+00 0.  1.
<mgrwt>
<rscale>  0 0.87271895E+03</rscale>
<asrwt>0</asrwt>
<pdfrwt beam="1">  1        1 0.28447187E+00 0.87271895E+03</pdfrwt>
<pdfrwt beam="2">  1       -2 0.11435806E+00 0.87271895E+03</pdfrwt>
<totfact> 0.20205907E+00</totfact>
</mgrwt>
</event>
<event>
12    3  0.1092576E-007  0.1013943E+04  0.7818608E-02  0.9293384E-01
          1   -1    0    0  501    0  0.00000000000E+00  0.00000000000E+00  0.71649665494E+03  0.71649665494E+03  0.00000000000E+00 0. -1.
         -2   -1    0    0    0  501 -0.00000000000E+00 -0.00000000000E+00 -0.20301384428E+04  0.20301384428E+04  0.00000000000E+00 0.  1.
        -24    2    1    2    0    0  0.92616315203E+03  0.21844767883E+03 -0.13104022267E+04  0.16216307464E+04  0.83873174223E+02 0.  0.
    5000000    2    1    2    0    0 -0.92616315203E+03 -0.21844767883E+03 -0.32395611581E+01  0.11250043514E+04  0.60010559341E+03 0.  0.
        -24    2    4    4    0    0 -0.71978811686E+03  0.58443897183E+02 -0.15381293881E+03  0.74256818532E+03  0.78983969260E+02 0.  0.
         24    2    4    4    0    0 -0.20637503516E+03 -0.27689157602E+03  0.15057337765E+03  0.38243616604E+03  0.65768374058E+02 0.  0.
         13    1    5    5    0    0 -0.23989406153E+03  0.56930426349E+02 -0.50339976063E+02  0.25164329395E+03  0.00000000000E+00 0. -1.
        -14    1    5    5    0    0 -0.47989405534E+03  0.15134708341E+01 -0.10347296275E+03  0.49092489136E+03  0.00000000000E+00 0.  1.
         15    1    3    3    0    0  0.43818617919E+03  0.60602028434E+02 -0.61364856456E+03  0.75647039070E+03  0.17770000000E+01 0. -1.
        -16    1    3    3    0    0  0.48797697283E+03  0.15784565040E+03 -0.69675366217E+03  0.86516035572E+03  0.00000000000E+00 0.  1.
          4    1    6    6  502    0 -0.37569388497E+02 -0.67373427944E+02  0.62645220326E+02  0.99373343381E+02  0.00000000000E+00 0. -1.
         -3    1    6    6    0  502 -0.16880564667E+03 -0.20951814807E+03  0.87928157327E+02  0.28306282265E+03  0.00000000000E+00 0.  1.
<mgrwt>
<rscale>  0 0.10139426E+04</rscale>
<asrwt>0</asrwt>
<pdfrwt beam="1">  1        1 0.11023025E+00 0.10139426E+04</pdfrwt>
<pdfrwt beam="2">  1       -2 0.31232899E+00 0.10139426E+04</pdfrwt>
<totfact> 0.62047958E-01</totfact>
</mgrwt>
</event>
<event>
12    3  0.1092576E-007  0.1421236E+04  0.7818608E-02  0.8938588E-01
          1   -1    0    0  501    0  0.00000000000E+00  0.00000000000E+00  0.31830484200E+04  0.31830484200E+04  0.00000000000E+00 0. -1.
         -2   -1    0    0    0  501 -0.00000000000E+00 -0.00000000000E+00 -0.82033277381E+03  0.82033277381E+03  0.00000000000E+00 0.  1.
        -24    2    1    2    0    0  0.13942224336E+04  0.12183515396E+03  0.29013598408E+03  0.14315503430E+04  0.80358548302E+02 0.  0.
    5000000    2    1    2    0    0 -0.13942224336E+04 -0.12183515396E+03  0.20725796622E+04  0.25718308509E+04  0.60002289157E+03 0.  0.
        -24    2    4    4    0    0 -0.13539933884E+04 -0.47098556095E+02  0.20392588807E+04  0.24495442889E+04  0.78575253385E+02 0.  0.
         24    2    4    4    0    0 -0.40229045123E+02 -0.74736597868E+02  0.33320781409E+02  0.12228656199E+03  0.81484928900E+02 0.  0.
         13    1    5    5    0    0 -0.11709365163E+04 -0.26742376155E+02  0.18019173538E+04  0.21491192684E+04  0.00000000000E+00 0. -1.
        -14    1    5    5    0    0 -0.18305687220E+03 -0.20356179939E+02  0.23734152690E+03  0.30042502045E+03  0.00000000000E+00 0.  1.
         15    1    3    3    0    0  0.48578651535E+03  0.79971673051E+02  0.93256289812E+02  0.50108272800E+03  0.17770000000E+01 0. -1.
        -16    1    3    3    0    0  0.90843591822E+03  0.41863480911E+02  0.19687969427E+03  0.93046761500E+03  0.00000000000E+00 0.  1.
          2    1    6    6  502    0 -0.11605183381E+02 -0.30441773160E+02  0.56072324935E+02  0.64849729823E+02  0.00000000000E+00 0. -1.
         -1    1    6    6    0  502 -0.28623861741E+02 -0.44294824708E+02 -0.22751543526E+02  0.57436832170E+02  0.00000000000E+00 0.  1.
<mgrwt>
<rscale>  0 0.14212364E+04</rscale>
<asrwt>0</asrwt>
<pdfrwt beam="1">  1        1 0.48969975E+00 0.14212364E+04</pdfrwt>
<pdfrwt beam="2">  1       -2 0.12620504E+00 0.14212364E+04</pdfrwt>
<totfact> 0.17307344E-01</totfact>
</mgrwt>
</event>
<event>
12    3  0.1092576E-007  0.9104427E+03  0.7818608E-02  0.9412621E-01
         -2   -1    0    0    0  501 -0.00000000000E+00  0.00000000000E+00  0.35566641909E+03  0.35566641909E+03  0.00000000000E+00 0.  1.
          1   -1    0    0  501    0  0.00000000000E+00 -0.00000000000E+00 -0.33791599689E+04  0.33791599689E+04  0.00000000000E+00 0. -1.
        -24    2    1    2    0    0 -0.72633267111E+01  0.81796418273E+03 -0.24170093420E+04  0.25530012053E+04  0.82236456675E+02 0.  0.
    5000000    2    1    2    0    0  0.72633267111E+01 -0.81796418273E+03 -0.60648420781E+03  0.11818251827E+04  0.59980789254E+03 0.  0.
        -24    2    4    4    0    0 -0.27294953407E+03 -0.32641641089E+03 -0.18458186741E+03  0.47151589810E+03  0.84897908904E+02 0.  0.
         24    2    4    4    0    0  0.28021286078E+03 -0.49154777184E+03 -0.42190234040E+03  0.71030928458E+03  0.79995222223E+02 0.  0.
         13    1    5    5    0    0 -0.14518119953E+03 -0.12170361151E+03 -0.53284017166E+02  0.19679567129E+03  0.00000000000E+00 0. -1.
        -14    1    5    5    0    0 -0.12776833454E+03 -0.20471279938E+03 -0.13129785025E+03  0.27472022681E+03  0.00000000000E+00 0.  1.
         15    1    3    3    0    0  0.28601467352E+02  0.48151008981E+03 -0.13465773653E+04  0.14303649076E+04  0.17770000000E+01 0. -1.
        -16    1    3    3    0    0 -0.35864794063E+02  0.33645409292E+03 -0.10704319767E+04  0.11226362977E+04  0.00000000000E+00 0.  1.
          4    1    6    6  502    0  0.11963770277E+03 -0.14898572043E+03 -0.17032581716E+03  0.25597032798E+03  0.00000000000E+00 0. -1.
         -3    1    6    6    0  502  0.16057515801E+03 -0.34256205141E+03 -0.25157652324E+03  0.45433895660E+03  0.00000000000E+00 0.  1.
<mgrwt>
<rscale>  0 0.91044274E+03</rscale>
<asrwt>0</asrwt>
<pdfrwt beam="1">  1        1 0.51987074E+00 0.91044274E+03</pdfrwt>
<pdfrwt beam="2">  1       -2 0.54717913E-01 0.91044274E+03</pdfrwt>
<totfact> 0.89967035E-01</totfact>
</mgrwt>
</event>
<event>
12    3  0.1092576E-007  0.1538511E+04  0.7818608E-02  0.8859240E-01
         -2   -1    0    0    0  501 -0.00000000000E+00  0.00000000000E+00  0.21982409761E+04  0.21982409761E+04  0.00000000000E+00 0.  1.
          1   -1    0    0  501    0  0.00000000000E+00 -0.00000000000E+00 -0.25806936982E+04  0.25806936982E+04  0.00000000000E+00 0. -1.
        -24    2    1    2    0    0 -0.14921674802E+04 -0.34763621665E+03  0.15905230385E+04  0.22098756164E+04  0.79824657110E+02 0.  0.
    5000000    2    1    2    0    0  0.14921674802E+04  0.34763621665E+03 -0.19729757606E+04  0.25690590578E+04  0.60001363521E+03 0.  0.
        -24    2    4    4    0    0  0.13745909141E+04  0.32681593754E+03 -0.19704369175E+04  0.24259079818E+04  0.78096427023E+02 0.  0.
         24    2    4    4    0    0  0.11757656613E+03  0.20820279103E+02 -0.25388430595E+01  0.14315107603E+03  0.78918007578E+02 0.  0.
         11    1    5    5    0    0  0.10313797469E+04  0.23207147662E+03 -0.14188717090E+04  0.17694061939E+04  0.00000000000E+00 0. -1.
        -12    1    5    5    0    0  0.34321116726E+03  0.94744460925E+02 -0.55156520850E+03  0.65650178784E+03  0.00000000000E+00 0.  1.
         15    1    3    3    0    0 -0.64288821524E+03 -0.11231240835E+03  0.69834103300E+03  0.95582565903E+03  0.17770000000E+01 0. -1.
        -16    1    3    3    0    0 -0.84927926501E+03 -0.23532380830E+03  0.89218200547E+03  0.12540499574E+04  0.00000000000E+00 0.  1.
          2    1    6    6  502    0  0.10929446138E+03  0.33889440277E+02  0.19647382986E+02  0.11610251121E+03  0.00000000000E+00 0. -1.
         -1    1    6    6    0  502  0.82821047516E+01 -0.13069161175E+02 -0.22186226046E+02  0.27048564824E+02  0.00000000000E+00 0.  1.
<mgrwt>
<rscale>  0 0.15385109E+04</rscale>
<asrwt>0</asrwt>
<pdfrwt beam="1">  1        1 0.39702980E+00 0.15385109E+04</pdfrwt>
<pdfrwt beam="2">  1       -2 0.33819092E+00 0.15385109E+04</pdfrwt>
<totfact> 0.18038257E-02</totfact>
</mgrwt>
</event>
<event>
12    3  0.1092576E-007  0.6225497E+03  0.7818608E-02  0.9859696E-01
         -2   -1    0    0    0  501 -0.00000000000E+00  0.00000000000E+00  0.97233735157E+03  0.97233735157E+03  0.00000000000E+00 0.  1.
          1   -1    0    0  501    0  0.00000000000E+00 -0.00000000000E+00 -0.70005070228E+03  0.70005070228E+03  0.00000000000E+00 0. -1.
        -24    2    1    2    0    0 -0.22895725513E+03 -0.55009270877E+03 -0.27923489603E+03  0.66282648437E+03  0.79645516564E+02 0.  0.
    5000000    2    1    2    0    0  0.22895725513E+03  0.55009270877E+03  0.55152154532E+03  0.10095615695E+04  0.60001261210E+03 0.  0.
        -24    2    4    4    0    0  0.20018957291E+03  0.54469630816E+03  0.15788118162E+03  0.60660969327E+03  0.79239631702E+02 0.  0.
         24    2    4    4    0    0  0.28767682222E+02  0.53964006075E+01  0.39364036370E+03  0.40295187620E+03  0.80998629100E+02 0.  0.
         11    1    5    5    0    0  0.18910285718E+03  0.42670248515E+03  0.11614737580E+03  0.48096269537E+03  0.00000000000E+00 0. -1.
        -12    1    5    5    0    0  0.11086715730E+02  0.11799382301E+03  0.41733805817E+02  0.12564699790E+03  0.00000000000E+00 0.  1.
         15    1    3    3    0    0 -0.97307031672E+02 -0.33002475912E+03 -0.14504214167E+03  0.37339708172E+03  0.17770000000E+01 0. -1.
        -16    1    3    3    0    0 -0.13165022346E+03 -0.22006794965E+03 -0.13419275437E+03  0.28942940266E+03  0.00000000000E+00 0.  1.
          4    1    6    6  502    0  0.87804103099E+01  0.27896841306E+02  0.49471360776E+02  0.57469512762E+02  0.00000000000E+00 0. -1.
         -3    1    6    6    0  502  0.19987271912E+02 -0.22500440699E+02  0.34416900293E+03  0.34548236344E+03  0.00000000000E+00 0.  1.
<mgrwt>
<rscale>  0 0.62254974E+03</rscale>
<asrwt>0</asrwt>
<pdfrwt beam="1">  1        1 0.10770011E+00 0.62254974E+03</pdfrwt>
<pdfrwt beam="2">  1       -2 0.14959036E+00 0.62254974E+03</pdfrwt>
<totfact> 0.74785985E+00</totfact>
</mgrwt>
</event>
<event>
12    3  0.1092576E-007  0.6534851E+03  0.7818608E-02  0.9800262E-01
          1   -1    0    0  501    0  0.00000000000E+00  0.00000000000E+00  0.26822947191E+04  0.26822947191E+04  0.00000000000E+00 0. -1.
         -2   -1    0    0    0  501 -0.00000000000E+00 -0.00000000000E+00 -0.23852496514E+03  0.23852496514E+03  0.00000000000E+00 0.  1.
        -24    2    1    2    0    0 -0.43528999584E+03  0.32945050274E+03  0.29846364448E+03  0.62728011769E+03  0.79904848032E+02 0.  0.
    5000000    2    1    2    0    0  0.43528999584E+03 -0.32945050274E+03  0.21453061095E+04  0.22935395666E+04  0.59997535424E+03 0.  0.
        -24    2    4    4    0    0  0.55285603241E+03 -0.25600899213E+03  0.19306456020E+04  0.20260136524E+04  0.78412257832E+02 0.  0.
         24    2    4    4    0    0 -0.11756603657E+03 -0.73441510613E+02  0.21466050745E+03  0.26752591421E+03  0.79218387252E+02 0.  0.
         11    1    5    5    0    0  0.30097706449E+03 -0.18191387908E+03  0.10930390956E+04  0.11482222421E+04  0.00000000000E+00 0. -1.
        -12    1    5    5    0    0  0.25187896792E+03 -0.74095113047E+02  0.83760650649E+03  0.87779141029E+03  0.00000000000E+00 0.  1.
         15    1    3    3    0    0 -0.11077229665E+03  0.12276828269E+03  0.68075529197E+02  0.17882949517E+03  0.17770000000E+01 0. -1.
        -16    1    3    3    0    0 -0.32451769919E+03  0.20668222006E+03  0.23038811528E+03  0.44845062252E+03  0.00000000000E+00 0.  1.
          2    1    6    6  502    0 -0.43278425491E+02 -0.46704828316E+02  0.15799520605E+03  0.17034332460E+03  0.00000000000E+00 0. -1.
         -1    1    6    6    0  502 -0.74287611080E+02 -0.26736682297E+02  0.56665301397E+02  0.97182589607E+02  0.00000000000E+00 0.  1.
<mgrwt>
<rscale>  0 0.65348506E+03</rscale>
<asrwt>0</asrwt>
<pdfrwt beam="1">  1        1 0.41266071E+00 0.65348506E+03</pdfrwt>
<pdfrwt beam="2">  1       -2 0.36696150E-01 0.65348506E+03</pdfrwt>
<totfact> 0.66708700E+00</totfact>
</mgrwt>
</event>
<event>
12    3  0.1092576E-007  0.1409378E+04  0.7818608E-02  0.8947058E-01
          1   -1    0    0  501    0  0.00000000000E+00  0.00000000000E+00  0.17967552885E+04  0.17967552885E+04  0.00000000000E+00 0. -1.
         -2   -1    0    0    0  501 -0.00000000000E+00 -0.00000000000E+00 -0.12287992049E+04  0.12287992049E+04  0.00000000000E+00 0.  1.
        -24    2    1    2    0    0  0.20812269541E+02 -0.14027944833E+04  0.52207876663E+03  0.14990454111E+04  0.79406503925E+02 0.  0.
    5000000    2    1    2    0    0 -0.20812269541E+02  0.14027944833E+04  0.45877316969E+02  0.15265090824E+04  0.59988310303E+03 0.  0.
        -24    2    4    4    0    0 -0.16601233862E+02  0.11789798998E+04  0.25608934912E+03  0.12093052926E+04  0.81045239687E+02 0.  0.
         24    2    4    4    0    0 -0.42110356794E+01  0.22381458354E+03 -0.21021203215E+03  0.31720378977E+03  0.79488647998E+02 0.  0.
         13    1    5    5    0    0 -0.36842480805E+02  0.10894939384E+04  0.23786305326E+03  0.11157657650E+04  0.00000000000E+00 0. -1.
        -14    1    5    5    0    0  0.20241246943E+02  0.89485961331E+02  0.18226295859E+02  0.93539527548E+02  0.00000000000E+00 0.  1.
         15    1    3    3    0    0 -0.43592122814E+01 -0.45216241952E+03  0.13075416024E+03  0.47071186995E+03  0.17770000000E+01 0. -1.
        -16    1    3    3    0    0  0.25171481823E+02 -0.95063206380E+03  0.39132460639E+03  0.10283335411E+04  0.00000000000E+00 0.  1.
          4    1    6    6  502    0 -0.35786259731E+02  0.11555189678E+03 -0.80403809715E+02  0.14525036954E+03  0.00000000000E+00 0. -1.
         -1    1    6    6    0  502  0.31575224051E+02  0.10826268675E+03 -0.12980822244E+03  0.17195342023E+03  0.00000000000E+00 0.  1.
<mgrwt>
<rscale>  0 0.14093776E+04</rscale>
<asrwt>0</asrwt>
<pdfrwt beam="1">  1        1 0.27642389E+00 0.14093776E+04</pdfrwt>
<pdfrwt beam="2">  1       -2 0.18904603E+00 0.14093776E+04</pdfrwt>
<totfact> 0.53774542E-01</totfact>
</mgrwt>
</event>
<event>
12    3  0.1092576E-007  0.6786654E+03  0.7818608E-02  0.9754429E-01
          3   -1    0    0  501    0  0.00000000000E+00  0.00000000000E+00  0.10336231415E+04  0.10336231415E+04  0.00000000000E+00 0. -1.
         -4   -1    0    0    0  501 -0.00000000000E+00 -0.00000000000E+00 -0.46730970994E+03  0.46730970994E+03  0.00000000000E+00 0.  1.
        -24    2    1    2    0    0  0.49835346952E+03 -0.23244605764E+03  0.35633968153E+03  0.66049235938E+03  0.82974923184E+02 0.  0.
    5000000    2    1    2    0    0 -0.49835346952E+03  0.23244605764E+03  0.20997375006E+03  0.84044049209E+03  0.59988656822E+03 0.  0.
        -24    2    4    4    0    0  0.38365238824E+02  0.25402908910E+03  0.42928144781E+02  0.27221053559E+03  0.79076421361E+02 0.  0.
         24    2    4    4    0    0 -0.53671870834E+03 -0.21583031464E+02  0.16704560528E+03  0.56822995649E+03  0.80300996758E+02 0.  0.
         13    1    5    5    0    0  0.62216034511E+02  0.16386976339E+03  0.22301758268E+02  0.17669607445E+03  0.00000000000E+00 0. -1.
        -14    1    5    5    0    0 -0.23850795686E+02  0.90159325711E+02  0.20626386513E+02  0.95514461147E+02  0.00000000000E+00 0.  1.
         15    1    3    3    0    0  0.29733778598E+03 -0.11526654126E+03  0.16395417035E+03  0.35858090051E+03  0.17770000000E+01 0. -1.
        -16    1    3    3    0    0  0.20101568354E+03 -0.11717951638E+03  0.19238551118E+03  0.30191145887E+03  0.00000000000E+00 0.  1.
          4    1    6    6  502    0 -0.90348659250E+01  0.62414312430E+00  0.16863652581E+02  0.19141607438E+02  0.00000000000E+00 0. -1.
         -3    1    6    6    0  502 -0.52768384242E+03 -0.22207174588E+02  0.15018195270E+03  0.54908834905E+03  0.00000000000E+00 0.  1.
<mgrwt>
<rscale>  0 0.67866541E+03</rscale>
<asrwt>0</asrwt>
<pdfrwt beam="1">  1        3 0.15901894E+00 0.67866541E+03</pdfrwt>
<pdfrwt beam="2">  1       -4 0.71893802E-01 0.67866541E+03</pdfrwt>
<totfact> 0.11094078E+00</totfact>
</mgrwt>
</event>
<event>
12    3  0.1092576E-007  0.1814741E+04  0.7818608E-02  0.8698499E-01
         -2   -1    0    0    0  501 -0.00000000000E+00  0.00000000000E+00  0.11807323353E+04  0.11807323353E+04  0.00000000000E+00 0.  1.
          1   -1    0    0  501    0  0.00000000000E+00 -0.00000000000E+00 -0.30959790135E+04  0.30959790135E+04  0.00000000000E+00 0. -1.
        -24    2    1    2    0    0  0.12140103598E+04  0.12943807342E+04 -0.15715846915E+04  0.23719539555E+04  0.83931434157E+02 0.  0.
    5000000    2    1    2    0    0 -0.12140103598E+04 -0.12943807342E+04 -0.34366198674E+03  0.19047573933E+04  0.60062844386E+03 0.  0.
        -24    2    4    4    0    0 -0.85598314945E+03 -0.12014161968E+04 -0.37793503450E+03  0.15249359190E+04  0.80539658505E+02 0.  0.
         24    2    4    4    0    0 -0.35802721033E+03 -0.92964537351E+02  0.34273047760E+02  0.37982147432E+03  0.79144311279E+02 0.  0.
         11    1    5    5    0    0 -0.63881163818E+03 -0.83388996488E+03 -0.26588151981E+03  0.10835800687E+04  0.00000000000E+00 0. -1.
        -12    1    5    5    0    0 -0.21717151127E+03 -0.36752623195E+03 -0.11205351469E+03  0.44135585035E+03  0.00000000000E+00 0.  1.
         15    1    3    3    0    0  0.10791544830E+04  0.11107049486E+04 -0.13784382418E+04  0.20732426354E+04  0.17770000000E+01 0. -1.
        -16    1    3    3    0    0  0.13485587679E+03  0.18367578558E+03 -0.19314644968E+03  0.29871132007E+03  0.00000000000E+00 0.  1.
          4    1    6    6  502    0 -0.21589285944E+03 -0.88814474135E+02 -0.45178768874E+00  0.23344794213E+03  0.00000000000E+00 0. -1.
         -3    1    6    6    0  502 -0.14213435089E+03 -0.41500632163E+01  0.34724835449E+02  0.14637353219E+03  0.00000000000E+00 0.  1.
<mgrwt>
<rscale>  0 0.18147414E+04</rscale>
<asrwt>0</asrwt>
<pdfrwt beam="1">  1        1 0.47630447E+00 0.18147414E+04</pdfrwt>
<pdfrwt beam="2">  1       -2 0.18165113E+00 0.18147414E+04</pdfrwt>
<totfact> 0.71838066E-02</totfact>
</mgrwt>
</event>
<event>
12    3  0.1092576E-007  0.1427203E+04  0.7818608E-02  0.8934360E-01
          1   -1    0    0  501    0  0.00000000000E+00  0.00000000000E+00  0.24466011564E+04  0.24466011564E+04  0.00000000000E+00 0. -1.
         -2   -1    0    0    0  501 -0.00000000000E+00 -0.00000000000E+00 -0.93016317225E+03  0.93016317225E+03  0.00000000000E+00 0.  1.
        -24    2    1    2    0    0 -0.10537026690E+04 -0.94730856705E+03  0.39602903212E+03  0.14735477516E+04  0.82590230270E+02 0.  0.
    5000000    2    1    2    0    0  0.10537026690E+04  0.94730856705E+03  0.11204089520E+04  0.19032165770E+04  0.59936156316E+03 0.  0.
        -24    2    4    4    0    0  0.21532315717E+03  0.33691482994E+03  0.63502298719E+03  0.75526735154E+03  0.85433678387E+02 0.  0.
         24    2    4    4    0    0  0.83837951182E+03  0.61039373711E+03  0.48538596480E+03  0.11479492255E+04  0.82019322354E+02 0.  0.
         13    1    5    5    0    0  0.18867972055E+03  0.28260755431E+03  0.47368315389E+03  0.58296037342E+03  0.00000000000E+00 0. -1.
        -14    1    5    5    0    0  0.26643436624E+02  0.54307275631E+02  0.16133983330E+03  0.17230697812E+03  0.00000000000E+00 0.  1.
         15    1    3    3    0    0 -0.53685234868E+03 -0.47021760694E+03  0.15768285896E+03  0.73087761212E+03  0.17770000000E+01 0. -1.
        -16    1    3    3    0    0 -0.51685032031E+03 -0.47709096011E+03  0.23834617316E+03  0.74267013948E+03  0.00000000000E+00 0.  1.
          4    1    6    6  502    0  0.19086031479E+03  0.13598917149E+03  0.14831877715E+03  0.27734306225E+03  0.00000000000E+00 0. -1.
         -3    1    6    6    0  502  0.64751919703E+03  0.47440456562E+03  0.33706718765E+03  0.87060616320E+03  0.00000000000E+00 0.  1.
<mgrwt>
<rscale>  0 0.14272028E+04</rscale>
<asrwt>0</asrwt>
<pdfrwt beam="1">  1        1 0.37640018E+00 0.14272028E+04</pdfrwt>
<pdfrwt beam="2">  1       -2 0.14310203E+00 0.14272028E+04</pdfrwt>
<totfact> 0.41926164E-01</totfact>
</mgrwt>
</event>
<event>
12    3  0.1092576E-007  0.8757788E+03  0.7818608E-02  0.9456376E-01
          1   -1    0    0  501    0  0.00000000000E+00  0.00000000000E+00  0.14316251742E+04  0.14316251742E+04  0.00000000000E+00 0. -1.
         -2   -1    0    0    0  501 -0.00000000000E+00 -0.00000000000E+00 -0.64054406390E+03  0.64054406390E+03  0.00000000000E+00 0.  1.
        -24    2    1    2    0    0  0.78908539205E+03  0.33861830375E+03  0.43445299282E+03  0.96561291011E+03  0.79628999806E+02 0.  0.
    5000000    2    1    2    0    0 -0.78908539205E+03 -0.33861830375E+03  0.35662811754E+03  0.11065563280E+04  0.59997098373E+03 0.  0.
        -24    2    4    4    0    0 -0.84440561950E+02  0.22321969550E+02  0.28365605472E+03  0.30749790638E+03  0.80409739589E+02 0.  0.
         24    2    4    4    0    0 -0.70464483010E+03 -0.36094027330E+03  0.72972062814E+02  0.79905842166E+03  0.79794873180E+02 0.  0.
         11    1    5    5    0    0 -0.63771633760E+02 -0.79341189130E+01  0.91092965883E+02  0.11147959432E+03  0.00000000000E+00 0. -1.
        -12    1    5    5    0    0 -0.20668928190E+02  0.30256088463E+02  0.19256308884E+03  0.19601831206E+03  0.00000000000E+00 0.  1.
         15    1    3    3    0    0  0.49497281645E+03  0.21923807442E+03  0.23094503247E+03  0.58855941760E+03  0.17770000000E+01 0. -1.
        -16    1    3    3    0    0  0.29411257561E+03  0.11938022934E+03  0.20350796035E+03  0.37705349251E+03  0.00000000000E+00 0.  1.
          4    1    6    6  502    0 -0.30083200511E+03 -0.14498400288E+03  0.69556795074E+02  0.34111347691E+03  0.00000000000E+00 0. -1.
         -3    1    6    6    0  502 -0.40381282499E+03 -0.21595627042E+03  0.34152677401E+01  0.45794494474E+03  0.00000000000E+00 0.  1.
<mgrwt>
<rscale>  0 0.87577885E+03</rscale>
<asrwt>0</asrwt>
<pdfrwt beam="1">  1        1 0.22025003E+00 0.87577885E+03</pdfrwt>
<pdfrwt beam="2">  1       -2 0.98545241E-01 0.87577885E+03</pdfrwt>
<totfact> 0.55571706E+00</totfact>
</mgrwt>
</event>
<event>
12    3  0.1092576E-007  0.2785947E+03  0.7818608E-02  0.1096459E+00
         -2   -1    0    0    0  501 -0.00000000000E+00  0.00000000000E+00  0.19215234788E+04  0.19215234788E+04  0.00000000000E+00 0.  1.
          1   -1    0    0  501    0  0.00000000000E+00 -0.00000000000E+00 -0.12153388345E+04  0.12153388345E+04  0.00000000000E+00 0. -1.
        -24    2    1    2    0    0  0.23136558262E+02  0.25578109344E+03  0.18233462860E+04  0.18430712957E+04  0.79754964024E+02 0.  0.
    5000000    2    1    2    0    0 -0.23136558262E+02 -0.25578109344E+03 -0.11171616417E+04  0.12937910176E+04  0.59990482195E+03 0.  0.
        -24    2    4    4    0    0 -0.44539534911E+02 -0.86161025948E+02  0.31868597431E+02  0.12910474319E+03  0.79024898922E+02 0.  0.
         24    2    4    4    0    0  0.21402976649E+02 -0.16962006749E+03 -0.11490302391E+04  0.11646862744E+04  0.83633561505E+02 0.  0.
         13    1    5    5    0    0 -0.42341763210E+02 -0.88625124185E+01  0.28297600369E+02  0.51692583847E+02  0.00000000000E+00 0. -1.
        -14    1    5    5    0    0 -0.21977717010E+01 -0.77298513529E+02  0.35709970618E+01  0.77412159344E+02  0.00000000000E+00 0.  1.
         15    1    3    3    0    0  0.33620131815E+02  0.72436192633E+02  0.39741876553E+03  0.40536668362E+03  0.17770000000E+01 0. -1.
        -16    1    3    3    0    0 -0.10483573553E+02  0.18334490081E+03  0.14259275204E+04  0.14377046121E+04  0.00000000000E+00 0.  1.
          2    1    6    6  502    0  0.18913164912E+02 -0.50397878285E+02 -0.62241288448E+03  0.62473630654E+03  0.00000000000E+00 0. -1.
         -1    1    6    6    0  502  0.24898117370E+01 -0.11922218921E+03 -0.52661735467E+03  0.53994996787E+03  0.00000000000E+00 0.  1.
<mgrwt>
<rscale>  0 0.27859468E+03</rscale>
<asrwt>0</asrwt>
<pdfrwt beam="1">  1        1 0.18697521E+00 0.27859468E+03</pdfrwt>
<pdfrwt beam="2">  1       -2 0.29561900E+00 0.27859468E+03</pdfrwt>
<totfact> 0.38621662E-01</totfact>
</mgrwt>
</event>
<event>
12    3  0.1092576E-007  0.1389473E+04  0.7818608E-02  0.8961474E-01
          1   -1    0    0  501    0  0.00000000000E+00  0.00000000000E+00  0.21253456381E+04  0.21253456381E+04  0.00000000000E+00 0. -1.
         -2   -1    0    0    0  501 -0.00000000000E+00 -0.00000000000E+00 -0.98551738612E+03  0.98551738612E+03  0.00000000000E+00 0.  1.
        -24    2    1    2    0    0  0.73140500492E+03 -0.11499156576E+04  0.80471749188E+03  0.15846081431E+04  0.78443767127E+02 0.  0.
    5000000    2    1    2    0    0 -0.73140500492E+03  0.11499156576E+04  0.33511076010E+03  0.15262548812E+04  0.59991286033E+03 0.  0.
        -24    2    4    4    0    0 -0.53131581351E+03  0.49734011170E+03  0.40270562820E+03  0.83571314509E+03  0.81246276878E+02 0.  0.
         24    2    4    4    0    0 -0.20008919142E+03  0.65257554586E+03 -0.67594868103E+02  0.69054173606E+03  0.79926813261E+02 0.  0.
         11    1    5    5    0    0 -0.53280454922E+03  0.48913659228E+03  0.39389417285E+03  0.82358236563E+03  0.00000000000E+00 0. -1.
        -12    1    5    5    0    0  0.14887357126E+01  0.82035194174E+01  0.88114553497E+01  0.12130779457E+02  0.00000000000E+00 0.  1.
         15    1    3    3    0    0  0.16151010701E+03 -0.30981405484E+03  0.22525129973E+03  0.41570610893E+03  0.17770000000E+01 0. -1.
        -16    1    3    3    0    0  0.56989489791E+03 -0.84010160272E+03  0.57946619216E+03  0.11689020341E+04  0.00000000000E+00 0.  1.
          4    1    6    6  502    0 -0.15839899353E+03  0.53895884087E+03 -0.85424252280E+02  0.56821138336E+03  0.00000000000E+00 0. -1.
         -3    1    6    6    0  502 -0.41690197888E+02  0.11361670499E+03  0.17829384178E+02  0.12233035270E+03  0.00000000000E+00 0.  1.
<mgrwt>
<rscale>  0 0.13894733E+04</rscale>
<asrwt>0</asrwt>
<pdfrwt beam="1">  1        1 0.32697625E+00 0.13894733E+04</pdfrwt>
<pdfrwt beam="2">  1       -2 0.15161806E+00 0.13894733E+04</pdfrwt>
<totfact> 0.59880774E-01</totfact>
</mgrwt>
</event>
<event>
12    3  0.1092576E-007  0.3914299E+03  0.7818608E-02  0.1046788E+00
         -2   -1    0    0    0  501 -0.00000000000E+00  0.00000000000E+00  0.14057445138E+03  0.14057445138E+03  0.00000000000E+00 0.  1.
          1   -1    0    0  501    0  0.00000000000E+00 -0.00000000000E+00 -0.17099431902E+04  0.17099431902E+04  0.00000000000E+00 0. -1.
        -24    2    1    2    0    0  0.25581313075E+03 -0.15260816621E+03 -0.55696393051E+03  0.63653628074E+03  0.78993712136E+02 0.  0.
    5000000    2    1    2    0    0 -0.25581313075E+03  0.15260816621E+03 -0.10124048084E+04  0.12139813609E+04  0.60004803001E+03 0.  0.
        -24    2    4    4    0    0 -0.10241991710E+03  0.26151632156E+03 -0.15121887550E+03  0.32877619070E+03  0.79661844079E+02 0.  0.
         24    2    4    4    0    0 -0.15339321364E+03 -0.10890815535E+03 -0.86118593286E+03  0.88520517018E+03  0.80972328957E+02 0.  0.
         13    1    5    5    0    0 -0.99067610686E+02  0.14935051180E+03 -0.10229071658E+03  0.20635735403E+03  0.00000000000E+00 0. -1.
        -14    1    5    5    0    0 -0.33523064172E+01  0.11216580976E+03 -0.48928158922E+02  0.12241883668E+03  0.00000000000E+00 0.  1.
         15    1    3    3    0    0  0.12188376276E+03 -0.94520083407E+02 -0.35750525531E+03  0.38936212334E+03  0.17770000000E+01 0. -1.
        -16    1    3    3    0    0  0.13392936799E+03 -0.58088082802E+02 -0.19945867520E+03  0.24717415740E+03  0.00000000000E+00 0.  1.
          2    1    6    6  502    0 -0.11504692941E+03 -0.62291179757E+02 -0.71790563320E+03  0.72972904918E+03  0.00000000000E+00 0. -1.
         -1    1    6    6    0  502 -0.38346284236E+02 -0.46616975598E+02 -0.14328029967E+03  0.15547612100E+03  0.00000000000E+00 0.  1.
<mgrwt>
<rscale>  0 0.39142986E+03</rscale>
<asrwt>0</asrwt>
<pdfrwt beam="1">  1        1 0.26306818E+00 0.39142986E+03</pdfrwt>
<pdfrwt beam="2">  1       -2 0.21626839E-01 0.39142986E+03</pdfrwt>
<totfact> 0.82429497E+01</totfact>
</mgrwt>
</event>
<event>
12    3  0.1092576E-007  0.6553299E+03  0.7818608E-02  0.9796829E-01
         -2   -1    0    0    0  501 -0.00000000000E+00  0.00000000000E+00  0.20560046318E+03  0.20560046318E+03  0.00000000000E+00 0.  1.
          1   -1    0    0  501    0  0.00000000000E+00 -0.00000000000E+00 -0.21825304164E+04  0.21825304164E+04  0.00000000000E+00 0. -1.
        -24    2    1    2    0    0 -0.42401058465E+03  0.30776059889E+03 -0.95623619268E+03  0.10934199644E+04  0.81719031969E+02 0.  0.
    5000000    2    1    2    0    0  0.42401058465E+03 -0.30776059889E+03 -0.10206937605E+04  0.12947109152E+04  0.59996586487E+03 0.  0.
        -24    2    4    4    0    0 -0.13175716398E+03 -0.13234125152E+03 -0.19956353753E+03  0.28464095446E+03  0.79502895112E+02 0.  0.
         24    2    4    4    0    0  0.55576774862E+03 -0.17541934738E+03 -0.82113022299E+03  0.10100699607E+04  0.79603672097E+02 0.  0.
         11    1    5    5    0    0 -0.28994728041E+02  0.35649858345E+01 -0.50083181676E+02  0.57980414495E+02  0.00000000000E+00 0. -1.
        -12    1    5    5    0    0 -0.10276243594E+03 -0.13590623735E+03 -0.14948035585E+03  0.22666053996E+03  0.00000000000E+00 0.  1.
         15    1    3    3    0    0 -0.16022167536E+03  0.82822004598E+02 -0.27195630604E+03  0.32633396976E+03  0.17770000000E+01 0. -1.
        -16    1    3    3    0    0 -0.26378890929E+03  0.22493859429E+03 -0.68427988665E+03  0.76708599462E+03  0.00000000000E+00 0.  1.
          4    1    6    6  502    0  0.18889668031E+03 -0.40973312949E+02 -0.33039226835E+03  0.38277907361E+03  0.00000000000E+00 0. -1.
         -3    1    6    6    0  502  0.36687106832E+03 -0.13444603443E+03 -0.49073795464E+03  0.62729088712E+03  0.00000000000E+00 0.  1.
<mgrwt>
<rscale>  0 0.65532995E+03</rscale>
<asrwt>0</asrwt>
<pdfrwt beam="1">  1        1 0.33577389E+00 0.65532995E+03</pdfrwt>
<pdfrwt beam="2">  1       -2 0.31630842E-01 0.65532995E+03</pdfrwt>
<totfact> 0.19273537E+01</totfact>
</mgrwt>
</event>
<event>
12    3  0.1092576E-007  0.6719217E+03  0.7818608E-02  0.9766492E-01
          1   -1    0    0  501    0  0.00000000000E+00  0.00000000000E+00  0.44575045302E+03  0.44575045302E+03  0.00000000000E+00 0. -1.
         -2   -1    0    0    0  501 -0.00000000000E+00 -0.00000000000E+00 -0.13295866008E+04  0.13295866008E+04  0.00000000000E+00 0.  1.
        -24    2    1    2    0    0 -0.71061654874E+02  0.63302794640E+03 -0.22631565210E+03  0.68072649917E+03  0.79972823968E+02 0.  0.
    5000000    2    1    2    0    0  0.71061654874E+02 -0.63302794640E+03 -0.65752049563E+03  0.10946105546E+04  0.60005410119E+03 0.  0.
        -24    2    4    4    0    0  0.17487069003E+03 -0.30789993718E+03 -0.15267898497E+02  0.36303222347E+03  0.78594891753E+02 0.  0.
         24    2    4    4    0    0 -0.10380903516E+03 -0.32512800922E+03 -0.64225259714E+03  0.73157833113E+03  0.78955163801E+02 0.  0.
         11    1    5    5    0    0  0.31868324774E+02 -0.44613589705E+02  0.25838487496E+02  0.60610147223E+02  0.00000000000E+00 0. -1.
        -12    1    5    5    0    0  0.14300236526E+03 -0.26328634747E+03 -0.41106385993E+02  0.30242207625E+03  0.00000000000E+00 0.  1.
         15    1    3    3    0    0 -0.41514645198E+02  0.16526996888E+03 -0.32203545995E+02  0.17342968167E+03  0.17770000000E+01 0. -1.
        -16    1    3    3    0    0 -0.29547009676E+02  0.46775797751E+03 -0.19411210610E+03  0.50729681750E+03  0.00000000000E+00 0.  1.
          2    1    6    6  502    0 -0.94877928228E+02 -0.16818781539E+03 -0.35075193686E+03  0.40039465995E+03  0.00000000000E+00 0. -1.
         -1    1    6    6    0  502 -0.89311069274E+01 -0.15694019383E+03 -0.29150066028E+03  0.33118367118E+03  0.00000000000E+00 0.  1.
<mgrwt>
<rscale>  0 0.67192174E+03</rscale>
<asrwt>0</asrwt>
<pdfrwt beam="1">  1        1 0.68576993E-01 0.67192174E+03</pdfrwt>
<pdfrwt beam="2">  1       -2 0.20455178E+00 0.67192174E+03</pdfrwt>
<totfact> 0.58326918E+00</totfact>
</mgrwt>
</event>
<event>
12    3  0.1092576E-007  0.8738226E+03  0.7818608E-02  0.9458909E-01
         -2   -1    0    0    0  501 -0.00000000000E+00  0.00000000000E+00  0.43209879485E+03  0.43209879485E+03  0.00000000000E+00 0.  1.
          1   -1    0    0  501    0  0.00000000000E+00 -0.00000000000E+00 -0.27099057524E+04  0.27099057524E+04  0.00000000000E+00 0. -1.
        -24    2    1    2    0    0 -0.66747149712E+03  0.39629887912E+03 -0.19595398492E+04  0.21105700754E+04  0.11017541354E+03 0.  0.
    5000000    2    1    2    0    0  0.66747149712E+03 -0.39629887912E+03 -0.31826710839E+03  0.10314344718E+04  0.59999343027E+03 0.  0.
        -24    2    4    4    0    0  0.52742246600E+02  0.13066847967E+03 -0.82755736675E+01  0.16209830432E+03  0.79695539337E+02 0.  0.
         24    2    4    4    0    0  0.61472925052E+03 -0.52696735879E+03 -0.30999153472E+03  0.86933616752E+03  0.63749289320E+02 0.  0.
         13    1    5    5    0    0  0.50789327180E+02  0.35091275962E+02  0.15375624534E+02  0.63618890542E+02  0.00000000000E+00 0. -1.
        -14    1    5    5    0    0  0.19529194198E+01  0.95577203705E+02 -0.23651198202E+02  0.98479413782E+02  0.00000000000E+00 0.  1.
         15    1    3    3    0    0 -0.12831115023E+03  0.52216141257E+02 -0.25898438727E+03  0.29371133322E+03  0.17770000000E+01 0. -1.
        -16    1    3    3    0    0 -0.53916034689E+03  0.34408273786E+03 -0.17005554619E+04  0.18168587422E+04  0.00000000000E+00 0.  1.
          2    1    6    6  502    0  0.27573166608E+03 -0.19509278595E+03 -0.12650223686E+03  0.36068263437E+03  0.00000000000E+00 0. -1.
         -1    1    6    6    0  502  0.33899758444E+03 -0.33187457284E+03 -0.18348929787E+03  0.50865353315E+03  0.00000000000E+00 0.  1.
<mgrwt>
<rscale>  0 0.87382261E+03</rscale>
<asrwt>0</asrwt>
<pdfrwt beam="1">  1        1 0.41690858E+00 0.87382261E+03</pdfrwt>
<pdfrwt beam="2">  1       -2 0.66476738E-01 0.87382261E+03</pdfrwt>
<totfact> 0.18327265E+00</totfact>
</mgrwt>
</event>
<event>
12    3  0.1092576E-007  0.8310976E+03  0.7818608E-02  0.9516064E-01
          1   -1    0    0  501    0  0.00000000000E+00  0.00000000000E+00  0.17482814857E+04  0.17482814857E+04  0.00000000000E+00 0. -1.
         -2   -1    0    0    0  501 -0.00000000000E+00 -0.00000000000E+00 -0.96732405382E+03  0.96732405382E+03  0.00000000000E+00 0.  1.
        -24    2    1    2    0    0 -0.17492432230E+02  0.82553633901E+03 -0.58141908422E+03  0.10133151664E+04  0.83326122808E+02 0.  0.
    5000000    2    1    2    0    0  0.17492432230E+02 -0.82553633901E+03  0.13623765161E+04  0.17022903731E+04  0.59992208713E+03 0.  0.
        -24    2    4    4    0    0  0.34382990420E+02 -0.62321874301E+03  0.47453654363E+03  0.78804835209E+03  0.79066315944E+02 0.  0.
         24    2    4    4    0    0 -0.16890558190E+02 -0.20231759600E+03  0.88783997247E+03  0.91424202105E+03  0.79755599972E+02 0.  0.
         13    1    5    5    0    0  0.53246858403E+02 -0.29280318289E+03  0.24181886449E+03  0.38346485506E+03  0.00000000000E+00 0. -1.
        -14    1    5    5    0    0 -0.18863867983E+02 -0.33041556012E+03  0.23271767914E+03  0.40458349703E+03  0.00000000000E+00 0.  1.
         15    1    3    3    0    0  0.89897446862E+01  0.61407409224E+03 -0.39525624538E+03  0.73034133356E+03  0.17770000000E+01 0. -1.
        -16    1    3    3    0    0 -0.26482176917E+02  0.21146224677E+03 -0.18616283884E+03  0.28297383283E+03  0.00000000000E+00 0.  1.
          2    1    6    6  502    0 -0.38471074462E+01 -0.18317760323E+03  0.65158429446E+03  0.67685369715E+03  0.00000000000E+00 0. -1.
         -1    1    6    6    0  502 -0.13043450743E+02 -0.19139992773E+02  0.23625567801E+03  0.23738832390E+03  0.00000000000E+00 0.  1.
<mgrwt>
<rscale>  0 0.83109763E+03</rscale>
<asrwt>0</asrwt>
<pdfrwt beam="1">  1        1 0.26896638E+00 0.83109763E+03</pdfrwt>
<pdfrwt beam="2">  1       -2 0.14881908E+00 0.83109763E+03</pdfrwt>
<totfact> 0.12169843E+00</totfact>
</mgrwt>
</event>
<event>
12    3  0.1092576E-007  0.6862992E+03  0.7818608E-02  0.9740954E-01
         -2   -1    0    0    0  501 -0.00000000000E+00  0.00000000000E+00  0.11037204021E+04  0.11037204021E+04  0.00000000000E+00 0.  1.
          1   -1    0    0  501    0  0.00000000000E+00 -0.00000000000E+00 -0.59430005889E+03  0.59430005889E+03  0.00000000000E+00 0. -1.
        -24    2    1    2    0    0 -0.68272389063E+03 -0.28431983477E+02  0.78920482502E+02  0.69203767535E+03  0.75943485701E+02 0.  0.
    5000000    2    1    2    0    0  0.68272389063E+03  0.28431983477E+02  0.43049986072E+03  0.10059827857E+04  0.59979241944E+03 0.  0.
        -24    2    4    4    0    0  0.19499126140E+03  0.19065732070E+02 -0.13727667505E+03  0.25337479278E+03  0.83479374356E+02 0.  0.
         24    2    4    4    0    0  0.48773262923E+03  0.93662514067E+01  0.56777653577E+03  0.75260799287E+03  0.77959938965E+02 0.  0.
         11    1    5    5    0    0  0.16422037102E+02  0.82661701555E+01 -0.52076733576E+02  0.55226796499E+02  0.00000000000E+00 0. -1.
        -12    1    5    5    0    0  0.17856922429E+03  0.10799561914E+02 -0.85199941471E+02  0.19814799628E+03  0.00000000000E+00 0.  1.
         15    1    3    3    0    0 -0.41149267007E+03 -0.54137089018E+02  0.44282345013E+02  0.41739804232E+03  0.17770000000E+01 0. -1.
        -16    1    3    3    0    0 -0.27123122056E+03  0.25705105542E+02  0.34638137490E+02  0.27463963303E+03  0.00000000000E+00 0.  1.
          4    1    6    6  502    0  0.75423732529E+02  0.56088634103E+00  0.13606840714E+03  0.15557527260E+03  0.00000000000E+00 0. -1.
         -3    1    6    6    0  502  0.41230889671E+03  0.88053650657E+01  0.43170812862E+03  0.59703272027E+03  0.00000000000E+00 0.  1.
<mgrwt>
<rscale>  0 0.68629916E+03</rscale>
<asrwt>0</asrwt>
<pdfrwt beam="1">  1        1 0.91430779E-01 0.68629916E+03</pdfrwt>
<pdfrwt beam="2">  1       -2 0.16980314E+00 0.68629916E+03</pdfrwt>
<totfact> 0.66969685E+00</totfact>
</mgrwt>
</event>
<event>
12    3  0.1092576E-007  0.4997470E+03  0.7818608E-02  0.1013845E+00
         -2   -1    0    0    0  501 -0.00000000000E+00  0.00000000000E+00  0.14886825995E+03  0.14886825995E+03  0.00000000000E+00 0.  1.
          1   -1    0    0  501    0  0.00000000000E+00 -0.00000000000E+00 -0.25563801693E+04  0.25563801693E+04  0.00000000000E+00 0. -1.
        -24    2    1    2    0    0 -0.29101302481E+03 -0.20352422548E+03 -0.26041127702E+03  0.44778153106E+03  0.81139234626E+02 0.  0.
    5000000    2    1    2    0    0  0.29101302481E+03  0.20352422548E+03 -0.21471006323E+04  0.22574668982E+04  0.60000415008E+03 0.  0.
        -24    2    4    4    0    0 -0.12159027814E+03 -0.38302305607E+02 -0.10095179842E+04  0.10208591100E+04  0.82313423391E+02 0.  0.
         24    2    4    4    0    0  0.41260330295E+03  0.24182653108E+03 -0.11375826481E+04  0.12366077881E+04  0.79893577751E+02 0.  0.
         13    1    5    5    0    0 -0.35944318940E+02  0.25698623627E+02 -0.25426460896E+03  0.25807538567E+03  0.00000000000E+00 0. -1.
        -14    1    5    5    0    0 -0.85645959202E+02 -0.64000929234E+02 -0.75525337528E+03  0.76278372435E+03  0.00000000000E+00 0.  1.
         15    1    3    3    0    0 -0.64957913853E+02 -0.88737407726E+02 -0.65746358407E+02  0.12813898499E+03  0.17770000000E+01 0. -1.
        -16    1    3    3    0    0 -0.22605511095E+03 -0.11478681775E+03 -0.19466491862E+03  0.31964254607E+03  0.00000000000E+00 0.  1.
          4    1    6    6  502    0  0.17526202271E+03  0.14895821256E+03 -0.54069765286E+03  0.58758767644E+03  0.00000000000E+00 0. -1.
         -3    1    6    6    0  502  0.23734128024E+03  0.92868318524E+02 -0.59688499519E+03  0.64902011169E+03  0.00000000000E+00 0.  1.
<mgrwt>
<rscale>  0 0.49974704E+03</rscale>
<asrwt>0</asrwt>
<pdfrwt beam="1">  1        1 0.39328926E+00 0.49974704E+03</pdfrwt>
<pdfrwt beam="2">  1       -2 0.22902809E-01 0.49974704E+03</pdfrwt>
<totfact> 0.19986132E+01</totfact>
</mgrwt>
</event>
<event>
12    3  0.1092576E-007  0.9646413E+03  0.7818608E-02  0.9348199E-01
          3   -1    0    0  501    0  0.00000000000E+00  0.00000000000E+00  0.75853259898E+03  0.75853259898E+03  0.00000000000E+00 0. -1.
         -4   -1    0    0    0  501 -0.00000000000E+00 -0.00000000000E+00 -0.21677636426E+04  0.21677636426E+04  0.00000000000E+00 0.  1.
        -24    2    1    2    0    0 -0.33649093925E+03 -0.85476510553E+03  0.23320150765E+03  0.95108832068E+03  0.79602215610E+02 0.  0.
    5000000    2    1    2    0    0  0.33649093925E+03  0.85476510553E+03 -0.16424325513E+04  0.19752079209E+04  0.60001008950E+03 0.  0.
        -24    2    4    4    0    0  0.33383208119E+03  0.87580034157E+03 -0.16402556297E+04  0.18908722396E+04  0.80555564280E+02 0.  0.
         24    2    4    4    0    0  0.26588580584E+01 -0.21035236048E+02 -0.21769216314E+01  0.84335681369E+02  0.81597901213E+02 0.  0.
         13    1    5    5    0    0  0.18385843050E+03  0.37230994328E+03 -0.70808147276E+03  0.82085198934E+03  0.00000000000E+00 0. -1.
        -14    1    5    5    0    0  0.14997365069E+03  0.50349039830E+03 -0.93217415693E+03  0.10700202502E+04  0.00000000000E+00 0.  1.
         15    1    3    3    0    0 -0.26979750083E+03 -0.64925971343E+03  0.21005676519E+03  0.73379552279E+03  0.17770000000E+01 0. -1.
        -16    1    3    3    0    0 -0.66693438421E+02 -0.20550539209E+03  0.23144742468E+02  0.21729279788E+03  0.00000000000E+00 0.  1.
          2    1    6    6  502    0  0.11641011990E+02  0.22375816829E+02  0.22325636763E+02  0.33684186138E+02  0.00000000000E+00 0. -1.
         -1    1    6    6    0  502 -0.89821539318E+01 -0.43411052878E+02 -0.24502558394E+02  0.50651495230E+02  0.00000000000E+00 0.  1.
<mgrwt>
<rscale>  0 0.96464135E+03</rscale>
<asrwt>0</asrwt>
<pdfrwt beam="1">  1        3 0.11669732E+00 0.96464135E+03</pdfrwt>
<pdfrwt beam="2">  1       -4 0.33350210E+00 0.96464135E+03</pdfrwt>
<totfact> 0.25913663E-02</totfact>
</mgrwt>
</event>
<event>
12    3  0.1092576E-007  0.7240565E+03  0.7818608E-02  0.9676954E-01
          1   -1    0    0  501    0  0.00000000000E+00  0.00000000000E+00  0.12919230780E+04  0.12919230780E+04  0.00000000000E+00 0. -1.
         -2   -1    0    0    0  501 -0.00000000000E+00 -0.00000000000E+00 -0.44737299269E+03  0.44737299269E+03  0.00000000000E+00 0.  1.
        -24    2    1    2    0    0 -0.46068584718E+03 -0.39130044065E+03  0.11998107955E+03  0.62130827918E+03  0.79252972701E+02 0.  0.
    5000000    2    1    2    0    0  0.46068584718E+03  0.39130044065E+03  0.72456900573E+03  0.11179877915E+04  0.59962402652E+03 0.  0.
        -24    2    4    4    0    0 -0.13229127015E+03  0.77620268727E+02  0.16502610417E+03  0.24051354194E+03  0.84185880788E+02 0.  0.
         24    2    4    4    0    0  0.59297711733E+03  0.31368017193E+03  0.55954290157E+03  0.87747424954E+03  0.82799082006E+02 0.  0.
         13    1    5    5    0    0 -0.53270704525E+02  0.76536152695E+02  0.11004674293E+03  0.14424228319E+03  0.00000000000E+00 0. -1.
        -14    1    5    5    0    0 -0.79020565623E+02  0.10841160328E+01  0.54979361235E+02  0.96271258747E+02  0.00000000000E+00 0.  1.
         15    1    3    3    0    0 -0.31058077573E+03 -0.27904281747E+03  0.47003681181E+02  0.42016403464E+03  0.17770000000E+01 0. -1.
        -16    1    3    3    0    0 -0.15010507145E+03 -0.11225762318E+03  0.72977398370E+02  0.20114424454E+03  0.00000000000E+00 0.  1.
          2    1    6    6  502    0  0.14618103437E+03  0.73924779545E+02  0.18489215539E+03  0.24701999304E+03  0.00000000000E+00 0. -1.
         -1    1    6    6    0  502  0.44679608296E+03  0.23975539238E+03  0.37465074618E+03  0.63045425650E+03  0.00000000000E+00 0.  1.
<mgrwt>
<rscale>  0 0.72405653E+03</rscale>
<asrwt>0</asrwt>
<pdfrwt beam="1">  1        1 0.19875740E+00 0.72405653E+03</pdfrwt>
<pdfrwt beam="2">  1       -2 0.68826615E-01 0.72405653E+03</pdfrwt>
<totfact> 0.15994304E+01</totfact>
</mgrwt>
</event>
<event>
12    3  0.1092576E-007  0.8144494E+03  0.7818608E-02  0.9539335E-01
         -2   -1    0    0    0  501 -0.00000000000E+00  0.00000000000E+00  0.20734143712E+04  0.20734143712E+04  0.00000000000E+00 0.  1.
          1   -1    0    0  501    0  0.00000000000E+00 -0.00000000000E+00 -0.44991658808E+03  0.44991658808E+03  0.00000000000E+00 0. -1.
        -24    2    1    2    0    0 -0.19633571395E+03  0.67718847390E+03  0.67997263571E+02  0.71313892099E+03  0.82532121166E+02 0.  0.
    5000000    2    1    2    0    0  0.19633571395E+03 -0.67718847390E+03  0.15555005196E+04  0.18101920383E+04  0.60006783569E+03 0.  0.
        -24    2    4    4    0    0  0.35222790910E+03 -0.19416037638E+03  0.63170149263E+03  0.75312120471E+03  0.79887555280E+02 0.  0.
         24    2    4    4    0    0 -0.15589219515E+03 -0.48302809751E+03  0.92379902694E+03  0.10570708336E+04  0.79847264068E+02 0.  0.
         13    1    5    5    0    0  0.20358047769E+03 -0.69368482577E+02  0.35681554245E+03  0.41662252532E+03  0.00000000000E+00 0. -1.
        -14    1    5    5    0    0  0.14864743141E+03 -0.12479189381E+03  0.27488595018E+03  0.33649867939E+03  0.00000000000E+00 0.  1.
         15    1    3    3    0    0 -0.10329031670E+03  0.28171823614E+03 -0.63220801796E+01  0.30012860664E+03  0.17770000000E+01 0. -1.
        -16    1    3    3    0    0 -0.93045397247E+02  0.39547023776E+03  0.74319343751E+02  0.41301031435E+03  0.00000000000E+00 0.  1.
          4    1    6    6  502    0 -0.15071536041E+03 -0.36005284657E+03  0.71965515071E+03  0.81869207162E+03  0.00000000000E+00 0. -1.
         -3    1    6    6    0  502 -0.51768347374E+01 -0.12297525094E+03  0.20414387623E+03  0.23837876198E+03  0.00000000000E+00 0.  1.
<mgrwt>
<rscale>  0 0.81444941E+03</rscale>
<asrwt>0</asrwt>
<pdfrwt beam="1">  1        1 0.69217938E-01 0.81444941E+03</pdfrwt>
<pdfrwt beam="2">  1       -2 0.31898682E+00 0.81444941E+03</pdfrwt>
<totfact> 0.11326635E+00</totfact>
</mgrwt>
</event>
<event>
12    3  0.1092576E-007  0.7333895E+03  0.7818608E-02  0.9661776E-01
         -2   -1    0    0    0  501 -0.00000000000E+00  0.00000000000E+00  0.88696946207E+03  0.88696946207E+03  0.00000000000E+00 0.  1.
          1   -1    0    0  501    0  0.00000000000E+00 -0.00000000000E+00 -0.81338388970E+03  0.81338388970E+03  0.00000000000E+00 0. -1.
        -24    2    1    2    0    0  0.56654236738E+03  0.34373417214E+03  0.36387421667E+03  0.76047391188E+03  0.82417776986E+02 0.  0.
    5000000    2    1    2    0    0 -0.56654236738E+03 -0.34373417214E+03 -0.29028864430E+03  0.93987943989E+03  0.59998535764E+03 0.  0.
        -24    2    4    4    0    0 -0.38938931241E+03 -0.44112111570E+03 -0.37052002431E+03  0.70244611421E+03  0.99667344733E+02 0.  0.
         24    2    4    4    0    0 -0.17715305497E+03  0.97386943557E+02  0.80231380017E+02  0.23743332569E+03  0.95237010383E+02 0.  0.
         13    1    5    5    0    0 -0.67206631661E+02 -0.10548732686E+03 -0.12314426169E+03  0.17552440473E+03  0.00000000000E+00 0. -1.
        -14    1    5    5    0    0 -0.32218268075E+03 -0.33563378884E+03 -0.24737576263E+03  0.52692170948E+03  0.00000000000E+00 0.  1.
         15    1    3    3    0    0  0.36406186514E+03  0.19674044424E+03  0.26519457429E+03  0.49150703353E+03  0.17770000000E+01 0. -1.
        -16    1    3    3    0    0  0.20248050224E+03  0.14699372790E+03  0.98679642376E+02  0.26896687835E+03  0.00000000000E+00 0.  1.
          2    1    6    6  502    0 -0.54988565768E+02  0.66734268018E+02  0.69659659110E+02  0.11103906070E+03  0.00000000000E+00 0. -1.
         -1    1    6    6    0  502 -0.12216448920E+03  0.30652675540E+02  0.10571720907E+02  0.12639426499E+03  0.00000000000E+00 0.  1.
<mgrwt>
<rscale>  0 0.73338945E+03</rscale>
<asrwt>0</asrwt>
<pdfrwt beam="1">  1        1 0.12513598E+00 0.73338945E+03</pdfrwt>
<pdfrwt beam="2">  1       -2 0.13645684E+00 0.73338945E+03</pdfrwt>
<totfact> 0.74165683E+00</totfact>
</mgrwt>
</event>
<event>
12    3  0.1092576E-007  0.5982911E+03  0.7818608E-02  0.9908958E-01
         -2   -1    0    0    0  501 -0.00000000000E+00  0.00000000000E+00  0.18155202295E+04  0.18155202295E+04  0.00000000000E+00 0.  1.
          1   -1    0    0  501    0  0.00000000000E+00 -0.00000000000E+00 -0.20275376930E+03  0.20275376930E+03  0.00000000000E+00 0. -1.
        -24    2    1    2    0    0  0.34327647758E+03 -0.29591383597E+03  0.66160423414E+03  0.80606146981E+03  0.81309237521E+02 0.  0.
    5000000    2    1    2    0    0 -0.34327647758E+03  0.29591383597E+03  0.95116222610E+03  0.12122125290E+04  0.59945466619E+03 0.  0.
        -24    2    4    4    0    0 -0.50181045227E+03  0.22374125438E+03  0.77257698380E+03  0.95152161821E+03  0.81512668362E+02 0.  0.
         24    2    4    4    0    0  0.15853397469E+03  0.72172581589E+02  0.17858524231E+03  0.26069091083E+03  0.75664784137E+02 0.  0.
         13    1    5    5    0    0 -0.39884027302E+03  0.14776162622E+03  0.62757212576E+03  0.75812521037E+03  0.00000000000E+00 0. -1.
        -14    1    5    5    0    0 -0.10297017925E+03  0.75979628164E+02  0.14500485804E+03  0.19339640784E+03  0.00000000000E+00 0.  1.
         15    1    3    3    0    0  0.85598023532E+02 -0.61461934195E+02  0.21687750597E+03  0.24112984326E+03  0.17770000000E+01 0. -1.
        -16    1    3    3    0    0  0.25767845405E+03 -0.23445190177E+03  0.44472672817E+03  0.56493162655E+03  0.00000000000E+00 0.  1.
          2    1    6    6  502    0  0.13997818091E+03  0.87815474707E+02  0.14976979993E+03  0.22301668480E+03  0.00000000000E+00 0. -1.
         -1    1    6    6    0  502  0.18555793779E+02 -0.15642893118E+02  0.28815442378E+02  0.37674226035E+02  0.00000000000E+00 0.  1.
<mgrwt>
<rscale>  0 0.59829109E+03</rscale>
<asrwt>0</asrwt>
<pdfrwt beam="1">  1        1 0.31192889E-01 0.59829109E+03</pdfrwt>
<pdfrwt beam="2">  1       -2 0.27931079E+00 0.59829109E+03</pdfrwt>
<totfact> 0.57357261E+00</totfact>
</mgrwt>
</event>
<event>
12    3  0.1092576E-007  0.6162259E+03  0.7818608E-02  0.9872303E-01
         -2   -1    0    0    0  501 -0.00000000000E+00  0.00000000000E+00  0.47804858704E+03  0.47804858704E+03  0.00000000000E+00 0.  1.
          1   -1    0    0  501    0  0.00000000000E+00 -0.00000000000E+00 -0.11894831092E+04  0.11894831092E+04  0.00000000000E+00 0. -1.
        -24    2    1    2    0    0  0.27347749858E+02 -0.54789690397E+03  0.46120312108E+02  0.55634520290E+03  0.80336696502E+02 0.  0.
    5000000    2    1    2    0    0 -0.27347749858E+02  0.54789690397E+03 -0.75755483429E+03  0.11111864934E+04  0.59992264442E+03 0.  0.
        -24    2    4    4    0    0 -0.30832477523E+02  0.59149017452E+03 -0.81070207014E+03  0.10073488497E+04  0.81869349061E+02 0.  0.
         24    2    4    4    0    0  0.34847276649E+01 -0.43593270553E+02  0.53147235853E+02  0.10383764363E+03  0.77750311837E+02 0.  0.
         13    1    5    5    0    0 -0.51355529200E+02  0.22417706640E+03 -0.30526178853E+03  0.38220087260E+03  0.00000000000E+00 0. -1.
        -14    1    5    5    0    0  0.20523051677E+02  0.36731310812E+03 -0.50544028161E+03  0.62514797714E+03  0.00000000000E+00 0.  1.
         15    1    3    3    0    0  0.27293156652E+02 -0.10623155992E+03  0.32738436785E+02  0.11447717544E+03  0.17770000000E+01 0. -1.
        -16    1    3    3    0    0  0.54593206220E-01 -0.44166534404E+03  0.13381875323E+02  0.44186802746E+03  0.00000000000E+00 0.  1.
          4    1    6    6  502    0 -0.14708386359E+02  0.15512955470E+02  0.31991089414E+02  0.38476203276E+02  0.00000000000E+00 0. -1.
         -1    1    6    6    0  502  0.18193114024E+02 -0.59106226022E+02  0.21156146439E+02  0.65361440350E+02  0.00000000000E+00 0.  1.
<mgrwt>
<rscale>  0 0.61622587E+03</rscale>
<asrwt>0</asrwt>
<pdfrwt beam="1">  1        1 0.18299740E+00 0.61622587E+03</pdfrwt>
<pdfrwt beam="2">  1       -2 0.73545937E-01 0.61622587E+03</pdfrwt>
<totfact> 0.16609289E+01</totfact>
</mgrwt>
</event>
<event>
12    3  0.1092576E-007  0.4927622E+03  0.7818608E-02  0.1015686E+00
         -2   -1    0    0    0  501 -0.00000000000E+00  0.00000000000E+00  0.36065858853E+03  0.36065858853E+03  0.00000000000E+00 0.  1.
          1   -1    0    0  501    0  0.00000000000E+00 -0.00000000000E+00 -0.71400821328E+03  0.71400821328E+03  0.00000000000E+00 0. -1.
        -24    2    1    2    0    0 -0.32208188578E+03  0.22925647266E+02 -0.89271954302E+02  0.34384538382E+03  0.77445720983E+02 0.  0.
    5000000    2    1    2    0    0  0.32208188578E+03 -0.22925647266E+02 -0.26407767044E+03  0.73082141799E+03  0.60008382957E+03 0.  0.
        -24    2    4    4    0    0  0.43697718479E+03 -0.15711712596E+03 -0.11173779059E+03  0.48419616324E+03  0.79534516759E+02 0.  0.
         24    2    4    4    0    0 -0.11489529901E+03  0.13419147869E+03 -0.15233987985E+03  0.24662525475E+03  0.80051824471E+02 0.  0.
         11    1    5    5    0    0  0.23950812564E+03 -0.81570617967E+02 -0.20258272049E+02  0.25382731443E+03  0.00000000000E+00 0. -1.
        -12    1    5    5    0    0  0.19746905915E+03 -0.75546507988E+02 -0.91479518545E+02  0.23036884881E+03  0.00000000000E+00 0.  1.
         15    1    3    3    0    0 -0.28635018197E+03  0.29066318383E+01 -0.57685027812E+02  0.29212256912E+03  0.17770000000E+01 0. -1.
        -16    1    3    3    0    0 -0.35731703806E+02  0.20019015427E+02 -0.31586926490E+02  0.51722814701E+02  0.00000000000E+00 0.  1.
          4    1    6    6  502    0 -0.33772361688E+02 -0.34862382694E+01 -0.31034335826E+02  0.45998437706E+02  0.00000000000E+00 0. -1.
         -3    1    6    6    0  502 -0.81122937321E+02  0.13767771696E+03 -0.12130554402E+03  0.20062681704E+03  0.00000000000E+00 0.  1.
<mgrwt>
<rscale>  0 0.49276216E+03</rscale>
<asrwt>0</asrwt>
<pdfrwt beam="1">  1        1 0.10984742E+00 0.49276216E+03</pdfrwt>
<pdfrwt beam="2">  1       -2 0.55485936E-01 0.49276216E+03</pdfrwt>
<totfact> 0.73529686E+01</totfact>
</mgrwt>
</event>
<event>
12    3  0.1092576E-007  0.6396993E+03  0.7818608E-02  0.9826302E-01
          1   -1    0    0  501    0  0.00000000000E+00  0.00000000000E+00  0.16927187932E+04  0.16927187932E+04  0.00000000000E+00 0. -1.
         -2   -1    0    0    0  501 -0.00000000000E+00 -0.00000000000E+00 -0.24903411329E+03  0.24903411329E+03  0.00000000000E+00 0.  1.
        -24    2    1    2    0    0 -0.50363513195E+03 -0.10188665347E+02  0.48852114401E+03  0.70642463483E+03  0.81429119621E+02 0.  0.
    5000000    2    1    2    0    0  0.50363513195E+03  0.10188665347E+02  0.95516353586E+03  0.12353282716E+04  0.59995533449E+03 0.  0.
        -24    2    4    4    0    0  0.98094087957E+00 -0.21203088294E+03  0.25726495800E+03  0.34235468649E+03  0.77867934230E+02 0.  0.
         24    2    4    4    0    0  0.50265419107E+03  0.22221954828E+03  0.69789857786E+03  0.89297358513E+03  0.91085867840E+02 0.  0.
         13    1    5    5    0    0 -0.19957909974E+02 -0.37893928011E+02  0.19914116406E+02  0.47231768789E+02  0.00000000000E+00 0. -1.
        -14    1    5    5    0    0  0.20938850854E+02 -0.17413695493E+03  0.23735084159E+03  0.29512291770E+03  0.00000000000E+00 0.  1.
         15    1    3    3    0    0 -0.33905471813E+03 -0.19869066835E+02  0.27720777198E+03  0.43840641907E+03  0.17770000000E+01 0. -1.
        -16    1    3    3    0    0 -0.16458041382E+03  0.96804014886E+01  0.21131337202E+03  0.26801821577E+03  0.00000000000E+00 0.  1.
          4    1    6    6  502    0  0.30104583551E+03  0.17979568734E+03  0.45597519255E+03  0.57521166581E+03  0.00000000000E+00 0. -1.
         -3    1    6    6    0  502  0.20160835557E+03  0.42423860946E+02  0.24192338531E+03  0.31776191933E+03  0.00000000000E+00 0.  1.
<mgrwt>
<rscale>  0 0.63969934E+03</rscale>
<asrwt>0</asrwt>
<pdfrwt beam="1">  1        1 0.26041827E+00 0.63969934E+03</pdfrwt>
<pdfrwt beam="2">  1       -2 0.38312941E-01 0.63969934E+03</pdfrwt>
<totfact> 0.28489279E+01</totfact>
</mgrwt>
</event>
<event>
12    3  0.1092576E-007  0.8824947E+03  0.7818608E-02  0.9447732E-01
          1   -1    0    0  501    0  0.00000000000E+00  0.00000000000E+00  0.66067302263E+03  0.66067302263E+03  0.00000000000E+00 0. -1.
         -2   -1    0    0    0  501 -0.00000000000E+00 -0.00000000000E+00 -0.13050887181E+04  0.13050887181E+04  0.00000000000E+00 0.  1.
        -24    2    1    2    0    0  0.48849507435E+03 -0.61411052277E+03 -0.57385715308E+03  0.97544727671E+03  0.80163493351E+02 0.  0.
    5000000    2    1    2    0    0 -0.48849507435E+03  0.61411052277E+03 -0.70558542401E+02  0.99031446403E+03  0.59998754815E+03 0.  0.
        -24    2    4    4    0    0 -0.58815992837E+03  0.33548313864E+03 -0.36434086344E+02  0.68300804856E+03  0.81801675358E+02 0.  0.
         24    2    4    4    0    0  0.99664854023E+02  0.27862738412E+03 -0.34124456057E+02  0.30730641547E+03  0.75541062872E+02 0.  0.
         13    1    5    5    0    0 -0.30697475308E+03  0.13245899784E+03 -0.52089164015E+00  0.33433389967E+03  0.00000000000E+00 0. -1.
        -14    1    5    5    0    0 -0.28118517529E+03  0.20302414080E+03 -0.35913194704E+02  0.34867414889E+03  0.00000000000E+00 0.  1.
         15    1    3    3    0    0  0.17066041767E+03 -0.23117144316E+03 -0.16480272656E+03  0.33125263879E+03  0.17770000000E+01 0. -1.
        -16    1    3    3    0    0  0.31783465668E+03 -0.38293907961E+03 -0.40905442652E+03  0.64419463793E+03  0.00000000000E+00 0.  1.
          2    1    6    6  502    0  0.85037339309E+02  0.17940243216E+03  0.75878455518E+01  0.19868104374E+03  0.00000000000E+00 0. -1.
         -1    1    6    6    0  502  0.14627514714E+02  0.99224951967E+02 -0.41712301609E+02  0.10862537174E+03  0.00000000000E+00 0.  1.
<mgrwt>
<rscale>  0 0.88249473E+03</rscale>
<asrwt>0</asrwt>
<pdfrwt beam="1">  1        1 0.10164200E+00 0.88249473E+03</pdfrwt>
<pdfrwt beam="2">  1       -2 0.20078288E+00 0.88249473E+03</pdfrwt>
<totfact> 0.34574267E+00</totfact>
</mgrwt>
</event>
<event>
12    3  0.1092576E-007  0.8908877E+03  0.7818608E-02  0.9437044E-01
          1   -1    0    0  501    0  0.00000000000E+00  0.00000000000E+00  0.20341945514E+04  0.20341945514E+04  0.00000000000E+00 0. -1.
         -2   -1    0    0    0  501 -0.00000000000E+00 -0.00000000000E+00 -0.43451892146E+03  0.43451892146E+03  0.00000000000E+00 0.  1.
        -24    2    1    2    0    0  0.29972096917E+03 -0.74395167882E+03  0.10578585968E+04  0.13298906012E+04  0.79040752761E+02 0.  0.
    5000000    2    1    2    0    0 -0.29972096917E+03  0.74395167882E+03  0.54181703310E+03  0.11388228716E+04  0.60004589473E+03 0.  0.
        -24    2    4    4    0    0 -0.24330765198E+03  0.82332774185E+03  0.39877111296E+03  0.94978976091E+03  0.77556465820E+02 0.  0.
         24    2    4    4    0    0 -0.56413317189E+02 -0.79376063033E+02  0.14304592014E+03  0.18903311070E+03  0.76081271902E+02 0.  0.
         11    1    5    5    0    0 -0.93049344831E+02  0.19743931236E+03  0.95266911065E+02  0.23815173101E+03  0.00000000000E+00 0. -1.
        -12    1    5    5    0    0 -0.15025830715E+03  0.62588842949E+03  0.30350420189E+03  0.71163802991E+03  0.00000000000E+00 0.  1.
         15    1    3    3    0    0  0.14241264324E+03 -0.39222460895E+03  0.61042178794E+03  0.73941829958E+03  0.17770000000E+01 0. -1.
        -16    1    3    3    0    0  0.15730832593E+03 -0.35172706987E+03  0.44743680889E+03  0.59047230166E+03  0.00000000000E+00 0.  1.
          2    1    6    6  502    0 -0.71352880530E+02 -0.65124876478E+02  0.13678249298E+03  0.16745725867E+03  0.00000000000E+00 0. -1.
         -1    1    6    6    0  502  0.14939563341E+02 -0.14251186556E+02  0.62634271609E+01  0.21575852031E+02  0.00000000000E+00 0.  1.
<mgrwt>
<rscale>  0 0.89088769E+03</rscale>
<asrwt>0</asrwt>
<pdfrwt beam="1">  1        1 0.31295300E+00 0.89088769E+03</pdfrwt>
<pdfrwt beam="2">  1       -2 0.66849066E-01 0.89088769E+03</pdfrwt>
<totfact> 0.52121237E+00</totfact>
</mgrwt>
</event>
<event>
12    3  0.1092576E-007  0.6721598E+03  0.7818608E-02  0.9766064E-01
         -2   -1    0    0    0  501 -0.00000000000E+00  0.00000000000E+00  0.49400511237E+03  0.49400511237E+03  0.00000000000E+00 0.  1.
          1   -1    0    0  501    0  0.00000000000E+00 -0.00000000000E+00 -0.95298274745E+03  0.95298274745E+03  0.00000000000E+00 0. -1.
        -24    2    1    2    0    0  0.28549002020E+03 -0.47003829261E+03 -0.23134707291E+03  0.60173132142E+03  0.78221268719E+02 0.  0.
    5000000    2    1    2    0    0 -0.28549002020E+03  0.47003829261E+03 -0.22763056217E+03  0.84525653840E+03  0.60016863858E+03 0.  0.
        -24    2    4    4    0    0 -0.34657294658E+03  0.41398022584E+02 -0.19794881332E+02  0.35824141447E+03  0.78220650338E+02 0.  0.
         24    2    4    4    0    0  0.61082926382E+02  0.42864027002E+03 -0.20783568083E+03  0.48701512393E+03  0.80774103100E+02 0.  0.
         13    1    5    5    0    0 -0.19820153916E+03 -0.13343340033E+02  0.15751212739E+01  0.19865642667E+03  0.00000000000E+00 0. -1.
        -14    1    5    5    0    0 -0.14837140742E+03  0.54741362617E+02 -0.21370002606E+02  0.15958498780E+03  0.00000000000E+00 0.  1.
         15    1    3    3    0    0  0.14730550958E+03 -0.23013613543E+03 -0.15669687608E+03  0.31498987711E+03  0.17770000000E+01 0. -1.
        -16    1    3    3    0    0  0.13818451062E+03 -0.23990215718E+03 -0.74650196834E+02  0.28674144431E+03  0.00000000000E+00 0.  1.
          2    1    6    6  502    0  0.23459366307E+02  0.34393878757E+03 -0.13963077520E+03  0.37194217944E+03  0.00000000000E+00 0. -1.
         -1    1    6    6    0  502  0.37623560075E+02  0.84701482455E+02 -0.68204905630E+02  0.11507294450E+03  0.00000000000E+00 0.  1.
<mgrwt>
<rscale>  0 0.67215978E+03</rscale>
<asrwt>0</asrwt>
<pdfrwt beam="1">  1        1 0.14661273E+00 0.67215978E+03</pdfrwt>
<pdfrwt beam="2">  1       -2 0.76000787E-01 0.67215978E+03</pdfrwt>
<totfact> 0.23102182E+01</totfact>
</mgrwt>
</event>
<event>
12    3  0.1092576E-007  0.1040386E+04  0.7818608E-02  0.9265327E-01
         -2   -1    0    0    0  501 -0.00000000000E+00  0.00000000000E+00  0.43896716814E+03  0.43896716814E+03  0.00000000000E+00 0.  1.
          1   -1    0    0  501    0  0.00000000000E+00 -0.00000000000E+00 -0.28402761271E+04  0.28402761271E+04  0.00000000000E+00 0. -1.
        -24    2    1    2    0    0  0.74694053119E+03  0.59848888155E+03 -0.16939583709E+04  0.19464690271E+04  0.56014394517E+02 0.  0.
    5000000    2    1    2    0    0 -0.74694053119E+03 -0.59848888155E+03 -0.70735058801E+03  0.13327742682E+04  0.59986106477E+03 0.  0.
        -24    2    4    4    0    0 -0.79583659048E+03 -0.64109740546E+03 -0.66132310005E+03  0.12197618491E+04  0.78159861360E+02 0.  0.
         24    2    4    4    0    0  0.48896059288E+02  0.42608523913E+02 -0.46027487955E+02  0.11301241901E+03  0.80293002680E+02 0.  0.
         13    1    5    5    0    0 -0.18685356268E+03 -0.11045021282E+03 -0.14794896091E+03  0.26268307603E+03  0.00000000000E+00 0. -1.
        -14    1    5    5    0    0 -0.60898302781E+03 -0.53064719264E+03 -0.51337413915E+03  0.95707877312E+03  0.00000000000E+00 0.  1.
         15    1    3    3    0    0  0.33114074577E+03  0.25186525267E+03 -0.68435468662E+03  0.80089624412E+03  0.17770000000E+01 0. -1.
        -16    1    3    3    0    0  0.41579978542E+03  0.34662362887E+03 -0.10096036843E+04  0.11455727829E+04  0.00000000000E+00 0.  1.
          2    1    6    6  502    0 -0.16430152655E+02  0.26721262356E+02 -0.31043631554E+02  0.44132559842E+02  0.00000000000E+00 0. -1.
         -1    1    6    6    0  502  0.65326211942E+02  0.15887261557E+02 -0.14983856401E+02  0.68879859169E+02  0.00000000000E+00 0.  1.
<mgrwt>
<rscale>  0 0.10403856E+04</rscale>
<asrwt>0</asrwt>
<pdfrwt beam="1">  1        1 0.43696557E+00 0.10403856E+04</pdfrwt>
<pdfrwt beam="2">  1       -2 0.67533409E-01 0.10403856E+04</pdfrwt>
<totfact> 0.13981912E+00</totfact>
</mgrwt>
</event>
<event>
12    3  0.1092576E-007  0.7215961E+03  0.7818608E-02  0.9680997E-01
          1   -1    0    0  501    0  0.00000000000E+00  0.00000000000E+00  0.57199982097E+03  0.57199982097E+03  0.00000000000E+00 0. -1.
         -2   -1    0    0    0  501 -0.00000000000E+00 -0.00000000000E+00 -0.11667835572E+04  0.11667835572E+04  0.00000000000E+00 0.  1.
        -24    2    1    2    0    0 -0.55572946465E+03  0.25103906253E+03  0.11559844267E+03  0.62676247421E+03  0.87248784123E+02 0.  0.
    5000000    2    1    2    0    0  0.55572946465E+03 -0.25103906253E+03 -0.71038217886E+03  0.11120209039E+04  0.60007649671E+03 0.  0.
        -24    2    4    4    0    0  0.36124315537E+02  0.16272856411E+03 -0.18952674994E+03  0.26497427302E+03  0.80656212817E+02 0.  0.
         24    2    4    4    0    0  0.51960514912E+03 -0.41376762664E+03 -0.52085542891E+03  0.84704663089E+03  0.70742188578E+02 0.  0.
         11    1    5    5    0    0  0.19415118693E+02  0.12475608355E+03 -0.84165180791E+02  0.15173926609E+03  0.00000000000E+00 0. -1.
        -12    1    5    5    0    0  0.16709196844E+02  0.37972480563E+02 -0.10536156915E+03  0.11323500693E+03  0.00000000000E+00 0.  1.
         15    1    3    3    0    0 -0.13454291503E+03  0.65283794900E+02  0.66990401138E+02  0.16387385830E+03  0.17770000000E+01 0. -1.
        -16    1    3    3    0    0 -0.42118654962E+03  0.18575526763E+03  0.48608041534E+02  0.46288861591E+03  0.00000000000E+00 0.  1.
          2    1    6    6  502    0  0.47752880831E+03 -0.36431422984E+03 -0.44702358263E+03  0.74872471861E+03  0.00000000000E+00 0. -1.
         -1    1    6    6    0  502  0.42076340808E+02 -0.49453396793E+02 -0.73831846281E+02  0.98321912286E+02  0.00000000000E+00 0.  1.
<mgrwt>
<rscale>  0 0.72159608E+03</rscale>
<asrwt>0</asrwt>
<pdfrwt beam="1">  1        1 0.87999975E-01 0.72159608E+03</pdfrwt>
<pdfrwt beam="2">  1       -2 0.17950516E+00 0.72159608E+03</pdfrwt>
<totfact> 0.60258081E+00</totfact>
</mgrwt>
</event>
<event>
12    3  0.1092576E-007  0.5397735E+03  0.7818608E-02  0.1003889E+00
         -2   -1    0    0    0  501 -0.00000000000E+00  0.00000000000E+00  0.42102500117E+03  0.42102500117E+03  0.00000000000E+00 0.  1.
          1   -1    0    0  501    0  0.00000000000E+00 -0.00000000000E+00 -0.11390420876E+04  0.11390420876E+04  0.00000000000E+00 0. -1.
        -24    2    1    2    0    0  0.43956861944E+03 -0.15022870647E+03  0.56984539205E+02  0.47523744979E+03  0.82547928691E+02 0.  0.
    5000000    2    1    2    0    0 -0.43956861944E+03  0.15022870647E+03 -0.77500162567E+03  0.10848296390E+04  0.60036538079E+03 0.  0.
        -24    2    4    4    0    0  0.54401315011E+02 -0.18011799298E+02  0.46049728411E+02  0.10871167728E+03  0.80085724710E+02 0.  0.
         24    2    4    4    0    0 -0.49396993445E+03  0.16824050576E+03 -0.82105135408E+03  0.97611796173E+03  0.79810934437E+02 0.  0.
         11    1    5    5    0    0  0.17949827721E+02  0.24123105002E+02 -0.79720557666E+01  0.31107461859E+02  0.00000000000E+00 0. -1.
        -12    1    5    5    0    0  0.36451487290E+02 -0.42134904300E+02  0.54021784177E+02  0.77604215425E+02  0.00000000000E+00 0.  1.
         15    1    3    3    0    0  0.20995608707E+03 -0.10792480612E+03  0.51848859610E+02  0.24170391856E+03  0.17770000000E+01 0. -1.
        -16    1    3    3    0    0  0.22961253237E+03 -0.42303900350E+02  0.51356795953E+01  0.23353353123E+03  0.00000000000E+00 0.  1.
          2    1    6    6  502    0 -0.19899827165E+03  0.93761902441E+02 -0.40235337240E+03  0.45856280132E+03  0.00000000000E+00 0. -1.
         -1    1    6    6    0  502 -0.29497166280E+03  0.74478603323E+02 -0.41869798167E+03  0.51755516041E+03  0.00000000000E+00 0.  1.
<mgrwt>
<rscale>  0 0.53977352E+03</rscale>
<asrwt>0</asrwt>
<pdfrwt beam="1">  1        1 0.17523724E+00 0.53977352E+03</pdfrwt>
<pdfrwt beam="2">  1       -2 0.64773078E-01 0.53977352E+03</pdfrwt>
<totfact> 0.24065610E+01</totfact>
</mgrwt>
</event>
<event>
12    3  0.1092576E-007  0.5135123E+03  0.7818608E-02  0.1010311E+00
         -2   -1    0    0    0  501 -0.00000000000E+00  0.00000000000E+00  0.41663469223E+03  0.41663469223E+03  0.00000000000E+00 0.  1.
          1   -1    0    0  501    0  0.00000000000E+00 -0.00000000000E+00 -0.70396714982E+03  0.70396714982E+03  0.00000000000E+00 0. -1.
        -24    2    1    2    0    0 -0.20857135572E+03  0.28480506785E+03 -0.21459863215E+03  0.42058929728E+03  0.78910373008E+02 0.  0.
    5000000    2    1    2    0    0  0.20857135572E+03 -0.28480506785E+03 -0.72733825444E+02  0.70001254477E+03  0.60009283979E+03 0.  0.
        -24    2    4    4    0    0  0.57603792310E+02  0.17109585931E+03  0.37220888177E+02  0.20062692948E+03  0.79207198883E+02 0.  0.
         24    2    4    4    0    0  0.15096756341E+03 -0.45590092716E+03 -0.10995471362E+03  0.49938561528E+03  0.81603266590E+02 0.  0.
         11    1    5    5    0    0  0.64828955123E+02  0.12526652200E+03 -0.15725472440E+00  0.14104793400E+03  0.00000000000E+00 0. -1.
        -12    1    5    5    0    0 -0.72251628132E+01  0.45829337311E+02  0.37378142901E+02  0.59578995483E+02  0.00000000000E+00 0.  1.
         15    1    3    3    0    0 -0.71981170076E+02  0.89500909160E+02 -0.11419951379E+03  0.16197650529E+03  0.17770000000E+01 0. -1.
        -16    1    3    3    0    0 -0.13659018565E+03  0.19530415869E+03 -0.10039911835E+03  0.25861279199E+03  0.00000000000E+00 0.  1.
          2    1    6    6  502    0  0.11242041094E+03 -0.21698912903E+03 -0.41426112027E+02  0.24786842007E+03  0.00000000000E+00 0. -1.
         -1    1    6    6    0  502  0.38547152472E+02 -0.23891179813E+03 -0.68528601594E+02  0.25151719521E+03  0.00000000000E+00 0.  1.
<mgrwt>
<rscale>  0 0.51351225E+03</rscale>
<asrwt>0</asrwt>
<pdfrwt beam="1">  1        1 0.10830264E+00 0.51351225E+03</pdfrwt>
<pdfrwt beam="2">  1       -2 0.64097645E-01 0.51351225E+03</pdfrwt>
<totfact> 0.55377969E+01</totfact>
</mgrwt>
</event>
<event>
12    3  0.1092576E-007  0.6186798E+03  0.7818608E-02  0.9867392E-01
         -2   -1    0    0    0  501 -0.00000000000E+00  0.00000000000E+00  0.53996277590E+03  0.53996277590E+03  0.00000000000E+00 0.  1.
          1   -1    0    0  501    0  0.00000000000E+00 -0.00000000000E+00 -0.72039683429E+03  0.72039683429E+03  0.00000000000E+00 0. -1.
        -24    2    1    2    0    0  0.47277680731E+03 -0.11016765263E+02 -0.21525678281E+02  0.48007901034E+03  0.79832466449E+02 0.  0.
    5000000    2    1    2    0    0 -0.47277680731E+03  0.11016765263E+02 -0.15890838011E+03  0.78028059985E+03  0.59995555051E+03 0.  0.
        -24    2    4    4    0    0  0.73205752746E+02 -0.15310301019E+03 -0.39718501635E+02  0.19215483552E+03  0.80909254598E+02 0.  0.
         24    2    4    4    0    0 -0.54598256006E+03  0.16411977545E+03 -0.11918987847E+03  0.58812576433E+03  0.81568565997E+02 0.  0.
         13    1    5    5    0    0  0.20733994058E+02 -0.12757330706E+03 -0.21493692079E+02  0.13102223469E+03  0.00000000000E+00 0. -1.
        -14    1    5    5    0    0  0.52471758688E+02 -0.25529703129E+02 -0.18224809556E+02  0.61132600837E+02  0.00000000000E+00 0.  1.
         15    1    3    3    0    0  0.15547044827E+03 -0.41201154594E+02 -0.57270272418E+01  0.16094891113E+03  0.17770000000E+01 0. -1.
        -16    1    3    3    0    0  0.31730635904E+03  0.30184389331E+02 -0.15798651039E+02  0.31913009921E+03  0.00000000000E+00 0.  1.
          4    1    6    6  502    0 -0.27194021600E+03  0.85982201812E+02 -0.10106180975E+03  0.30258537555E+03  0.00000000000E+00 0. -1.
         -3    1    6    6    0  502 -0.27404234405E+03  0.78137573637E+02 -0.18128068728E+02  0.28554038878E+03  0.00000000000E+00 0.  1.
<mgrwt>
<rscale>  0 0.61867981E+03</rscale>
<asrwt>0</asrwt>
<pdfrwt beam="1">  1        1 0.11083028E+00 0.61867981E+03</pdfrwt>
<pdfrwt beam="2">  1       -2 0.83071196E-01 0.61867981E+03</pdfrwt>
<totfact> 0.29937057E+01</totfact>
</mgrwt>
</event>
<event>
12    3  0.1092576E-007  0.9851709E+03  0.7818608E-02  0.9324960E-01
          1   -1    0    0  501    0  0.00000000000E+00  0.00000000000E+00  0.26442981950E+04  0.26442981950E+04  0.00000000000E+00 0. -1.
         -2   -1    0    0    0  501 -0.00000000000E+00 -0.00000000000E+00 -0.45301414035E+03  0.45301414035E+03  0.00000000000E+00 0.  1.
        -24    2    1    2    0    0 -0.30647798832E+03  0.90617803667E+03  0.55525277427E+03  0.11095054807E+04  0.87231742927E+02 0.  0.
    5000000    2    1    2    0    0  0.30647798832E+03 -0.90617803667E+03  0.16360312804E+04  0.19878068546E+04  0.59974190231E+03 0.  0.
        -24    2    4    4    0    0  0.32642679863E+03 -0.84887557520E+03  0.10432529562E+04  0.13864845815E+04  0.82574614660E+02 0.  0.
         24    2    4    4    0    0 -0.19948810310E+02 -0.57302461466E+02  0.59277832416E+03  0.60132227312E+03  0.80751516655E+02 0.  0.
         11    1    5    5    0    0  0.23466993099E+03 -0.58251433365E+03  0.66267364570E+03  0.91297825063E+03  0.00000000000E+00 0. -1.
        -12    1    5    5    0    0  0.91756867634E+02 -0.26636124155E+03  0.38057931052E+03  0.47350633085E+03  0.00000000000E+00 0.  1.
         15    1    3    3    0    0 -0.14014872135E+03  0.29526467261E+03  0.17092441788E+03  0.36883764090E+03  0.17770000000E+01 0. -1.
        -16    1    3    3    0    0 -0.16632926697E+03  0.61091336407E+03  0.38432835639E+03  0.74066783984E+03  0.00000000000E+00 0.  1.
          2    1    6    6  502    0  0.26113562800E+02 -0.46461734546E+02  0.28756483240E+03  0.29246220914E+03  0.00000000000E+00 0. -1.
         -1    1    6    6    0  502 -0.46062373110E+02 -0.10840726920E+02  0.30521349175E+03  0.30886006399E+03  0.00000000000E+00 0.  1.
<mgrwt>
<rscale>  0 0.98517090E+03</rscale>
<asrwt>0</asrwt>
<pdfrwt beam="1">  1        1 0.40681510E+00 0.98517090E+03</pdfrwt>
<pdfrwt beam="2">  1       -2 0.69694485E-01 0.98517090E+03</pdfrwt>
<totfact> 0.18058631E+00</totfact>
</mgrwt>
</event>
<event>
12    3  0.1092576E-007  0.8961705E+03  0.7818608E-02  0.9430381E-01
         -2   -1    0    0    0  501 -0.00000000000E+00  0.00000000000E+00  0.71583411787E+03  0.71583411787E+03  0.00000000000E+00 0.  1.
          1   -1    0    0  501    0  0.00000000000E+00 -0.00000000000E+00 -0.16739284096E+04  0.16739284096E+04  0.00000000000E+00 0. -1.
        -24    2    1    2    0    0  0.65637727161E+02 -0.84011073892E+03  0.16547278569E+03  0.86251346376E+03  0.80335966328E+02 0.  0.
    5000000    2    1    2    0    0 -0.65637727161E+02  0.84011073892E+03 -0.11235670774E+04  0.15272490637E+04  0.59999363349E+03 0.  0.
        -24    2    4    4    0    0 -0.19983601549E+03  0.75659239133E+03 -0.65491536565E+03  0.10236829239E+04  0.81523694299E+02 0.  0.
         24    2    4    4    0    0  0.13419828833E+03  0.83518347587E+02 -0.46865171174E+03  0.50356613981E+03  0.94656934627E+02 0.  0.
         11    1    5    5    0    0 -0.13182248163E+02  0.10809359763E+03 -0.12412279408E+03  0.16511954919E+03  0.00000000000E+00 0. -1.
        -12    1    5    5    0    0 -0.18665376733E+03  0.64849879369E+03 -0.53079257158E+03  0.85856337467E+03  0.00000000000E+00 0.  1.
         15    1    3    3    0    0  0.62371253165E+02 -0.34755802035E+03  0.50474679817E+02  0.35670380116E+03  0.17770000000E+01 0. -1.
        -16    1    3    3    0    0  0.32664739961E+01 -0.49255271857E+03  0.11499810588E+03  0.50580966260E+03  0.00000000000E+00 0.  1.
          2    1    6    6  502    0  0.87412357567E+02  0.75438415506E+02 -0.42001819395E+03  0.43559976818E+03  0.00000000000E+00 0. -1.
         -1    1    6    6    0  502  0.46785930767E+02  0.80799320815E+01 -0.48633517789E+02  0.67966371631E+02  0.00000000000E+00 0.  1.
<mgrwt>
<rscale>  0 0.89617047E+03</rscale>
<asrwt>0</asrwt>
<pdfrwt beam="1">  1        1 0.25752745E+00 0.89617047E+03</pdfrwt>
<pdfrwt beam="2">  1       -2 0.11012833E+00 0.89617047E+03</pdfrwt>
<totfact> 0.28973621E+00</totfact>
</mgrwt>
</event>
<event>
12    3  0.1092576E-007  0.7914501E+03  0.7818608E-02  0.9572476E-01
         -2   -1    0    0    0  501 -0.00000000000E+00  0.00000000000E+00  0.52991409709E+03  0.52991409709E+03  0.00000000000E+00 0.  1.
          1   -1    0    0  501    0  0.00000000000E+00 -0.00000000000E+00 -0.14728730450E+04  0.14728730450E+04  0.00000000000E+00 0. -1.
        -24    2    1    2    0    0 -0.25706729394E+03 -0.63628552327E+03 -0.83678206466E+03  0.10851077733E+04  0.79446807709E+02 0.  0.
    5000000    2    1    2    0    0  0.25706729394E+03  0.63628552327E+03 -0.10617688321E+03  0.91767936873E+03  0.59993252331E+03 0.  0.
        -24    2    4    4    0    0  0.42674891477E+03  0.36807835324E+03  0.13204624436E+02  0.56934982970E+03  0.79928443649E+02 0.  0.
         24    2    4    4    0    0 -0.16968162082E+03  0.26820717003E+03 -0.11938150764E+03  0.34832953902E+03  0.79715650203E+02 0.  0.
         13    1    5    5    0    0  0.21573315629E+03  0.23609134880E+03  0.19146308130E+02  0.32038492601E+03  0.00000000000E+00 0. -1.
        -14    1    5    5    0    0  0.21101575848E+03  0.13198700443E+03 -0.59416836942E+01  0.24896490369E+03  0.00000000000E+00 0.  1.
         15    1    3    3    0    0 -0.69212133816E+02 -0.27195172401E+03 -0.32450594279E+03  0.42901669465E+03  0.17770000000E+01 0. -1.
        -16    1    3    3    0    0 -0.18785516013E+03 -0.36433379926E+03 -0.51227612187E+03  0.65609107867E+03  0.00000000000E+00 0.  1.
          2    1    6    6  502    0 -0.97606113411E+02  0.20791655075E+03 -0.60803177408E+02  0.23759897272E+03  0.00000000000E+00 0. -1.
         -1    1    6    6    0  502 -0.72075507413E+02  0.60290619279E+02 -0.58578330236E+02  0.11073056631E+03  0.00000000000E+00 0.  1.
<mgrwt>
<rscale>  0 0.79145015E+03</rscale>
<asrwt>0</asrwt>
<pdfrwt beam="1">  1        1 0.22659585E+00 0.79145015E+03</pdfrwt>
<pdfrwt beam="2">  1       -2 0.81525247E-01 0.79145015E+03</pdfrwt>
<totfact> 0.81499399E+00</totfact>
</mgrwt>
</event>
<event>
12    3  0.1092576E-007  0.3978769E+03  0.7818608E-02  0.1044517E+00
          1   -1    0    0  501    0  0.00000000000E+00  0.00000000000E+00  0.32374933203E+03  0.32374933203E+03  0.00000000000E+00 0. -1.
         -2   -1    0    0    0  501 -0.00000000000E+00 -0.00000000000E+00 -0.61405646088E+03  0.61405646088E+03  0.00000000000E+00 0.  1.
        -24    2    1    2    0    0 -0.10603052519E+03  0.14527972662E+03  0.72952609976E+02  0.21339791800E+03  0.88701278826E+02 0.  0.
    5000000    2    1    2    0    0  0.10603052519E+03 -0.14527972662E+03 -0.36325973883E+03  0.72440787491E+03  0.60038359416E+03 0.  0.
        -24    2    4    4    0    0 -0.21917863091E+03 -0.15606969229E+03 -0.99617947394E+02  0.29809678432E+03  0.80876055069E+02 0.  0.
         24    2    4    4    0    0  0.32520915610E+03  0.10789965675E+02 -0.26364179143E+03  0.42631109058E+03  0.79729123881E+02 0.  0.
         13    1    5    5    0    0 -0.57231761266E+02 -0.17494700613E+02 -0.52943664812E+02  0.79903508627E+02  0.00000000000E+00 0. -1.
        -14    1    5    5    0    0 -0.16194686964E+03 -0.13857499168E+03 -0.46674282582E+02  0.21819327570E+03  0.00000000000E+00 0.  1.
         15    1    3    3    0    0 -0.60438672791E+02  0.32075223099E+02  0.59364569498E+02  0.90603327457E+02  0.17770000000E+01 0. -1.
        -16    1    3    3    0    0 -0.45591852399E+02  0.11320450352E+03  0.13588040478E+02  0.12279459054E+03  0.00000000000E+00 0.  1.
          4    1    6    6  502    0  0.18101394407E+03 -0.27489126767E+02 -0.17209117024E+03  0.25127091139E+03  0.00000000000E+00 0. -1.
         -3    1    6    6    0  502  0.14419521203E+03  0.38279092442E+02 -0.91550621196E+02  0.17504017919E+03  0.00000000000E+00 0.  1.
<mgrwt>
<rscale>  0 0.39787689E+03</rscale>
<asrwt>0</asrwt>
<pdfrwt beam="1">  1        1 0.49807590E-01 0.39787689E+03</pdfrwt>
<pdfrwt beam="2">  1       -2 0.94470224E-01 0.39787689E+03</pdfrwt>
<totfact> 0.68107443E+01</totfact>
</mgrwt>
</event>
<event>
12    3  0.1092576E-007  0.5782203E+03  0.7818608E-02  0.9951651E-01
          1   -1    0    0  501    0  0.00000000000E+00  0.00000000000E+00  0.13832798098E+04  0.13832798098E+04  0.00000000000E+00 0. -1.
         -2   -1    0    0    0  501 -0.00000000000E+00 -0.00000000000E+00 -0.30069721038E+03  0.30069721038E+03  0.00000000000E+00 0.  1.
        -24    2    1    2    0    0  0.41752561118E+03  0.11771563446E+03  0.97363854665E+02  0.45160210792E+03  0.79247315986E+02 0.  0.
    5000000    2    1    2    0    0 -0.41752561118E+03 -0.11771563446E+03  0.98521874480E+03  0.12323749123E+04  0.59992278067E+03 0.  0.
        -24    2    4    4    0    0  0.11837870631E+03  0.68824585317E+02  0.12716106356E+03  0.20107326173E+03  0.74230578904E+02 0.  0.
         24    2    4    4    0    0 -0.53590431749E+03 -0.18654021978E+03  0.85805768124E+03  0.10313016506E+04  0.73002870020E+02 0.  0.
         11    1    5    5    0    0  0.18141639193E+02  0.44445625113E+02  0.64395718239E+02  0.80320241482E+02  0.00000000000E+00 0. -1.
        -12    1    5    5    0    0  0.10023706712E+03  0.24378960204E+02  0.62765345318E+02  0.12075302024E+03  0.00000000000E+00 0.  1.
         15    1    3    3    0    0  0.13680414088E+03  0.44344174812E+02 -0.50375006144E+01  0.14391078119E+03  0.17770000000E+01 0. -1.
        -16    1    3    3    0    0  0.28072147030E+03  0.73371459648E+02  0.10240135528E+03  0.30769132673E+03  0.00000000000E+00 0.  1.
          2    1    6    6  502    0 -0.50561655893E+03 -0.15810978045E+03  0.78025755733E+03  0.94310585997E+03  0.00000000000E+00 0. -1.
         -1    1    6    6    0  502 -0.30287758562E+02 -0.28430439330E+02  0.77800123911E+02  0.88195790601E+02  0.00000000000E+00 0.  1.
<mgrwt>
<rscale>  0 0.57822034E+03</rscale>
<asrwt>0</asrwt>
<pdfrwt beam="1">  1        1 0.21281228E+00 0.57822034E+03</pdfrwt>
<pdfrwt beam="2">  1       -2 0.46261110E-01 0.57822034E+03</pdfrwt>
<totfact> 0.32195983E+01</totfact>
</mgrwt>
</event>
<event>
12    3  0.1092576E-007  0.4644394E+03  0.7818608E-02  0.1023501E+00
         -2   -1    0    0    0  501 -0.00000000000E+00  0.00000000000E+00  0.13116841535E+03  0.13116841535E+03  0.00000000000E+00 0.  1.
          1   -1    0    0  501    0  0.00000000000E+00 -0.00000000000E+00 -0.29769676911E+04  0.29769676911E+04  0.00000000000E+00 0. -1.
        -24    2    1    2    0    0  0.23948689485E+03  0.27205271689E+03 -0.18727698992E+04  0.19092033127E+04  0.80146990679E+02 0.  0.
    5000000    2    1    2    0    0 -0.23948689485E+03 -0.27205271689E+03 -0.97302937649E+03  0.11989327937E+04  0.59940555789E+03 0.  0.
        -24    2    4    4    0    0 -0.17058906932E+03  0.75233580165E+02 -0.74006117692E+03  0.76737614199E+03  0.80092918257E+02 0.  0.
         24    2    4    4    0    0 -0.68897825532E+02 -0.34728629706E+03 -0.23296819956E+03  0.43155665175E+03  0.81315922008E+02 0.  0.
         11    1    5    5    0    0 -0.48806038853E+02 -0.11428983737E+02 -0.13155835613E+03  0.14078441734E+03  0.00000000000E+00 0. -1.
        -12    1    5    5    0    0 -0.12178303047E+03  0.86662563901E+02 -0.60850282079E+03  0.62659172465E+03  0.00000000000E+00 0.  1.
         15    1    3    3    0    0  0.14806475097E+03  0.20509476573E+03 -0.11404738755E+04  0.11681912737E+04  0.17770000000E+01 0. -1.
        -16    1    3    3    0    0  0.91422143881E+02  0.66957951168E+02 -0.73229602371E+03  0.74101203901E+03  0.00000000000E+00 0.  1.
          2    1    6    6  502    0  0.72704344128E+01 -0.16859167471E+03 -0.11666227606E+03  0.20514896698E+03  0.00000000000E+00 0. -1.
         -1    1    6    6    0  502 -0.76168259944E+02 -0.17869462235E+03 -0.11630592351E+03  0.22640768477E+03  0.00000000000E+00 0.  1.
<mgrwt>
<rscale>  0 0.46443945E+03</rscale>
<asrwt>0</asrwt>
<pdfrwt beam="1">  1        1 0.45799506E+00 0.46443945E+03</pdfrwt>
<pdfrwt beam="2">  1       -2 0.20179755E-01 0.46443945E+03</pdfrwt>
<totfact> 0.12875001E+01</totfact>
</mgrwt>
</event>
<event>
12    3  0.1092576E-007  0.1765386E+04  0.7818608E-02  0.8724927E-01
          1   -1    0    0  501    0  0.00000000000E+00  0.00000000000E+00  0.24241416546E+04  0.24241416546E+04  0.00000000000E+00 0. -1.
         -2   -1    0    0    0  501 -0.00000000000E+00 -0.00000000000E+00 -0.21889592156E+04  0.21889592156E+04  0.00000000000E+00 0.  1.
        -24    2    1    2    0    0  0.14818816558E+04 -0.93144110560E+03 -0.13218810762E+04  0.21948422226E+04  0.80043909088E+02 0.  0.
    5000000    2    1    2    0    0 -0.14818816558E+04  0.93144110560E+03  0.15570635152E+04  0.24182586476E+04  0.59997693400E+03 0.  0.
        -24    2    4    4    0    0 -0.31613268520E+03  0.77650990066E+02  0.68791396464E+02  0.34216960045E+03  0.79863811181E+02 0.  0.
         24    2    4    4    0    0 -0.11657489706E+04  0.85379011554E+03  0.14882721187E+04  0.20760890471E+04  0.85226806024E+02 0.  0.
         11    1    5    5    0    0 -0.22431035069E+03  0.16625623460E+02  0.47113962105E+02  0.22980702819E+03  0.00000000000E+00 0. -1.
        -12    1    5    5    0    0 -0.91822334514E+02  0.61025366606E+02  0.21677434359E+02  0.11236257226E+03  0.00000000000E+00 0.  1.
         15    1    3    3    0    0  0.11970678370E+04 -0.76277416235E+03 -0.11088304928E+04  0.18011951723E+04  0.17770000000E+01 0. -1.
        -16    1    3    3    0    0  0.28481381879E+03 -0.16866694325E+03 -0.21305058340E+03  0.39364705029E+03  0.00000000000E+00 0.  1.
          2    1    6    6  502    0 -0.36680512706E+03  0.28191053444E+03  0.53222434743E+03  0.70518246338E+03  0.00000000000E+00 0. -1.
         -1    1    6    6    0  502 -0.79894384356E+03  0.57187958110E+03  0.95604777126E+03  0.13709065838E+04  0.00000000000E+00 0.  1.
<mgrwt>
<rscale>  0 0.17653859E+04</rscale>
<asrwt>0</asrwt>
<pdfrwt beam="1">  1        1 0.37294487E+00 0.17653859E+04</pdfrwt>
<pdfrwt beam="2">  1       -2 0.33676296E+00 0.17653859E+04</pdfrwt>
<totfact> 0.22961834E-02</totfact>
</mgrwt>
</event>
<event>
12    3  0.1092576E-007  0.3181553E+03  0.7818608E-02  0.1076501E+00
          1   -1    0    0  501    0  0.00000000000E+00  0.00000000000E+00  0.19945306277E+04  0.19945306277E+04  0.00000000000E+00 0. -1.
         -2   -1    0    0    0  501 -0.00000000000E+00 -0.00000000000E+00 -0.14855006668E+03  0.14855006668E+03  0.00000000000E+00 0.  1.
        -24    2    1    2    0    0 -0.78763170346E+02 -0.26533417838E+03  0.15267881247E+03  0.32537810528E+03  0.77163646899E+02 0.  0.
    5000000    2    1    2    0    0  0.78763170346E+02  0.26533417838E+03  0.16933017485E+04  0.18177025891E+04  0.60013834035E+03 0.  0.
        -24    2    4    4    0    0 -0.36845744706E+02  0.18720491964E+03  0.12416942483E+03  0.24021929535E+03  0.76707059354E+02 0.  0.
         24    2    4    4    0    0  0.11560891505E+03  0.78129258735E+02  0.15691323237E+04  0.15774832937E+04  0.82508729310E+02 0.  0.
         13    1    5    5    0    0  0.83321655479E+01  0.59162614604E+02  0.74825702780E+02  0.95752419009E+02  0.00000000000E+00 0. -1.
        -14    1    5    5    0    0 -0.45177910254E+02  0.12804230504E+03  0.49343722054E+02  0.14446687634E+03  0.00000000000E+00 0.  1.
         15    1    3    3    0    0 -0.36880295785E+02 -0.72465404528E+02  0.82659126850E+02  0.11596154557E+03  0.17770000000E+01 0. -1.
        -16    1    3    3    0    0 -0.41882874561E+02 -0.19286877385E+03  0.70019685619E+02  0.20941655971E+03  0.00000000000E+00 0.  1.
          2    1    6    6  502    0  0.27005783909E+00  0.40888541855E+02  0.38779754696E+03  0.38994728261E+03  0.00000000000E+00 0. -1.
         -1    1    6    6    0  502  0.11533885721E+03  0.37240716881E+02  0.11813347768E+04  0.11875360111E+04  0.00000000000E+00 0.  1.
<mgrwt>
<rscale>  0 0.31815526E+03</rscale>
<asrwt>0</asrwt>
<pdfrwt beam="1">  1        1 0.30685085E+00 0.31815526E+03</pdfrwt>
<pdfrwt beam="2">  1       -2 0.22853858E-01 0.31815526E+03</pdfrwt>
<totfact> 0.49518595E+01</totfact>
</mgrwt>
</event>
<event>
12    3  0.1092576E-007  0.4910618E+03  0.7818608E-02  0.1016139E+00
         -2   -1    0    0    0  501 -0.00000000000E+00  0.00000000000E+00  0.80302975695E+03  0.80302975695E+03  0.00000000000E+00 0.  1.
          1   -1    0    0  501    0  0.00000000000E+00 -0.00000000000E+00 -0.45607435315E+03  0.45607435315E+03  0.00000000000E+00 0. -1.
        -24    2    1    2    0    0 -0.30116022137E+03 -0.38598468676E+02  0.48024834692E+03  0.57376500831E+03  0.79877965148E+02 0.  0.
    5000000    2    1    2    0    0  0.30116022137E+03  0.38598468676E+02 -0.13329294312E+03  0.68533910180E+03  0.59977942199E+03 0.  0.
        -24    2    4    4    0    0 -0.15406644467E+03  0.10793988215E+03 -0.39197298060E+02  0.20833088221E+03  0.80485034486E+02 0.  0.
         24    2    4    4    0    0  0.45522666603E+03 -0.69341413474E+02 -0.94095645060E+02  0.47700821958E+03  0.81506453973E+02 0.  0.
         11    1    5    5    0    0 -0.43403034221E+02  0.78695464530E+02 -0.22623824223E+02  0.92674899188E+02  0.00000000000E+00 0. -1.
        -12    1    5    5    0    0 -0.11066341045E+03  0.29244417621E+02 -0.16573473837E+02  0.11565598302E+03  0.00000000000E+00 0.  1.
         15    1    3    3    0    0 -0.87517414324E+02 -0.46191330311E+02  0.12931063318E+03  0.16284143940E+03  0.17770000000E+01 0. -1.
        -16    1    3    3    0    0 -0.21364280704E+03  0.75928616348E+01  0.35093771375E+03  0.41092356890E+03  0.00000000000E+00 0.  1.
          2    1    6    6  502    0  0.28901084519E+03 -0.75491840423E+02 -0.36212774649E+02  0.30089475179E+03  0.00000000000E+00 0. -1.
         -1    1    6    6    0  502  0.16621582085E+03  0.61504269485E+01 -0.57882870412E+02  0.17611346780E+03  0.00000000000E+00 0.  1.
<mgrwt>
<rscale>  0 0.49106177E+03</rscale>
<asrwt>0</asrwt>
<pdfrwt beam="1">  1        1 0.70165285E-01 0.49106177E+03</pdfrwt>
<pdfrwt beam="2">  1       -2 0.12354304E+00 0.49106177E+03</pdfrwt>
<totfact> 0.22681423E+01</totfact>
</mgrwt>
</event>
<event>
12    3  0.1092576E-007  0.1279648E+04  0.7818608E-02  0.9045862E-01
         -2   -1    0    0    0  501 -0.00000000000E+00  0.00000000000E+00  0.13250525427E+04  0.13250525427E+04  0.00000000000E+00 0.  1.
          1   -1    0    0  501    0  0.00000000000E+00 -0.00000000000E+00 -0.13228476168E+04  0.13228476168E+04  0.00000000000E+00 0. -1.
        -24    2    1    2    0    0 -0.89481406787E+03 -0.82369670166E+03  0.30939839127E+03  0.12573734832E+04  0.78052797694E+02 0.  0.
    5000000    2    1    2    0    0  0.89481406787E+03  0.82369670166E+03 -0.30719346528E+03  0.13905266763E+04  0.60002344966E+03 0.  0.
        -24    2    4    4    0    0  0.14990081710E+03  0.50675459563E+03 -0.19552111596E+03  0.56911557239E+03  0.79959694782E+02 0.  0.
         24    2    4    4    0    0  0.74491325077E+03  0.31694210603E+03 -0.11167234931E+03  0.82141110396E+03  0.83050817927E+02 0.  0.
         13    1    5    5    0    0  0.39442464904E+02  0.14229392840E+03 -0.93798808727E+02  0.17493280600E+03  0.00000000000E+00 0. -1.
        -14    1    5    5    0    0  0.11045835220E+03  0.36446066723E+03 -0.10172230724E+03  0.39418276638E+03  0.00000000000E+00 0.  1.
         15    1    3    3    0    0 -0.33486541374E+03 -0.25915642775E+03  0.11639952220E+03  0.43914565449E+03  0.17770000000E+01 0. -1.
        -16    1    3    3    0    0 -0.55994865414E+03 -0.56454027391E+03  0.19299886907E+03  0.81822782866E+03  0.00000000000E+00 0.  1.
          2    1    6    6  502    0  0.59515766632E+03  0.28130453078E+03 -0.11030858181E+03  0.66746750486E+03  0.00000000000E+00 0. -1.
         -1    1    6    6    0  502  0.14975558445E+03  0.35637575257E+02 -0.13637675049E+01  0.15394359911E+03  0.00000000000E+00 0.  1.
<mgrwt>
<rscale>  0 0.12796482E+04</rscale>
<asrwt>0</asrwt>
<pdfrwt beam="1">  1        1 0.20351502E+00 0.12796482E+04</pdfrwt>
<pdfrwt beam="2">  1       -2 0.20385424E+00 0.12796482E+04</pdfrwt>
<totfact> 0.92588694E-01</totfact>
</mgrwt>
</event>
<event>
12    3  0.1092576E-007  0.8891824E+03  0.7818608E-02  0.9439206E-01
         -2   -1    0    0    0  501 -0.00000000000E+00  0.00000000000E+00  0.48984577557E+03  0.48984577557E+03  0.00000000000E+00 0.  1.
          1   -1    0    0  501    0  0.00000000000E+00 -0.00000000000E+00 -0.26945386385E+04  0.26945386385E+04  0.00000000000E+00 0. -1.
        -24    2    1    2    0    0 -0.30533599622E+03 -0.79580446401E+03 -0.13447884029E+03  0.86657908212E+03  0.79623687183E+02 0.  0.
    5000000    2    1    2    0    0  0.30533599622E+03  0.79580446401E+03 -0.20702140226E+04  0.23178053319E+04  0.59991719571E+03 0.  0.
        -24    2    4    4    0    0 -0.30272259893E+02  0.38540778291E+02 -0.10300032162E+02  0.96176506664E+02  0.82109856054E+02 0.  0.
         24    2    4    4    0    0  0.33560825612E+03  0.75726368572E+03 -0.20599139904E+04  0.22216288252E+04  0.79421645999E+02 0.  0.
         11    1    5    5    0    0 -0.46945636512E+02  0.53377757414E+02 -0.16575702212E+02  0.72991997354E+02  0.00000000000E+00 0. -1.
        -12    1    5    5    0    0  0.16673376618E+02 -0.14836979123E+02  0.62756700497E+01  0.23184509309E+02  0.00000000000E+00 0.  1.
         15    1    3    3    0    0 -0.21951685583E+03 -0.53361678257E+03 -0.12582867902E+03  0.59056797647E+03  0.17770000000E+01 0. -1.
        -16    1    3    3    0    0 -0.85819140393E+02 -0.26218768144E+03 -0.86501612727E+01  0.27601110566E+03  0.00000000000E+00 0.  1.
          4    1    6    6  502    0  0.96960193024E+02  0.31432569695E+03 -0.82213921331E+03  0.88550257416E+03  0.00000000000E+00 0. -1.
         -3    1    6    6    0  502  0.23864806309E+03  0.44293798877E+03 -0.12377747771E+04  0.13361262511E+04  0.00000000000E+00 0.  1.
<mgrwt>
<rscale>  0 0.88918238E+03</rscale>
<asrwt>0</asrwt>
<pdfrwt beam="1">  1        1 0.41454440E+00 0.88918238E+03</pdfrwt>
<pdfrwt beam="2">  1       -2 0.75360890E-01 0.88918238E+03</pdfrwt>
<totfact> 0.14230701E+00</totfact>
</mgrwt>
</event>
<event>
12    3  0.1092576E-007  0.5869859E+03  0.7818608E-02  0.9932780E-01
         -2   -1    0    0    0  501 -0.00000000000E+00  0.00000000000E+00  0.13869177292E+03  0.13869177292E+03  0.00000000000E+00 0.  1.
          1   -1    0    0  501    0  0.00000000000E+00 -0.00000000000E+00 -0.33735112612E+04  0.33735112612E+04  0.00000000000E+00 0. -1.
        -24    2    1    2    0    0  0.28487389770E+03  0.46739121151E+03 -0.14155249259E+04  0.15198604509E+04  0.81592230286E+02 0.  0.
    5000000    2    1    2    0    0 -0.28487389770E+03 -0.46739121151E+03 -0.18192945623E+04  0.19923425832E+04  0.59999048506E+03 0.  0.
        -24    2    4    4    0    0  0.35439144254E+02 -0.75060031771E+02 -0.17225099617E+02  0.11870795405E+03  0.83095926392E+02 0.  0.
         24    2    4    4    0    0 -0.32031304195E+03 -0.39233117973E+03 -0.18020694627E+04  0.18736346292E+04  0.80797126824E+02 0.  0.
         11    1    5    5    0    0 -0.11382440394E+02  0.13177443828E+02 -0.46950443969E+01  0.18034644911E+02  0.00000000000E+00 0. -1.
        -12    1    5    5    0    0  0.46821584648E+02 -0.88237475600E+02 -0.12530055220E+02  0.10067330914E+03  0.00000000000E+00 0.  1.
         15    1    3    3    0    0  0.17017083506E+03  0.31698090103E+03 -0.83239500639E+03  0.90681839919E+03  0.17770000000E+01 0. -1.
        -16    1    3    3    0    0  0.11470306264E+03  0.15041031047E+03 -0.58312991953E+03  0.61304205168E+03  0.00000000000E+00 0.  1.
          2    1    6    6  502    0 -0.42552016366E+02 -0.73096799739E+02 -0.21273539793E+03  0.22893266644E+03  0.00000000000E+00 0. -1.
         -1    1    6    6    0  502 -0.27776102559E+03 -0.31923438000E+03 -0.15893340648E+04  0.16447019627E+04  0.00000000000E+00 0.  1.
<mgrwt>
<rscale>  0 0.58698588E+03</rscale>
<asrwt>0</asrwt>
<pdfrwt beam="1">  1        1 0.51900164E+00 0.58698588E+03</pdfrwt>
<pdfrwt beam="2">  1       -2 0.21337200E-01 0.58698588E+03</pdfrwt>
<totfact> 0.58237007E+00</totfact>
</mgrwt>
</event>
<event>
12    3  0.1092576E-007  0.9391464E+03  0.7818608E-02  0.9377928E-01
         -4   -1    0    0    0  501 -0.00000000000E+00  0.00000000000E+00  0.13390556589E+04  0.13390556589E+04  0.00000000000E+00 0.  1.
          1   -1    0    0  501    0  0.00000000000E+00 -0.00000000000E+00 -0.12747800618E+04  0.12747800618E+04  0.00000000000E+00 0. -1.
        -24    2    1    2    0    0  0.37080783029E+03 -0.85375034507E+03 -0.78361545215E+03  0.12191493995E+04  0.76707122840E+02 0.  0.
    5000000    2    1    2    0    0 -0.37080783029E+03  0.85375034507E+03  0.84789104924E+03  0.13946863212E+04  0.59986882281E+03 0.  0.
        -24    2    4    4    0    0 -0.35722451999E+02  0.16228584016E+03 -0.68362906243E+02  0.19638413878E+03  0.79249325063E+02 0.  0.
         24    2    4    4    0    0 -0.33508537829E+03  0.69146450492E+03  0.91625395548E+03  0.11983021825E+04  0.77468943837E+02 0.  0.
         13    1    5    5    0    0 -0.43273106423E+01 -0.59029970951E+01  0.63489684590E+01  0.96891894704E+01  0.00000000000E+00 0. -1.
        -14    1    5    5    0    0 -0.31395141357E+02  0.16818883725E+03 -0.74711874702E+02  0.18669494931E+03  0.00000000000E+00 0.  1.
         15    1    3    3    0    0  0.28578972944E+03 -0.67979885809E+03 -0.58016317022E+03  0.93829351416E+03  0.17770000000E+01 0. -1.
        -16    1    3    3    0    0  0.85018100850E+02 -0.17395148699E+03 -0.20345228193E+03  0.28085588532E+03  0.00000000000E+00 0.  1.
          4    1    6    6  502    0 -0.10380595457E+01  0.83628731570E+01  0.26897190503E+02  0.28186416446E+02  0.00000000000E+00 0. -1.
         -1    1    6    6    0  502 -0.33404731875E+03  0.68310163176E+03  0.88935676498E+03  0.11701157660E+04  0.00000000000E+00 0.  1.
<mgrwt>
<rscale>  0 0.93914638E+03</rscale>
<asrwt>0</asrwt>
<pdfrwt beam="1">  1        1 0.19612001E+00 0.93914638E+03</pdfrwt>
<pdfrwt beam="2">  1       -4 0.20600856E+00 0.93914638E+03</pdfrwt>
<totfact> 0.54049502E-01</totfact>
</mgrwt>
</event>
<event>
12    3  0.1092576E-007  0.1417249E+04  0.7818608E-02  0.8941426E-01
         -2   -1    0    0    0  501 -0.00000000000E+00  0.00000000000E+00  0.97814563258E+03  0.97814563258E+03  0.00000000000E+00 0.  1.
          1   -1    0    0  501    0  0.00000000000E+00 -0.00000000000E+00 -0.22730706909E+04  0.22730706909E+04  0.00000000000E+00 0. -1.
        -24    2    1    2    0    0  0.13058965743E+04 -0.44866544824E+03 -0.10251788119E+04  0.17216943203E+04  0.81075205163E+02 0.  0.
    5000000    2    1    2    0    0 -0.13058965743E+04  0.44866544824E+03 -0.26974624639E+03  0.15295220032E+04  0.60000664466E+03 0.  0.
        -24    2    4    4    0    0 -0.11585472198E+04  0.22520597724E+03 -0.35885610155E+03  0.12361179004E+04  0.79122495860E+02 0.  0.
         24    2    4    4    0    0 -0.14734935444E+03  0.22345947100E+03  0.89109855158E+02  0.29340410277E+03  0.80619065970E+02 0.  0.
         13    1    5    5    0    0 -0.82087426585E+03  0.19277512039E+03 -0.27125049963E+03  0.88576161631E+03  0.00000000000E+00 0. -1.
        -14    1    5    5    0    0 -0.33767295399E+03  0.32430856845E+02 -0.87605601914E+02  0.35035628412E+03  0.00000000000E+00 0.  1.
         15    1    3    3    0    0  0.80681916772E+03 -0.29176772914E+03 -0.68230655942E+03  0.10961892975E+04  0.17770000000E+01 0. -1.
        -16    1    3    3    0    0  0.49907740656E+03 -0.15689771910E+03 -0.34287225250E+03  0.62550502278E+03  0.00000000000E+00 0.  1.
          2    1    6    6  502    0 -0.46598645103E+02  0.10854009505E+03  0.33755630299E+01  0.11816844073E+03  0.00000000000E+00 0. -1.
         -1    1    6    6    0  502 -0.10075070934E+03  0.11491937595E+03  0.85734292128E+02  0.17523566203E+03  0.00000000000E+00 0.  1.
<mgrwt>
<rscale>  0 0.14172494E+04</rscale>
<asrwt>0</asrwt>
<pdfrwt beam="1">  1        1 0.34970318E+00 0.14172494E+04</pdfrwt>
<pdfrwt beam="2">  1       -2 0.15048395E+00 0.14172494E+04</pdfrwt>
<totfact> 0.48312506E-01</totfact>
</mgrwt>
</event>
<event>
12    3  0.1092576E-007  0.4814226E+03  0.7818608E-02  0.1018745E+00
         -2   -1    0    0    0  501 -0.00000000000E+00  0.00000000000E+00  0.15606427827E+04  0.15606427827E+04  0.00000000000E+00 0.  1.
          1   -1    0    0  501    0  0.00000000000E+00 -0.00000000000E+00 -0.62621434629E+03  0.62621434629E+03  0.00000000000E+00 0. -1.
        -24    2    1    2    0    0 -0.16624037608E+03  0.37946896874E+03 -0.45340699832E+03  0.61920889769E+03  0.78798426220E+02 0.  0.
    5000000    2    1    2    0    0  0.16624037608E+03 -0.37946896874E+03  0.13878354347E+04  0.15676482313E+04  0.59983432905E+03 0.  0.
        -24    2    4    4    0    0  0.17941620155E+02 -0.38738812734E+03  0.13461540273E+04  0.14030947468E+04  0.78439404790E+02 0.  0.
         24    2    4    4    0    0  0.14829875592E+03  0.79191585993E+01  0.41681407410E+02  0.16455348452E+03  0.57317322533E+02 0.  0.
         11    1    5    5    0    0  0.25722328479E+02 -0.26215725265E+03  0.78262869124E+03  0.82576978127E+03  0.00000000000E+00 0. -1.
        -12    1    5    5    0    0 -0.77807083240E+01 -0.12523087469E+03  0.56352533608E+03  0.57732496551E+03  0.00000000000E+00 0.  1.
         15    1    3    3    0    0 -0.76711097415E+02  0.14512882048E+03 -0.23458379653E+03  0.28632094287E+03  0.17770000000E+01 0. -1.
        -16    1    3    3    0    0 -0.89529278662E+02  0.23434014826E+03 -0.21882320180E+03  0.33288795482E+03  0.00000000000E+00 0.  1.
          2    1    6    6  502    0  0.64576150777E+02 -0.24617129629E+02  0.22751599281E+02  0.72757938331E+02  0.00000000000E+00 0. -1.
         -1    1    6    6    0  502  0.83722605146E+02  0.32536288228E+02  0.18929808129E+02  0.91795546187E+02  0.00000000000E+00 0.  1.
<mgrwt>
<rscale>  0 0.48142263E+03</rscale>
<asrwt>0</asrwt>
<pdfrwt beam="1">  1        1 0.96340669E-01 0.48142263E+03</pdfrwt>
<pdfrwt beam="2">  1       -2 0.24009889E+00 0.48142263E+03</pdfrwt>
<totfact> 0.22675052E+00</totfact>
</mgrwt>
</event>
<event>
12    3  0.1092576E-007  0.4896335E+03  0.7818608E-02  0.1016521E+00
         -2   -1    0    0    0  501 -0.00000000000E+00  0.00000000000E+00  0.23328594219E+03  0.23328594219E+03  0.00000000000E+00 0.  1.
          1   -1    0    0  501    0  0.00000000000E+00 -0.00000000000E+00 -0.10845204455E+04  0.10845204455E+04  0.00000000000E+00 0. -1.
        -24    2    1    2    0    0 -0.10019092269E+03  0.28648555047E+03 -0.39864690527E+03  0.50728750958E+03  0.79429658677E+02 0.  0.
    5000000    2    1    2    0    0  0.10019092269E+03 -0.28648555047E+03 -0.45258759801E+03  0.81051887807E+03  0.59999427182E+03 0.  0.
        -24    2    4    4    0    0 -0.23356405952E+03 -0.58209627196E+02 -0.22828321653E+03  0.34160541842E+03  0.81489289760E+02 0.  0.
         24    2    4    4    0    0  0.33375498221E+03 -0.22827592328E+03 -0.22430438148E+03  0.46891345966E+03  0.77878699274E+02 0.  0.
         11    1    5    5    0    0 -0.22562331743E+02 -0.35025736026E+02 -0.42500623891E+02  0.59516082103E+02  0.00000000000E+00 0. -1.
        -12    1    5    5    0    0 -0.21100172778E+03 -0.23183891170E+02 -0.18578259264E+03  0.28208933631E+03  0.00000000000E+00 0.  1.
         15    1    3    3    0    0 -0.69619112233E+01  0.13833452963E+03 -0.18409173612E+03  0.23038627419E+03  0.17770000000E+01 0. -1.
        -16    1    3    3    0    0 -0.93229011465E+02  0.14815102084E+03 -0.21455516915E+03  0.27690123539E+03  0.00000000000E+00 0.  1.
          2    1    6    6  502    0  0.23273832213E+03 -0.20000175161E+03 -0.16911228694E+03  0.35038092532E+03  0.00000000000E+00 0. -1.
         -1    1    6    6    0  502  0.10101666008E+03 -0.28274171671E+02 -0.55192094547E+02  0.11853253434E+03  0.00000000000E+00 0.  1.
<mgrwt>
<rscale>  0 0.48963345E+03</rscale>
<asrwt>0</asrwt>
<pdfrwt beam="1">  1        1 0.16684929E+00 0.48963345E+03</pdfrwt>
<pdfrwt beam="2">  1       -2 0.35890146E-01 0.48963345E+03</pdfrwt>
<totfact> 0.87166567E+01</totfact>
</mgrwt>
</event>
<event>
12    3  0.1092576E-007  0.9643869E+03  0.7818608E-02  0.9348491E-01
         -2   -1    0    0    0  501 -0.00000000000E+00  0.00000000000E+00  0.55199601386E+03  0.55199601386E+03  0.00000000000E+00 0.  1.
          1   -1    0    0  501    0  0.00000000000E+00 -0.00000000000E+00 -0.18352986296E+04  0.18352986296E+04  0.00000000000E+00 0. -1.
        -24    2    1    2    0    0 -0.20163059142E+03 -0.86491692101E+03 -0.32336723566E+03  0.94842615791E+03  0.78801219949E+02 0.  0.
    5000000    2    1    2    0    0  0.20163059142E+03  0.86491692101E+03 -0.95993538012E+03  0.14388684856E+04  0.60010866450E+03 0.  0.
        -24    2    4    4    0    0  0.33010551202E+03  0.80796047219E+03 -0.92251796339E+03  0.12725466294E+04  0.81029362691E+02 0.  0.
         24    2    4    4    0    0 -0.12847492060E+03  0.56956448819E+02 -0.37417416731E+02  0.16632185617E+03  0.80703497310E+02 0.  0.
         13    1    5    5    0    0  0.14505664335E+03  0.25867406612E+03 -0.29515855318E+03  0.41841638804E+03  0.00000000000E+00 0. -1.
        -14    1    5    5    0    0  0.18504886868E+03  0.54928640607E+03 -0.62735941021E+03  0.85413024140E+03  0.00000000000E+00 0.  1.
         15    1    3    3    0    0 -0.41163519135E+02 -0.34166226570E+03 -0.11630513361E+03  0.36325966050E+03  0.17770000000E+01 0. -1.
        -16    1    3    3    0    0 -0.16046707228E+03 -0.52325465531E+03 -0.20706210205E+03  0.58516649741E+03  0.00000000000E+00 0.  1.
          4    1    6    6  502    0 -0.63268515486E+02 -0.13971926622E+02 -0.64139874003E+01  0.65109592378E+02  0.00000000000E+00 0. -1.
         -1    1    6    6    0  502 -0.65206405118E+02  0.70928375441E+02 -0.31003429330E+02  0.10121226379E+03  0.00000000000E+00 0.  1.
<mgrwt>
<rscale>  0 0.96438688E+03</rscale>
<asrwt>0</asrwt>
<pdfrwt beam="1">  1        1 0.28235364E+00 0.96438688E+03</pdfrwt>
<pdfrwt beam="2">  1       -2 0.84922463E-01 0.96438688E+03</pdfrwt>
<totfact> 0.41241824E+00</totfact>
</mgrwt>
</event>
<event>
12    3  0.1092576E-007  0.9378709E+03  0.7818608E-02  0.9379441E-01
          1   -1    0    0  501    0  0.00000000000E+00  0.00000000000E+00  0.18938420981E+04  0.18938420981E+04  0.00000000000E+00 0. -1.
         -2   -1    0    0    0  501 -0.00000000000E+00 -0.00000000000E+00 -0.25464152550E+04  0.25464152550E+04  0.00000000000E+00 0.  1.
        -24    2    1    2    0    0  0.82721324728E+03 -0.29928796831E+03 -0.23084146552E+04  0.24716701657E+04  0.80747403239E+02 0.  0.
    5000000    2    1    2    0    0 -0.82721324728E+03  0.29928796831E+03  0.16558414983E+04  0.19685871874E+04  0.59972443881E+03 0.  0.
        -24    2    4    4    0    0 -0.58745175055E+03 -0.20486782146E+02  0.63309452187E+03  0.86762847888E+03  0.80319588408E+02 0.  0.
         24    2    4    4    0    0 -0.23976149673E+03  0.31977475045E+03  0.10227469764E+04  0.11009587085E+04  0.79732262969E+02 0.  0.
         11    1    5    5    0    0 -0.26451595747E+03  0.19805991376E+02  0.24440986017E+03  0.36068982353E+03  0.00000000000E+00 0. -1.
        -12    1    5    5    0    0 -0.32293579308E+03 -0.40292773521E+02  0.38868466170E+03  0.50693865535E+03  0.00000000000E+00 0.  1.
         15    1    3    3    0    0  0.18095864108E+03 -0.41349405833E+02 -0.42242416717E+03  0.46141211285E+03  0.17770000000E+01 0. -1.
        -16    1    3    3    0    0  0.64625460621E+03 -0.25793856248E+03 -0.18859904880E+04  0.20102580528E+04  0.00000000000E+00 0.  1.
          2    1    6    6  502    0 -0.67092054377E+02  0.51639872140E+02  0.28299194342E+03  0.29538527417E+03  0.00000000000E+00 0. -1.
         -1    1    6    6    0  502 -0.17266944236E+03  0.26813487831E+03  0.73975503299E+03  0.80557343434E+03  0.00000000000E+00 0.  1.
<mgrwt>
<rscale>  0 0.93787090E+03</rscale>
<asrwt>0</asrwt>
<pdfrwt beam="1">  1        1 0.29136032E+00 0.93787090E+03</pdfrwt>
<pdfrwt beam="2">  1       -2 0.39175619E+00 0.93787090E+03</pdfrwt>
<totfact> 0.27018242E-02</totfact>
</mgrwt>
</event>
<event>
12    3  0.1092576E-007  0.8064527E+03  0.7818608E-02  0.9550724E-01
          1   -1    0    0  501    0  0.00000000000E+00  0.00000000000E+00  0.12497491579E+04  0.12497491579E+04  0.00000000000E+00 0. -1.
         -2   -1    0    0    0  501 -0.00000000000E+00 -0.00000000000E+00 -0.59194316431E+03  0.59194316431E+03  0.00000000000E+00 0.  1.
        -24    2    1    2    0    0  0.51603392703E+03 -0.51811710868E+03  0.48218334272E+03  0.87955828462E+03  0.79910248932E+02 0.  0.
    5000000    2    1    2    0    0 -0.51603392703E+03  0.51811710868E+03  0.17562265085E+03  0.96213403756E+03  0.60010185685E+03 0.  0.
        -24    2    4    4    0    0 -0.60622066527E+03  0.43548902427E+03  0.21254162310E+02  0.75104793399E+03  0.80418122800E+02 0.  0.
         24    2    4    4    0    0  0.90186738232E+02  0.82628084414E+02  0.15436848854E+03  0.21108610358E+03  0.75938559263E+02 0.  0.
         13    1    5    5    0    0 -0.11937476429E+03  0.11058945232E+03  0.31050299675E+02  0.16566376316E+03  0.00000000000E+00 0. -1.
        -14    1    5    5    0    0 -0.48684590097E+03  0.32489957195E+03 -0.97961373652E+01  0.58538417083E+03  0.00000000000E+00 0.  1.
         15    1    3    3    0    0  0.51040704471E+02 -0.90272131580E+02  0.69885153341E+02  0.12506519755E+03  0.17770000000E+01 0. -1.
        -16    1    3    3    0    0  0.46499322256E+03 -0.42784497710E+03  0.41229818938E+03  0.75449308706E+03  0.00000000000E+00 0.  1.
          2    1    6    6  502    0  0.10501312027E+02  0.34782948280E+02  0.92637965350E+02  0.99508410044E+02  0.00000000000E+00 0. -1.
         -1    1    6    6    0  502  0.79685426205E+02  0.47845136134E+02  0.61730523190E+02  0.11157769353E+03  0.00000000000E+00 0.  1.
<mgrwt>
<rscale>  0 0.80645270E+03</rscale>
<asrwt>0</asrwt>
<pdfrwt beam="1">  1        1 0.19226910E+00 0.80645270E+03</pdfrwt>
<pdfrwt beam="2">  1       -2 0.91068179E-01 0.80645270E+03</pdfrwt>
<totfact> 0.90526246E+00</totfact>
</mgrwt>
</event>
<event>
12    3  0.1092576E-007  0.6290366E+03  0.7818608E-02  0.9846931E-01
         -2   -1    0    0    0  501 -0.00000000000E+00  0.00000000000E+00  0.53761365127E+03  0.53761365127E+03  0.00000000000E+00 0.  1.
          1   -1    0    0  501    0  0.00000000000E+00 -0.00000000000E+00 -0.11690283843E+04  0.11690283843E+04  0.00000000000E+00 0. -1.
        -24    2    1    2    0    0  0.19534284759E+03 -0.46668615833E+03  0.21226241761E+03  0.55437481639E+03  0.79506632655E+02 0.  0.
    5000000    2    1    2    0    0 -0.19534284759E+03  0.46668615833E+03 -0.84367715066E+03  0.11522672192E+04  0.59997817580E+03 0.  0.
        -24    2    4    4    0    0 -0.20468870934E+03 -0.63252064306E+02 -0.37802793178E+03  0.44228249635E+03  0.82525135552E+02 0.  0.
         24    2    4    4    0    0  0.93458617526E+01  0.52993822263E+03 -0.46564921887E+03  0.70998472285E+03  0.79543992285E+02 0.  0.
         13    1    5    5    0    0 -0.82989779044E+02 -0.35958665126E+02 -0.86301550926E+02  0.12501314617E+03  0.00000000000E+00 0. -1.
        -14    1    5    5    0    0 -0.12169893030E+03 -0.27293399180E+02 -0.29172638086E+03  0.31726935018E+03  0.00000000000E+00 0.  1.
         15    1    3    3    0    0  0.15641179201E+03 -0.27749867379E+03  0.14308953213E+03  0.34921044453E+03  0.17770000000E+01 0. -1.
        -16    1    3    3    0    0  0.38931055581E+02 -0.18918748454E+03  0.69172885482E+02  0.20516437186E+03  0.00000000000E+00 0.  1.
          4    1    6    6  502    0 -0.12130352614E+02  0.10027035986E+03 -0.53867908045E+02  0.11446851986E+03  0.00000000000E+00 0. -1.
         -3    1    6    6    0  502  0.21476214367E+02  0.42966786277E+03 -0.41178131083E+03  0.59551620299E+03  0.00000000000E+00 0.  1.
<mgrwt>
<rscale>  0 0.62903657E+03</rscale>
<asrwt>0</asrwt>
<pdfrwt beam="1">  1        1 0.17985052E+00 0.62903657E+03</pdfrwt>
<pdfrwt beam="2">  1       -2 0.82709793E-01 0.62903657E+03</pdfrwt>
<totfact> 0.13202331E+01</totfact>
</mgrwt>
</event>
<event>
12    3  0.1092576E-007  0.5556868E+03  0.7818608E-02  0.1000186E+00
          1   -1    0    0  501    0  0.00000000000E+00  0.00000000000E+00  0.71826394829E+03  0.71826394829E+03  0.00000000000E+00 0. -1.
         -2   -1    0    0    0  501 -0.00000000000E+00 -0.00000000000E+00 -0.60139523774E+03  0.60139523774E+03  0.00000000000E+00 0.  1.
        -24    2    1    2    0    0  0.20568930493E+03  0.45833699144E+03 -0.74500431154E+02  0.51403797790E+03  0.79396729157E+02 0.  0.
    5000000    2    1    2    0    0 -0.20568930493E+03 -0.45833699144E+03  0.19136914170E+03  0.80562120812E+03  0.60001874529E+03 0.  0.
        -24    2    4    4    0    0 -0.23326901818E+03 -0.46106194235E+03 -0.72377392934E+02  0.52784717779E+03  0.79947523771E+02 0.  0.
         24    2    4    4    0    0  0.27579713259E+02  0.27249509157E+01  0.26374653464E+03  0.27777403034E+03  0.82632387449E+02 0.  0.
         13    1    5    5    0    0 -0.17370912176E+02 -0.71421486373E+02 -0.33253335653E+02  0.80675657033E+02  0.00000000000E+00 0. -1.
        -14    1    5    5    0    0 -0.21589810601E+03 -0.38964045598E+03 -0.39124057281E+02  0.44717152075E+03  0.00000000000E+00 0.  1.
         15    1    3    3    0    0  0.18673655248E+03  0.36054852506E+03 -0.37456532550E+02  0.40776455034E+03  0.17770000000E+01 0. -1.
        -16    1    3    3    0    0  0.18952752450E+02  0.97788466374E+02 -0.37043898604E+02  0.10627342756E+03  0.00000000000E+00 0.  1.
          4    1    6    6  502    0 -0.25073730902E+02  0.19214628101E+02  0.83688565280E+02  0.89452053486E+02  0.00000000000E+00 0. -1.
         -3    1    6    6    0  502  0.52653444161E+02 -0.16489677185E+02  0.18005796936E+03  0.18832197685E+03  0.00000000000E+00 0.  1.
<mgrwt>
<rscale>  0 0.55568681E+03</rscale>
<asrwt>0</asrwt>
<pdfrwt beam="1">  1        1 0.11050215E+00 0.55568681E+03</pdfrwt>
<pdfrwt beam="2">  1       -2 0.92522345E-01 0.55568681E+03</pdfrwt>
<totfact> 0.23678320E+01</totfact>
</mgrwt>
</event>
<event>
12    3  0.1092576E-007  0.1368637E+04  0.7818608E-02  0.8976839E-01
          1   -1    0    0  501    0  0.00000000000E+00  0.00000000000E+00  0.12972910774E+04  0.12972910774E+04  0.00000000000E+00 0. -1.
         -2   -1    0    0    0  501 -0.00000000000E+00 -0.00000000000E+00 -0.18591562474E+04  0.18591562474E+04  0.00000000000E+00 0.  1.
        -24    2    1    2    0    0  0.11493262449E+04 -0.61997938686E+03  0.46670893856E+03  0.13890662903E+04  0.79766334598E+02 0.  0.
    5000000    2    1    2    0    0 -0.11493262449E+04  0.61997938686E+03 -0.10285741086E+04  0.17673810345E+04  0.60028807006E+03 0.  0.
        -24    2    4    4    0    0 -0.63141910830E+03  0.65118277616E+03 -0.60978868136E+03  0.10959106722E+04  0.80304838899E+02 0.  0.
         24    2    4    4    0    0 -0.51790713656E+03 -0.31203389301E+02 -0.41878542722E+03  0.67147036235E+03  0.79308006272E+02 0.  0.
         11    1    5    5    0    0 -0.44929783758E+03  0.42069449576E+03 -0.38482185256E+03  0.72590651176E+03  0.00000000000E+00 0. -1.
        -12    1    5    5    0    0 -0.18212127072E+03  0.23048828039E+03 -0.22496682880E+03  0.37000416039E+03  0.00000000000E+00 0.  1.
         15    1    3    3    0    0  0.11368390380E+03 -0.75135360064E+02  0.71609476661E+02  0.15394943063E+03  0.17770000000E+01 0. -1.
        -16    1    3    3    0    0  0.10356423411E+04 -0.54484402679E+03  0.39509946190E+03  0.12351168596E+04  0.00000000000E+00 0.  1.
          2    1    6    6  502    0 -0.30790769771E+03 -0.44409559285E+02 -0.21205204327E+03  0.37649094055E+03  0.00000000000E+00 0. -1.
         -1    1    6    6    0  502 -0.20999943886E+03  0.13206169984E+02 -0.20673338396E+03  0.29497942180E+03  0.00000000000E+00 0.  1.
<mgrwt>
<rscale>  0 0.13686368E+04</rscale>
<asrwt>0</asrwt>
<pdfrwt beam="1">  1        1 0.19958324E+00 0.13686368E+04</pdfrwt>
<pdfrwt beam="2">  1       -2 0.28602404E+00 0.13686368E+04</pdfrwt>
<totfact> 0.29541546E-01</totfact>
</mgrwt>
</event>
<event>
12    3  0.1092576E-007  0.1152206E+04  0.7818608E-02  0.9155751E-01
         -2   -1    0    0    0  501 -0.00000000000E+00  0.00000000000E+00  0.82900827144E+03  0.82900827144E+03  0.00000000000E+00 0.  1.
          1   -1    0    0  501    0  0.00000000000E+00 -0.00000000000E+00 -0.19841416041E+04  0.19841416041E+04  0.00000000000E+00 0. -1.
        -24    2    1    2    0    0 -0.40983789119E+03  0.10300928810E+04 -0.12031630838E+02  0.11114864124E+04  0.78732739357E+02 0.  0.
    5000000    2    1    2    0    0  0.40983789119E+03 -0.10300928810E+04 -0.11431017018E+04  0.17016634632E+04  0.59993216347E+03 0.  0.
        -24    2    4    4    0    0  0.97617751937E+02 -0.78206467028E+01  0.12914708365E+02  0.12565309385E+03  0.77662875912E+02 0.  0.
         24    2    4    4    0    0  0.31222013925E+03 -0.10222722343E+04 -0.11560164102E+04  0.15760103693E+04  0.70091421216E+02 0.  0.
         13    1    5    5    0    0  0.10156112734E+03 -0.26959699104E+02  0.73504680907E+01  0.10533526163E+03  0.00000000000E+00 0. -1.
        -14    1    5    5    0    0 -0.39433754016E+01  0.19139052401E+02  0.55642402748E+01  0.20317832222E+02  0.00000000000E+00 0.  1.
         15    1    3    3    0    0 -0.15978757612E+03  0.34435383022E+03 -0.34872086753E+02  0.38122283514E+03  0.17770000000E+01 0. -1.
        -16    1    3    3    0    0 -0.25005031507E+03  0.68573905074E+03  0.22840455915E+02  0.73026357721E+03  0.00000000000E+00 0.  1.
          4    1    6    6  502    0  0.48476929283E+02 -0.23621745510E+03 -0.28832827390E+03  0.37587483594E+03  0.00000000000E+00 0. -1.
         -3    1    6    6    0  502  0.26374320997E+03 -0.78605477916E+03 -0.86768813628E+03  0.12001355334E+04  0.00000000000E+00 0.  1.
<mgrwt>
<rscale>  0 0.11522062E+04</rscale>
<asrwt>0</asrwt>
<pdfrwt beam="1">  1        1 0.30525255E+00 0.11522062E+04</pdfrwt>
<pdfrwt beam="2">  1       -2 0.12753974E+00 0.11522062E+04</pdfrwt>
<totfact> 0.12031306E+00</totfact>
</mgrwt>
</event>
<event>
12    3  0.1092576E-007  0.7460135E+03  0.7818608E-02  0.9641625E-01
          1   -1    0    0  501    0  0.00000000000E+00  0.00000000000E+00  0.11068744959E+04  0.11068744959E+04  0.00000000000E+00 0. -1.
         -2   -1    0    0    0  501 -0.00000000000E+00 -0.00000000000E+00 -0.54636006453E+03  0.54636006453E+03  0.00000000000E+00 0.  1.
        -24    2    1    2    0    0  0.64911714539E+03 -0.62661001174E+02  0.34179034433E+03  0.74050202671E+03  0.79013559424E+02 0.  0.
    5000000    2    1    2    0    0 -0.64911714539E+03  0.62661001174E+02  0.21872408709E+03  0.91273253376E+03  0.59996748446E+03 0.  0.
        -24    2    4    4    0    0  0.59438295152E+02  0.10421347923E+03  0.12772921594E+03  0.19284677843E+03  0.80509422809E+02 0.  0.
         24    2    4    4    0    0 -0.70855544054E+03 -0.41552478060E+02  0.90994871148E+02  0.71988575534E+03  0.78600339744E+02 0.  0.
         13    1    5    5    0    0  0.31540917362E+02  0.14856304178E+02  0.81076540486E+02  0.88254997926E+02  0.00000000000E+00 0. -1.
        -14    1    5    5    0    0  0.27897377790E+02  0.89357175056E+02  0.46652675452E+02  0.10459178050E+03  0.00000000000E+00 0.  1.
         15    1    3    3    0    0  0.53912626100E+03 -0.56968868500E+02  0.24941005060E+03  0.59675045735E+03  0.17770000000E+01 0. -1.
        -16    1    3    3    0    0  0.10999088439E+03 -0.56921326736E+01  0.92380293725E+02  0.14375156935E+03  0.00000000000E+00 0.  1.
          2    1    6    6  502    0 -0.67404532694E+03 -0.49530354600E+02  0.10029770481E+03  0.68326421565E+03  0.00000000000E+00 0. -1.
         -1    1    6    6    0  502 -0.34510113598E+02  0.79778765395E+01 -0.93028336649E+01  0.36621539684E+02  0.00000000000E+00 0.  1.
<mgrwt>
<rscale>  0 0.74601353E+03</rscale>
<asrwt>0</asrwt>
<pdfrwt beam="1">  1        1 0.17028838E+00 0.74601353E+03</pdfrwt>
<pdfrwt beam="2">  1       -2 0.84055395E-01 0.74601353E+03</pdfrwt>
<totfact> 0.13929119E+01</totfact>
</mgrwt>
</event>
<event>
12    3  0.1092576E-007  0.9403956E+03  0.7818608E-02  0.9376448E-01
         -2   -1    0    0    0  501 -0.00000000000E+00  0.00000000000E+00  0.19492767339E+04  0.19492767339E+04  0.00000000000E+00 0.  1.
          1   -1    0    0  501    0  0.00000000000E+00 -0.00000000000E+00 -0.50773914670E+03  0.50773914670E+03  0.00000000000E+00 0. -1.
        -24    2    1    2    0    0  0.72699990759E+03  0.46117054761E+03  0.99048986130E+03  0.13147559779E+04  0.79410178956E+02 0.  0.
    5000000    2    1    2    0    0 -0.72699990759E+03 -0.46117054761E+03  0.45104772594E+03  0.11422599027E+04  0.60008873899E+03 0.  0.
        -24    2    4    4    0    0 -0.80028337866E+03 -0.33446073955E+03  0.31436420211E+03  0.92610958423E+03  0.80849477269E+02 0.  0.
         24    2    4    4    0    0  0.73283471072E+02 -0.12670980806E+03  0.13668352383E+03  0.21615031849E+03  0.81318705750E+02 0.  0.
         13    1    5    5    0    0 -0.72096961789E+03 -0.27451670918E+03  0.27149060518E+03  0.81784091499E+03  0.00000000000E+00 0. -1.
        -14    1    5    5    0    0 -0.79313760776E+02 -0.59944030366E+02  0.42873596934E+02  0.10826866924E+03  0.00000000000E+00 0.  1.
         15    1    3    3    0    0  0.51874236316E+03  0.33527968773E+03  0.76258685120E+03  0.98135007602E+03  0.17770000000E+01 0. -1.
        -16    1    3    3    0    0  0.20825754443E+03  0.12589085988E+03  0.22790301009E+03  0.33340590190E+03  0.00000000000E+00 0.  1.
          2    1    6    6  502    0  0.59466936755E+02 -0.76943759216E+02  0.13246790757E+03  0.16433017126E+03  0.00000000000E+00 0. -1.
         -1    1    6    6    0  502  0.13816534317E+02 -0.49766048847E+02  0.42156162541E+01  0.51820147229E+02  0.00000000000E+00 0.  1.
<mgrwt>
<rscale>  0 0.94039558E+03</rscale>
<asrwt>0</asrwt>
<pdfrwt beam="1">  1        1 0.78113715E-01 0.94039558E+03</pdfrwt>
<pdfrwt beam="2">  1       -2 0.29988873E+00 0.94039558E+03</pdfrwt>
<totfact> 0.12308973E+00</totfact>
</mgrwt>
</event>
<event>
12    3  0.1092576E-007  0.9031613E+03  0.7818608E-02  0.9421638E-01
         -2   -1    0    0    0  501 -0.00000000000E+00  0.00000000000E+00  0.11935253688E+04  0.11935253688E+04  0.00000000000E+00 0.  1.
          1   -1    0    0  501    0  0.00000000000E+00 -0.00000000000E+00 -0.81302109442E+03  0.81302109442E+03  0.00000000000E+00 0. -1.
        -24    2    1    2    0    0 -0.13691758562E+03  0.87778471103E+03  0.93940895551E+02  0.89694913657E+03  0.80252336782E+02 0.  0.
    5000000    2    1    2    0    0  0.13691758562E+03 -0.87778471103E+03  0.28656337879E+03  0.11095973266E+04  0.59986267842E+03 0.  0.
        -24    2    4    4    0    0  0.15818464765E+03 -0.70615161037E+03 -0.42020939122E+02  0.73007775019E+03  0.87036098288E+02 0.  0.
         24    2    4    4    0    0 -0.21267062023E+02 -0.17163310066E+03  0.32858431791E+03  0.37951957641E+03  0.78468119235E+02 0.  0.
         11    1    5    5    0    0  0.26377130669E+02 -0.37827481320E+02 -0.14432740684E+02  0.48321582849E+02  0.00000000000E+00 0. -1.
        -12    1    5    5    0    0  0.13180751698E+03 -0.66832412905E+03 -0.27588198438E+02  0.68175616734E+03  0.00000000000E+00 0.  1.
         15    1    3    3    0    0 -0.11058056480E+03  0.78334057992E+03  0.60759165702E+02  0.79343894498E+03  0.17770000000E+01 0. -1.
        -16    1    3    3    0    0 -0.26337020827E+02  0.94444131114E+02  0.33181729849E+02  0.10351019159E+03  0.00000000000E+00 0.  1.
          4    1    6    6  502    0  0.27985576776E+02 -0.36299740568E+02  0.83534373696E+02  0.95283027143E+02  0.00000000000E+00 0. -1.
         -3    1    6    6    0  502 -0.49252638799E+02 -0.13533336009E+03  0.24504994421E+03  0.28423654927E+03  0.00000000000E+00 0.  1.
<mgrwt>
<rscale>  0 0.90316134E+03</rscale>
<asrwt>0</asrwt>
<pdfrwt beam="1">  1        1 0.12508017E+00 0.90316134E+03</pdfrwt>
<pdfrwt beam="2">  1       -2 0.18361929E+00 0.90316134E+03</pdfrwt>
<totfact> 0.32543352E+00</totfact>
</mgrwt>
</event>
<event>
12    3  0.1092576E-007  0.7779075E+03  0.7818608E-02  0.9592557E-01
         -2   -1    0    0    0  501 -0.00000000000E+00  0.00000000000E+00  0.86176650734E+03  0.86176650734E+03  0.00000000000E+00 0.  1.
          1   -1    0    0  501    0  0.00000000000E+00 -0.00000000000E+00 -0.71379101504E+03  0.71379101504E+03  0.00000000000E+00 0. -1.
        -24    2    1    2    0    0  0.60997242739E+03 -0.26611711570E+03  0.10745408615E+03  0.67862666511E+03  0.78122266477E+02 0.  0.
    5000000    2    1    2    0    0 -0.60997242739E+03  0.26611711570E+03  0.40521406150E+02  0.89693085727E+03  0.59996524643E+03 0.  0.
        -24    2    4    4    0    0 -0.46849014878E+03  0.44452316689E+03 -0.75261656299E+01  0.65077082912E+03  0.79763170996E+02 0.  0.
         24    2    4    4    0    0 -0.14148227861E+03 -0.17840605120E+03  0.48047571780E+02  0.24616002815E+03  0.80251081248E+02 0.  0.
         13    1    5    5    0    0 -0.18353622713E+03  0.13953106028E+03  0.26089446806E+02  0.23202397007E+03  0.00000000000E+00 0. -1.
        -14    1    5    5    0    0 -0.28495392165E+03  0.30499210661E+03 -0.33615612436E+02  0.41874685905E+03  0.00000000000E+00 0.  1.
         15    1    3    3    0    0  0.17242959446E+03 -0.99125869510E+02  0.36457421210E+01  0.19893303450E+03  0.17770000000E+01 0. -1.
        -16    1    3    3    0    0  0.43754283293E+03 -0.16699124618E+03  0.10380834403E+03  0.47969363060E+03  0.00000000000E+00 0.  1.
          4    1    6    6  502    0 -0.63833291956E+02 -0.14031430705E+03  0.21218216937E+02  0.15560529121E+03  0.00000000000E+00 0. -1.
         -3    1    6    6    0  502 -0.77648986652E+02 -0.38091744153E+02  0.26829354843E+02  0.90554736938E+02  0.00000000000E+00 0.  1.
<mgrwt>
<rscale>  0 0.77790750E+03</rscale>
<asrwt>0</asrwt>
<pdfrwt beam="1">  1        1 0.10981400E+00 0.77790750E+03</pdfrwt>
<pdfrwt beam="2">  1       -2 0.13257946E+00 0.77790750E+03</pdfrwt>
<totfact> 0.97416271E+00</totfact>
</mgrwt>
</event>
<event>
12    3  0.1092576E-007  0.8007896E+03  0.7818608E-02  0.9558875E-01
          1   -1    0    0  501    0  0.00000000000E+00  0.00000000000E+00  0.12964310405E+04  0.12964310405E+04  0.00000000000E+00 0. -1.
         -2   -1    0    0    0  501 -0.00000000000E+00 -0.00000000000E+00 -0.54059295189E+03  0.54059295189E+03  0.00000000000E+00 0.  1.
        -24    2    1    2    0    0 -0.18227853515E+03 -0.69385070936E+03  0.46072124017E+03  0.85598998775E+03  0.76161189055E+02 0.  0.
    5000000    2    1    2    0    0  0.18227853515E+03  0.69385070936E+03  0.29511684848E+03  0.98103400467E+03  0.60056597707E+03 0.  0.
        -24    2    4    4    0    0  0.11669470388E+03  0.76174010871E+03  0.14735202898E+03  0.78790403569E+03  0.72211507982E+02 0.  0.
         24    2    4    4    0    0  0.65583831271E+02 -0.67889399346E+02  0.14776481950E+03  0.19312996898E+03  0.80960073925E+02 0.  0.
         11    1    5    5    0    0  0.53145116036E+02  0.42094867195E+03  0.46293564190E+02  0.42680824953E+03  0.00000000000E+00 0. -1.
        -12    1    5    5    0    0  0.63549587847E+02  0.34079143676E+03  0.10105846479E+03  0.36109578617E+03  0.00000000000E+00 0.  1.
         15    1    3    3    0    0 -0.18866805411E+02 -0.18651068739E+03  0.10092846124E+03  0.21291290443E+03  0.17770000000E+01 0. -1.
        -16    1    3    3    0    0 -0.16341172974E+03 -0.50734002197E+03  0.35979277893E+03  0.64307708332E+03  0.00000000000E+00 0.  1.
          4    1    6    6  502    0  0.20085183510E+02 -0.60881410220E+02  0.39039275774E+02  0.75060147615E+02  0.00000000000E+00 0. -1.
         -3    1    6    6    0  502  0.45498647760E+02 -0.70079891262E+01  0.10872554372E+03  0.11806982137E+03  0.00000000000E+00 0.  1.
<mgrwt>
<rscale>  0 0.80078957E+03</rscale>
<asrwt>0</asrwt>
<pdfrwt beam="1">  1        1 0.19945093E+00 0.80078957E+03</pdfrwt>
<pdfrwt beam="2">  1       -2 0.83168147E-01 0.80078957E+03</pdfrwt>
<totfact> 0.10330545E+01</totfact>
</mgrwt>
</event>
<event>
12    3  0.1092576E-007  0.4854041E+03  0.7818608E-02  0.1017660E+00
          1   -1    0    0  501    0  0.00000000000E+00  0.00000000000E+00  0.20775643134E+04  0.20775643134E+04  0.00000000000E+00 0. -1.
         -2   -1    0    0    0  501 -0.00000000000E+00 -0.00000000000E+00 -0.42735703012E+03  0.42735703012E+03  0.00000000000E+00 0.  1.
        -24    2    1    2    0    0 -0.30874361226E+03  0.11317817944E+03 -0.29148291408E+03  0.44627591392E+03  0.77897263959E+02 0.  0.
    5000000    2    1    2    0    0  0.30874361226E+03 -0.11317817944E+03  0.19416901974E+04  0.20586454296E+04  0.59977351046E+03 0.  0.
        -24    2    4    4    0    0  0.24008453718E+03 -0.32166945776E+03  0.86752189764E+03  0.95927963346E+03  0.80692919442E+02 0.  0.
         24    2    4    4    0    0  0.68659075089E+02  0.20849127832E+03  0.10741682997E+04  0.10993657961E+04  0.81147617635E+02 0.  0.
         13    1    5    5    0    0  0.15099143380E+02 -0.70419312839E+01  0.12466929089E+02  0.20808585918E+02  0.00000000000E+00 0. -1.
        -14    1    5    5    0    0  0.22498539380E+03 -0.31462752648E+03  0.85505496855E+03  0.93847104755E+03  0.00000000000E+00 0.  1.
         15    1    3    3    0    0 -0.21692236229E+03  0.10586646431E+03 -0.24161320075E+03  0.34153054920E+03  0.17770000000E+01 0. -1.
        -16    1    3    3    0    0 -0.91821249972E+02  0.73117151341E+01 -0.49869713329E+02  0.10474536473E+03  0.00000000000E+00 0.  1.
          2    1    6    6  502    0  0.41498124092E+02  0.25166819610E+02  0.20656825790E+03  0.21219309198E+03  0.00000000000E+00 0. -1.
         -1    1    6    6    0  502  0.27160950997E+02  0.18332445871E+03  0.86760004182E+03  0.88717270415E+03  0.00000000000E+00 0.  1.
<mgrwt>
<rscale>  0 0.48540406E+03</rscale>
<asrwt>0</asrwt>
<pdfrwt beam="1">  1        1 0.31962527E+00 0.48540406E+03</pdfrwt>
<pdfrwt beam="2">  1       -2 0.65747237E-01 0.48540406E+03</pdfrwt>
<totfact> 0.54414354E+00</totfact>
</mgrwt>
</event>
<event>
12    3  0.1092576E-007  0.4684511E+03  0.7818608E-02  0.1022358E+00
          1   -1    0    0  501    0  0.00000000000E+00  0.00000000000E+00  0.12462187826E+04  0.12462187826E+04  0.00000000000E+00 0. -1.
         -2   -1    0    0    0  501 -0.00000000000E+00 -0.00000000000E+00 -0.20775491118E+03  0.20775491118E+03  0.00000000000E+00 0.  1.
        -24    2    1    2    0    0 -0.28441611722E+03  0.14228897964E+02  0.56633272632E+03  0.63912780650E+03  0.81588031387E+02 0.  0.
    5000000    2    1    2    0    0  0.28441611722E+03 -0.14228897964E+02  0.47213114507E+03  0.81484588726E+03  0.59997584331E+03 0.  0.
        -24    2    4    4    0    0 -0.11765184990E+03  0.16019976866E+03  0.11511048224E+03  0.24393736178E+03  0.82152843463E+02 0.  0.
         24    2    4    4    0    0  0.40206796712E+03 -0.17442866662E+03  0.35702066283E+03  0.57090852547E+03  0.79929849513E+02 0.  0.
         13    1    5    5    0    0 -0.12771798469E+01  0.41351736811E+02 -0.49161378587E+00  0.41374376246E+02  0.00000000000E+00 0. -1.
        -14    1    5    5    0    0 -0.11637467006E+03  0.11884803185E+03  0.11560209603E+03  0.20256298554E+03  0.00000000000E+00 0.  1.
         15    1    3    3    0    0 -0.18530947584E+03 -0.58703358891E+01  0.43883024393E+03  0.47639185907E+03  0.17770000000E+01 0. -1.
        -16    1    3    3    0    0 -0.99106641380E+02  0.20099233853E+02  0.12750248240E+03  0.16273594743E+03  0.00000000000E+00 0.  1.
          2    1    6    6  502    0  0.88614568871E+02 -0.11402834991E+02  0.47473162514E+02  0.10117444154E+03  0.00000000000E+00 0. -1.
         -1    1    6    6    0  502  0.31345339825E+03 -0.16302583163E+03  0.30954750032E+03  0.46973408393E+03  0.00000000000E+00 0.  1.
<mgrwt>
<rscale>  0 0.46845106E+03</rscale>
<asrwt>0</asrwt>
<pdfrwt beam="1">  1        1 0.19172596E+00 0.46845106E+03</pdfrwt>
<pdfrwt beam="2">  1       -2 0.31962295E-01 0.46845106E+03</pdfrwt>
<totfact> 0.83068277E+01</totfact>
</mgrwt>
</event>
<event>
12    3  0.1092576E-007  0.4527557E+03  0.7818608E-02  0.1026903E+00
         -2   -1    0    0    0  501 -0.00000000000E+00  0.00000000000E+00  0.21025245358E+03  0.21025245358E+03  0.00000000000E+00 0.  1.
          1   -1    0    0  501    0  0.00000000000E+00 -0.00000000000E+00 -0.11191345235E+04  0.11191345235E+04  0.00000000000E+00 0. -1.
        -24    2    1    2    0    0  0.29072490654E+03 -0.30162527566E+02 -0.27844119354E+03  0.41142195009E+03  0.79421492091E+02 0.  0.
    5000000    2    1    2    0    0 -0.29072490654E+03  0.30162527566E+02 -0.63044087636E+03  0.91796502698E+03  0.59981108927E+03 0.  0.
        -24    2    4    4    0    0 -0.41598445401E+03 -0.81918568508E+02 -0.58394908237E+03  0.72608742416E+03  0.80328692740E+02 0.  0.
         24    2    4    4    0    0  0.12525954748E+03  0.11208109607E+03 -0.46491793997E+02  0.19187760282E+03  0.80021254823E+02 0.  0.
         11    1    5    5    0    0 -0.35423922981E+03 -0.43215272616E+02 -0.45854956276E+03  0.58105136884E+03  0.00000000000E+00 0. -1.
        -12    1    5    5    0    0 -0.61745224202E+02 -0.38703295892E+02 -0.12539951960E+03  0.14503605531E+03  0.00000000000E+00 0.  1.
         15    1    3    3    0    0  0.66403258372E+02 -0.40427127009E+02 -0.82862429636E+02  0.11363575711E+03  0.17770000000E+01 0. -1.
        -16    1    3    3    0    0  0.22432164817E+03  0.10264599443E+02 -0.19557876391E+03  0.29778619298E+03  0.00000000000E+00 0.  1.
          2    1    6    6  502    0  0.73717995387E+02  0.92587783928E+02 -0.63367114058E+02  0.13424690581E+03  0.00000000000E+00 0. -1.
         -1    1    6    6    0  502  0.51541552088E+02  0.19493312146E+02  0.16875320061E+02  0.57630697005E+02  0.00000000000E+00 0.  1.
<mgrwt>
<rscale>  0 0.45275573E+03</rscale>
<asrwt>0</asrwt>
<pdfrwt beam="1">  1        1 0.17217454E+00 0.45275573E+03</pdfrwt>
<pdfrwt beam="2">  1       -2 0.32346532E-01 0.45275573E+03</pdfrwt>
<totfact> 0.10042026E+02</totfact>
</mgrwt>
</event>
<event>
12    3  0.1092576E-007  0.6112857E+03  0.7818608E-02  0.9882265E-01
         -2   -1    0    0    0  501 -0.00000000000E+00  0.00000000000E+00  0.80015470645E+03  0.80015470645E+03  0.00000000000E+00 0.  1.
          1   -1    0    0  501    0  0.00000000000E+00 -0.00000000000E+00 -0.90189839871E+03  0.90189839871E+03  0.00000000000E+00 0. -1.
        -24    2    1    2    0    0  0.55935620864E+03 -0.16685111090E+03  0.41273125449E+03  0.71953823867E+03  0.81667172854E+02 0.  0.
    5000000    2    1    2    0    0 -0.55935620864E+03  0.16685111090E+03 -0.51447494675E+03  0.98251486648E+03  0.59994360624E+03 0.  0.
        -24    2    4    4    0    0 -0.30566017116E+03  0.20679739835E+03  0.26999139378E+02  0.37868351790E+03  0.80491918885E+02 0.  0.
         24    2    4    4    0    0 -0.25369603748E+03 -0.39946287449E+02 -0.54147408613E+03  0.60383134858E+03  0.73896727029E+02 0.  0.
         11    1    5    5    0    0 -0.30728292372E+03  0.19519667742E+03  0.19069673799E+02  0.36453832521E+03  0.00000000000E+00 0. -1.
        -12    1    5    5    0    0  0.16227525617E+01  0.11600720930E+02  0.79294655797E+01  0.14145192694E+02  0.00000000000E+00 0.  1.
         15    1    3    3    0    0  0.13417914148E+03 -0.29101678963E+02  0.13929109885E+03  0.19559171167E+03  0.17770000000E+01 0. -1.
        -16    1    3    3    0    0  0.42517706716E+03 -0.13774943194E+03  0.27344015564E+03  0.52394652700E+03  0.00000000000E+00 0.  1.
          2    1    6    6  502    0 -0.25352397370E+03 -0.45025927238E+02 -0.50352329180E+03  0.56554172680E+03  0.00000000000E+00 0. -1.
         -1    1    6    6    0  502 -0.17206378679E+00  0.50796397882E+01 -0.37950794327E+02  0.38289621784E+02  0.00000000000E+00 0.  1.
<mgrwt>
<rscale>  0 0.61128571E+03</rscale>
<asrwt>0</asrwt>
<pdfrwt beam="1">  1        1 0.13875360E+00 0.61128571E+03</pdfrwt>
<pdfrwt beam="2">  1       -2 0.12310072E+00 0.61128571E+03</pdfrwt>
<totfact> 0.82520656E+00</totfact>
</mgrwt>
</event>
<event>
12    3  0.1111876E-007  0.1633354E+04  0.7818608E-02  0.8800316E-01
         -2   -1    0    0    0  501 -0.00000000000E+00  0.00000000000E+00  0.97213804368E+03  0.97213804368E+03  0.00000000000E+00 0.  1.
          1   -1    0    0  501    0  0.00000000000E+00 -0.00000000000E+00 -0.32796352898E+04  0.32796352898E+04  0.00000000000E+00 0. -1.
        -24    2    1    2    0    0 -0.15741136600E+04 -0.28970612692E+03 -0.32681501600E+03  0.16354880431E+04  0.79054601888E+02 0.  0.
    5000000    2    1    2    0    0  0.15741136600E+04  0.28970612692E+03 -0.19806822301E+04  0.26162852903E+04  0.60006930378E+03 0.  0.
        -24    2    4    4    0    0  0.71379529404E+03 -0.91353701981E+02 -0.11490466844E+04  0.13580832488E+04  0.78946861955E+02 0.  0.
         24    2    4    4    0    0  0.86031836592E+03  0.38105982890E+03 -0.83163554570E+03  0.12582020416E+04  0.78105137966E+02 0.  0.
         13    1    5    5    0    0  0.36934585852E+03 -0.86229923732E+02 -0.58746354535E+03  0.69926059524E+03  0.00000000000E+00 0. -1.
        -14    1    5    5    0    0  0.34444943552E+03 -0.51237782491E+01 -0.56158313904E+03  0.65882265352E+03  0.00000000000E+00 0.  1.
         15    1    3    3    0    0 -0.56425454060E+03 -0.82160245485E+02 -0.84575902515E+02  0.57644577676E+03  0.17770000000E+01 0. -1.
        -16    1    3    3    0    0 -0.10098591194E+04 -0.20754588144E+03 -0.24223911349E+03  0.10590422664E+04  0.00000000000E+00 0.  1.
          4    1    6    6  502    0  0.30476057994E+03  0.15584712104E+03 -0.25970510622E+03  0.42966740441E+03  0.00000000000E+00 0. -1.
         -3    1    6    6    0  502  0.55555778598E+03  0.22521270787E+03 -0.57193043948E+03  0.82853463715E+03  0.00000000000E+00 0.  1.
<mgrwt>
<rscale>  0 0.16333536E+04</rscale>
<asrwt>0</asrwt>
<pdfrwt beam="1">  1        1 0.50455927E+00 0.16333536E+04</pdfrwt>
<pdfrwt beam="2">  1       -2 0.14955970E+00 0.16333536E+04</pdfrwt>
<totfact> 0.91774754E-02</totfact>
</mgrwt>
</event>
<event>
12    3  0.1092576E-007  0.1574373E+04  0.7818608E-02  0.8836448E-01
          1   -1    0    0  501    0  0.00000000000E+00  0.00000000000E+00  0.29565621368E+04  0.29565621368E+04  0.00000000000E+00 0. -1.
         -2   -1    0    0    0  501 -0.00000000000E+00 -0.00000000000E+00 -0.94549268588E+03  0.94549268588E+03  0.00000000000E+00 0.  1.
        -24    2    1    2    0    0  0.49252999854E+03  0.14417711748E+04  0.34269685593E+03  0.15644230215E+04  0.93211240202E+02 0.  0.
    5000000    2    1    2    0    0 -0.49252999854E+03 -0.14417711748E+04  0.16683725950E+04  0.23376318012E+04  0.59980446999E+03 0.  0.
        -24    2    4    4    0    0 -0.45317089255E+03 -0.47889343922E+03  0.77639299479E+03  0.10220856372E+04  0.84676936197E+02 0.  0.
         24    2    4    4    0    0 -0.39359105989E+02 -0.96287773557E+03  0.89197960024E+03  0.13155461640E+04  0.79695855386E+02 0.  0.
         11    1    5    5    0    0 -0.22863649284E+03 -0.27502976143E+03  0.36534401944E+03  0.51126535974E+03  0.00000000000E+00 0. -1.
        -12    1    5    5    0    0 -0.22453439971E+03 -0.20386367779E+03  0.41104897535E+03  0.51082027750E+03  0.00000000000E+00 0.  1.
         15    1    3    3    0    0  0.36130505925E+03  0.10475179573E+04  0.29137062664E+03  0.11457465760E+04  0.17770000000E+01 0. -1.
        -16    1    3    3    0    0  0.13122493929E+03  0.39425321753E+03  0.51326229295E+02  0.41867644553E+03  0.00000000000E+00 0.  1.
          2    1    6    6  502    0 -0.29490122043E+02 -0.34369324961E+03  0.36738977683E+03  0.50395432853E+03  0.00000000000E+00 0. -1.
         -1    1    6    6    0  502 -0.98689839454E+01 -0.61918448596E+03  0.52458982341E+03  0.81159183542E+03  0.00000000000E+00 0.  1.
<mgrwt>
<rscale>  0 0.15743727E+04</rscale>
<asrwt>0</asrwt>
<pdfrwt beam="1">  1        1 0.45485571E+00 0.15743727E+04</pdfrwt>
<pdfrwt beam="2">  1       -2 0.14546041E+00 0.15743727E+04</pdfrwt>
<totfact> 0.17251905E-01</totfact>
</mgrwt>
</event>
<event>
12    3  0.1092576E-007  0.5102647E+03  0.7818608E-02  0.1011134E+00
         -2   -1    0    0    0  501 -0.00000000000E+00  0.00000000000E+00  0.17024498565E+03  0.17024498565E+03  0.00000000000E+00 0.  1.
          1   -1    0    0  501    0  0.00000000000E+00 -0.00000000000E+00 -0.16346335652E+04  0.16346335652E+04  0.00000000000E+00 0. -1.
        -24    2    1    2    0    0 -0.34475431949E+03 -0.65283109914E+02 -0.52772276855E+03  0.63849672426E+03  0.77905848263E+02 0.  0.
    5000000    2    1    2    0    0  0.34475431949E+03  0.65283109914E+02 -0.93666581095E+03  0.11663818265E+04  0.59998858210E+03 0.  0.
        -24    2    4    4    0    0  0.53398175014E+02  0.28827180730E+03 -0.53922655306E+03  0.61948553068E+03  0.83934779552E+02 0.  0.
         24    2    4    4    0    0  0.29135614448E+03 -0.22298869738E+03 -0.39743925789E+03  0.54689629587E+03  0.80778912081E+02 0.  0.
         11    1    5    5    0    0  0.12509026773E+02  0.20490616842E+03 -0.42731786098E+03  0.47407126882E+03  0.00000000000E+00 0. -1.
        -12    1    5    5    0    0  0.40889148241E+02  0.83365638873E+02 -0.11190869208E+03  0.14541426186E+03  0.00000000000E+00 0.  1.
         15    1    3    3    0    0 -0.23421138582E+03 -0.29360030258E+02 -0.29037482544E+03  0.37421608945E+03  0.17770000000E+01 0. -1.
        -16    1    3    3    0    0 -0.11054293368E+03 -0.35923079656E+02 -0.23734794311E+03  0.26428063481E+03  0.00000000000E+00 0.  1.
          4    1    6    6  502    0  0.14103597075E+03 -0.13848599688E+03 -0.25870413435E+03  0.32557233529E+03  0.00000000000E+00 0. -1.
         -3    1    6    6    0  502  0.15032017373E+03 -0.84502700498E+02 -0.13873512354E+03  0.22132396058E+03  0.00000000000E+00 0.  1.
<mgrwt>
<rscale>  0 0.51026474E+03</rscale>
<asrwt>0</asrwt>
<pdfrwt beam="1">  1        1 0.25148208E+00 0.51026474E+03</pdfrwt>
<pdfrwt beam="2">  1       -2 0.26191537E-01 0.51026474E+03</pdfrwt>
<totfact> 0.64542426E+01</totfact>
</mgrwt>
</event>
<event>
12    3  0.1092576E-007  0.3982809E+03  0.7818608E-02  0.1044377E+00
          1   -1    0    0  501    0  0.00000000000E+00  0.00000000000E+00  0.66091583332E+03  0.66091583332E+03  0.00000000000E+00 0. -1.
         -2   -1    0    0    0  501 -0.00000000000E+00 -0.00000000000E+00 -0.26270904237E+03  0.26270904237E+03  0.00000000000E+00 0.  1.
        -24    2    1    2    0    0 -0.56304233140E+02  0.17745517301E+03  0.68432116136E+02  0.21406239200E+03  0.80493776473E+02 0.  0.
    5000000    2    1    2    0    0  0.56304233140E+02 -0.17745517301E+03  0.32977467482E+03  0.70956248369E+03  0.60005589491E+03 0.  0.
        -24    2    4    4    0    0 -0.23835641787E+03  0.25871334598E+02  0.85292584777E+02  0.26892655226E+03  0.86968716195E+02 0.  0.
         24    2    4    4    0    0  0.29466065101E+03 -0.20332650761E+03  0.24448209004E+03  0.44063593144E+03  0.78879425498E+02 0.  0.
         11    1    5    5    0    0 -0.41773059571E+02 -0.19597320885E+01  0.53418357529E+02  0.67840621878E+02  0.00000000000E+00 0. -1.
        -12    1    5    5    0    0 -0.19658335830E+03  0.27831066686E+02  0.31874227248E+02  0.20108593038E+03  0.00000000000E+00 0.  1.
         15    1    3    3    0    0 -0.45772700020E+02  0.68108621510E+02 -0.45014093521E+01  0.82203070540E+02  0.17770000000E+01 0. -1.
        -16    1    3    3    0    0 -0.10531533120E+02  0.10934655150E+03  0.72933525488E+02  0.13185932146E+03  0.00000000000E+00 0.  1.
          4    1    6    6  502    0  0.45735347051E+02 -0.65035782108E+02  0.74752988338E+02  0.10913012503E+03  0.00000000000E+00 0. -1.
         -3    1    6    6    0  502  0.24892530396E+03 -0.13829072550E+03  0.16972910171E+03  0.33150580640E+03  0.00000000000E+00 0.  1.
<mgrwt>
<rscale>  0 0.39828090E+03</rscale>
<asrwt>0</asrwt>
<pdfrwt beam="1">  1        1 0.10167936E+00 0.39828090E+03</pdfrwt>
<pdfrwt beam="2">  1       -2 0.40416776E-01 0.39828090E+03</pdfrwt>
<totfact> 0.15674585E+02</totfact>
</mgrwt>
</event>
<event>
12    3  0.1092576E-007  0.4715728E+03  0.7818608E-02  0.1021477E+00
         -2   -1    0    0    0  501 -0.00000000000E+00  0.00000000000E+00  0.84218144993E+03  0.84218144993E+03  0.00000000000E+00 0.  1.
          1   -1    0    0  501    0  0.00000000000E+00 -0.00000000000E+00 -0.37233957069E+03  0.37233957069E+03  0.00000000000E+00 0. -1.
        -24    2    1    2    0    0  0.21616887805E+03  0.19390181782E+03  0.45822032899E+03  0.54794017846E+03  0.77108173862E+02 0.  0.
    5000000    2    1    2    0    0 -0.21616887805E+03 -0.19390181782E+03  0.11621550250E+02  0.66658084216E+03  0.59989003984E+03 0.  0.
        -24    2    4    4    0    0  0.70005027951E+02  0.16586702740E+03  0.39444124561E+02  0.19882049157E+03  0.74573280674E+02 0.  0.
         24    2    4    4    0    0 -0.28617390601E+03 -0.35976884522E+03 -0.27822574310E+02  0.46776035058E+03  0.81832288671E+02 0.  0.
         13    1    5    5    0    0 -0.56274963349E+00  0.41561302756E+01  0.21007708046E+02  0.21422275868E+02  0.00000000000E+00 0. -1.
        -14    1    5    5    0    0  0.70567777585E+02  0.16171089712E+03  0.18436416515E+02  0.17739821570E+03  0.00000000000E+00 0.  1.
         15    1    3    3    0    0  0.18238757513E+03  0.12080467087E+03  0.31282609864E+03  0.38173593200E+03  0.17770000000E+01 0. -1.
        -16    1    3    3    0    0  0.33781302925E+02  0.73097146952E+02  0.14539423035E+03  0.16620424645E+03  0.00000000000E+00 0.  1.
          4    1    6    6  502    0 -0.12411454454E+03 -0.20172687461E+03  0.15227218992E+02  0.23733946218E+03  0.00000000000E+00 0. -1.
         -3    1    6    6    0  502 -0.16205936147E+03 -0.15804197060E+03 -0.43049793303E+02  0.23042088841E+03  0.00000000000E+00 0.  1.
<mgrwt>
<rscale>  0 0.47157279E+03</rscale>
<asrwt>0</asrwt>
<pdfrwt beam="1">  1        1 0.57283011E-01 0.47157279E+03</pdfrwt>
<pdfrwt beam="2">  1       -2 0.12956638E+00 0.47157279E+03</pdfrwt>
<totfact> 0.26367408E+01</totfact>
</mgrwt>
</event>
<event>
12    3  0.1092576E-007  0.7916353E+03  0.7818608E-02  0.9572204E-01
          1   -1    0    0  501    0  0.00000000000E+00  0.00000000000E+00  0.11374630547E+04  0.11374630547E+04  0.00000000000E+00 0. -1.
         -2   -1    0    0    0  501 -0.00000000000E+00 -0.00000000000E+00 -0.61698238415E+03  0.61698238415E+03  0.00000000000E+00 0.  1.
        -24    2    1    2    0    0  0.67330816822E+03  0.27169353446E+03  0.27208343192E+03  0.78025590362E+03  0.87227376144E+02 0.  0.
    5000000    2    1    2    0    0 -0.67330816822E+03 -0.27169353446E+03  0.24839723867E+03  0.97418953527E+03  0.60015231100E+03 0.  0.
        -24    2    4    4    0    0 -0.20205566130E+03  0.11512254860E+03 -0.10283360047E+03  0.26695139254E+03  0.81293327706E+02 0.  0.
         24    2    4    4    0    0 -0.47125250692E+03 -0.38681608306E+03  0.35123083914E+03  0.70723814273E+03  0.71533773710E+02 0.  0.
         11    1    5    5    0    0 -0.18687257502E+02  0.42595048678E+02 -0.35739038182E+02  0.58658593701E+02  0.00000000000E+00 0. -1.
        -12    1    5    5    0    0 -0.18336840380E+03  0.72527499925E+02 -0.67094562293E+02  0.20829279884E+03  0.00000000000E+00 0.  1.
         15    1    3    3    0    0  0.42412862286E+03  0.14473754144E+03  0.20419551361E+03  0.49247640567E+03  0.17770000000E+01 0. -1.
        -16    1    3    3    0    0  0.24917954536E+03  0.12695599302E+03  0.67887918308E+02  0.28777949795E+03  0.00000000000E+00 0.  1.
          4    1    6    6  502    0 -0.57931367584E+02 -0.70742476322E+02  0.74240716362E+02  0.11778041124E+03  0.00000000000E+00 0. -1.
         -3    1    6    6    0  502 -0.41332113933E+03 -0.31607360674E+03  0.27699012278E+03  0.58945773149E+03  0.00000000000E+00 0.  1.
<mgrwt>
<rscale>  0 0.79163534E+03</rscale>
<asrwt>0</asrwt>
<pdfrwt beam="1">  1        1 0.17499432E+00 0.79163534E+03</pdfrwt>
<pdfrwt beam="2">  1       -2 0.94920367E-01 0.79163534E+03</pdfrwt>
<totfact> 0.99376087E+00</totfact>
</mgrwt>
</event>
<event>
12    3  0.1092576E-007  0.5604589E+03  0.7818608E-02  0.9991017E-01
          3   -1    0    0  501    0  0.00000000000E+00  0.00000000000E+00  0.17950151960E+04  0.17950151960E+04  0.00000000000E+00 0. -1.
         -4   -1    0    0    0  501 -0.00000000000E+00 -0.00000000000E+00 -0.26290216370E+03  0.26290216370E+03  0.00000000000E+00 0.  1.
        -24    2    1    2    0    0 -0.16311758262E+02  0.50652840334E+03  0.29264587641E+03  0.59055945416E+03  0.79257574200E+02 0.  0.
    5000000    2    1    2    0    0  0.16311758262E+02 -0.50652840334E+03  0.12394671559E+04  0.14673579055E+04  0.60001941267E+03 0.  0.
        -24    2    4    4    0    0 -0.36219883493E+02 -0.50744882343E+03  0.12675526590E+04  0.13681446991E+04  0.79460594119E+02 0.  0.
         24    2    4    4    0    0  0.52531641755E+02  0.92042008404E+00 -0.28085503101E+02  0.99213206439E+02  0.79335013007E+02 0.  0.
         11    1    5    5    0    0 -0.32106578966E+02 -0.69207991011E+02  0.20661967676E+03  0.22025500960E+03  0.00000000000E+00 0. -1.
        -12    1    5    5    0    0 -0.41133045272E+01 -0.43824083241E+03  0.10609329822E+04  0.11478896895E+04  0.00000000000E+00 0.  1.
         15    1    3    3    0    0 -0.35184250154E+02  0.46406975791E+03  0.27663792663E+03  0.54141515665E+03  0.17770000000E+01 0. -1.
        -16    1    3    3    0    0  0.18872491893E+02  0.42458645427E+02  0.16007949783E+02  0.49144297512E+02  0.00000000000E+00 0.  1.
          2    1    6    6  502    0  0.20390567081E+02  0.39397091580E+02 -0.19014028230E+02  0.48264265459E+02  0.00000000000E+00 0. -1.
         -1    1    6    6    0  502  0.32141074674E+02 -0.38476671496E+02 -0.90714748716E+01  0.50948940980E+02  0.00000000000E+00 0.  1.
<mgrwt>
<rscale>  0 0.56045892E+03</rscale>
<asrwt>0</asrwt>
<pdfrwt beam="1">  1        3 0.27615618E+00 0.56045892E+03</pdfrwt>
<pdfrwt beam="2">  1       -4 0.40446488E-01 0.56045892E+03</pdfrwt>
<totfact> 0.72945113E-01</totfact>
</mgrwt>
</event>
<event>
12    3  0.1092576E-007  0.4932901E+03  0.7818608E-02  0.1015545E+00
         -2   -1    0    0    0  501 -0.00000000000E+00  0.00000000000E+00  0.55430710440E+03  0.55430710440E+03  0.00000000000E+00 0.  1.
          1   -1    0    0  501    0  0.00000000000E+00 -0.00000000000E+00 -0.12229849111E+04  0.12229849111E+04  0.00000000000E+00 0. -1.
        -24    2    1    2    0    0  0.91227600067E+02  0.45086777943E+03  0.29519952966E+03  0.55228938474E+03  0.79224823389E+02 0.  0.
    5000000    2    1    2    0    0 -0.91227600067E+02 -0.45086777943E+03 -0.96387733639E+03  0.12250026308E+04  0.59997307964E+03 0.  0.
        -24    2    4    4    0    0  0.21958322720E+02 -0.33746206808E+03 -0.98372029089E+03  0.10433000306E+04  0.80040788925E+02 0.  0.
         24    2    4    4    0    0 -0.11318592279E+03 -0.11340571134E+03  0.19842954496E+02  0.18170260015E+03  0.83367761014E+02 0.  0.
         11    1    5    5    0    0  0.46743217356E+02 -0.20226493914E+03 -0.65127486679E+03  0.68356052116E+03  0.00000000000E+00 0. -1.
        -12    1    5    5    0    0 -0.24784894636E+02 -0.13519712894E+03 -0.33244542410E+03  0.35973950948E+03  0.00000000000E+00 0.  1.
         15    1    3    3    0    0  0.10067193074E+03  0.32808377506E+03  0.20649430795E+03  0.40052073360E+03  0.17770000000E+01 0. -1.
        -16    1    3    3    0    0 -0.94443306684E+01  0.12278400437E+03  0.88705221709E+02  0.15176865114E+03  0.00000000000E+00 0.  1.
          2    1    6    6  502    0  0.62635918957E+01  0.42246937467E+01  0.11613799193E+02  0.13854997379E+02  0.00000000000E+00 0. -1.
         -1    1    6    6    0  502 -0.11944951468E+03 -0.11763040509E+03  0.82291553028E+01  0.16784760277E+03  0.00000000000E+00 0.  1.
<mgrwt>
<rscale>  0 0.49329006E+03</rscale>
<asrwt>0</asrwt>
<pdfrwt beam="1">  1        1 0.18815152E+00 0.49329006E+03</pdfrwt>
<pdfrwt beam="2">  1       -2 0.85278018E-01 0.49329006E+03</pdfrwt>
<totfact> 0.11523084E+01</totfact>
</mgrwt>
</event>
<event>
12    3  0.1092576E-007  0.9965250E+03  0.7818608E-02  0.9312364E-01
         -2   -1    0    0    0  501 -0.00000000000E+00  0.00000000000E+00  0.59636660727E+03  0.59636660727E+03  0.00000000000E+00 0.  1.
          1   -1    0    0  501    0  0.00000000000E+00 -0.00000000000E+00 -0.19551689764E+04  0.19551689764E+04  0.00000000000E+00 0. -1.
        -24    2    1    2    0    0 -0.88146760543E+03  0.29890225684E+03 -0.10424369804E+04  0.13997630572E+04  0.79586805850E+02 0.  0.
    5000000    2    1    2    0    0  0.88146760543E+03 -0.29890225684E+03 -0.31636538878E+03  0.11517725265E+04  0.60013764672E+03 0.  0.
        -24    2    4    4    0    0  0.15004016969E+03 -0.28707269446E+03  0.36362708160E+02  0.33567993223E+03  0.80224596778E+02 0.  0.
         24    2    4    4    0    0  0.73142743574E+03 -0.11829562372E+02 -0.35272809694E+03  0.81609259427E+03  0.80398879023E+02 0.  0.
         13    1    5    5    0    0  0.82658113133E+02 -0.22039959555E+03  0.37034060548E+01  0.23541890451E+03  0.00000000000E+00 0. -1.
        -14    1    5    5    0    0  0.67382056556E+02 -0.66673098915E+02  0.32659302105E+02  0.10026102772E+03  0.00000000000E+00 0.  1.
         15    1    3    3    0    0 -0.17671153027E+03  0.55066976195E+02 -0.16238461807E+03  0.24623415424E+03  0.17770000000E+01 0. -1.
        -16    1    3    3    0    0 -0.70475607516E+03  0.24383528064E+03 -0.88005236229E+03  0.11535289029E+04  0.00000000000E+00 0.  1.
          2    1    6    6  502    0  0.28772851228E+03  0.85283688517E+01 -0.18013782487E+03  0.33957335850E+03  0.00000000000E+00 0. -1.
         -1    1    6    6    0  502  0.44369892346E+03 -0.20357931224E+02 -0.17259027207E+03  0.47651923577E+03  0.00000000000E+00 0.  1.
<mgrwt>
<rscale>  0 0.99652504E+03</rscale>
<asrwt>0</asrwt>
<pdfrwt beam="1">  1        1 0.30079523E+00 0.99652504E+03</pdfrwt>
<pdfrwt beam="2">  1       -2 0.91748709E-01 0.99652504E+03</pdfrwt>
<totfact> 0.28540473E+00</totfact>
</mgrwt>
</event>
<event>
12    3  0.1092576E-007  0.9131587E+03  0.7818608E-02  0.9409280E-01
          1   -1    0    0  501    0  0.00000000000E+00  0.00000000000E+00  0.94413559294E+03  0.94413559294E+03  0.00000000000E+00 0. -1.
         -2   -1    0    0    0  501 -0.00000000000E+00 -0.00000000000E+00 -0.96944365687E+03  0.96944365687E+03  0.00000000000E+00 0.  1.
        -24    2    1    2    0    0  0.76176312442E+03 -0.35893041354E+03  0.16631056932E+03  0.86208410440E+03  0.80098053106E+02 0.  0.
    5000000    2    1    2    0    0 -0.76176312442E+03  0.35893041354E+03 -0.19161863324E+03  0.10514951454E+04  0.59984184643E+03 0.  0.
        -24    2    4    4    0    0 -0.79473325468E+03  0.22264776204E+03 -0.40346877994E+02  0.83032324677E+03  0.81460736129E+02 0.  0.
         24    2    4    4    0    0  0.32970130260E+02  0.13628265149E+03 -0.15127175525E+03  0.22117189864E+03  0.79836546924E+02 0.  0.
         11    1    5    5    0    0 -0.33182288242E+02 -0.83051804475E+00 -0.14546078394E+02  0.36240066361E+02  0.00000000000E+00 0. -1.
        -12    1    5    5    0    0 -0.76155096643E+03  0.22347828009E+03 -0.25800799601E+02  0.79408318041E+03  0.00000000000E+00 0.  1.
         15    1    3    3    0    0  0.12708307467E+03 -0.91143169869E+02  0.17911812116E+02  0.15742037995E+03  0.17770000000E+01 0. -1.
        -16    1    3    3    0    0  0.63468004975E+03 -0.26778724367E+03  0.14839875720E+03  0.70466372445E+03  0.00000000000E+00 0.  1.
          2    1    6    6  502    0 -0.14116047995E+02  0.54106642192E+01  0.73631851141E+00  0.15135397690E+02  0.00000000000E+00 0. -1.
         -1    1    6    6    0  502  0.47086178255E+02  0.13087198727E+03 -0.15200807376E+03  0.20603650095E+03  0.00000000000E+00 0.  1.
<mgrwt>
<rscale>  0 0.91315870E+03</rscale>
<asrwt>0</asrwt>
<pdfrwt beam="1">  1        1 0.14525163E+00 0.91315870E+03</pdfrwt>
<pdfrwt beam="2">  1       -2 0.14914518E+00 0.91315870E+03</pdfrwt>
<totfact> 0.44902509E+00</totfact>
</mgrwt>
</event>
<event>
12    3  0.1092576E-007  0.5059109E+03  0.7818608E-02  0.1012248E+00
          1   -1    0    0  501    0  0.00000000000E+00  0.00000000000E+00  0.20561657198E+04  0.20561657198E+04  0.00000000000E+00 0. -1.
         -2   -1    0    0    0  501 -0.00000000000E+00 -0.00000000000E+00 -0.30629527778E+03  0.30629527778E+03  0.00000000000E+00 0.  1.
        -24    2    1    2    0    0  0.10972649271E+02  0.44828375777E+03 -0.40657228327E+01  0.45522678271E+03  0.78333690582E+02 0.  0.
    5000000    2    1    2    0    0 -0.10972649271E+02 -0.44828375777E+03  0.17539361648E+04  0.19072342148E+04  0.60014294422E+03 0.  0.
        -24    2    4    4    0    0 -0.13697216776E+03 -0.92832333307E+02  0.99934349273E+02  0.20890512053E+03  0.79216528386E+02 0.  0.
         24    2    4    4    0    0  0.12599951849E+03 -0.35545142446E+03  0.16540018155E+04  0.16983290943E+04  0.79863088841E+02 0.  0.
         13    1    5    5    0    0 -0.83906456672E+01 -0.44859950650E+02  0.32252921818E+02  0.55884426031E+02  0.00000000000E+00 0. -1.
        -14    1    5    5    0    0 -0.12858152209E+03 -0.47972382657E+02  0.67681427455E+02  0.15302069450E+03  0.00000000000E+00 0.  1.
         15    1    3    3    0    0  0.22884220961E+02  0.25846237431E+03  0.32633908183E+02  0.26152364367E+03  0.17770000000E+01 0. -1.
        -16    1    3    3    0    0 -0.11911571690E+02  0.18982138346E+03 -0.36699631016E+02  0.19370313904E+03  0.00000000000E+00 0.  1.
          4    1    6    6  502    0  0.12631638151E+03 -0.32305202893E+03  0.14029229865E+04  0.14451682766E+04  0.00000000000E+00 0. -1.
         -3    1    6    6    0  502 -0.31686301410E+00 -0.32399395532E+02  0.25107882905E+03  0.25316081773E+03  0.00000000000E+00 0.  1.
<mgrwt>
<rscale>  0 0.50591085E+03</rscale>
<asrwt>0</asrwt>
<pdfrwt beam="1">  1        1 0.31633318E+00 0.50591085E+03</pdfrwt>
<pdfrwt beam="2">  1       -2 0.47122352E-01 0.50591085E+03</pdfrwt>
<totfact> 0.11139297E+01</totfact>
</mgrwt>
</event>
<event>
12    3  0.1092576E-007  0.1475506E+04  0.7818608E-02  0.8900907E-01
         -2   -1    0    0    0  501 -0.00000000000E+00  0.00000000000E+00  0.13880189753E+04  0.13880189753E+04  0.00000000000E+00 0.  1.
          1   -1    0    0  501    0  0.00000000000E+00 -0.00000000000E+00 -0.18048031522E+04  0.18048031522E+04  0.00000000000E+00 0. -1.
        -24    2    1    2    0    0 -0.13553639548E+04 -0.53193496420E+03 -0.65811015159E+03  0.15996661060E+04  0.76527269497E+02 0.  0.
    5000000    2    1    2    0    0  0.13553639548E+04  0.53193496420E+03  0.24132597467E+03  0.15931560215E+04  0.59995135356E+03 0.  0.
        -24    2    4    4    0    0  0.13221763488E+04  0.47677366285E+03  0.90362081940E+02  0.14106426461E+04  0.79271345207E+02 0.  0.
         24    2    4    4    0    0  0.33187605987E+02  0.55161301356E+02  0.15096389273E+03  0.18251337540E+03  0.79855174739E+02 0.  0.
         11    1    5    5    0    0  0.10292753303E+04  0.35472117618E+03  0.99293351195E+02  0.10932035437E+04  0.00000000000E+00 0. -1.
        -12    1    5    5    0    0  0.29290101849E+03  0.12205248666E+03 -0.89312692546E+01  0.31743910236E+03  0.00000000000E+00 0.  1.
         15    1    3    3    0    0 -0.13962303593E+03 -0.45741951018E+02 -0.43512665186E+02  0.15324303575E+03  0.17770000000E+01 0. -1.
        -16    1    3    3    0    0 -0.12157409189E+04 -0.48619301318E+03 -0.61459748641E+03  0.14464230703E+04  0.00000000000E+00 0.  1.
          2    1    6    6  502    0  0.44801508020E+02  0.15517826832E+02  0.12507932696E+03  0.13376403142E+03  0.00000000000E+00 0. -1.
         -1    1    6    6    0  502 -0.11613902033E+02  0.39643474523E+02  0.25884565772E+02  0.48749343974E+02  0.00000000000E+00 0.  1.
<mgrwt>
<rscale>  0 0.14755056E+04</rscale>
<asrwt>0</asrwt>
<pdfrwt beam="1">  1        1 0.27766202E+00 0.14755056E+04</pdfrwt>
<pdfrwt beam="2">  1       -2 0.21354138E+00 0.14755056E+04</pdfrwt>
<totfact> 0.36372520E-01</totfact>
</mgrwt>
</event>
<event>
12    3  0.1092576E-007  0.1008390E+04  0.7818608E-02  0.9299390E-01
         -2   -1    0    0    0  501 -0.00000000000E+00  0.00000000000E+00  0.74683847834E+03  0.74683847834E+03  0.00000000000E+00 0.  1.
          1   -1    0    0  501    0  0.00000000000E+00 -0.00000000000E+00 -0.14337159946E+04  0.14337159946E+04  0.00000000000E+00 0. -1.
        -24    2    1    2    0    0 -0.85116541180E+03  0.35221392619E+03 -0.54187679014E+03  0.10717276708E+04  0.80203096636E+02 0.  0.
    5000000    2    1    2    0    0  0.85116541180E+03 -0.35221392619E+03 -0.14500072612E+03  0.11088268021E+04  0.59994537952E+03 0.  0.
        -24    2    4    4    0    0  0.41874367075E+03 -0.47846954698E+03 -0.10887647544E+03  0.64996073518E+03  0.79470127650E+02 0.  0.
         24    2    4    4    0    0  0.43242174106E+03  0.12625562080E+03 -0.36124250675E+02  0.45886606691E+03  0.79523970939E+02 0.  0.
         11    1    5    5    0    0  0.24596779880E+03 -0.23164791178E+03 -0.80560651278E+02  0.34734842969E+03  0.00000000000E+00 0. -1.
        -12    1    5    5    0    0  0.17277587195E+03 -0.24682163520E+03 -0.28315824165E+02  0.30261230548E+03  0.00000000000E+00 0.  1.
         15    1    3    3    0    0 -0.45521061834E+03  0.15469903608E+03 -0.31137510566E+03  0.57280547568E+03  0.17770000000E+01 0. -1.
        -16    1    3    3    0    0 -0.39595479346E+03  0.19751489011E+03 -0.23050168449E+03  0.49892219517E+03  0.00000000000E+00 0.  1.
          2    1    6    6  502    0  0.73195244945E+02  0.45419452997E+02  0.13960122991E+02  0.87266004990E+02  0.00000000000E+00 0. -1.
         -1    1    6    6    0  502  0.35922649611E+03  0.80836167800E+02 -0.50084373666E+02  0.37160006192E+03  0.00000000000E+00 0.  1.
<mgrwt>
<rscale>  0 0.10083899E+04</rscale>
<asrwt>0</asrwt>
<pdfrwt beam="1">  1        1 0.22057169E+00 0.10083899E+04</pdfrwt>
<pdfrwt beam="2">  1       -2 0.11489823E+00 0.10083899E+04</pdfrwt>
<totfact> 0.37655271E+00</totfact>
</mgrwt>
</event>
<event>
12    3  0.1092576E-007  0.1322851E+04  0.7818608E-02  0.9011638E-01
         -2   -1    0    0    0  501 -0.00000000000E+00  0.00000000000E+00  0.77801936896E+03  0.77801936896E+03  0.00000000000E+00 0.  1.
          1   -1    0    0  501    0  0.00000000000E+00 -0.00000000000E+00 -0.23814312796E+04  0.23814312796E+04  0.00000000000E+00 0. -1.
        -24    2    1    2    0    0  0.83094511536E+03 -0.98877081209E+03 -0.67659159027E+03  0.14603005389E+04  0.81018394011E+02 0.  0.
    5000000    2    1    2    0    0 -0.83094511536E+03  0.98877081209E+03 -0.92682032039E+03  0.16991501097E+04  0.59998140434E+03 0.  0.
        -24    2    4    4    0    0 -0.66537309344E+03  0.51109917537E+03 -0.31201026247E+03  0.89864178424E+03  0.79138688124E+02 0.  0.
         24    2    4    4    0    0 -0.16557202192E+03  0.47767163672E+03 -0.61481005792E+03  0.80050832549E+03  0.85075759774E+02 0.  0.
         11    1    5    5    0    0 -0.42863575398E+03  0.37213120600E+03 -0.22599337353E+03  0.61096910638E+03  0.00000000000E+00 0. -1.
        -12    1    5    5    0    0 -0.23673733946E+03  0.13896796937E+03 -0.86016888940E+02  0.28767267786E+03  0.00000000000E+00 0.  1.
         15    1    3    3    0    0  0.54222932023E+03 -0.68001426298E+03 -0.48964992542E+03  0.99809430454E+03  0.17770000000E+01 0. -1.
        -16    1    3    3    0    0  0.28871579514E+03 -0.30875654911E+03 -0.18694166486E+03  0.46220623431E+03  0.00000000000E+00 0.  1.
          4    1    6    6  502    0 -0.12544976265E+03  0.24764117422E+03 -0.36480242887E+03  0.45841532068E+03  0.00000000000E+00 0. -1.
         -3    1    6    6    0  502 -0.40122259270E+02  0.23003046249E+03 -0.25000762904E+03  0.34209300482E+03  0.00000000000E+00 0.  1.
<mgrwt>
<rscale>  0 0.13228508E+04</rscale>
<asrwt>0</asrwt>
<pdfrwt beam="1">  1        1 0.36637403E+00 0.13228508E+04</pdfrwt>
<pdfrwt beam="2">  1       -2 0.11969529E+00 0.13228508E+04</pdfrwt>
<totfact> 0.74343012E-01</totfact>
</mgrwt>
</event>
<event>
12    3  0.1092576E-007  0.1320224E+04  0.7818608E-02  0.9013680E-01
          1   -1    0    0  501    0  0.00000000000E+00  0.00000000000E+00  0.74313807932E+03  0.74313807932E+03  0.00000000000E+00 0. -1.
         -2   -1    0    0    0  501 -0.00000000000E+00 -0.00000000000E+00 -0.26062707989E+04  0.26062707989E+04  0.00000000000E+00 0.  1.
        -24    2    1    2    0    0 -0.12485689477E+04 -0.22486974047E+03 -0.13525608730E+04  0.18561159668E+04  0.79086974968E+02 0.  0.
    5000000    2    1    2    0    0  0.12485689477E+04  0.22486974047E+03 -0.51057184650E+03  0.14932929113E+04  0.59979103960E+03 0.  0.
        -24    2    4    4    0    0  0.11789245715E+04  0.34321264712E+03 -0.37283144529E+03  0.12857191734E+04  0.80077711550E+02 0.  0.
         24    2    4    4    0    0  0.69644376251E+02 -0.11834290665E+03 -0.13774040121E+03  0.20757373793E+03  0.72519348138E+02 0.  0.
         13    1    5    5    0    0  0.21934159030E+03  0.74262228381E+02 -0.39685287571E+02  0.23494793859E+03  0.00000000000E+00 0. -1.
        -14    1    5    5    0    0  0.95958298119E+03  0.26895041874E+03 -0.33314615772E+03  0.10507712348E+04  0.00000000000E+00 0.  1.
         15    1    3    3    0    0 -0.32136813027E+03 -0.89228516431E+02 -0.37866358697E+03  0.50460724640E+03  0.17770000000E+01 0. -1.
        -16    1    3    3    0    0 -0.92720081747E+03 -0.13564122404E+03 -0.97389728606E+03  0.13515087204E+04  0.00000000000E+00 0.  1.
          2    1    6    6  502    0  0.36848329386E+02 -0.30118451442E+02 -0.95508057785E+01  0.48540069909E+02  0.00000000000E+00 0. -1.
         -1    1    6    6    0  502  0.32796046866E+02 -0.88224455206E+02 -0.12818959543E+03  0.15903366802E+03  0.00000000000E+00 0.  1.
<mgrwt>
<rscale>  0 0.13202236E+04</rscale>
<asrwt>0</asrwt>
<pdfrwt beam="1">  1        1 0.11432894E+00 0.13202236E+04</pdfrwt>
<pdfrwt beam="2">  1       -2 0.40096474E+00 0.13202236E+04</pdfrwt>
<totfact> 0.15548521E-01</totfact>
</mgrwt>
</event>
<event>
12    3  0.1092576E-007  0.6164370E+03  0.7818608E-02  0.9871879E-01
         -2   -1    0    0    0  501 -0.00000000000E+00  0.00000000000E+00  0.10453669760E+04  0.10453669760E+04  0.00000000000E+00 0.  1.
          1   -1    0    0  501    0  0.00000000000E+00 -0.00000000000E+00 -0.39282584680E+03  0.39282584680E+03  0.00000000000E+00 0. -1.
        -24    2    1    2    0    0 -0.49408754866E+03  0.23849829392E+02  0.30271016677E+03  0.58549125933E+03  0.80468935560E+02 0.  0.
    5000000    2    1    2    0    0  0.49408754866E+03 -0.23849829392E+02  0.34983096243E+03  0.85270156347E+03  0.60002244455E+03 0.  0.
        -24    2    4    4    0    0 -0.88181154796E+02 -0.89355214618E+02 -0.28145156520E+02  0.15074019886E+03  0.78550539628E+02 0.  0.
         24    2    4    4    0    0  0.58226870345E+03  0.65505385225E+02  0.37797611895E+03  0.70196136461E+03  0.80969206444E+02 0.  0.
         11    1    5    5    0    0 -0.45355873795E+02  0.23875005022E+01  0.84192292489E+00  0.45426471144E+02  0.00000000000E+00 0. -1.
        -12    1    5    5    0    0 -0.42825281001E+02 -0.91742715120E+02 -0.28987079445E+02  0.10531372771E+03  0.00000000000E+00 0.  1.
         15    1    3    3    0    0 -0.27099288088E+03  0.42540563717E+02  0.13482764690E+03  0.30566074845E+03  0.17770000000E+01 0. -1.
        -16    1    3    3    0    0 -0.22309466778E+03 -0.18690734324E+02  0.16788251987E+03  0.27983051088E+03  0.00000000000E+00 0.  1.
          4    1    6    6  502    0  0.71511105212E+02  0.24595573013E+02  0.75950874286E+02  0.10717889571E+03  0.00000000000E+00 0. -1.
         -3    1    6    6    0  502  0.51075759824E+03  0.40909812212E+02  0.30202524466E+03  0.59478246890E+03  0.00000000000E+00 0.  1.
<mgrwt>
<rscale>  0 0.61643705E+03</rscale>
<asrwt>0</asrwt>
<pdfrwt beam="1">  1        1 0.60434746E-01 0.61643705E+03</pdfrwt>
<pdfrwt beam="2">  1       -2 0.16082569E+00 0.61643705E+03</pdfrwt>
<totfact> 0.13784752E+01</totfact>
</mgrwt>
</event>
<event>
12    3  0.1092576E-007  0.1311701E+04  0.7818608E-02  0.9020337E-01
         -2   -1    0    0    0  501 -0.00000000000E+00  0.00000000000E+00  0.98808458480E+03  0.98808458480E+03  0.00000000000E+00 0.  1.
          1   -1    0    0  501    0  0.00000000000E+00 -0.00000000000E+00 -0.20571908492E+04  0.20571908492E+04  0.00000000000E+00 0. -1.
        -24    2    1    2    0    0 -0.10235882380E+04  0.77063750746E+03 -0.19668350523E+02  0.12838730162E+04  0.79548909389E+02 0.  0.
    5000000    2    1    2    0    0  0.10235882380E+04 -0.77063750746E+03 -0.10494379139E+04  0.17614024178E+04  0.59966948677E+03 0.  0.
        -24    2    4    4    0    0  0.91765480970E+03 -0.78978134116E+03 -0.10779156536E+04  0.16230139422E+04  0.80169719078E+02 0.  0.
         24    2    4    4    0    0  0.10593342829E+03  0.19143833701E+02  0.28477739653E+02  0.13838847555E+03  0.82170620742E+02 0.  0.
         13    1    5    5    0    0  0.32166278163E+03 -0.23268405821E+03 -0.37596930466E+03  0.54677393325E+03  0.00000000000E+00 0. -1.
        -14    1    5    5    0    0  0.59599202807E+03 -0.55709728294E+03 -0.70194634889E+03  0.10762400090E+04  0.00000000000E+00 0.  1.
         15    1    3    3    0    0 -0.62249524095E+03  0.42537327697E+03  0.67779271847E+01  0.75398398378E+03  0.17770000000E+01 0. -1.
        -16    1    3    3    0    0 -0.40109299703E+03  0.34526423048E+03 -0.26446277708E+02  0.52988903246E+03  0.00000000000E+00 0.  1.
          4    1    6    6  502    0  0.88955982789E+02  0.42449396829E+02  0.10171405267E+01  0.98570547020E+02  0.00000000000E+00 0. -1.
         -3    1    6    6    0  502  0.16977445498E+02 -0.23305563128E+02  0.27460599127E+02  0.39817928534E+02  0.00000000000E+00 0.  1.
<mgrwt>
<rscale>  0 0.13117010E+04</rscale>
<asrwt>0</asrwt>
<pdfrwt beam="1">  1        1 0.31649090E+00 0.13117010E+04</pdfrwt>
<pdfrwt beam="2">  1       -2 0.15201301E+00 0.13117010E+04</pdfrwt>
<totfact> 0.66709916E-01</totfact>
</mgrwt>
</event>
<event>
12    3  0.1092576E-007  0.7133443E+03  0.7818608E-02  0.9694680E-01
          1   -1    0    0  501    0  0.00000000000E+00  0.00000000000E+00  0.23783773858E+04  0.23783773858E+04  0.00000000000E+00 0. -1.
         -2   -1    0    0    0  501 -0.00000000000E+00 -0.00000000000E+00 -0.49482415871E+03  0.49482415871E+03  0.00000000000E+00 0.  1.
        -24    2    1    2    0    0 -0.92435181207E+02  0.63116776275E+03 -0.14687188878E+03  0.66203514914E+03  0.99005956952E+02 0.  0.
    5000000    2    1    2    0    0  0.92435181207E+02 -0.63116776275E+03  0.20304251159E+04  0.22111663954E+04  0.59976134373E+03 0.  0.
        -24    2    4    4    0    0 -0.15074019545E+03 -0.74833126948E+02  0.95952573361E+03  0.97751563432E+03  0.80774862833E+02 0.  0.
         24    2    4    4    0    0  0.24317537665E+03 -0.55633463581E+03  0.10708993823E+04  0.12336507611E+04  0.80163723315E+02 0.  0.
         13    1    5    5    0    0 -0.31898856263E+02 -0.22304860806E+02  0.86243654733E+02  0.94620356310E+02  0.00000000000E+00 0. -1.
        -14    1    5    5    0    0 -0.11884133918E+03 -0.52528266141E+02  0.87328207887E+03  0.88289527801E+03  0.00000000000E+00 0.  1.
         15    1    3    3    0    0 -0.27511239586E+02  0.48136697964E+03 -0.10421900851E+03  0.49329078327E+03  0.17770000000E+01 0. -1.
        -16    1    3    3    0    0 -0.64923941621E+02  0.14980078311E+03 -0.42652880275E+02  0.16874436587E+03  0.00000000000E+00 0.  1.
          4    1    6    6  502    0  0.19616259792E+02 -0.98136504005E+01  0.40078984237E+02  0.45688405092E+02  0.00000000000E+00 0. -1.
         -3    1    6    6    0  502  0.22355911686E+03 -0.54652098541E+03  0.10308203981E+04  0.11879623560E+04  0.00000000000E+00 0.  1.
<mgrwt>
<rscale>  0 0.71334426E+03</rscale>
<asrwt>0</asrwt>
<pdfrwt beam="1">  1        1 0.36590421E+00 0.71334426E+03</pdfrwt>
<pdfrwt beam="2">  1       -2 0.76126795E-01 0.71334426E+03</pdfrwt>
<totfact> 0.23653975E+00</totfact>
</mgrwt>
</event>
<event>
12    3  0.1092576E-007  0.8941529E+03  0.7818608E-02  0.9432920E-01
         -2   -1    0    0    0  501 -0.00000000000E+00  0.00000000000E+00  0.55998339896E+03  0.55998339896E+03  0.00000000000E+00 0.  1.
          1   -1    0    0  501    0  0.00000000000E+00 -0.00000000000E+00 -0.16755335533E+04  0.16755335533E+04  0.00000000000E+00 0. -1.
        -24    2    1    2    0    0 -0.30380724544E+03  0.77445787908E+03 -0.81324042896E+03  0.11661378088E+04  0.80209381725E+02 0.  0.
    5000000    2    1    2    0    0  0.30380724544E+03 -0.77445787908E+03 -0.30230972540E+03  0.10693791435E+04  0.60008060593E+03 0.  0.
        -24    2    4    4    0    0  0.42231493552E+03 -0.52631498975E+03 -0.36694737483E+02  0.68054361959E+03  0.80223071546E+02 0.  0.
         24    2    4    4    0    0 -0.11850769008E+03 -0.24814288933E+03 -0.26561498792E+03  0.38883552390E+03  0.70871550755E+02 0.  0.
         13    1    5    5    0    0  0.36804468595E+03 -0.40981744205E+03 -0.36392272987E+02  0.55202502135E+03  0.00000000000E+00 0. -1.
        -14    1    5    5    0    0  0.54270249569E+02 -0.11649754771E+03 -0.30246449577E+00  0.12851859824E+03  0.00000000000E+00 0.  1.
         15    1    3    3    0    0 -0.21972927022E+03  0.48367616792E+03 -0.55467053189E+03  0.76804045745E+03  0.17770000000E+01 0. -1.
        -16    1    3    3    0    0 -0.84077975215E+02  0.29078171117E+03 -0.25856989706E+03  0.39809735132E+03  0.00000000000E+00 0.  1.
          2    1    6    6  502    0 -0.92358574401E+02 -0.19727986554E+03 -0.24550805035E+03  0.32821281876E+03  0.00000000000E+00 0. -1.
         -1    1    6    6    0  502 -0.26149115681E+02 -0.50863023793E+02 -0.20106937570E+02  0.60622705142E+02  0.00000000000E+00 0.  1.
<mgrwt>
<rscale>  0 0.89415285E+03</rscale>
<asrwt>0</asrwt>
<pdfrwt beam="1">  1        1 0.25777439E+00 0.89415285E+03</pdfrwt>
<pdfrwt beam="2">  1       -2 0.86151293E-01 0.89415285E+03</pdfrwt>
<totfact> 0.51607367E+00</totfact>
</mgrwt>
</event>
<event>
12    3  0.1092576E-007  0.4328928E+03  0.7818608E-02  0.1032950E+00
          1   -1    0    0  501    0  0.00000000000E+00  0.00000000000E+00  0.16392123558E+04  0.16392123558E+04  0.00000000000E+00 0. -1.
         -2   -1    0    0    0  501 -0.00000000000E+00 -0.00000000000E+00 -0.39734098911E+03  0.39734098911E+03  0.00000000000E+00 0.  1.
        -24    2    1    2    0    0  0.84028158366E+02  0.22492503948E+03  0.13565838884E+04  0.13800339005E+04  0.80757139376E+02 0.  0.
    5000000    2    1    2    0    0 -0.84028158366E+02 -0.22492503948E+03 -0.11471252169E+03  0.65651944440E+03  0.60017231980E+03 0.  0.
        -24    2    4    4    0    0 -0.31291514927E+03 -0.26243734960E+02 -0.11617324051E+03  0.34415288231E+03  0.79626379588E+02 0.  0.
         24    2    4    4    0    0  0.22888699090E+03 -0.19868130453E+03  0.14607188188E+01  0.31236656209E+03  0.75546145119E+02 0.  0.
         13    1    5    5    0    0 -0.12243961897E+02  0.36786444491E+01 -0.25762195133E+02  0.28760002191E+02  0.00000000000E+00 0. -1.
        -14    1    5    5    0    0 -0.30067118737E+03 -0.29922379409E+02 -0.90411045374E+02  0.31539288012E+03  0.00000000000E+00 0.  1.
         15    1    3    3    0    0  0.32559716844E+02  0.16423940726E+03  0.10512397191E+04  0.10644918143E+04  0.17770000000E+01 0. -1.
        -16    1    3    3    0    0  0.51468441522E+02  0.60685632228E+02  0.30534416936E+03  0.31554208624E+03  0.00000000000E+00 0.  1.
          4    1    6    6  502    0  0.74576711529E+02 -0.78138920431E+02 -0.34270211969E+02  0.11332177292E+03  0.00000000000E+00 0. -1.
         -3    1    6    6    0  502  0.15431027937E+03 -0.12054238409E+03  0.35730930788E+02  0.19904478917E+03  0.00000000000E+00 0.  1.
<mgrwt>
<rscale>  0 0.43289279E+03</rscale>
<asrwt>0</asrwt>
<pdfrwt beam="1">  1        1 0.25218651E+00 0.43289279E+03</pdfrwt>
<pdfrwt beam="2">  1       -2 0.61129384E-01 0.43289279E+03</pdfrwt>
<totfact> 0.12540803E+01</totfact>
</mgrwt>
</event>
<event>
12    3  0.1092576E-007  0.1862040E+04  0.7818608E-02  0.8673986E-01
         -2   -1    0    0    0  501 -0.00000000000E+00  0.00000000000E+00  0.21071224848E+04  0.21071224848E+04  0.00000000000E+00 0.  1.
          1   -1    0    0  501    0  0.00000000000E+00 -0.00000000000E+00 -0.30565582787E+04  0.30565582787E+04  0.00000000000E+00 0. -1.
        -24    2    1    2    0    0  0.13317108030E+03 -0.18090621655E+04  0.12845456877E+04  0.22241018998E+04  0.78301861227E+02 0.  0.
    5000000    2    1    2    0    0 -0.13317108030E+03  0.18090621655E+04 -0.22339814817E+04  0.29395788638E+04  0.60000848372E+03 0.  0.
        -24    2    4    4    0    0 -0.28650703765E+03  0.43702037560E+03 -0.61342757629E+03  0.80929498837E+03  0.74778977789E+02 0.  0.
         24    2    4    4    0    0  0.15333595735E+03  0.13720417899E+04 -0.16205539054E+04  0.21302838754E+04  0.76836452915E+02 0.  0.
         11    1    5    5    0    0 -0.21090979432E+03  0.37171114711E+03 -0.48153844882E+03  0.64384112630E+03  0.00000000000E+00 0. -1.
        -12    1    5    5    0    0 -0.75597243329E+02  0.65309228491E+02 -0.13188912748E+03  0.16545386206E+03  0.00000000000E+00 0.  1.
         15    1    3    3    0    0  0.21610787481E+02 -0.84792768874E+02  0.54172917643E+02  0.10293057138E+03  0.17770000000E+01 0. -1.
        -16    1    3    3    0    0  0.11156029282E+03 -0.17242693966E+04  0.12303727701E+04  0.21211713284E+04  0.00000000000E+00 0.  1.
          4    1    6    6  502    0  0.95947127505E+02  0.64457770682E+03 -0.81097425330E+03  0.10403679690E+04  0.00000000000E+00 0. -1.
         -3    1    6    6    0  502  0.57388829843E+02  0.72746408306E+03 -0.80957965209E+03  0.10899159064E+04  0.00000000000E+00 0.  1.
<mgrwt>
<rscale>  0 0.18620396E+04</rscale>
<asrwt>0</asrwt>
<pdfrwt beam="1">  1        1 0.47023973E+00 0.18620396E+04</pdfrwt>
<pdfrwt beam="2">  1       -2 0.32417269E+00 0.18620396E+04</pdfrwt>
<totfact> 0.96479825E-03</totfact>
</mgrwt>
</event>
<event>
12    3  0.1092576E-007  0.4108559E+03  0.7818608E-02  0.1040084E+00
          1   -1    0    0  501    0  0.00000000000E+00  0.00000000000E+00  0.64775789536E+03  0.64775789536E+03  0.00000000000E+00 0. -1.
         -2   -1    0    0    0  501 -0.00000000000E+00 -0.00000000000E+00 -0.78330296538E+03  0.78330296538E+03  0.00000000000E+00 0.  1.
        -24    2    1    2    0    0 -0.23017853806E+03 -0.15927437830E+03 -0.56944673734E+03  0.63944113967E+03  0.79151105252E+02 0.  0.
    5000000    2    1    2    0    0  0.23017853806E+03  0.15927437830E+03  0.43390166732E+03  0.79161972107E+03  0.60003386481E+03 0.  0.
        -24    2    4    4    0    0  0.12768087183E+03  0.32041724438E+03  0.51114723772E+02  0.35705568670E+03  0.76853320610E+02 0.  0.
         24    2    4    4    0    0  0.10249766622E+03 -0.16114286608E+03  0.38278694355E+03  0.43456403437E+03  0.76467384868E+02 0.  0.
         13    1    5    5    0    0  0.10622103411E+03  0.28819492961E+03  0.20737540719E+02  0.30784618096E+03  0.00000000000E+00 0. -1.
        -14    1    5    5    0    0  0.21459837727E+02  0.32222314776E+02  0.30377183053E+02  0.49209505738E+02  0.00000000000E+00 0.  1.
         15    1    3    3    0    0 -0.18598539238E+03 -0.14828376012E+03 -0.41409781423E+03  0.47755502004E+03  0.17770000000E+01 0. -1.
        -16    1    3    3    0    0 -0.44193145675E+02 -0.10990618183E+02 -0.15534892312E+03  0.16188611962E+03  0.00000000000E+00 0.  1.
          2    1    6    6  502    0  0.36148107407E+02 -0.78787880590E+02  0.98331805069E+02  0.13108531453E+03  0.00000000000E+00 0. -1.
         -1    1    6    6    0  502  0.66349558818E+02 -0.82354985490E+02  0.28445513848E+03  0.30347871984E+03  0.00000000000E+00 0.  1.
<mgrwt>
<rscale>  0 0.41085587E+03</rscale>
<asrwt>0</asrwt>
<pdfrwt beam="1">  1        1 0.99655061E-01 0.41085587E+03</pdfrwt>
<pdfrwt beam="2">  1       -2 0.12050815E+00 0.41085587E+03</pdfrwt>
<totfact> 0.15019877E+01</totfact>
</mgrwt>
</event>
<event>
12    3  0.1092576E-007  0.1027175E+04  0.7818608E-02  0.9279232E-01
         -2   -1    0    0    0  501 -0.00000000000E+00  0.00000000000E+00  0.73922756161E+03  0.73922756161E+03  0.00000000000E+00 0.  1.
          1   -1    0    0  501    0  0.00000000000E+00 -0.00000000000E+00 -0.23810520090E+04  0.23810520090E+04  0.00000000000E+00 0. -1.
        -24    2    1    2    0    0 -0.17931577377E+02  0.96442998746E+03  0.16930643236E+03  0.98237681873E+03  0.77154415019E+02 0.  0.
    5000000    2    1    2    0    0  0.17931577377E+02 -0.96442998746E+03 -0.18111308798E+04  0.21379027519E+04  0.59998864220E+03 0.  0.
        -24    2    4    4    0    0 -0.23337800270E+03 -0.40397940464E+03 -0.49979621874E+03  0.68844257449E+03  0.80574602601E+02 0.  0.
         24    2    4    4    0    0  0.25130958007E+03 -0.56045058282E+03 -0.13113346610E+04  0.14494601774E+04  0.63834566490E+02 0.  0.
         11    1    5    5    0    0 -0.19934633343E+03 -0.38333192102E+03 -0.47198190417E+03  0.63988220806E+03  0.00000000000E+00 0. -1.
        -12    1    5    5    0    0 -0.34031669263E+02 -0.20647483622E+02 -0.27814314565E+02  0.48560366426E+02  0.00000000000E+00 0.  1.
         15    1    3    3    0    0  0.28080187381E+02  0.52724457889E+03  0.85994513659E+02  0.53495192027E+03  0.17770000000E+01 0. -1.
        -16    1    3    3    0    0 -0.46011764758E+02  0.43718540857E+03  0.83311918697E+02  0.44742489846E+03  0.00000000000E+00 0.  1.
          4    1    6    6  502    0  0.46766444430E+02 -0.13372015487E+03 -0.36163861920E+03  0.38839499358E+03  0.00000000000E+00 0. -1.
         -3    1    6    6    0  502  0.20454313564E+03 -0.42673042796E+03 -0.94969604183E+03  0.10610651838E+04  0.00000000000E+00 0.  1.
<mgrwt>
<rscale>  0 0.10271747E+04</rscale>
<asrwt>0</asrwt>
<pdfrwt beam="1">  1        1 0.36631569E+00 0.10271747E+04</pdfrwt>
<pdfrwt beam="2">  1       -2 0.11372732E+00 0.10271747E+04</pdfrwt>
<totfact> 0.87619084E-01</totfact>
</mgrwt>
</event>
<event>
12    3  0.1092576E-007  0.3988945E+03  0.7818608E-02  0.1044163E+00
         -4   -1    0    0    0  501 -0.00000000000E+00  0.00000000000E+00  0.35990847413E+03  0.35990847413E+03  0.00000000000E+00 0.  1.
          3   -1    0    0  501    0  0.00000000000E+00 -0.00000000000E+00 -0.53589542684E+03  0.53589542684E+03  0.00000000000E+00 0. -1.
        -24    2    1    2    0    0  0.25559048064E+02 -0.21473801971E+03 -0.10795636685E+03  0.25500831807E+03  0.81295652376E+02 0.  0.
    5000000    2    1    2    0    0 -0.25559048064E+02  0.21473801971E+03 -0.68030585855E+02  0.64079558290E+03  0.59935393250E+03 0.  0.
        -24    2    4    4    0    0  0.71781674445E+02  0.36960741998E+03  0.78245892899E+02  0.39267870301E+03  0.79447406211E+02 0.  0.
         24    2    4    4    0    0 -0.97340722508E+02 -0.15486940027E+03 -0.14627647875E+03  0.24811687989E+03  0.81886692756E+02 0.  0.
         13    1    5    5    0    0  0.26188357313E+02  0.23043084851E+02  0.12120405475E+02  0.36928553276E+02  0.00000000000E+00 0. -1.
        -14    1    5    5    0    0  0.45593317132E+02  0.34656433513E+03  0.66125487424E+02  0.35575014974E+03  0.00000000000E+00 0.  1.
         15    1    3    3    0    0  0.19090021056E+02 -0.15075913368E+02 -0.34316011346E+02  0.42100575192E+02  0.17770000000E+01 0. -1.
        -16    1    3    3    0    0  0.64690270080E+01 -0.19966210634E+03 -0.73640355508E+02  0.21290774288E+03  0.00000000000E+00 0.  1.
          4    1    6    6  502    0 -0.27572516389E+02 -0.89280900454E+02 -0.31427287271E+02  0.98584974672E+02  0.00000000000E+00 0. -1.
         -3    1    6    6    0  502 -0.69768206120E+02 -0.65588499814E+02 -0.11484919148E+03  0.14953190522E+03  0.00000000000E+00 0.  1.
<mgrwt>
<rscale>  0 0.39889453E+03</rscale>
<asrwt>0</asrwt>
<pdfrwt beam="1">  1        3 0.82445451E-01 0.39889453E+03</pdfrwt>
<pdfrwt beam="2">  1       -4 0.55370534E-01 0.39889453E+03</pdfrwt>
<totfact> 0.94680870E+00</totfact>
</mgrwt>
</event>
<event>
12    3  0.1092576E-007  0.7278593E+03  0.7818608E-02  0.9670741E-01
         -2   -1    0    0    0  501 -0.00000000000E+00  0.00000000000E+00  0.45917660867E+03  0.45917660867E+03  0.00000000000E+00 0.  1.
          1   -1    0    0  501    0  0.00000000000E+00 -0.00000000000E+00 -0.14071783901E+04  0.14071783901E+04  0.00000000000E+00 0. -1.
        -24    2    1    2    0    0 -0.60538558007E+03 -0.32914488209E+03 -0.38840737628E+03  0.79494533749E+03  0.79055333090E+02 0.  0.
    5000000    2    1    2    0    0  0.60538558007E+03  0.32914488209E+03 -0.55959440518E+03  0.10714096613E+04  0.59995392328E+03 0.  0.
        -24    2    4    4    0    0  0.29118172582E+03 -0.18678410876E+02 -0.51252124508E+03  0.59381567557E+03  0.69306200357E+02 0.  0.
         24    2    4    4    0    0  0.31420385424E+03  0.34782329297E+03 -0.47073160100E+02  0.47759398573E+03  0.78581344173E+02 0.  0.
         13    1    5    5    0    0  0.15578035563E+03 -0.25625430266E+02 -0.21384820496E+03  0.26581052771E+03  0.00000000000E+00 0. -1.
        -14    1    5    5    0    0  0.13540137020E+03  0.69470193899E+01 -0.29867304013E+03  0.32800514787E+03  0.00000000000E+00 0.  1.
         15    1    3    3    0    0 -0.30712692093E+03 -0.21150767021E+03 -0.20348559511E+03  0.42481994452E+03  0.17770000000E+01 0. -1.
        -16    1    3    3    0    0 -0.29825865914E+03 -0.11763721189E+03 -0.18492178117E+03  0.37012539297E+03  0.00000000000E+00 0.  1.
          2    1    6    6  502    0  0.27338126157E+03  0.30356270511E+03 -0.13692724488E+02  0.40874823646E+03  0.00000000000E+00 0. -1.
         -1    1    6    6    0  502  0.40822592673E+02  0.44260587865E+02 -0.33380435612E+02  0.68845749269E+02  0.00000000000E+00 0.  1.
<mgrwt>
<rscale>  0 0.72785927E+03</rscale>
<asrwt>0</asrwt>
<pdfrwt beam="1">  1        1 0.21648898E+00 0.72785927E+03</pdfrwt>
<pdfrwt beam="2">  1       -2 0.70642556E-01 0.72785927E+03</pdfrwt>
<totfact> 0.12543841E+01</totfact>
</mgrwt>
</event>
<event>
12    3  0.1092576E-007  0.6565462E+03  0.7818608E-02  0.9794573E-01
          1   -1    0    0  501    0  0.00000000000E+00  0.00000000000E+00  0.86256525288E+03  0.86256525288E+03  0.00000000000E+00 0. -1.
         -2   -1    0    0    0  501 -0.00000000000E+00 -0.00000000000E+00 -0.57322568900E+03  0.57322568900E+03  0.00000000000E+00 0.  1.
        -24    2    1    2    0    0  0.35720387621E+03  0.37994834382E+03  0.35908264767E+03  0.63758178883E+03  0.74932212336E+02 0.  0.
    5000000    2    1    2    0    0 -0.35720387621E+03 -0.37994834382E+03 -0.69743083790E+02  0.79820915305E+03  0.60026527563E+03 0.  0.
        -24    2    4    4    0    0  0.10486947702E+03 -0.28989874172E+03 -0.30698037790E+02  0.31909055378E+03  0.76403693158E+02 0.  0.
         24    2    4    4    0    0 -0.46207335323E+03 -0.90049602102E+02 -0.39045045999E+02  0.47911859927E+03  0.80058740571E+02 0.  0.
         13    1    5    5    0    0  0.70239744056E+02 -0.21954558089E+03 -0.55034492292E+02  0.23698666434E+03  0.00000000000E+00 0. -1.
        -14    1    5    5    0    0  0.34629732967E+02 -0.70353160830E+02  0.24336454501E+02  0.82103889444E+02  0.00000000000E+00 0.  1.
         15    1    3    3    0    0  0.27577001939E+03  0.24346740789E+03  0.24672248465E+03  0.44294539670E+03  0.17770000000E+01 0. -1.
        -16    1    3    3    0    0  0.81433856822E+02  0.13648093593E+03  0.11236016301E+03  0.19463639213E+03  0.00000000000E+00 0.  1.
          2    1    6    6  502    0 -0.15946152075E+03  0.68919138152E+01 -0.73122599113E+01  0.15977779640E+03  0.00000000000E+00 0. -1.
         -1    1    6    6    0  502 -0.30261183248E+03 -0.96941515917E+02 -0.31732786088E+02  0.31934080287E+03  0.00000000000E+00 0.  1.
<mgrwt>
<rscale>  0 0.65654621E+03</rscale>
<asrwt>0</asrwt>
<pdfrwt beam="1">  1        1 0.13270235E+00 0.65654621E+03</pdfrwt>
<pdfrwt beam="2">  1       -2 0.88188567E-01 0.65654621E+03</pdfrwt>
<totfact> 0.19579356E+01</totfact>
</mgrwt>
</event>
<event>
12    3  0.1092576E-007  0.6961369E+03  0.7818608E-02  0.9723862E-01
          1   -1    0    0  501    0  0.00000000000E+00  0.00000000000E+00  0.15794413429E+04  0.15794413429E+04  0.00000000000E+00 0. -1.
         -2   -1    0    0    0  501 -0.00000000000E+00 -0.00000000000E+00 -0.64235873035E+03  0.64235873035E+03  0.00000000000E+00 0.  1.
        -24    2    1    2    0    0  0.65586723604E+03  0.21571824439E+03  0.10917896234E+04  0.12940983096E+04  0.77392898308E+02 0.  0.
    5000000    2    1    2    0    0 -0.65586723604E+03 -0.21571824439E+03 -0.15470701091E+03  0.92770176365E+03  0.60000009231E+03 0.  0.
        -24    2    4    4    0    0 -0.48888855307E+03 -0.17236023440E+03 -0.36863985982E+03  0.64116005242E+03  0.80441275732E+02 0.  0.
         24    2    4    4    0    0 -0.16697868298E+03 -0.43358009997E+02  0.21393284891E+03  0.28654171124E+03  0.81099265323E+02 0.  0.
         13    1    5    5    0    0 -0.51811651927E+02 -0.29953864087E+02 -0.73902422808E+02  0.95096000684E+02  0.00000000000E+00 0. -1.
        -14    1    5    5    0    0 -0.43707690114E+03 -0.14240637031E+03 -0.29473743701E+03  0.54606405173E+03  0.00000000000E+00 0.  1.
         15    1    3    3    0    0  0.52453596153E+03  0.20012671667E+03  0.91097986439E+03  0.10700823093E+04  0.17770000000E+01 0. -1.
        -16    1    3    3    0    0  0.13133127451E+03  0.15591527727E+02  0.18080975903E+03  0.22401600023E+03  0.00000000000E+00 0.  1.
          4    1    6    6  502    0 -0.15566368011E+03 -0.25232755688E+02  0.21317249880E+03  0.26516105956E+03  0.00000000000E+00 0. -1.
         -3    1    6    6    0  502 -0.11315002870E+02 -0.18125254309E+02  0.76035011114E+00  0.21380651674E+02  0.00000000000E+00 0.  1.
<mgrwt>
<rscale>  0 0.69613689E+03</rscale>
<asrwt>0</asrwt>
<pdfrwt beam="1">  1        1 0.24299097E+00 0.69613689E+03</pdfrwt>
<pdfrwt beam="2">  1       -2 0.98824421E-01 0.69613689E+03</pdfrwt>
<totfact> 0.44844002E+00</totfact>
</mgrwt>
</event>
<event>
12    3  0.1092576E-007  0.4238192E+03  0.7818608E-02  0.1035830E+00
          1   -1    0    0  501    0  0.00000000000E+00  0.00000000000E+00  0.41877294303E+03  0.41877294303E+03  0.00000000000E+00 0. -1.
         -2   -1    0    0    0  501 -0.00000000000E+00 -0.00000000000E+00 -0.49450383403E+03  0.49450383403E+03  0.00000000000E+00 0.  1.
        -24    2    1    2    0    0  0.21251696499E+03  0.86097227307E+02  0.73675671462E+02  0.25394944534E+03  0.80535850825E+02 0.  0.
    5000000    2    1    2    0    0 -0.21251696499E+03 -0.86097227307E+02 -0.14940656246E+03  0.65932733171E+03  0.59984499371E+03 0.  0.
        -24    2    4    4    0    0  0.15759065765E+03  0.11309656328E+03 -0.11598266917E+02  0.20985799897E+03  0.79247788182E+02 0.  0.
         24    2    4    4    0    0 -0.37010762264E+03 -0.19919379059E+03 -0.13780829555E+03  0.44946933274E+03  0.79835682551E+02 0.  0.
         13    1    5    5    0    0  0.17906198968E+02  0.57310519748E+01  0.23624233682E+02  0.30192405259E+02  0.00000000000E+00 0. -1.
        -14    1    5    5    0    0  0.13968445868E+03  0.10736551131E+03 -0.35222500599E+02  0.17966559371E+03  0.00000000000E+00 0.  1.
         15    1    3    3    0    0  0.19563207568E+03  0.82170756842E+02  0.89668288343E+02  0.23036384695E+03  0.17770000000E+01 0. -1.
        -16    1    3    3    0    0  0.16884889303E+02  0.39264704653E+01 -0.15992616882E+02  0.23585598399E+02  0.00000000000E+00 0.  1.
          2    1    6    6  502    0 -0.29137328469E+03 -0.17855973477E+03 -0.84026668857E+02  0.35191256157E+03  0.00000000000E+00 0. -1.
         -1    1    6    6    0  502 -0.78734337943E+02 -0.20634055822E+02 -0.53781626690E+02  0.97556771167E+02  0.00000000000E+00 0.  1.
<mgrwt>
<rscale>  0 0.42381924E+03</rscale>
<asrwt>0</asrwt>
<pdfrwt beam="1">  1        1 0.64426607E-01 0.42381924E+03</pdfrwt>
<pdfrwt beam="2">  1       -2 0.76077513E-01 0.42381924E+03</pdfrwt>
<totfact> 0.79355884E+01</totfact>
</mgrwt>
</event>
<event>
12    3  0.1092576E-007  0.9291610E+03  0.7818608E-02  0.9389845E-01
         -2   -1    0    0    0  501 -0.00000000000E+00  0.00000000000E+00  0.13352803169E+04  0.13352803169E+04  0.00000000000E+00 0.  1.
          1   -1    0    0  501    0  0.00000000000E+00 -0.00000000000E+00 -0.89259990574E+03  0.89259990574E+03  0.00000000000E+00 0. -1.
        -24    2    1    2    0    0 -0.73039199443E+03  0.40611823951E+03 -0.36938710918E+03  0.91723237666E+03  0.80398422760E+02 0.  0.
    5000000    2    1    2    0    0  0.73039199443E+03 -0.40611823951E+03  0.81206752029E+03  0.13106478459E+04  0.59994968835E+03 0.  0.
        -24    2    4    4    0    0  0.19262008695E+03 -0.43621685492E+03  0.40630138365E+03  0.63158765615E+03  0.80215401471E+02 0.  0.
         24    2    4    4    0    0  0.53777190748E+03  0.30098615404E+02  0.40576613665E+03  0.67906018979E+03  0.79825012312E+02 0.  0.
         13    1    5    5    0    0  0.79408922876E+02 -0.94563729621E+02  0.11063527733E+03  0.16579577974E+03  0.00000000000E+00 0. -1.
        -14    1    5    5    0    0  0.11321116408E+03 -0.34165312529E+03  0.29566610632E+03  0.46579187640E+03  0.00000000000E+00 0.  1.
         15    1    3    3    0    0 -0.16353982049E+03  0.89885473930E+02 -0.12002191173E+03  0.22188530446E+03  0.17770000000E+01 0. -1.
        -16    1    3    3    0    0 -0.56685217394E+03  0.31623276558E+03 -0.24936519744E+03  0.69534707221E+03  0.00000000000E+00 0.  1.
          2    1    6    6  502    0  0.44766410531E+03  0.15622534416E+02  0.37018572435E+03  0.58110643197E+03  0.00000000000E+00 0. -1.
         -1    1    6    6    0  502  0.90107802169E+02  0.14476080989E+02  0.35580412296E+02  0.97953757824E+02  0.00000000000E+00 0.  1.
<mgrwt>
<rscale>  0 0.92916098E+03</rscale>
<asrwt>0</asrwt>
<pdfrwt beam="1">  1        1 0.13732306E+00 0.92916098E+03</pdfrwt>
<pdfrwt beam="2">  1       -2 0.20542774E+00 0.92916098E+03</pdfrwt>
<totfact> 0.19938280E+00</totfact>
</mgrwt>
</event>
<event>
12    3  0.1092576E-007  0.9585312E+03  0.7818608E-02  0.9355234E-01
          1   -1    0    0  501    0  0.00000000000E+00  0.00000000000E+00  0.10574721148E+04  0.10574721148E+04  0.00000000000E+00 0. -1.
         -2   -1    0    0    0  501 -0.00000000000E+00 -0.00000000000E+00 -0.88036089097E+03  0.88036089097E+03  0.00000000000E+00 0.  1.
        -24    2    1    2    0    0  0.80155934030E+03 -0.32827126010E+03  0.26861006678E+01  0.86982749198E+03  0.79581746876E+02 0.  0.
    5000000    2    1    2    0    0 -0.80155934030E+03  0.32827126010E+03  0.17442512317E+03  0.10680055138E+04  0.59996021343E+03 0.  0.
        -24    2    4    4    0    0 -0.45927355606E+03  0.48086946971E+03  0.13351765150E+03  0.68277680404E+03  0.78673722933E+02 0.  0.
         24    2    4    4    0    0 -0.34228578424E+03 -0.15259820961E+03  0.40907471664E+02  0.38522870976E+03  0.79258853876E+02 0.  0.
         13    1    5    5    0    0 -0.32016186028E+03  0.35767553271E+03  0.12828987676E+03  0.49688398641E+03  0.00000000000E+00 0. -1.
        -14    1    5    5    0    0 -0.13911169578E+03  0.12319393700E+03  0.52277747445E+01  0.18589281763E+03  0.00000000000E+00 0.  1.
         15    1    3    3    0    0  0.27596525501E+03 -0.81641388688E+02 -0.22725112185E+02  0.28868967209E+03  0.17770000000E+01 0. -1.
        -16    1    3    3    0    0  0.52559408529E+03 -0.24662987141E+03  0.25411212852E+02  0.58113781988E+03  0.00000000000E+00 0.  1.
          2    1    6    6  502    0 -0.15127523833E+03 -0.11023356184E+03  0.26530920240E+02  0.18904900322E+03  0.00000000000E+00 0. -1.
         -1    1    6    6    0  502 -0.19101054590E+03 -0.42364647765E+02  0.14376551424E+02  0.19617970654E+03  0.00000000000E+00 0.  1.
<mgrwt>
<rscale>  0 0.95853115E+03</rscale>
<asrwt>0</asrwt>
<pdfrwt beam="1">  1        1 0.16268802E+00 0.95853115E+03</pdfrwt>
<pdfrwt beam="2">  1       -2 0.13544014E+00 0.95853115E+03</pdfrwt>
<totfact> 0.46887233E+00</totfact>
</mgrwt>
</event>
<event>
12    3  0.1092576E-007  0.1714680E+04  0.7818608E-02  0.8753036E-01
          1   -1    0    0  501    0  0.00000000000E+00  0.00000000000E+00  0.11362797188E+04  0.11362797188E+04  0.00000000000E+00 0. -1.
         -2   -1    0    0    0  501 -0.00000000000E+00 -0.00000000000E+00 -0.32652498507E+04  0.32652498507E+04  0.00000000000E+00 0.  1.
        -24    2    1    2    0    0  0.15087938249E+04 -0.74320512849E+03 -0.82974633722E+02  0.16858526042E+04  0.80009649772E+02 0.  0.
    5000000    2    1    2    0    0 -0.15087938249E+04  0.74320512849E+03 -0.20459954981E+04  0.27156769652E+04  0.59999260996E+03 0.  0.
        -24    2    4    4    0    0 -0.28183990467E+03  0.36278484099E+03 -0.33317502113E+03  0.57319251116E+03  0.80606993677E+02 0.  0.
         24    2    4    4    0    0 -0.12269539203E+04  0.38042028750E+03 -0.17128204770E+04  0.21424844541E+04  0.79687715201E+02 0.  0.
         11    1    5    5    0    0 -0.28887950986E+02  0.33510679986E+02 -0.61779780632E+01  0.44672662762E+02  0.00000000000E+00 0. -1.
        -12    1    5    5    0    0 -0.25295195369E+03  0.32927416100E+03 -0.32699704307E+03  0.52851984840E+03  0.00000000000E+00 0.  1.
         15    1    3    3    0    0  0.26795284012E+03 -0.16389051441E+03 -0.32695895074E+01  0.31412206733E+03  0.17770000000E+01 0. -1.
        -16    1    3    3    0    0  0.12408409848E+04 -0.57931461408E+03 -0.79705044214E+02  0.13717305369E+04  0.00000000000E+00 0.  1.
          4    1    6    6  502    0 -0.10991074549E+04  0.31848468371E+03 -0.15445918103E+04  0.19222990276E+04  0.00000000000E+00 0. -1.
         -1    1    6    6    0  502 -0.12784646542E+03  0.61935603792E+02 -0.16822866675E+03  0.22018542653E+03  0.00000000000E+00 0.  1.
<mgrwt>
<rscale>  0 0.17146796E+04</rscale>
<asrwt>0</asrwt>
<pdfrwt beam="1">  1        1 0.17481227E+00 0.17146796E+04</pdfrwt>
<pdfrwt beam="2">  1       -2 0.50234612E+00 0.17146796E+04</pdfrwt>
<totfact> 0.15258758E-02</totfact>
</mgrwt>
</event>
<event>
12    3  0.1092576E-007  0.5917503E+03  0.7818608E-02  0.9922671E-01
          1   -1    0    0  501    0  0.00000000000E+00  0.00000000000E+00  0.23155918691E+04  0.23155918691E+04  0.00000000000E+00 0. -1.
         -2   -1    0    0    0  501 -0.00000000000E+00 -0.00000000000E+00 -0.16843414577E+03  0.16843414577E+03  0.00000000000E+00 0.  1.
        -24    2    1    2    0    0  0.10740198184E+03 -0.46325486997E+03  0.76831129762E+03  0.90700892449E+03  0.78883957783E+02 0.  0.
    5000000    2    1    2    0    0 -0.10740198184E+03  0.46325486997E+03  0.13788464257E+04  0.15770170904E+04  0.59968756648E+03 0.  0.
        -24    2    4    4    0    0 -0.38073364436E+02  0.56094302067E+03  0.12865063928E+04  0.14064052285E+04  0.82281921148E+02 0.  0.
         24    2    4    4    0    0 -0.69328617409E+02 -0.97688150709E+02  0.92340032953E+02  0.17061186190E+03  0.78944877952E+02 0.  0.
         13    1    5    5    0    0 -0.40633058225E+02  0.22617691670E+03  0.44698154715E+03  0.50259282383E+03  0.00000000000E+00 0. -1.
        -14    1    5    5    0    0  0.25596937896E+01  0.33476610398E+03  0.83952484560E+03  0.90381240464E+03  0.00000000000E+00 0.  1.
         15    1    3    3    0    0  0.60113113297E+02 -0.28277757286E+03  0.39299375898E+03  0.48787702798E+03  0.17770000000E+01 0. -1.
        -16    1    3    3    0    0  0.47288868548E+02 -0.18047729711E+03  0.37531753864E+03  0.41913189651E+03  0.00000000000E+00 0.  1.
          4    1    6    6  502    0 -0.47908102995E+02 -0.50508239883E+01  0.26755168295E+02  0.55104774621E+02  0.00000000000E+00 0. -1.
         -3    1    6    6    0  502 -0.21420514414E+02 -0.92637326720E+02  0.65584864659E+02  0.11550708728E+03  0.00000000000E+00 0.  1.
<mgrwt>
<rscale>  0 0.59175032E+03</rscale>
<asrwt>0</asrwt>
<pdfrwt beam="1">  1        1 0.35624488E+00 0.59175032E+03</pdfrwt>
<pdfrwt beam="2">  1       -2 0.25912947E-01 0.59175032E+03</pdfrwt>
<totfact> 0.22881250E+01</totfact>
</mgrwt>
</event>
<event>
12    3  0.1092576E-007  0.7415590E+03  0.7818608E-02  0.9648687E-01
         -2   -1    0    0    0  501 -0.00000000000E+00  0.00000000000E+00  0.43326079220E+03  0.43326079220E+03  0.00000000000E+00 0.  1.
          1   -1    0    0  501    0  0.00000000000E+00 -0.00000000000E+00 -0.15185996608E+04  0.15185996608E+04  0.00000000000E+00 0. -1.
        -24    2    1    2    0    0 -0.58688906038E+03  0.22645891797E+03 -0.10727728391E+03  0.64326292660E+03  0.80971392317E+02 0.  0.
    5000000    2    1    2    0    0  0.58688906038E+03 -0.22645891797E+03 -0.97806158469E+03  0.13085975264E+04  0.60008383744E+03 0.  0.
        -24    2    4    4    0    0  0.60422604737E+03 -0.35358054028E+03 -0.70816237091E+03  0.99902478951E+03  0.80301131359E+02 0.  0.
         24    2    4    4    0    0 -0.17336986998E+02  0.12712162231E+03 -0.26989921378E+03  0.30957273690E+03  0.80803563375E+02 0.  0.
         11    1    5    5    0    0  0.38080734196E+03 -0.22851496960E+03 -0.39355972573E+03  0.59339917487E+03  0.00000000000E+00 0. -1.
        -12    1    5    5    0    0  0.22341870542E+03 -0.12506557068E+03 -0.31460264518E+03  0.40562561464E+03  0.00000000000E+00 0.  1.
         15    1    3    3    0    0 -0.21350900124E+03  0.54369659822E+02 -0.66338902243E+02  0.23010032855E+03  0.17770000000E+01 0. -1.
        -16    1    3    3    0    0 -0.37338005913E+03  0.17208925815E+03 -0.40938381669E+02  0.41316259804E+03  0.00000000000E+00 0.  1.
          4    1    6    6  502    0  0.32420909692E+02  0.44463976668E+02 -0.10391226779E+03  0.11758367235E+03  0.00000000000E+00 0. -1.
         -3    1    6    6    0  502 -0.49757896690E+02  0.82657645641E+02 -0.16598694600E+03  0.19198906455E+03  0.00000000000E+00 0.  1.
<mgrwt>
<rscale>  0 0.74155901E+03</rscale>
<asrwt>0</asrwt>
<pdfrwt beam="1">  1        1 0.23363072E+00 0.74155901E+03</pdfrwt>
<pdfrwt beam="2">  1       -2 0.66655507E-01 0.74155901E+03</pdfrwt>
<totfact> 0.11908124E+01</totfact>
</mgrwt>
</event>
<event>
12    3  0.1092576E-007  0.7965976E+03  0.7818608E-02  0.9564955E-01
          1   -1    0    0  501    0  0.00000000000E+00  0.00000000000E+00  0.30087392515E+03  0.30087392515E+03  0.00000000000E+00 0. -1.
         -2   -1    0    0    0  501 -0.00000000000E+00 -0.00000000000E+00 -0.23806789561E+04  0.23806789561E+04  0.00000000000E+00 0.  1.
        -24    2    1    2    0    0 -0.27908276228E+02 -0.71748444474E+03 -0.11780735330E+04  0.13820387092E+04  0.81307713114E+02 0.  0.
    5000000    2    1    2    0    0  0.27908276228E+02  0.71748444474E+03 -0.90173149791E+03  0.12995141720E+04  0.60004548883E+03 0.  0.
        -24    2    4    4    0    0  0.21414021638E+03  0.62672820410E+03 -0.48036141873E+03  0.82265175600E+03  0.85816926990E+02 0.  0.
         24    2    4    4    0    0 -0.18623194015E+03  0.90756240633E+02 -0.42137007918E+03  0.47686241603E+03  0.83222529699E+02 0.  0.
         11    1    5    5    0    0  0.86624038081E+02  0.20197391304E+03 -0.11491440917E+03  0.24799698982E+03  0.00000000000E+00 0. -1.
        -12    1    5    5    0    0  0.12751617829E+03  0.42475429106E+03 -0.36544700956E+03  0.57465476618E+03  0.00000000000E+00 0.  1.
         15    1    3    3    0    0 -0.32165144368E+02 -0.23086012894E+03 -0.44085821610E+03  0.49868839978E+03  0.17770000000E+01 0. -1.
        -16    1    3    3    0    0  0.42568681400E+01 -0.48662431579E+03 -0.73721531692E+03  0.88335030942E+03  0.00000000000E+00 0.  1.
          2    1    6    6  502    0 -0.16568511834E+03  0.66794936925E+02 -0.28092753565E+03  0.33291650954E+03  0.00000000000E+00 0. -1.
         -1    1    6    6    0  502 -0.20546821805E+02  0.23961303708E+02 -0.14044254353E+03  0.14394590649E+03  0.00000000000E+00 0.  1.
<mgrwt>
<rscale>  0 0.79659763E+03</rscale>
<asrwt>0</asrwt>
<pdfrwt beam="1">  1        1 0.46288297E-01 0.79659763E+03</pdfrwt>
<pdfrwt beam="2">  1       -2 0.36625829E+00 0.79659763E+03</pdfrwt>
<totfact> 0.98513456E-01</totfact>
</mgrwt>
</event>
<event>
12    3  0.1092576E-007  0.5727643E+03  0.7818608E-02  0.9963580E-01
          3   -1    0    0  501    0  0.00000000000E+00  0.00000000000E+00  0.10713187173E+04  0.10713187173E+04  0.00000000000E+00 0. -1.
         -4   -1    0    0    0  501 -0.00000000000E+00 -0.00000000000E+00 -0.41913076565E+03  0.41913076565E+03  0.00000000000E+00 0.  1.
        -24    2    1    2    0    0 -0.70821700604E+02 -0.49244499671E+03  0.51559061709E+02  0.50642660778E+03  0.79320767558E+02 0.  0.
    5000000    2    1    2    0    0  0.70821700604E+02  0.49244499671E+03  0.60062888990E+03  0.98402287513E+03  0.60002347232E+03 0.  0.
        -24    2    4    4    0    0 -0.14131583328E+03  0.43898632162E+02  0.41593204700E+03  0.44880371839E+03  0.80796381550E+02 0.  0.
         24    2    4    4    0    0  0.21213753389E+03  0.44854636455E+03  0.18469684290E+03  0.53521915674E+03  0.78424789023E+02 0.  0.
         11    1    5    5    0    0 -0.38723416432E+02  0.22823932277E+00  0.21987035070E+03  0.22325439792E+03  0.00000000000E+00 0. -1.
        -12    1    5    5    0    0 -0.10259241685E+03  0.43670392839E+02  0.19606169630E+03  0.22554932047E+03  0.00000000000E+00 0.  1.
         15    1    3    3    0    0 -0.73956905966E+02 -0.48827671986E+03  0.42119590242E+02  0.49564200459E+03  0.17770000000E+01 0.  1.
        -16    1    3    3    0    0  0.31352053612E+01 -0.41682768470E+01  0.94394714671E+01  0.10784603197E+02  0.00000000000E+00 0.  1.
          2    1    6    6  502    0  0.10663873240E+03  0.23433664391E+03  0.54186272032E+02  0.26310004562E+03  0.00000000000E+00 0. -1.
         -1    1    6    6    0  502  0.10549880148E+03  0.21420972064E+03  0.13051057087E+03  0.27211911112E+03  0.00000000000E+00 0.  1.
<mgrwt>
<rscale>  0 0.57276434E+03</rscale>
<asrwt>0</asrwt>
<pdfrwt beam="1">  1        3 0.16481826E+00 0.57276434E+03</pdfrwt>
<pdfrwt beam="2">  1       -4 0.64481657E-01 0.57276434E+03</pdfrwt>
<totfact> 0.12860578E+00</totfact>
</mgrwt>
</event>
<event>
12    3  0.1092576E-007  0.8217742E+03  0.7818608E-02  0.9529024E-01
          1   -1    0    0  501    0  0.00000000000E+00  0.00000000000E+00  0.17857512923E+04  0.17857512923E+04  0.00000000000E+00 0. -1.
         -2   -1    0    0    0  501 -0.00000000000E+00 -0.00000000000E+00 -0.40932079404E+03  0.40932079404E+03  0.00000000000E+00 0.  1.
        -24    2    1    2    0    0  0.68949612397E+03  0.23103013675E+03  0.38428919751E+03  0.82645016693E+03  0.81005321106E+02 0.  0.
    5000000    2    1    2    0    0 -0.68949612397E+03 -0.23103013675E+03  0.99214130070E+03  0.13686219194E+04  0.60000147379E+03 0.  0.
        -24    2    4    4    0    0 -0.74519054898E+03 -0.10639907106E+03  0.92826504320E+03  0.11981390517E+04  0.85038109739E+02 0.  0.
         24    2    4    4    0    0  0.55694425007E+02 -0.12463106568E+03  0.63876257500E+02  0.17048286769E+03  0.79683501394E+02 0.  0.
         11    1    5    5    0    0 -0.10936835936E+03  0.14141755404E+02  0.12805013131E+03  0.16899190337E+03  0.00000000000E+00 0. -1.
        -12    1    5    5    0    0 -0.63582218962E+03 -0.12054082647E+03  0.80021491189E+03  0.10291471483E+04  0.00000000000E+00 0.  1.
         15    1    3    3    0    0  0.25865148043E+03  0.68243900010E+02  0.10225879013E+03  0.28638756277E+03  0.17770000000E+01 0. -1.
        -16    1    3    3    0    0  0.43084464354E+03  0.16278623674E+03  0.28203040737E+03  0.54006260416E+03  0.00000000000E+00 0.  1.
          2    1    6    6  502    0 -0.20739244385E+02 -0.25778175420E+02  0.12198956978E+02  0.35262517451E+02  0.00000000000E+00 0. -1.
         -1    1    6    6    0  502  0.76433669393E+02 -0.98852890262E+02  0.51677300522E+02  0.13522035024E+03  0.00000000000E+00 0.  1.
<mgrwt>
<rscale>  0 0.82177416E+03</rscale>
<asrwt>0</asrwt>
<pdfrwt beam="1">  1        1 0.27473096E+00 0.82177416E+03</pdfrwt>
<pdfrwt beam="2">  1       -2 0.62972431E-01 0.82177416E+03</pdfrwt>
<totfact> 0.87812135E+00</totfact>
</mgrwt>
</event>
<event>
12    3  0.1092576E-007  0.2140136E+04  0.7818608E-02  0.8543766E-01
          1   -1    0    0  501    0  0.00000000000E+00  0.00000000000E+00  0.18666085403E+04  0.18666085403E+04  0.00000000000E+00 0. -1.
         -2   -1    0    0    0  501 -0.00000000000E+00 -0.00000000000E+00 -0.30287925304E+04  0.30287925304E+04  0.00000000000E+00 0.  1.
        -24    2    1    2    0    0  0.20939661753E+04  0.26871067261E+03 -0.16083158299E+04  0.26556632656E+04  0.94698483427E+02 0.  0.
    5000000    2    1    2    0    0 -0.20939661753E+04 -0.26871067261E+03  0.44613183978E+03  0.22397378051E+04  0.60040990039E+03 0.  0.
        -24    2    4    4    0    0 -0.14729502928E+04 -0.40369249510E+03  0.46608610377E+03  0.15987738372E+04  0.79317909144E+02 0.  0.
         24    2    4    4    0    0 -0.62101588247E+03  0.13498182249E+03 -0.19954263984E+02  0.64096396793E+03  0.80967998935E+02 0.  0.
         11    1    5    5    0    0 -0.71711355809E+03 -0.22783231762E+03  0.25634101112E+03  0.79490259411E+03  0.00000000000E+00 0. -1.
        -12    1    5    5    0    0 -0.75583673469E+03 -0.17586017748E+03  0.20974509265E+03  0.80387124306E+03  0.00000000000E+00 0.  1.
         15    1    3    3    0    0  0.70405413406E+03  0.11387196200E+03 -0.49555965342E+03  0.86847082579E+03  0.17770000000E+01 0. -1.
        -16    1    3    3    0    0  0.13899120412E+04  0.15483871061E+03 -0.11127561765E+04  0.17871924398E+04  0.00000000000E+00 0.  1.
          2    1    6    6  502    0 -0.13960786346E+03  0.63640967541E+02 -0.16220486133E+02  0.15428425863E+03  0.00000000000E+00 0. -1.
         -1    1    6    6    0  502 -0.48140801901E+03  0.71340854952E+02 -0.37337778513E+01  0.48667970931E+03  0.00000000000E+00 0.  1.
<mgrwt>
<rscale>  0 0.21401359E+04</rscale>
<asrwt>0</asrwt>
<pdfrwt beam="1">  1        1 0.28717055E+00 0.21401359E+04</pdfrwt>
<pdfrwt beam="2">  1       -2 0.46596808E+00 0.21401359E+04</pdfrwt>
<totfact> 0.76296489E-03</totfact>
</mgrwt>
</event>
<event>
12    3  0.1092576E-007  0.8394620E+03  0.7818608E-02  0.9504591E-01
          1   -1    0    0  501    0  0.00000000000E+00  0.00000000000E+00  0.16118395194E+04  0.16118395194E+04  0.00000000000E+00 0. -1.
         -2   -1    0    0    0  501 -0.00000000000E+00 -0.00000000000E+00 -0.71712284309E+03  0.71712284309E+03  0.00000000000E+00 0.  1.
        -24    2    1    2    0    0  0.71398455448E+03  0.34606435004E+03  0.10537537814E+04  0.13215755446E+04  0.81427329413E+02 0.  0.
    5000000    2    1    2    0    0 -0.71398455448E+03 -0.34606435004E+03 -0.15903710505E+03  0.10073868179E+04  0.60000076804E+03 0.  0.
        -24    2    4    4    0    0 -0.54329525580E+03 -0.41903297357E+03  0.79106980024E+02  0.69520121314E+03  0.79299713392E+02 0.  0.
         24    2    4    4    0    0 -0.17068929868E+03  0.72968623538E+02 -0.23814408508E+03  0.31218560474E+03  0.79296846375E+02 0.  0.
         13    1    5    5    0    0 -0.20721207423E+03 -0.11508651054E+03  0.39988080333E+02  0.24037636153E+03  0.00000000000E+00 0. -1.
        -14    1    5    5    0    0 -0.33608318157E+03 -0.30394646304E+03  0.39118899692E+02  0.45482485161E+03  0.00000000000E+00 0.  1.
         15    1    3    3    0    0  0.79460933891E+02  0.20262691656E+02  0.14171810124E+03  0.16374307507E+03  0.17770000000E+01 0. -1.
        -16    1    3    3    0    0  0.63452362059E+03  0.32580165838E+03  0.91203568015E+03  0.11578324696E+04  0.00000000000E+00 0.  1.
          4    1    6    6  502    0 -0.16365015909E+03  0.52585490123E+02 -0.17430898828E+03  0.24480651899E+03  0.00000000000E+00 0. -1.
         -3    1    6    6    0  502 -0.70391395845E+01  0.20383133415E+02 -0.63835096796E+02  0.67379085752E+02  0.00000000000E+00 0.  1.
<mgrwt>
<rscale>  0 0.83946200E+03</rscale>
<asrwt>0</asrwt>
<pdfrwt beam="1">  1        1 0.24797531E+00 0.83946200E+03</pdfrwt>
<pdfrwt beam="2">  1       -2 0.11032659E+00 0.83946200E+03</pdfrwt>
<totfact> 0.32035193E+00</totfact>
</mgrwt>
</event>
<event>
12    3  0.1092576E-007  0.6094777E+03  0.7818608E-02  0.9885936E-01
          1   -1    0    0  501    0  0.00000000000E+00  0.00000000000E+00  0.13930198672E+04  0.13930198672E+04  0.00000000000E+00 0. -1.
         -2   -1    0    0    0  501 -0.00000000000E+00 -0.00000000000E+00 -0.34158760519E+03  0.34158760519E+03  0.00000000000E+00 0.  1.
        -24    2    1    2    0    0 -0.46995909971E+03 -0.18288531574E+03  0.13350696002E+03  0.52757386798E+03  0.78749499589E+02 0.  0.
    5000000    2    1    2    0    0  0.46995909971E+03  0.18288531574E+03  0.91792530203E+03  0.12070336044E+04  0.60002888933E+03 0.  0.
        -24    2    4    4    0    0 -0.82007669181E+02 -0.27064971622E+02  0.39690829673E+03  0.41544262352E+03  0.87169988729E+02 0.  0.
         24    2    4    4    0    0  0.55196676889E+03  0.20995028736E+03  0.52101700530E+03  0.79159098092E+03  0.80069495674E+02 0.  0.
         13    1    5    5    0    0 -0.22465937355E+02 -0.50379350346E+02  0.23448149410E+03  0.24088247831E+03  0.00000000000E+00 0. -1.
        -14    1    5    5    0    0 -0.59541731826E+02  0.23314378724E+02  0.16242680263E+03  0.17456014521E+03  0.00000000000E+00 0.  1.
         15    1    3    3    0    0 -0.16600157157E+03 -0.29161651041E+02  0.27071620796E+02  0.17071307518E+03  0.17770000000E+01 0. -1.
        -16    1    3    3    0    0 -0.30395752814E+03 -0.15372366470E+03  0.10643533923E+03  0.35686079280E+03  0.00000000000E+00 0.  1.
          4    1    6    6  502    0  0.19824447580E+03  0.81804534434E+02  0.13986412365E+03  0.25603676908E+03  0.00000000000E+00 0. -1.
         -3    1    6    6    0  502  0.35372229309E+03  0.12814575293E+03  0.38115288165E+03  0.53555421184E+03  0.00000000000E+00 0.  1.
<mgrwt>
<rscale>  0 0.60947765E+03</rscale>
<asrwt>0</asrwt>
<pdfrwt beam="1">  1        1 0.21431075E+00 0.60947765E+03</pdfrwt>
<pdfrwt beam="2">  1       -2 0.52551940E-01 0.60947765E+03</pdfrwt>
<totfact> 0.24385644E+01</totfact>
</mgrwt>
</event>
<event>
12    3  0.1092576E-007  0.5891239E+03  0.7818608E-02  0.9928231E-01
          1   -1    0    0  501    0  0.00000000000E+00  0.00000000000E+00  0.75802340794E+03  0.75802340794E+03  0.00000000000E+00 0. -1.
         -2   -1    0    0    0  501 -0.00000000000E+00 -0.00000000000E+00 -0.11240324821E+04  0.11240324821E+04  0.00000000000E+00 0.  1.
        -24    2    1    2    0    0 -0.44497810234E+03 -0.17970259867E+03 -0.84620383189E+03  0.97601629863E+03  0.79046534188E+02 0.  0.
    5000000    2    1    2    0    0  0.44497810234E+03  0.17970259867E+03  0.48019475769E+03  0.90603959145E+03  0.60001850008E+03 0.  0.
        -24    2    4    4    0    0 -0.10900392971E+03  0.19957474876E+02  0.23900721869E+03  0.27459642699E+03  0.77450562501E+02 0.  0.
         24    2    4    4    0    0  0.55398203205E+03  0.15974512379E+03  0.24118753899E+03  0.63144316446E+03  0.90191155738E+02 0.  0.
         13    1    5    5    0    0 -0.85956446830E+02 -0.30140387256E+01  0.10031937725E+03  0.13214224393E+03  0.00000000000E+00 0. -1.
        -14    1    5    5    0    0 -0.23047482882E+02  0.22971513602E+02  0.13868784145E+03  0.14245418306E+03  0.00000000000E+00 0.  1.
         15    1    3    3    0    0 -0.19778310268E+03 -0.51726070405E+02 -0.41752086195E+03  0.46488769607E+03  0.17770000000E+01 0. -1.
        -16    1    3    3    0    0 -0.24719499966E+03 -0.12797652827E+03 -0.42868296993E+03  0.51112860256E+03  0.00000000000E+00 0.  1.
          2    1    6    6  502    0  0.39675978524E+03  0.10503173287E+03  0.12719529450E+03  0.42968434348E+03  0.00000000000E+00 0. -1.
         -1    1    6    6    0  502  0.15722224681E+03  0.54713390923E+02  0.11399224449E+03  0.20175882098E+03  0.00000000000E+00 0.  1.
<mgrwt>
<rscale>  0 0.58912394E+03</rscale>
<asrwt>0</asrwt>
<pdfrwt beam="1">  1        1 0.11661899E+00 0.58912394E+03</pdfrwt>
<pdfrwt beam="2">  1       -2 0.17292807E+00 0.58912394E+03</pdfrwt>
<totfact> 0.44994175E+00</totfact>
</mgrwt>
</event>
<event>
12    3  0.1092576E-007  0.6869573E+03  0.7818608E-02  0.9739801E-01
          1   -1    0    0  501    0  0.00000000000E+00  0.00000000000E+00  0.11709251612E+04  0.11709251612E+04  0.00000000000E+00 0. -1.
         -2   -1    0    0    0  501 -0.00000000000E+00 -0.00000000000E+00 -0.46208959096E+03  0.46208959096E+03  0.00000000000E+00 0.  1.
        -24    2    1    2    0    0  0.57418233614E+03  0.14470356698E+03  0.46021400095E+03  0.75411546817E+03  0.79175344852E+02 0.  0.
    5000000    2    1    2    0    0 -0.57418233614E+03 -0.14470356698E+03  0.24862156932E+03  0.87889928402E+03  0.60002232399E+03 0.  0.
        -24    2    4    4    0    0  0.40846527449E+02 -0.15231530670E+03 -0.54748902430E+02  0.18786021588E+03  0.86172077463E+02 0.  0.
         24    2    4    4    0    0 -0.61502886359E+03  0.76117397198E+01  0.30337047175E+03  0.69103906814E+03  0.84752043855E+02 0.  0.
         11    1    5    5    0    0 -0.24080399084E+01 -0.11834516903E+02  0.19688586934E+02  0.23097508566E+02  0.00000000000E+00 0. -1.
        -12    1    5    5    0    0  0.43254567357E+02 -0.14048078979E+03 -0.74437489363E+02  0.16476270731E+03  0.00000000000E+00 0.  1.
         15    1    3    3    0    0  0.32120988608E+03  0.10538142812E+03  0.30094649278E+03  0.45260687750E+03  0.17770000000E+01 0. -1.
        -16    1    3    3    0    0  0.25297245006E+03  0.39322138857E+02  0.15926750817E+03  0.30150859068E+03  0.00000000000E+00 0.  1.
          4    1    6    6  502    0 -0.25255863461E+03 -0.38177133030E+02  0.13120260580E+03  0.28715410701E+03  0.00000000000E+00 0. -1.
         -3    1    6    6    0  502 -0.36247022898E+03  0.45788872750E+02  0.17216786595E+03  0.40388496113E+03  0.00000000000E+00 0.  1.
<mgrwt>
<rscale>  0 0.68695733E+03</rscale>
<asrwt>0</asrwt>
<pdfrwt beam="1">  1        1 0.18014233E+00 0.68695733E+03</pdfrwt>
<pdfrwt beam="2">  1       -2 0.71090706E-01 0.68695733E+03</pdfrwt>
<totfact> 0.18285286E+01</totfact>
</mgrwt>
</event>
<event>
12    3  0.1092576E-007  0.1004850E+04  0.7818608E-02  0.9303242E-01
         -2   -1    0    0    0  501 -0.00000000000E+00  0.00000000000E+00  0.13355806373E+04  0.13355806373E+04  0.00000000000E+00 0.  1.
          1   -1    0    0  501    0  0.00000000000E+00 -0.00000000000E+00 -0.87632386408E+03  0.87632386408E+03  0.00000000000E+00 0. -1.
        -24    2    1    2    0    0 -0.13115248743E+02  0.99649992181E+03  0.24695965115E+03  0.10295956997E+04  0.76773248363E+02 0.  0.
    5000000    2    1    2    0    0  0.13115248743E+02 -0.99649992181E+03  0.21229712207E+03  0.11823088016E+04  0.59966651607E+03 0.  0.
        -24    2    4    4    0    0  0.45508603695E+02 -0.33986337278E+03  0.36056230997E+03  0.50387285608E+03  0.79401074037E+02 0.  0.
         24    2    4    4    0    0 -0.32393354952E+02 -0.65663654904E+03 -0.14826518790E+03  0.67843594557E+03  0.77922264610E+02 0.  0.
         11    1    5    5    0    0 -0.19825280472E+02 -0.10909877840E+03  0.13420010839E+03  0.17408404374E+03  0.00000000000E+00 0. -1.
        -12    1    5    5    0    0  0.65333884168E+02 -0.23076459438E+03  0.22636220158E+03  0.32978881234E+03  0.00000000000E+00 0.  1.
         15    1    3    3    0    0  0.29005431933E+02  0.61775725351E+03  0.15604428392E+03  0.63782310684E+03  0.17770000000E+01 0. -1.
        -16    1    3    3    0    0 -0.42120680676E+02  0.37874266830E+03  0.90915367233E+02  0.39177259288E+03  0.00000000000E+00 0.  1.
          4    1    6    6  502    0  0.12402585672E+02 -0.26131242810E+03 -0.88191929481E+02  0.27607213846E+03  0.00000000000E+00 0. -1.
         -3    1    6    6    0  502 -0.44795940624E+02 -0.39532412094E+03 -0.60073258418E+02  0.40236380711E+03  0.00000000000E+00 0.  1.
<mgrwt>
<rscale>  0 0.10048495E+04</rscale>
<asrwt>0</asrwt>
<pdfrwt beam="1">  1        1 0.13481906E+00 0.10048495E+04</pdfrwt>
<pdfrwt beam="2">  1       -2 0.20547394E+00 0.10048495E+04</pdfrwt>
<totfact> 0.20367253E+00</totfact>
</mgrwt>
</event>
<event>
12    3  0.1092576E-007  0.1445100E+04  0.7818608E-02  0.8921805E-01
         -2   -1    0    0    0  501 -0.00000000000E+00  0.00000000000E+00  0.12191877718E+04  0.12191877718E+04  0.00000000000E+00 0.  1.
          3   -1    0    0  501    0  0.00000000000E+00 -0.00000000000E+00 -0.22530683921E+04  0.22530683921E+04  0.00000000000E+00 0. -1.
        -24    2    1    2    0    0 -0.22611903039E+03  0.13778890882E+04 -0.13228318729E+04  0.19253548644E+04  0.86017640197E+02 0.  0.
    5000000    2    1    2    0    0  0.22611903039E+03 -0.13778890882E+04  0.28895125260E+03  0.15469012995E+04  0.59975215622E+03 0.  0.
        -24    2    4    4    0    0  0.35139858141E+03 -0.56217807040E+03  0.26215298404E+03  0.71740143956E+03  0.80096770095E+02 0.  0.
         24    2    4    4    0    0 -0.12527955102E+03 -0.81571101777E+03  0.26798268562E+02  0.82949985998E+03  0.79198737860E+02 0.  0.
         13    1    5    5    0    0  0.16502452275E+03 -0.19722908879E+03  0.83631456839E+02  0.27041935424E+03  0.00000000000E+00 0. -1.
        -14    1    5    5    0    0  0.18637405866E+03 -0.36494898161E+03  0.17852152720E+03  0.44698208532E+03  0.00000000000E+00 0.  1.
         15    1    3    3    0    0 -0.59200566783E+02  0.30474827601E+03 -0.34297454422E+03  0.46261313703E+03  0.17770000000E+01 0. -1.
        -16    1    3    3    0    0 -0.16691846360E+03  0.10731408122E+04 -0.97985732871E+03  0.14627417273E+04  0.00000000000E+00 0.  1.
          4    1    6    6  502    0 -0.69905353609E+02 -0.59977034694E+03  0.47012044813E+02  0.60565779107E+03  0.00000000000E+00 0. -1.
         -3    1    6    6    0  502 -0.55374197413E+02 -0.21594067084E+03 -0.20213776252E+02  0.22384206890E+03  0.00000000000E+00 0.  1.
<mgrwt>
<rscale>  0 0.14450996E+04</rscale>
<asrwt>0</asrwt>
<pdfrwt beam="1">  1        3 0.34662591E+00 0.14450996E+04</pdfrwt>
<pdfrwt beam="2">  1       -2 0.18756735E+00 0.14450996E+04</pdfrwt>
<totfact> 0.13370684E-02</totfact>
</mgrwt>
</event>
<event>
12    3  0.1092576E-007  0.2507595E+03  0.7818608E-02  0.1112826E+00
         -2   -1    0    0    0  501 -0.00000000000E+00  0.00000000000E+00  0.10718405582E+03  0.10718405582E+03  0.00000000000E+00 0.  1.
          1   -1    0    0  501    0  0.00000000000E+00 -0.00000000000E+00 -0.17493752442E+04  0.17493752442E+04  0.00000000000E+00 0. -1.
        -24    2    1    2    0    0  0.11434130912E+03  0.14411740177E+03 -0.67233108171E+03  0.70158930329E+03  0.79716413558E+02 0.  0.
    5000000    2    1    2    0    0 -0.11434130912E+03 -0.14411740177E+03 -0.96986010670E+03  0.11549699968E+04  0.59956926737E+03 0.  0.
        -24    2    4    4    0    0 -0.14275222842E+03 -0.17688165132E+03 -0.10221576580E+04  0.10501277399E+04  0.79351590355E+02 0.  0.
         24    2    4    4    0    0  0.28410919297E+02  0.32764249552E+02  0.52297551328E+02  0.10484225688E+03  0.79851039879E+02 0.  0.
         11    1    5    5    0    0 -0.14205972916E+02 -0.52928180933E+01 -0.19662698583E+03  0.19721053507E+03  0.00000000000E+00 0. -1.
        -12    1    5    5    0    0 -0.12854625550E+03 -0.17158883322E+03 -0.82553067220E+03  0.85291720479E+03  0.00000000000E+00 0.  1.
         15    1    3    3    0    0  0.82912693716E+02  0.68618770744E+02 -0.26310235045E+03  0.28426933535E+03  0.17770000000E+01 0. -1.
        -16    1    3    3    0    0  0.31428615406E+02  0.75498631022E+02 -0.40922873126E+03  0.41731996794E+03  0.00000000000E+00 0.  1.
          2    1    6    6  502    0  0.38772181597E+02  0.49488629682E+02  0.18155128459E+02  0.65437108914E+02  0.00000000000E+00 0. -1.
         -1    1    6    6    0  502 -0.10361262301E+02 -0.16724380131E+02  0.34142422869E+02  0.39405147971E+02  0.00000000000E+00 0.  1.
<mgrwt>
<rscale>  0 0.25075952E+03</rscale>
<asrwt>0</asrwt>
<pdfrwt beam="1">  1        1 0.26913464E+00 0.25075952E+03</pdfrwt>
<pdfrwt beam="2">  1       -2 0.16489855E-01 0.25075952E+03</pdfrwt>
<totfact> 0.12737061E+02</totfact>
</mgrwt>
</event>
<event>
12    3  0.1092576E-007  0.1524661E+04  0.7818608E-02  0.8868217E-01
          1   -1    0    0  501    0  0.00000000000E+00  0.00000000000E+00  0.10407705157E+04  0.10407705157E+04  0.00000000000E+00 0. -1.
         -2   -1    0    0    0  501 -0.00000000000E+00 -0.00000000000E+00 -0.30057886231E+04  0.30057886231E+04  0.00000000000E+00 0.  1.
        -24    2    1    2    0    0  0.71330123772E+03  0.12861874339E+04 -0.19679731767E+04  0.24581422548E+04  0.80424808213E+02 0.  0.
    5000000    2    1    2    0    0 -0.71330123772E+03 -0.12861874339E+04  0.29550694125E+01  0.15884168840E+04  0.59998557809E+03 0.  0.
        -24    2    4    4    0    0 -0.30096398896E+03 -0.10562549593E+04  0.78470912698E+02  0.11036551272E+04  0.75120530257E+02 0.  0.
         24    2    4    4    0    0 -0.41233724875E+03 -0.22993247466E+03 -0.75515843286E+02  0.48476175674E+03  0.80002303742E+02 0.  0.
         13    1    5    5    0    0 -0.23286980963E+03 -0.69103206430E+03  0.60030565987E+02  0.73168116757E+03  0.00000000000E+00 0. -1.
        -14    1    5    5    0    0 -0.68094179333E+02 -0.36522289497E+03  0.18440346711E+02  0.37197395965E+03  0.00000000000E+00 0.  1.
         15    1    3    3    0    0  0.28697326845E+03  0.44065435687E+03 -0.68644848962E+03  0.86472227083E+03  0.17770000000E+01 0. -1.
        -16    1    3    3    0    0  0.42632796926E+03  0.84553307706E+03 -0.12815246871E+04  0.15934199840E+04  0.00000000000E+00 0.  1.
          2    1    6    6  502    0 -0.26604807650E+03 -0.11537762959E+03 -0.19260750415E+02  0.29062785986E+03  0.00000000000E+00 0. -1.
         -1    1    6    6    0  502 -0.14628917225E+03 -0.11455484506E+03 -0.56255092871E+02  0.19413389689E+03  0.00000000000E+00 0.  1.
<mgrwt>
<rscale>  0 0.15246607E+04</rscale>
<asrwt>0</asrwt>
<pdfrwt beam="1">  1        1 0.16011855E+00 0.15246607E+04</pdfrwt>
<pdfrwt beam="2">  1       -2 0.46242901E+00 0.15246607E+04</pdfrwt>
<totfact> 0.33453707E-02</totfact>
</mgrwt>
</event>
<event>
12    3  0.1092576E-007  0.1381599E+04  0.7818608E-02  0.8967247E-01
          1   -1    0    0  501    0  0.00000000000E+00  0.00000000000E+00  0.18271792164E+04  0.18271792164E+04  0.00000000000E+00 0. -1.
         -2   -1    0    0    0  501 -0.00000000000E+00 -0.00000000000E+00 -0.12555660220E+04  0.12555660220E+04  0.00000000000E+00 0.  1.
        -24    2    1    2    0    0 -0.10961809782E+04 -0.73797896762E+03 -0.34282353435E+03  0.13673951101E+04  0.77561057751E+02 0.  0.
    5000000    2    1    2    0    0  0.10961809782E+04  0.73797896762E+03  0.91443672872E+03  0.17153501283E+04  0.60000486502E+03 0.  0.
        -24    2    4    4    0    0  0.92861065168E+03  0.30822719396E+03  0.58430817548E+03  0.11425696218E+04  0.82021650747E+02 0.  0.
         24    2    4    4    0    0  0.16757032655E+03  0.42975177366E+03  0.33012855323E+03  0.57278050648E+03  0.79537699471E+02 0.  0.
         11    1    5    5    0    0  0.68381972685E+03  0.20903861315E+03  0.46343352535E+03  0.85210163305E+03  0.00000000000E+00 0. -1.
        -12    1    5    5    0    0  0.24479092483E+03  0.99188580802E+02  0.12087465013E+03  0.29046798874E+03  0.00000000000E+00 0.  1.
         15    1    3    3    0    0 -0.79956262877E+03 -0.55370317529E+03 -0.21925214639E+03  0.99697656195E+03  0.17770000000E+01 0. -1.
        -16    1    3    3    0    0 -0.29661834946E+03 -0.18427579233E+03 -0.12357138796E+03  0.37041854813E+03  0.00000000000E+00 0.  1.
          2    1    6    6  502    0  0.79862135921E+02  0.24600753163E+03  0.22895510365E+03  0.34542452991E+03  0.00000000000E+00 0. -1.
         -1    1    6    6    0  502  0.87708190630E+02  0.18374424203E+03  0.10117344958E+03  0.22735597657E+03  0.00000000000E+00 0.  1.
<mgrwt>
<rscale>  0 0.13815992E+04</rscale>
<asrwt>0</asrwt>
<pdfrwt beam="1">  1        1 0.28110449E+00 0.13815992E+04</pdfrwt>
<pdfrwt beam="2">  1       -2 0.19316400E+00 0.13815992E+04</pdfrwt>
<totfact> 0.48244122E-01</totfact>
</mgrwt>
</event>
<event>
12    3  0.1092576E-007  0.8714144E+03  0.7818608E-02  0.9462038E-01
         -2   -1    0    0    0  501 -0.00000000000E+00  0.00000000000E+00  0.74604035369E+03  0.74604035369E+03  0.00000000000E+00 0.  1.
          1   -1    0    0  501    0  0.00000000000E+00 -0.00000000000E+00 -0.12536850541E+04  0.12536850541E+04  0.00000000000E+00 0. -1.
        -24    2    1    2    0    0 -0.77851698808E+03 -0.28558363949E+03  0.49661815592E+02  0.83435490517E+03  0.77685880195E+02 0.  0.
    5000000    2    1    2    0    0  0.77851698808E+03  0.28558363949E+03 -0.55730651602E+03  0.11653705026E+04  0.59987593695E+03 0.  0.
        -24    2    4    4    0    0  0.52999212283E+03  0.36478152910E+03 -0.13454963646E+03  0.66221864503E+03  0.80453184596E+02 0.  0.
         24    2    4    4    0    0  0.24852486525E+03 -0.79197889609E+02 -0.42275687956E+03  0.50315185761E+03  0.80009363396E+02 0.  0.
         13    1    5    5    0    0  0.34628418186E+03  0.28044466856E+03 -0.10636213269E+03  0.45812099930E+03  0.00000000000E+00 0. -1.
        -14    1    5    5    0    0  0.18370794097E+03  0.84336860545E+02 -0.28187503769E+02  0.20409764573E+03  0.00000000000E+00 0.  1.
         15    1    3    3    0    0 -0.25870460002E+03 -0.92503092062E+02  0.53078932783E+02  0.27983106144E+03  0.17770000000E+01 0. -1.
        -16    1    3    3    0    0 -0.51981238806E+03 -0.19308054743E+03 -0.34171171914E+01  0.55452384373E+03  0.00000000000E+00 0.  1.
          2    1    6    6  502    0  0.12421755257E+03 -0.66412587736E+02 -0.16679387371E+03  0.21831360124E+03  0.00000000000E+00 0. -1.
         -1    1    6    6    0  502  0.12430731268E+03 -0.12785301873E+02 -0.25596300585E+03  0.28483825637E+03  0.00000000000E+00 0.  1.
<mgrwt>
<rscale>  0 0.87141439E+03</rscale>
<asrwt>0</asrwt>
<pdfrwt beam="1">  1        1 0.19287462E+00 0.87141439E+03</pdfrwt>
<pdfrwt beam="2">  1       -2 0.11477544E+00 0.87141439E+03</pdfrwt>
<totfact> 0.51393767E+00</totfact>
</mgrwt>
</event>
<event>
12    3  0.1092576E-007  0.5686155E+03  0.7818608E-02  0.9972747E-01
          3   -1    0    0  501    0  0.00000000000E+00  0.00000000000E+00  0.80408713122E+03  0.80408713122E+03  0.00000000000E+00 0. -1.
         -4   -1    0    0    0  501 -0.00000000000E+00 -0.00000000000E+00 -0.77197653912E+03  0.77197653912E+03  0.00000000000E+00 0.  1.
        -24    2    1    2    0    0 -0.48225393360E+03 -0.25429499788E+03  0.40483654434E+03  0.68382927727E+03  0.80591875555E+02 0.  0.
    5000000    2    1    2    0    0  0.48225393360E+03  0.25429499788E+03 -0.37272595224E+03  0.89223439307E+03  0.59993564177E+03 0.  0.
        -24    2    4    4    0    0  0.28872702763E+03  0.40981527910E+02  0.11190266702E+03  0.32257372403E+03  0.80553202540E+02 0.  0.
         24    2    4    4    0    0  0.19352690598E+03  0.21331346997E+03 -0.48462861926E+03  0.56966066903E+03  0.81811242667E+02 0.  0.
         11    1    5    5    0    0  0.11370728813E+03  0.30459832218E+02  0.62841843000E+01  0.11788400963E+03  0.00000000000E+00 0. -1.
        -12    1    5    5    0    0  0.17501973949E+03  0.10521695693E+02  0.10561848272E+03  0.20468971441E+03  0.00000000000E+00 0.  1.
         15    1    3    3    0    0 -0.37090334163E+03 -0.15694403140E+03  0.28347997823E+03  0.49250865333E+03  0.17770000000E+01 0. -1.
        -16    1    3    3    0    0 -0.11135059198E+03 -0.97350966483E+02  0.12135656610E+03  0.19132062394E+03  0.00000000000E+00 0.  1.
          2    1    6    6  502    0  0.18057440666E+02  0.52482000258E+02 -0.52952729654E+02  0.76709993431E+02  0.00000000000E+00 0. -1.
         -1    1    6    6    0  502  0.17546946531E+03  0.16083146971E+03 -0.43167588961E+03  0.49295067560E+03  0.00000000000E+00 0.  1.
<mgrwt>
<rscale>  0 0.56861547E+03</rscale>
<asrwt>0</asrwt>
<pdfrwt beam="1">  1        3 0.12370571E+00 0.56861547E+03</pdfrwt>
<pdfrwt beam="2">  1       -4 0.11876562E+00 0.56861547E+03</pdfrwt>
<totfact> 0.64649265E-01</totfact>
</mgrwt>
</event>
<event>
12    3  0.1092576E-007  0.7542206E+03  0.7818608E-02  0.9628752E-01
          1   -1    0    0  501    0  0.00000000000E+00  0.00000000000E+00  0.67918535760E+03  0.67918535760E+03  0.00000000000E+00 0. -1.
         -2   -1    0    0    0  501 -0.00000000000E+00 -0.00000000000E+00 -0.11846519992E+04  0.11846519992E+04  0.00000000000E+00 0.  1.
        -24    2    1    2    0    0 -0.68061911104E+03 -0.67837074258E+02  0.19466395815E+03  0.71574618181E+03  0.80958614201E+02 0.  0.
    5000000    2    1    2    0    0  0.68061911104E+03  0.67837074258E+02 -0.70013059974E+03  0.11480911750E+04  0.60007186771E+03 0.  0.
        -24    2    4    4    0    0  0.69245888721E+03 -0.54151599172E+02 -0.72030523515E+03  0.10038570848E+04  0.80359869749E+02 0.  0.
         24    2    4    4    0    0 -0.11839776173E+02  0.12198867343E+03  0.20174635410E+02  0.14423409022E+03  0.73314665122E+02 0.  0.
         13    1    5    5    0    0  0.14264512697E+03 -0.41753369406E+02 -0.13628134683E+03  0.20165213016E+03  0.00000000000E+00 0. -1.
        -14    1    5    5    0    0  0.54981376025E+03 -0.12398229767E+02 -0.58402388832E+03  0.80220495460E+03  0.00000000000E+00 0.  1.
         15    1    3    3    0    0 -0.30354074602E+03 -0.63886791506E+02  0.11116185225E+03  0.32951270347E+03  0.17770000000E+01 0. -1.
        -16    1    3    3    0    0 -0.37707836502E+03 -0.39502827527E+01  0.83502105903E+02  0.38623347834E+03  0.00000000000E+00 0.  1.
          4    1    6    6  502    0 -0.88160029523E+01  0.89706998502E+02 -0.20277482390E+02  0.92391794984E+02  0.00000000000E+00 0. -1.
         -3    1    6    6    0  502 -0.30237732207E+01  0.32281674929E+02  0.40452117800E+02  0.51842295234E+02  0.00000000000E+00 0.  1.
<mgrwt>
<rscale>  0 0.75422062E+03</rscale>
<asrwt>0</asrwt>
<pdfrwt beam="1">  1        1 0.10449005E+00 0.75422062E+03</pdfrwt>
<pdfrwt beam="2">  1       -2 0.18225415E+00 0.75422062E+03</pdfrwt>
<totfact> 0.44760345E+00</totfact>
</mgrwt>
</event>
<event>
12    3  0.1092576E-007  0.3722898E+03  0.7818608E-02  0.1053821E+00
          1   -1    0    0  501    0  0.00000000000E+00  0.00000000000E+00  0.11423254097E+04  0.11423254097E+04  0.00000000000E+00 0. -1.
         -2   -1    0    0    0  501 -0.00000000000E+00 -0.00000000000E+00 -0.24067854645E+03  0.24067854645E+03  0.00000000000E+00 0.  1.
        -24    2    1    2    0    0  0.17200194677E+02  0.23040949488E+03 -0.35676872530E+02  0.24628334135E+03  0.77448453599E+02 0.  0.
    5000000    2    1    2    0    0 -0.17200194677E+02 -0.23040949488E+03  0.93732373577E+03  0.11367206148E+04  0.60014463959E+03 0.  0.
        -24    2    4    4    0    0 -0.11138744553E+03 -0.32643333979E+03  0.25442110753E+03  0.43603765115E+03  0.80205018028E+02 0.  0.
         24    2    4    4    0    0  0.94187250849E+02  0.96023844914E+02  0.68290262824E+03  0.70068296364E+03  0.80677127256E+02 0.  0.
         13    1    5    5    0    0 -0.66776507455E+02 -0.10546728463E+03  0.12225918065E+03  0.17472766618E+03  0.00000000000E+00 0. -1.
        -14    1    5    5    0    0 -0.44610938071E+02 -0.22096605516E+03  0.13216192687E+03  0.26130998497E+03  0.00000000000E+00 0.  1.
         15    1    3    3    0    0 -0.21493306790E+02  0.86633316077E+02 -0.38834706797E+02  0.97358029316E+02  0.17770000000E+01 0. -1.
        -16    1    3    3    0    0  0.38693501467E+02  0.14377617880E+03  0.31578342673E+01  0.14892531203E+03  0.00000000000E+00 0.  1.
          4    1    6    6  502    0  0.10302726684E+03  0.60345770405E+02  0.49268342913E+03  0.50694495861E+03  0.00000000000E+00 0. -1.
         -3    1    6    6    0  502 -0.88400159925E+01  0.35678074509E+02  0.19021919911E+03  0.19373800503E+03  0.00000000000E+00 0.  1.
<mgrwt>
<rscale>  0 0.37228980E+03</rscale>
<asrwt>0</asrwt>
<pdfrwt beam="1">  1        1 0.17574237E+00 0.37228980E+03</pdfrwt>
<pdfrwt beam="2">  1       -2 0.37027469E-01 0.37228980E+03</pdfrwt>
<totfact> 0.75797714E+01</totfact>
</mgrwt>
</event>
<event>
12    3  0.1092576E-007  0.9300242E+03  0.7818608E-02  0.9388809E-01
          1   -1    0    0  501    0  0.00000000000E+00  0.00000000000E+00  0.26020634138E+04  0.26020634138E+04  0.00000000000E+00 0. -1.
         -2   -1    0    0    0  501 -0.00000000000E+00 -0.00000000000E+00 -0.49932500703E+03  0.49932500703E+03  0.00000000000E+00 0.  1.
        -24    2    1    2    0    0 -0.66705959540E+03 -0.52435619263E+03  0.18424359067E+04  0.20299987657E+04  0.80043726193E+02 0.  0.
    5000000    2    1    2    0    0  0.66705959540E+03  0.52435619263E+03  0.26030250006E+03  0.10713896551E+04  0.60016704414E+03 0.  0.
        -24    2    4    4    0    0  0.72785539406E+03  0.35899754621E+03  0.10802216829E+03  0.82248265901E+03  0.78461600045E+02 0.  0.
         24    2    4    4    0    0 -0.60795798665E+02  0.16535864642E+03  0.15228033176E+03  0.24890699605E+03  0.87896428587E+02 0.  0.
         11    1    5    5    0    0  0.35846652412E+03  0.13714716879E+03  0.67435273094E+02  0.38968591311E+03  0.00000000000E+00 0. -1.
        -12    1    5    5    0    0  0.36938886995E+03  0.22185037742E+03  0.40586895199E+02  0.43279674590E+03  0.00000000000E+00 0.  1.
         15    1    3    3    0    0 -0.24188816978E+03 -0.20056578732E+03  0.77413973314E+03  0.83548309730E+03  0.17770000000E+01 0. -1.
        -16    1    3    3    0    0 -0.42517142562E+03 -0.32379040531E+03  0.10682961735E+04  0.11945156684E+04  0.00000000000E+00 0.  1.
          4    1    6    6  502    0  0.10046238368E+02  0.99390374647E+02  0.82824908954E+02  0.12976647880E+03  0.00000000000E+00 0. -1.
         -3    1    6    6    0  502 -0.70842037032E+02  0.65968271773E+02  0.69455422811E+02  0.11914051725E+03  0.00000000000E+00 0.  1.
<mgrwt>
<rscale>  0 0.93002419E+03</rscale>
<asrwt>0</asrwt>
<pdfrwt beam="1">  1        1 0.40031744E+00 0.93002419E+03</pdfrwt>
<pdfrwt beam="2">  1       -2 0.76819233E-01 0.93002419E+03</pdfrwt>
<totfact> 0.15704516E+00</totfact>
</mgrwt>
</event>
<event>
12    3  0.1092576E-007  0.7403869E+03  0.7818608E-02  0.9650554E-01
         -2   -1    0    0    0  501 -0.00000000000E+00  0.00000000000E+00  0.18372375439E+04  0.18372375439E+04  0.00000000000E+00 0.  1.
          1   -1    0    0  501    0  0.00000000000E+00 -0.00000000000E+00 -0.44276104957E+03  0.44276104957E+03  0.00000000000E+00 0. -1.
        -24    2    1    2    0    0 -0.58101190463E+03 -0.36827191504E+03  0.10546607810E+03  0.70048657437E+03  0.79745285204E+02 0.  0.
    5000000    2    1    2    0    0  0.58101190463E+03  0.36827191504E+03  0.12890104162E+04  0.15795120191E+04  0.60009276665E+03 0.  0.
        -24    2    4    4    0    0  0.20715757761E+02  0.20132275583E+03  0.76592450926E+02  0.23107013780E+03  0.81037092814E+02 0.  0.
         24    2    4    4    0    0  0.56029614687E+03  0.16694915922E+03  0.12124179653E+04  0.13484418813E+04  0.80835578078E+02 0.  0.
         11    1    5    5    0    0  0.34881582211E+02  0.12220747443E+03  0.11431772368E+02  0.12760124218E+03  0.00000000000E+00 0. -1.
        -12    1    5    5    0    0 -0.14165824449E+02  0.79115281393E+02  0.65160678558E+02  0.10346889563E+03  0.00000000000E+00 0.  1.
         15    1    3    3    0    0 -0.40933241312E+03 -0.27419007483E+03  0.41038138869E+02  0.49438902510E+03  0.17770000000E+01 0. -1.
        -16    1    3    3    0    0 -0.17167949151E+03 -0.94081840214E+02  0.64427939228E+02  0.20609754927E+03  0.00000000000E+00 0.  1.
          2    1    6    6  502    0  0.25795896127E+03  0.85233523128E+02  0.47368644679E+03  0.54606449165E+03  0.00000000000E+00 0. -1.
         -1    1    6    6    0  502  0.30233718560E+03  0.81715636088E+02  0.73873151847E+03  0.80237738961E+03  0.00000000000E+00 0.  1.
<mgrwt>
<rscale>  0 0.74038695E+03</rscale>
<asrwt>0</asrwt>
<pdfrwt beam="1">  1        1 0.68117086E-01 0.74038695E+03</pdfrwt>
<pdfrwt beam="2">  1       -2 0.28265193E+00 0.74038695E+03</pdfrwt>
<totfact> 0.19388714E+00</totfact>
</mgrwt>
</event>
<event>
12    3  0.1092576E-007  0.5203173E+03  0.7818608E-02  0.1008608E+00
          1   -1    0    0  501    0  0.00000000000E+00  0.00000000000E+00  0.92617352297E+03  0.92617352297E+03  0.00000000000E+00 0. -1.
         -2   -1    0    0    0  501 -0.00000000000E+00 -0.00000000000E+00 -0.30774605087E+03  0.30774605087E+03  0.00000000000E+00 0.  1.
        -24    2    1    2    0    0 -0.26657041022E+03  0.23837418123E+03  0.26164390420E+03  0.44979175274E+03  0.77285537711E+02 0.  0.
    5000000    2    1    2    0    0  0.26657041022E+03 -0.23837418123E+03  0.35678356790E+03  0.78412782111E+03  0.59973318370E+03 0.  0.
        -24    2    4    4    0    0 -0.17650371522E+03 -0.10581813815E+03  0.17175547514E+03  0.27980316366E+03  0.80242303721E+02 0.  0.
         24    2    4    4    0    0  0.44307412544E+03 -0.13255604308E+03  0.18502809276E+03  0.50432465745E+03  0.78880794954E+02 0.  0.
         13    1    5    5    0    0 -0.13348604894E+03 -0.10101721535E+03  0.16666399821E+03  0.23622000626E+03  0.00000000000E+00 0. -1.
        -14    1    5    5    0    0 -0.43017666273E+02 -0.48009228041E+01  0.50914769276E+01  0.43583157396E+02  0.00000000000E+00 0.  1.
         15    1    3    3    0    0 -0.23312344417E+03  0.16631324685E+03  0.20767424557E+03  0.35374904424E+03  0.17770000000E+01 0. -1.
        -16    1    3    3    0    0 -0.33446966050E+02  0.72060934380E+02  0.53969658633E+02  0.96042708493E+02  0.00000000000E+00 0.  1.
          2    1    6    6  502    0  0.32744938406E+03 -0.11567286156E+03  0.16953113471E+03  0.38645066394E+03  0.00000000000E+00 0. -1.
         -1    1    6    6    0  502  0.11562474139E+03 -0.16883181513E+02  0.15496958048E+02  0.11787399352E+03  0.00000000000E+00 0.  1.
<mgrwt>
<rscale>  0 0.52031726E+03</rscale>
<asrwt>0</asrwt>
<pdfrwt beam="1">  1        1 0.14248823E+00 0.52031726E+03</pdfrwt>
<pdfrwt beam="2">  1       -2 0.47345547E-01 0.52031726E+03</pdfrwt>
<totfact> 0.66902244E+01</totfact>
</mgrwt>
</event>
<event>
12    3  0.1092576E-007  0.9519128E+03  0.7818608E-02  0.9362918E-01
          1   -1    0    0  501    0  0.00000000000E+00  0.00000000000E+00  0.19289823243E+04  0.19289823243E+04  0.00000000000E+00 0. -1.
         -2   -1    0    0    0  501 -0.00000000000E+00 -0.00000000000E+00 -0.10141204824E+04  0.10141204824E+04  0.00000000000E+00 0.  1.
        -24    2    1    2    0    0  0.36820914942E+03  0.82957337352E+03  0.14637476652E+04  0.17244648414E+04  0.86323819228E+02 0.  0.
    5000000    2    1    2    0    0 -0.36820914942E+03 -0.82957337352E+03 -0.54888582335E+03  0.12186379653E+04  0.60002740240E+03 0.  0.
        -24    2    4    4    0    0  0.85073049966E+01 -0.46035693938E+03 -0.18596047878E+02  0.46630194760E+03  0.71349894642E+02 0.  0.
         24    2    4    4    0    0 -0.37671645441E+03 -0.36921643414E+03 -0.53028977547E+03  0.75233601770E+03  0.81031939999E+02 0.  0.
         13    1    5    5    0    0 -0.27806578667E+02 -0.14621219714E+03 -0.19188931188E+02  0.15006474433E+03  0.00000000000E+00 0. -1.
        -14    1    5    5    0    0  0.36313883664E+02 -0.31414474223E+03  0.59288330954E+00  0.31623720327E+03  0.00000000000E+00 0.  1.
         15    1    3    3    0    0  0.15998707279E+03  0.45827724350E+03  0.81132822244E+03  0.94544726856E+03  0.17770000000E+01 0. -1.
        -16    1    3    3    0    0  0.20822207663E+03  0.37129613002E+03  0.65241944281E+03  0.77901757279E+03  0.00000000000E+00 0.  1.
          2    1    6    6  502    0 -0.12110567278E+03 -0.10989383533E+03 -0.11442930951E+03  0.19959285032E+03  0.00000000000E+00 0. -1.
         -3    1    6    6    0  502 -0.25561078163E+03 -0.25932259881E+03 -0.41586046596E+03  0.55274316738E+03  0.00000000000E+00 0.  1.
<mgrwt>
<rscale>  0 0.95191282E+03</rscale>
<asrwt>0</asrwt>
<pdfrwt beam="1">  1        1 0.29676651E+00 0.95191282E+03</pdfrwt>
<pdfrwt beam="2">  1       -2 0.15601854E+00 0.95191282E+03</pdfrwt>
<totfact> 0.79567333E-01</totfact>
</mgrwt>
</event>
<event>
12    3  0.1092576E-007  0.5174961E+03  0.7818608E-02  0.1009310E+00
          1   -1    0    0  501    0  0.00000000000E+00  0.00000000000E+00  0.17284458577E+04  0.17284458577E+04  0.00000000000E+00 0. -1.
         -2   -1    0    0    0  501 -0.00000000000E+00 -0.00000000000E+00 -0.25180019473E+03  0.25180019473E+03  0.00000000000E+00 0.  1.
        -24    2    1    2    0    0  0.22250040769E+02  0.49007800998E+03  0.84221251971E+03  0.97866604483E+03  0.88282380852E+02 0.  0.
    5000000    2    1    2    0    0 -0.22250040769E+02 -0.49007800998E+03  0.63443314328E+03  0.10015800076E+04  0.59998798170E+03 0.  0.
        -24    2    4    4    0    0  0.75583612683E+02 -0.25068995339E+03 -0.37606305611E+02  0.27607718927E+03  0.79031923785E+02 0.  0.
         24    2    4    4    0    0 -0.97833653452E+02 -0.23938805659E+03  0.67203944889E+03  0.72550281834E+03  0.88539557109E+02 0.  0.
         13    1    5    5    0    0  0.29787266137E+02 -0.15581544796E+03 -0.57745377643E+02  0.16882021113E+03  0.00000000000E+00 0. -1.
        -14    1    5    5    0    0  0.45796346546E+02 -0.94874505428E+02  0.20139072032E+02  0.10725697814E+03  0.00000000000E+00 0.  1.
         15    1    3    3    0    0  0.54636548595E+02  0.28433123873E+03  0.46512721273E+03  0.54788309657E+03  0.17770000000E+01 0. -1.
        -16    1    3    3    0    0 -0.32386507826E+02  0.20574677125E+03  0.37708530699E+03  0.43078294826E+03  0.00000000000E+00 0.  1.
          4    1    6    6  502    0 -0.94186843374E+02 -0.11456829767E+03  0.37709076053E+03  0.40520920273E+03  0.00000000000E+00 0. -1.
         -3    1    6    6    0  502 -0.36468100777E+01 -0.12481975891E+03  0.29494868836E+03  0.32029361562E+03  0.00000000000E+00 0.  1.
<mgrwt>
<rscale>  0 0.51749609E+03</rscale>
<asrwt>0</asrwt>
<pdfrwt beam="1">  1        1 0.26591474E+00 0.51749609E+03</pdfrwt>
<pdfrwt beam="2">  1       -2 0.38738493E-01 0.51749609E+03</pdfrwt>
<totfact> 0.26912272E+01</totfact>
</mgrwt>
</event>
<event>
12    3  0.1092576E-007  0.9900255E+03  0.7818608E-02  0.9319553E-01
         -2   -1    0    0    0  501 -0.00000000000E+00  0.00000000000E+00  0.80290099873E+03  0.80290099873E+03  0.00000000000E+00 0.  1.
          1   -1    0    0  501    0  0.00000000000E+00 -0.00000000000E+00 -0.12380335708E+04  0.12380335708E+04  0.00000000000E+00 0. -1.
        -24    2    1    2    0    0 -0.53189694353E+03  0.73137007316E+03 -0.16856300952E+03  0.92344047032E+03  0.80698646799E+02 0.  0.
    5000000    2    1    2    0    0  0.53189694353E+03 -0.73137007316E+03 -0.26656956252E+03  0.11174940992E+04  0.59993098570E+03 0.  0.
        -24    2    4    4    0    0 -0.30078890807E+02  0.64091135960E+02 -0.96416589202E+01  0.10703639726E+03  0.79695767586E+02 0.  0.
         24    2    4    4    0    0  0.56197583434E+03 -0.79546120912E+03 -0.25692790360E+03  0.10104577019E+04  0.80233697017E+02 0.  0.
         11    1    5    5    0    0 -0.67310395570E+01  0.75140672301E+02 -0.21742142157E+02  0.78512089980E+02  0.00000000000E+00 0. -1.
        -12    1    5    5    0    0 -0.23347851250E+02 -0.11049536341E+02  0.12100483236E+02  0.28524307282E+02  0.00000000000E+00 0.  1.
         15    1    3    3    0    0 -0.13420482285E+03  0.16338005652E+03 -0.73476914432E+01  0.21156824820E+03  0.17770000000E+01 0. -1.
        -16    1    3    3    0    0 -0.39769212068E+03  0.56799001664E+03 -0.16121531808E+03  0.71187222213E+03  0.00000000000E+00 0.  1.
          2    1    6    6  502    0  0.51191253846E+03 -0.72207931265E+03 -0.20879089153E+03  0.90942103404E+03  0.00000000000E+00 0. -1.
         -1    1    6    6    0  502  0.50063295881E+02 -0.73381896479E+02 -0.48137012079E+02  0.10103666788E+03  0.00000000000E+00 0.  1.
<mgrwt>
<rscale>  0 0.99002555E+03</rscale>
<asrwt>0</asrwt>
<pdfrwt beam="1">  1        1 0.19046670E+00 0.99002555E+03</pdfrwt>
<pdfrwt beam="2">  1       -2 0.12352323E+00 0.99002555E+03</pdfrwt>
<totfact> 0.43377239E+00</totfact>
</mgrwt>
</event>
<event>
12    3  0.1092576E-007  0.9402950E+03  0.7818608E-02  0.9376567E-01
         -2   -1    0    0    0  501 -0.00000000000E+00  0.00000000000E+00  0.13640643423E+04  0.13640643423E+04  0.00000000000E+00 0.  1.
          1   -1    0    0  501    0  0.00000000000E+00 -0.00000000000E+00 -0.71495862973E+03  0.71495862973E+03  0.00000000000E+00 0. -1.
        -24    2    1    2    0    0 -0.68653892979E+03  0.56054919368E+03  0.42189243730E+03  0.98482581759E+03  0.79608804110E+02 0.  0.
    5000000    2    1    2    0    0  0.68653892979E+03 -0.56054919368E+03  0.22721327524E+03  0.10941971544E+04  0.60007536159E+03 0.  0.
        -24    2    4    4    0    0  0.10187141753E+03  0.59615031434E+02 -0.10227990410E+03  0.17739711335E+03  0.84123833491E+02 0.  0.
         24    2    4    4    0    0  0.58466751227E+03 -0.62016422511E+03  0.32949317934E+03  0.91680004104E+03  0.74275123778E+02 0.  0.
         13    1    5    5    0    0  0.54428068413E+02  0.68660413844E+02 -0.34488014032E+02  0.94159918077E+02  0.00000000000E+00 0. -1.
        -14    1    5    5    0    0  0.47443349114E+02 -0.90453824099E+01 -0.67791890073E+02  0.83237195278E+02  0.00000000000E+00 0.  1.
         15    1    3    3    0    0 -0.12684335527E+03  0.14254805403E+03  0.77066710970E+02  0.20579509264E+03  0.17770000000E+01 0. -1.
        -16    1    3    3    0    0 -0.55969557453E+03  0.41800113964E+03  0.34482572633E+03  0.77903072496E+03  0.00000000000E+00 0.  1.
          4    1    6    6  502    0  0.11639406101E+03 -0.16775027822E+03  0.69295952840E+02  0.21561461537E+03  0.00000000000E+00 0. -1.
         -3    1    6    6    0  502  0.46827345126E+03 -0.45241394689E+03  0.26019722651E+03  0.70118542568E+03  0.00000000000E+00 0.  1.
<mgrwt>
<rscale>  0 0.94029496E+03</rscale>
<asrwt>0</asrwt>
<pdfrwt beam="1">  1        1 0.10999364E+00 0.94029496E+03</pdfrwt>
<pdfrwt beam="2">  1       -2 0.20985605E+00 0.94029496E+03</pdfrwt>
<totfact> 0.26639142E+00</totfact>
</mgrwt>
</event>
<event>
12    3  0.1380646E-007  0.4728164E+03  0.7818608E-02  0.1021128E+00
         -2   -1    0    0    0  501 -0.00000000000E+00  0.00000000000E+00  0.19113824606E+03  0.19113824606E+03  0.00000000000E+00 0.  1.
          1   -1    0    0  501    0  0.00000000000E+00 -0.00000000000E+00 -0.16175281179E+04  0.16175281179E+04  0.00000000000E+00 0. -1.
        -24    2    1    2    0    0 -0.16847694327E+03 -0.24242917171E+03 -0.96212081219E+02  0.31983962461E+03  0.76708781678E+02 0.  0.
    5000000    2    1    2    0    0  0.16847694327E+03  0.24242917171E+03 -0.13301777907E+04  0.14888267394E+04  0.60006309789E+03 0.  0.
        -24    2    4    4    0    0  0.26670578696E+03 -0.10161456802E+03 -0.69540602912E+03  0.75571742665E+03  0.77857474801E+02 0.  0.
         24    2    4    4    0    0 -0.98228843690E+02  0.34404373973E+03 -0.63477176154E+03  0.73310931273E+03  0.80616838128E+02 0.  0.
         11    1    5    5    0    0  0.10940735351E+03 -0.52520666519E+02 -0.20344282229E+03  0.23689105377E+03  0.00000000000E+00 0. -1.
        -12    1    5    5    0    0  0.15729843345E+03 -0.49093901505E+02 -0.49196320682E+03  0.51882637288E+03  0.00000000000E+00 0.  1.
         15    1    3    3    0    0 -0.16715561315E+02 -0.63882007381E+02  0.12027210087E+01  0.66067579976E+02  0.17770000000E+01 0. -1.
        -16    1    3    3    0    0 -0.15176138196E+03 -0.17854716433E+03 -0.97414802228E+02  0.25377204463E+03  0.00000000000E+00 0.  1.
          2    1    6    6  502    0 -0.52331101944E+02  0.12888032629E+03 -0.17615712964E+03  0.22445493325E+03  0.00000000000E+00 0. -1.
         -1    1    6    6    0  502 -0.45897741746E+02  0.21516341344E+03 -0.45861463190E+03  0.50865437948E+03  0.00000000000E+00 0.  1.
<mgrwt>
<rscale>  0 0.47281644E+03</rscale>
<asrwt>0</asrwt>
<pdfrwt beam="1">  1        1 0.24885047E+00 0.47281644E+03</pdfrwt>
<pdfrwt beam="2">  1       -2 0.29405885E-01 0.47281644E+03</pdfrwt>
<totfact> 0.53991518E+01</totfact>
</mgrwt>
</event>
<event>
12    3  0.1156507E-007  0.1374889E+04  0.7818608E-02  0.8972199E-01
          1   -1    0    0  501    0  0.00000000000E+00  0.00000000000E+00  0.19945492197E+04  0.19945492197E+04  0.00000000000E+00 0. -1.
         -2   -1    0    0    0  501 -0.00000000000E+00 -0.00000000000E+00 -0.13686113142E+04  0.13686113142E+04  0.00000000000E+00 0.  1.
        -24    2    1    2    0    0  0.13183341907E+04  0.17874290279E+03 -0.59560444537E+03  0.14599929935E+04  0.82950720585E+02 0.  0.
    5000000    2    1    2    0    0 -0.13183341907E+04 -0.17874290279E+03  0.12215423508E+04  0.19031675404E+04  0.59993908711E+03 0.  0.
        -24    2    4    4    0    0  0.24797811187E+02 -0.34056780746E+02  0.15430822051E+03  0.17970951566E+03  0.81912681241E+02 0.  0.
         24    2    4    4    0    0 -0.13431320019E+04 -0.14468612205E+03  0.10672341303E+04  0.17234580247E+04  0.79882574179E+02 0.  0.
         11    1    5    5    0    0  0.37681705737E+01  0.13711111160E+02 -0.25053323070E+01  0.14438502993E+02  0.00000000000E+00 0. -1.
        -12    1    5    5    0    0  0.21029640613E+02 -0.47767891906E+02  0.15681355282E+03  0.16527101267E+03  0.00000000000E+00 0.  1.
         15    1    3    3    0    0  0.86442327368E+03  0.81718610984E+02 -0.40777291867E+03  0.95926400870E+03  0.17770000000E+01 0. -1.
        -16    1    3    3    0    0  0.45391091702E+03  0.97024291809E+02 -0.18783152671E+03  0.50072898480E+03  0.00000000000E+00 0.  1.
          2    1    6    6  502    0 -0.45608154863E+03 -0.52574507760E+02  0.31528395756E+03  0.55693664968E+03  0.00000000000E+00 0. -1.
         -1    1    6    6    0  502 -0.88705045326E+03 -0.92111614288E+02  0.75195017273E+03  0.11665213750E+04  0.00000000000E+00 0.  1.
<mgrwt>
<rscale>  0 0.13748886E+04</rscale>
<asrwt>0</asrwt>
<pdfrwt beam="1">  1        1 0.30685373E+00 0.13748886E+04</pdfrwt>
<pdfrwt beam="2">  1       -2 0.21055559E+00 0.13748886E+04</pdfrwt>
<totfact> 0.28572329E-01</totfact>
</mgrwt>
</event>
<event>
12    3  0.1092576E-007  0.4497224E+03  0.7818608E-02  0.1027805E+00
          1   -1    0    0  501    0  0.00000000000E+00  0.00000000000E+00  0.45020866462E+03  0.45020866462E+03  0.00000000000E+00 0. -1.
         -2   -1    0    0    0  501 -0.00000000000E+00 -0.00000000000E+00 -0.47349246558E+03  0.47349246558E+03  0.00000000000E+00 0.  1.
        -24    2    1    2    0    0 -0.12498416009E+03  0.21733576830E+03 -0.68626068283E+02  0.27183990782E+03  0.79570860114E+02 0.  0.
    5000000    2    1    2    0    0  0.12498416009E+03 -0.21733576830E+03  0.45342267327E+02  0.65186122239E+03  0.60000937958E+03 0.  0.
        -24    2    4    4    0    0  0.34861925423E+03 -0.19957610451E+03  0.52050030784E+02  0.41307361176E+03  0.80960466374E+02 0.  0.
         24    2    4    4    0    0 -0.22363509414E+03 -0.17759663791E+02 -0.67077634576E+01  0.23878761063E+03  0.81525872656E+02 0.  0.
         13    1    5    5    0    0  0.27676518119E+03 -0.13270903426E+03  0.12323172869E+02  0.30718482040E+03  0.00000000000E+00 0. -1.
        -14    1    5    5    0    0  0.71854073042E+02 -0.66867070247E+02  0.39726857915E+02  0.10588879136E+03  0.00000000000E+00 0.  1.
         15    1    3    3    0    0 -0.48864708727E+02  0.14888700471E+03 -0.64271057037E+02  0.16937835290E+03  0.17770000000E+01 0. -1.
        -16    1    3    3    0    0 -0.76119451367E+02  0.68448763593E+02 -0.43550112457E+01  0.10246155492E+03  0.00000000000E+00 0.  1.
          4    1    6    6  502    0 -0.99481198785E+02 -0.43339633040E+02 -0.23180136977E+02  0.11096013453E+03  0.00000000000E+00 0. -1.
         -3    1    6    6    0  502 -0.12415389535E+03  0.25579969249E+02  0.16472373519E+02  0.12782747610E+03  0.00000000000E+00 0.  1.
<mgrwt>
<rscale>  0 0.44972243E+03</rscale>
<asrwt>0</asrwt>
<pdfrwt beam="1">  1        1 0.69262872E-01 0.44972243E+03</pdfrwt>
<pdfrwt beam="2">  1       -2 0.72844994E-01 0.44972243E+03</pdfrwt>
<totfact> 0.79140124E+01</totfact>
</mgrwt>
</event>
<event>
12    3  0.1092576E-007  0.3419681E+03  0.7818608E-02  0.1065961E+00
          1   -1    0    0  501    0  0.00000000000E+00  0.00000000000E+00  0.32251886326E+04  0.32251886326E+04  0.00000000000E+00 0. -1.
         -2   -1    0    0    0  501 -0.00000000000E+00 -0.00000000000E+00 -0.46375445348E+02  0.46375445348E+02  0.00000000000E+00 0.  1.
        -24    2    1    2    0    0 -0.12485155163E+03 -0.16746829532E+02  0.41995354553E+03  0.44538510519E+03  0.78348869059E+02 0.  0.
    5000000    2    1    2    0    0  0.12485155163E+03  0.16746829532E+02  0.27588596417E+04  0.28261789727E+04  0.60009390687E+03 0.  0.
        -24    2    4    4    0    0 -0.12168238787E+03 -0.16677809009E+03  0.18557265919E+04  0.18688352574E+04  0.78755955551E+02 0.  0.
         24    2    4    4    0    0  0.24653393949E+03  0.18352491962E+03  0.90313304975E+03  0.95734371529E+03  0.79983149548E+02 0.  0.
         13    1    5    5    0    0 -0.17052445026E+02 -0.87811766359E+02  0.81027360118E+03  0.81519629597E+03  0.00000000000E+00 0. -1.
        -14    1    5    5    0    0 -0.10462994284E+03 -0.78966323728E+02  0.10454529908E+04  0.10536389615E+04  0.00000000000E+00 0.  1.
         15    1    3    3    0    0 -0.15353085117E+02 -0.34116930583E+02  0.10252154882E+03  0.10914901684E+03  0.17770000000E+01 0. -1.
        -16    1    3    3    0    0 -0.10949846651E+03  0.17370101051E+02  0.31743199670E+03  0.33623608835E+03  0.00000000000E+00 0.  1.
          2    1    6    6  502    0  0.16233139230E+03  0.15935093131E+03  0.70273266520E+03  0.73863211342E+03  0.00000000000E+00 0. -1.
         -1    1    6    6    0  502  0.84202547198E+02  0.24173988307E+02  0.20040038455E+03  0.21871160187E+03  0.00000000000E+00 0.  1.
<mgrwt>
<rscale>  0 0.34196806E+03</rscale>
<asrwt>0</asrwt>
<pdfrwt beam="1">  1        1 0.49618269E+00 0.34196806E+03</pdfrwt>
<pdfrwt beam="2">  1       -2 0.71346864E-02 0.34196806E+03</pdfrwt>
<totfact> 0.48665158E+01</totfact>
</mgrwt>
</event>
<event>
12    3  0.1092576E-007  0.1992558E+04  0.7818608E-02  0.8610108E-01
          1   -1    0    0  501    0  0.00000000000E+00  0.00000000000E+00  0.27917763689E+04  0.27917763689E+04  0.00000000000E+00 0. -1.
         -2   -1    0    0    0  501 -0.00000000000E+00 -0.00000000000E+00 -0.14850459154E+04  0.14850459154E+04  0.00000000000E+00 0.  1.
        -24    2    1    2    0    0 -0.11553845873E+04 -0.16022355670E+04  0.90218726593E+03  0.21730627515E+04  0.78660679608E+02 0.  0.
    5000000    2    1    2    0    0  0.11553845873E+04  0.16022355670E+04  0.40454318764E+03  0.21037595328E+04  0.60006385041E+03 0.  0.
        -24    2    4    4    0    0  0.62166026438E+02  0.41507504742E+02  0.14138201834E+03  0.17867940883E+03  0.79686687957E+02 0.  0.
         24    2    4    4    0    0  0.10932185608E+04  0.15607280622E+04  0.26316116930E+03  0.19250801240E+04  0.75370927124E+02 0.  0.
         13    1    5    5    0    0 -0.31254259230E+01  0.37112305153E+02  0.83038301090E+02  0.91007971788E+02  0.00000000000E+00 0. -1.
        -14    1    5    5    0    0  0.65291452361E+02  0.43951995896E+01  0.58343717249E+02  0.87671437044E+02  0.00000000000E+00 0.  1.
         15    1    3    3    0    0 -0.21443417217E+03 -0.24791897383E+03  0.14525371822E+03  0.35853539876E+03  0.17770000000E+01 0. -1.
        -16    1    3    3    0    0 -0.94095041512E+03 -0.13543165931E+04  0.75693354771E+03  0.18145273527E+04  0.00000000000E+00 0.  1.
          2    1    6    6  502    0  0.29219931190E+03  0.42251155356E+03  0.37412275310E+02  0.51506905276E+03  0.00000000000E+00 0. -1.
         -1    1    6    6    0  502  0.80101924895E+03  0.11382165087E+04  0.22574889399E+03  0.14100110712E+04  0.00000000000E+00 0.  1.
<mgrwt>
<rscale>  0 0.19925584E+04</rscale>
<asrwt>0</asrwt>
<pdfrwt beam="1">  1        1 0.42950406E+00 0.19925584E+04</pdfrwt>
<pdfrwt beam="2">  1       -2 0.22846860E+00 0.19925584E+04</pdfrwt>
<totfact> 0.57725008E-02</totfact>
</mgrwt>
</event>
<event>
12    3  0.1092576E-007  0.6156819E+03  0.7818608E-02  0.9873395E-01
         -2   -1    0    0    0  501 -0.00000000000E+00  0.00000000000E+00  0.46894896435E+03  0.46894896435E+03  0.00000000000E+00 0.  1.
          1   -1    0    0  501    0  0.00000000000E+00 -0.00000000000E+00 -0.86128785486E+03  0.86128785486E+03  0.00000000000E+00 0. -1.
        -24    2    1    2    0    0  0.45499748097E+03  0.13823874278E+03 -0.26574888728E+02  0.48168182365E+03  0.71961773393E+02 0.  0.
    5000000    2    1    2    0    0 -0.45499748097E+03 -0.13823874278E+03 -0.36576400179E+03  0.84855499557E+03  0.60010800512E+03 0.  0.
        -24    2    4    4    0    0 -0.29224250183E+03  0.21454098593E+03 -0.19301870268E+03  0.41740605300E+03  0.74418270482E+02 0.  0.
         24    2    4    4    0    0 -0.16275497914E+03 -0.35277972871E+03 -0.17274529911E+03  0.43114894256E+03  0.71454545571E+02 0.  0.
         13    1    5    5    0    0 -0.17052727616E+03  0.10513566352E+03 -0.14348279022E+03  0.24641503759E+03  0.00000000000E+00 0. -1.
        -14    1    5    5    0    0 -0.12171522566E+03  0.10940532241E+03 -0.49535912462E+02  0.17099101542E+03  0.00000000000E+00 0.  1.
         15    1    3    3    0    0  0.16447916140E+03  0.64829270101E+02 -0.41687585496E+02  0.18165142805E+03  0.17770000000E+01 0. -1.
        -16    1    3    3    0    0  0.29051831956E+03  0.73409472682E+02  0.15112696768E+02  0.30003039560E+03  0.00000000000E+00 0.  1.
          2    1    6    6  502    0 -0.52969333001E+02 -0.16620439983E+03 -0.10811485197E+03  0.20522785867E+03  0.00000000000E+00 0. -1.
         -1    1    6    6    0  502 -0.10978564614E+03 -0.18657532889E+03 -0.64630447139E+02  0.22592108389E+03  0.00000000000E+00 0.  1.
<mgrwt>
<rscale>  0 0.61568193E+03</rscale>
<asrwt>0</asrwt>
<pdfrwt beam="1">  1        1 0.13250582E+00 0.61568193E+03</pdfrwt>
<pdfrwt beam="2">  1       -2 0.72145995E-01 0.61568193E+03</pdfrwt>
<totfact> 0.30926064E+01</totfact>
</mgrwt>
</event>
<event>
12    3  0.1092576E-007  0.3410720E+03  0.7818608E-02  0.1066340E+00
          1   -1    0    0  501    0  0.00000000000E+00  0.00000000000E+00  0.69231796210E+03  0.69231796210E+03  0.00000000000E+00 0. -1.
         -2   -1    0    0    0  501 -0.00000000000E+00 -0.00000000000E+00 -0.58635483209E+03  0.58635483209E+03  0.00000000000E+00 0.  1.
        -24    2    1    2    0    0  0.62006280052E+02 -0.24917532016E+03  0.46249865132E+03  0.53492980855E+03  0.79446703265E+02 0.  0.
    5000000    2    1    2    0    0 -0.62006280052E+02  0.24917532016E+03 -0.35653552131E+03  0.74374298564E+03  0.60008577037E+03 0.  0.
        -24    2    4    4    0    0 -0.16484182485E+03  0.22246252105E+03 -0.48150056852E+03  0.56102704695E+03  0.79032584636E+02 0.  0.
         24    2    4    4    0    0  0.10283554479E+03  0.26712799100E+02  0.12496504720E+03  0.18271593869E+03  0.80499244228E+02 0.  0.
         13    1    5    5    0    0 -0.51838470552E+01  0.56367244615E+02 -0.11404108039E+03  0.12731656040E+03  0.00000000000E+00 0. -1.
        -14    1    5    5    0    0 -0.15965797779E+03  0.16609527644E+03 -0.36745948813E+03  0.43371048655E+03  0.00000000000E+00 0.  1.
         15    1    3    3    0    0  0.60469951540E+02 -0.13642547322E+03  0.20266766210E+03  0.25168604207E+03  0.17770000000E+01 0. -1.
        -16    1    3    3    0    0  0.15363285115E+01 -0.11274984693E+03  0.25983098922E+03  0.28324376648E+03  0.00000000000E+00 0.  1.
          2    1    6    6  502    0  0.11596762743E+03  0.29649253507E+02  0.10964875063E+03  0.16232811636E+03  0.00000000000E+00 0. -1.
         -1    1    6    6    0  502 -0.13132082637E+02 -0.29364544073E+01  0.15316296575E+02  0.20387822337E+02  0.00000000000E+00 0.  1.
<mgrwt>
<rscale>  0 0.34107197E+03</rscale>
<asrwt>0</asrwt>
<pdfrwt beam="1">  1        1 0.10651046E+00 0.34107197E+03</pdfrwt>
<pdfrwt beam="2">  1       -2 0.90208435E-01 0.34107197E+03</pdfrwt>
<totfact> 0.27399489E+01</totfact>
</mgrwt>
</event>
<event>
12    3  0.1092576E-007  0.1667944E+04  0.7818608E-02  0.8779861E-01
         -2   -1    0    0    0  501 -0.00000000000E+00  0.00000000000E+00  0.20300179493E+04  0.20300179493E+04  0.00000000000E+00 0.  1.
          1   -1    0    0  501    0  0.00000000000E+00 -0.00000000000E+00 -0.26458747830E+04  0.26458747830E+04  0.00000000000E+00 0. -1.
        -24    2    1    2    0    0 -0.55066124576E+03  0.15210831376E+04  0.13154701674E+04  0.20862278547E+04  0.70449851785E+02 0.  0.
    5000000    2    1    2    0    0  0.55066124576E+03 -0.15210831376E+04 -0.19313270012E+04  0.25896648776E+04  0.59951519891E+03 0.  0.
        -24    2    4    4    0    0  0.39464933835E+03 -0.14893312661E+04 -0.17838351783E+04  0.23583235869E+04  0.75937319976E+02 0.  0.
         24    2    4    4    0    0  0.15601190742E+03 -0.31751871434E+02 -0.14749182285E+03  0.23134129068E+03  0.80106543860E+02 0.  0.
         13    1    5    5    0    0  0.30570981964E+03 -0.10503701139E+04 -0.12990569984E+04  0.16983182726E+04  0.00000000000E+00 0. -1.
        -14    1    5    5    0    0  0.88939518709E+02 -0.43896115227E+03 -0.48477817998E+03  0.66000531435E+03  0.00000000000E+00 0.  1.
         15    1    3    3    0    0 -0.19415836618E+03  0.62784819270E+03  0.51474765768E+03  0.83478088924E+03  0.17770000000E+01 0. -1.
        -16    1    3    3    0    0 -0.35650287959E+03  0.89323494487E+03  0.80072250973E+03  0.12514469655E+04  0.00000000000E+00 0.  1.
          2    1    6    6  502    0  0.10396046429E+03  0.15140208398E+02 -0.10907482121E+03  0.15144081572E+03  0.00000000000E+00 0. -1.
         -1    1    6    6    0  502  0.52051443132E+02 -0.46892079832E+02 -0.38417001642E+02  0.79900474956E+02  0.00000000000E+00 0.  1.
<mgrwt>
<rscale>  0 0.16679436E+04</rscale>
<asrwt>0</asrwt>
<pdfrwt beam="1">  1        1 0.40705766E+00 0.16679436E+04</pdfrwt>
<pdfrwt beam="2">  1       -2 0.31231045E+00 0.16679436E+04</pdfrwt>
<totfact> 0.23087114E-02</totfact>
</mgrwt>
</event>
<event>
12    3  0.1092576E-007  0.1397467E+04  0.7818608E-02  0.8955654E-01
         -2   -1    0    0    0  501 -0.00000000000E+00  0.00000000000E+00  0.21263383691E+04  0.21263383691E+04  0.00000000000E+00 0.  1.
          1   -1    0    0  501    0  0.00000000000E+00 -0.00000000000E+00 -0.93642119562E+03  0.93642119562E+03  0.00000000000E+00 0. -1.
        -24    2    1    2    0    0 -0.91953947062E+03  0.98213352260E+03  0.61781620833E+03  0.14823974849E+04  0.75275106424E+02 0.  0.
    5000000    2    1    2    0    0  0.91953947062E+03 -0.98213352260E+03  0.57210096512E+03  0.15803620798E+04  0.60008807250E+03 0.  0.
        -24    2    4    4    0    0  0.37484141990E+03 -0.69803403869E+02  0.46388907134E+02  0.39233896506E+03  0.79995796981E+02 0.  0.
         24    2    4    4    0    0  0.54469805073E+03 -0.91233011873E+03  0.52571205799E+03  0.11880231148E+04  0.77353353298E+02 0.  0.
         13    1    5    5    0    0  0.29920912615E+03 -0.66190531569E+02  0.67382991752E+02  0.31376385263E+03  0.00000000000E+00 0. -1.
        -14    1    5    5    0    0  0.75632293747E+02 -0.36128723006E+01 -0.20994084618E+02  0.78575112425E+02  0.00000000000E+00 0.  1.
         15    1    3    3    0    0 -0.64783340242E+03  0.74073190744E+03  0.45269910205E+03  0.10831950474E+04  0.17770000000E+01 0. -1.
        -16    1    3    3    0    0 -0.27170606820E+03  0.24140161517E+03  0.16511710628E+03  0.39920243748E+03  0.00000000000E+00 0.  1.
          4    1    6    6  502    0  0.26466563271E+03 -0.37024564543E+03  0.21584923308E+03  0.50370688552E+03  0.00000000000E+00 0. -1.
         -3    1    6    6    0  502  0.28003241802E+03 -0.54208447331E+03  0.30986282491E+03  0.68431622924E+03  0.00000000000E+00 0.  1.
<mgrwt>
<rscale>  0 0.13974668E+04</rscale>
<asrwt>0</asrwt>
<pdfrwt beam="1">  1        1 0.14406480E+00 0.13974668E+04</pdfrwt>
<pdfrwt beam="2">  1       -2 0.32712898E+00 0.13974668E+04</pdfrwt>
<totfact> 0.30976079E-01</totfact>
</mgrwt>
</event>
<event>
12    3  0.1092576E-007  0.3872511E+03  0.7818608E-02  0.1048286E+00
          1   -1    0    0  501    0  0.00000000000E+00  0.00000000000E+00  0.70314260712E+03  0.70314260712E+03  0.00000000000E+00 0. -1.
         -2   -1    0    0    0  501 -0.00000000000E+00 -0.00000000000E+00 -0.28265043959E+03  0.28265043959E+03  0.00000000000E+00 0.  1.
        -24    2    1    2    0    0 -0.16164226122E+03 -0.15513436382E+03  0.40681513099E+02  0.24147606424E+03  0.80379180409E+02 0.  0.
    5000000    2    1    2    0    0  0.16164226122E+03  0.15513436382E+03  0.37981065444E+03  0.74431698247E+03  0.59963050766E+03 0.  0.
        -24    2    4    4    0    0 -0.91172548319E+02  0.24028274189E+03 -0.55562849107E+01  0.26866737991E+03  0.78122078243E+02 0.  0.
         24    2    4    4    0    0  0.25281480954E+03 -0.85148378073E+02  0.38536693935E+03  0.47564960255E+03  0.81051170597E+02 0.  0.
         11    1    5    5    0    0 -0.23479628286E+01  0.76989158044E+02 -0.26832946641E+02  0.81565007272E+02  0.00000000000E+00 0. -1.
        -12    1    5    5    0    0 -0.88824585490E+02  0.16329358385E+03  0.21276661731E+02  0.18710237264E+03  0.00000000000E+00 0.  1.
         15    1    3    3    0    0 -0.12124841172E+03 -0.68265478458E+02  0.50015036249E+01  0.13924627701E+03  0.17770000000E+01 0. -1.
        -16    1    3    3    0    0 -0.40393849503E+02 -0.86868885360E+02  0.35680009474E+02  0.10222978723E+03  0.00000000000E+00 0.  1.
          2    1    6    6  502    0  0.18691535076E+03 -0.95540138631E+02  0.26541702607E+03  0.33839542575E+03  0.00000000000E+00 0. -1.
         -1    1    6    6    0  502  0.65899458781E+02  0.10391760558E+02  0.11994991328E+03  0.13725417681E+03  0.00000000000E+00 0.  1.
<mgrwt>
<rscale>  0 0.38725115E+03</rscale>
<asrwt>0</asrwt>
<pdfrwt beam="1">  1        1 0.10817579E+00 0.38725115E+03</pdfrwt>
<pdfrwt beam="2">  1       -2 0.43484683E-01 0.38725115E+03</pdfrwt>
<totfact> 0.12424569E+02</totfact>
</mgrwt>
</event>
<event>
12    3  0.1092576E-007  0.3793366E+03  0.7818608E-02  0.1051179E+00
         -2   -1    0    0    0  501 -0.00000000000E+00  0.00000000000E+00  0.15421995530E+04  0.15421995530E+04  0.00000000000E+00 0.  1.
          1   -1    0    0  501    0  0.00000000000E+00 -0.00000000000E+00 -0.21523101542E+03  0.21523101542E+03  0.00000000000E+00 0. -1.
        -24    2    1    2    0    0 -0.23454592177E+03  0.26926719010E+03  0.16516898349E+03  0.40183002105E+03  0.81669845270E+02 0.  0.
    5000000    2    1    2    0    0  0.23454592177E+03 -0.26926719010E+03  0.11617995541E+04  0.13556005474E+04  0.60029828509E+03 0.  0.
        -24    2    4    4    0    0  0.68472624936E+02 -0.19387698519E+03  0.49602771086E+02  0.22566285407E+03  0.78654326360E+02 0.  0.
         24    2    4    4    0    0  0.16607329683E+03 -0.75390204914E+02  0.11121967830E+04  0.11299376933E+04  0.80706156654E+02 0.  0.
         13    1    5    5    0    0  0.67101074238E+02 -0.14206252124E+03  0.48561473316E+01  0.15718745584E+03  0.00000000000E+00 0. -1.
        -14    1    5    5    0    0  0.13715506974E+01 -0.51814463942E+02  0.44746623754E+02  0.68475398227E+02  0.00000000000E+00 0.  1.
         15    1    3    3    0    0 -0.55283227393E+02  0.59418342713E+02  0.77540484509E+02  0.11226067499E+03  0.17770000000E+01 0. -1.
        -16    1    3    3    0    0 -0.17926269437E+03  0.20984884739E+03  0.87628498977E+02  0.28956934606E+03  0.00000000000E+00 0.  1.
          2    1    6    6  502    0  0.10818405978E+03 -0.15544922320E+02  0.48026910672E+03  0.49254832278E+03  0.00000000000E+00 0. -1.
         -1    1    6    6    0  502  0.57889237047E+02 -0.59845282593E+02  0.63192767629E+03  0.63738937054E+03  0.00000000000E+00 0.  1.
<mgrwt>
<rscale>  0 0.37933655E+03</rscale>
<asrwt>0</asrwt>
<pdfrwt beam="1">  1        1 0.33112465E-01 0.37933655E+03</pdfrwt>
<pdfrwt beam="2">  1       -2 0.23726146E+00 0.37933655E+03</pdfrwt>
<totfact> 0.98310223E+00</totfact>
</mgrwt>
</event>
<event>
12    3  0.1092576E-007  0.6048810E+03  0.7818608E-02  0.9895331E-01
         -2   -1    0    0    0  501 -0.00000000000E+00  0.00000000000E+00  0.31881803761E+04  0.31881803761E+04  0.00000000000E+00 0.  1.
          1   -1    0    0  501    0  0.00000000000E+00 -0.00000000000E+00 -0.17016635892E+03  0.17016635892E+03  0.00000000000E+00 0. -1.
        -24    2    1    2    0    0  0.53107478970E+03 -0.37885975072E+02  0.58336165776E+03  0.79489450380E+03  0.89836902595E+02 0.  0.
    5000000    2    1    2    0    0 -0.53107478970E+03  0.37885975072E+02  0.24346523594E+04  0.25634522312E+04  0.60023283078E+03 0.  0.
        -24    2    4    4    0    0 -0.44529426259E+02 -0.13081459028E+03  0.13586531427E+04  0.13678327889E+04  0.77024993060E+02 0.  0.
         24    2    4    4    0    0 -0.48654536344E+03  0.16870056536E+03  0.10759992168E+04  0.11956194423E+04  0.80902811370E+02 0.  0.
         13    1    5    5    0    0 -0.47448622154E+02 -0.39611431505E+02  0.72697106764E+03  0.72959397642E+03  0.00000000000E+00 0. -1.
        -14    1    5    5    0    0  0.29191958948E+01 -0.91203158778E+02  0.63168207504E+03  0.63823881252E+03  0.00000000000E+00 0.  1.
         15    1    3    3    0    0  0.31487994685E+03 -0.66381081984E+02  0.34100094142E+03  0.46887165488E+03  0.17770000000E+01 0. -1.
        -16    1    3    3    0    0  0.21619484285E+03  0.28495106912E+02  0.24236071634E+03  0.32602284892E+03  0.00000000000E+00 0.  1.
          4    1    6    6  502    0 -0.40584101231E+03  0.12292247310E+03  0.93713508471E+03  0.10286102414E+04  0.00000000000E+00 0. -1.
         -3    1    6    6    0  502 -0.80704351137E+02  0.45778092254E+02  0.13886413205E+03  0.16700920093E+03  0.00000000000E+00 0.  1.
<mgrwt>
<rscale>  0 0.60488097E+03</rscale>
<asrwt>0</asrwt>
<pdfrwt beam="1">  1        1 0.26179442E-01 0.60488097E+03</pdfrwt>
<pdfrwt beam="2">  1       -2 0.49048925E+00 0.60488097E+03</pdfrwt>
<totfact> 0.33082326E-01</totfact>
</mgrwt>
</event>
<event>
12    3  0.1092576E-007  0.5047951E+03  0.7818608E-02  0.1012535E+00
          1   -1    0    0  501    0  0.00000000000E+00  0.00000000000E+00  0.10371912940E+04  0.10371912940E+04  0.00000000000E+00 0. -1.
         -2   -1    0    0    0  501 -0.00000000000E+00 -0.00000000000E+00 -0.41057650508E+03  0.41057650508E+03  0.00000000000E+00 0.  1.
        -24    2    1    2    0    0  0.35590177622E+03 -0.32767755423E+03  0.43070045567E+03  0.65245776277E+03  0.78483092586E+02 0.  0.
    5000000    2    1    2    0    0 -0.35590177622E+03  0.32767755423E+03  0.19591433321E+03  0.79531003627E+03  0.60008080620E+03 0.  0.
        -24    2    4    4    0    0 -0.12467966762E+03  0.21230199331E+03 -0.19194945384E+03  0.32250530442E+03  0.80919235469E+02 0.  0.
         24    2    4    4    0    0 -0.23122210860E+03  0.11537556093E+03  0.38786378705E+03  0.47280473185E+03  0.79566409950E+02 0.  0.
         13    1    5    5    0    0  0.51062869335E+01  0.44357890853E+02 -0.18233811091E+02  0.48230369210E+02  0.00000000000E+00 0. -1.
        -14    1    5    5    0    0 -0.12978595456E+03  0.16794410245E+03 -0.17371564275E+03  0.27427493521E+03  0.00000000000E+00 0.  1.
         15    1    3    3    0    0  0.11424017362E+03 -0.10673705369E+03  0.19003646465E+03  0.24609069776E+03  0.17770000000E+01 0. -1.
        -16    1    3    3    0    0  0.24166160260E+03 -0.22094050054E+03  0.24066399103E+03  0.40636706502E+03  0.00000000000E+00 0.  1.
          4    1    6    6  502    0 -0.16777505923E+03  0.44098991365E+02  0.27327611050E+03  0.32368661404E+03  0.00000000000E+00 0. -1.
         -3    1    6    6    0  502 -0.63447049363E+02  0.71276569563E+02  0.11458767655E+03  0.14911811781E+03  0.00000000000E+00 0.  1.
<mgrwt>
<rscale>  0 0.50479505E+03</rscale>
<asrwt>0</asrwt>
<pdfrwt beam="1">  1        1 0.15956789E+00 0.50479505E+03</pdfrwt>
<pdfrwt beam="2">  1       -2 0.63165617E-01 0.50479505E+03</pdfrwt>
<totfact> 0.30367904E+01</totfact>
</mgrwt>
</event>
<event>
12    3  0.1092576E-007  0.6024996E+03  0.7818608E-02  0.9900234E-01
         -2   -1    0    0    0  501 -0.00000000000E+00  0.00000000000E+00  0.66521377360E+03  0.66521377360E+03  0.00000000000E+00 0.  1.
          1   -1    0    0  501    0  0.00000000000E+00 -0.00000000000E+00 -0.12646990893E+04  0.12646990893E+04  0.00000000000E+00 0. -1.
        -24    2    1    2    0    0 -0.20536056627E+03  0.42431347559E+03 -0.97008269103E+03  0.10816678066E+04  0.82036142297E+02 0.  0.
    5000000    2    1    2    0    0  0.20536056627E+03 -0.42431347559E+03  0.37059737528E+03  0.84824505635E+03  0.59996864361E+03 0.  0.
        -24    2    4    4    0    0 -0.72212987347E+02 -0.42585109839E+03  0.34380355040E+03  0.55843956821E+03  0.84202117162E+02 0.  0.
         24    2    4    4    0    0  0.27757355361E+03  0.15376228015E+01  0.26793824885E+02  0.28980548815E+03  0.78866152164E+02 0.  0.
         11    1    5    5    0    0  0.81777089158E+01 -0.18373228229E+03  0.12530286711E+03  0.22254265879E+03  0.00000000000E+00 0. -1.
        -12    1    5    5    0    0 -0.80390696263E+02 -0.24211881610E+03  0.21850068329E+03  0.33589690941E+03  0.00000000000E+00 0.  1.
         15    1    3    3    0    0 -0.91671271297E+01  0.92623979188E+02 -0.18499125553E+03  0.20709456800E+03  0.17770000000E+01 0. -1.
        -16    1    3    3    0    0 -0.19619343914E+03  0.33168949640E+03 -0.78509143549E+03  0.87457323859E+03  0.00000000000E+00 0.  1.
          2    1    6    6  502    0  0.16660573375E+03 -0.35830487295E+02  0.28049544063E+02  0.17270805210E+03  0.00000000000E+00 0. -1.
         -1    1    6    6    0  502  0.11096781987E+03  0.37368110097E+02 -0.12557191779E+01  0.11709743605E+03  0.00000000000E+00 0.  1.
<mgrwt>
<rscale>  0 0.60249956E+03</rscale>
<asrwt>0</asrwt>
<pdfrwt beam="1">  1        1 0.19456909E+00 0.60249956E+03</pdfrwt>
<pdfrwt beam="2">  1       -2 0.10234058E+00 0.60249956E+03</pdfrwt>
<totfact> 0.69152622E+00</totfact>
</mgrwt>
</event>
<event>
12    3  0.1092576E-007  0.8308510E+03  0.7818608E-02  0.9516405E-01
          1   -1    0    0  501    0  0.00000000000E+00  0.00000000000E+00  0.16786811696E+04  0.16786811696E+04  0.00000000000E+00 0. -1.
         -2   -1    0    0    0  501 -0.00000000000E+00 -0.00000000000E+00 -0.53329790823E+03  0.53329790823E+03  0.00000000000E+00 0.  1.
        -24    2    1    2    0    0  0.38313193666E+03  0.71691056907E+03  0.22959715369E+03  0.84840465434E+03  0.79528357149E+02 0.  0.
    5000000    2    1    2    0    0 -0.38313193666E+03 -0.71691056907E+03  0.91578610764E+03  0.13635744234E+04  0.59993346999E+03 0.  0.
        -24    2    4    4    0    0 -0.24884299792E+02 -0.26654455213E+03  0.68219300119E+03  0.73737221124E+03  0.81641045966E+02 0.  0.
         24    2    4    4    0    0 -0.35824763687E+03 -0.45036601694E+03  0.23359310645E+03  0.62620221221E+03  0.79953440592E+02 0.  0.
         13    1    5    5    0    0  0.45258308468E+01 -0.50861332801E+02  0.22883724485E+03  0.23446501434E+03  0.00000000000E+00 0. -1.
        -14    1    5    5    0    0 -0.29410130638E+02 -0.21568321933E+03  0.45335575634E+03  0.50290719690E+03  0.00000000000E+00 0.  1.
         15    1    3    3    0    0  0.14529565108E+03  0.31385509327E+03  0.13295553244E+03  0.37053498773E+03  0.17770000000E+01 0. -1.
        -16    1    3    3    0    0  0.23783628559E+03  0.40305547580E+03  0.96641621250E+02  0.47786966662E+03  0.00000000000E+00 0.  1.
          2    1    6    6  502    0 -0.42269387453E+02 -0.92533354771E+02  0.22243185635E+02  0.10413396261E+03  0.00000000000E+00 0. -1.
         -1    1    6    6    0  502 -0.31597824942E+03 -0.35783266217E+03  0.21134992081E+03  0.52206824961E+03  0.00000000000E+00 0.  1.
<mgrwt>
<rscale>  0 0.83085098E+03</rscale>
<asrwt>0</asrwt>
<pdfrwt beam="1">  1        1 0.25825864E+00 0.83085098E+03</pdfrwt>
<pdfrwt beam="2">  1       -2 0.82045833E-01 0.83085098E+03</pdfrwt>
<totfact> 0.57868348E+00</totfact>
</mgrwt>
</event>
<event>
12    3  0.1092576E-007  0.5257654E+03  0.7818608E-02  0.1007264E+00
         -2   -1    0    0    0  501 -0.00000000000E+00  0.00000000000E+00  0.10443379981E+04  0.10443379981E+04  0.00000000000E+00 0.  1.
          1   -1    0    0  501    0  0.00000000000E+00 -0.00000000000E+00 -0.61071427706E+03  0.61071427706E+03  0.00000000000E+00 0. -1.
        -24    2    1    2    0    0 -0.36686862747E+03 -0.10560096983E+03 -0.40060126170E+03  0.55890226128E+03  0.78397781473E+02 0.  0.
    5000000    2    1    2    0    0  0.36686862747E+03  0.10560096983E+03  0.83422498273E+03  0.10961500139E+04  0.59989113714E+03 0.  0.
        -24    2    4    4    0    0  0.19760539771E+03 -0.21681538018E+03  0.54457268526E+03  0.62377951747E+03  0.80527477290E+02 0.  0.
         24    2    4    4    0    0  0.16926322976E+03  0.32241635000E+03  0.28965229747E+03  0.47237049638E+03  0.81443776485E+02 0.  0.
         11    1    5    5    0    0  0.63298290214E+02 -0.61464957223E+02  0.24649005995E+03  0.26180520271E+03  0.00000000000E+00 0. -1.
        -12    1    5    5    0    0  0.13430710750E+03 -0.15535042295E+03  0.29808262531E+03  0.36197431476E+03  0.00000000000E+00 0.  1.
         15    1    3    3    0    0 -0.22906507759E+03 -0.36916055075E+02 -0.20223676650E+03  0.30779290497E+03  0.17770000000E+01 0. -1.
        -16    1    3    3    0    0 -0.13780354989E+03 -0.68684914752E+02 -0.19836449520E+03  0.25110935632E+03  0.00000000000E+00 0.  1.
          2    1    6    6  502    0  0.80759983468E+02  0.79160567949E+02  0.71005110140E+02  0.13353013186E+03  0.00000000000E+00 0. -1.
         -1    1    6    6    0  502  0.88503246293E+02  0.24325578205E+03  0.21864718733E+03  0.33884036453E+03  0.00000000000E+00 0.  1.
<mgrwt>
<rscale>  0 0.52576544E+03</rscale>
<asrwt>0</asrwt>
<pdfrwt beam="1">  1        1 0.93956043E-01 0.52576544E+03</pdfrwt>
<pdfrwt beam="2">  1       -2 0.16066738E+00 0.52576544E+03</pdfrwt>
<totfact> 0.76643258E+00</totfact>
</mgrwt>
</event>
<event>
12    3  0.1092576E-007  0.6635814E+03  0.7818608E-02  0.9781623E-01
          1   -1    0    0  501    0  0.00000000000E+00  0.00000000000E+00  0.44161697669E+04  0.44161697669E+04  0.00000000000E+00 0. -1.
         -2   -1    0    0    0  501 -0.00000000000E+00 -0.00000000000E+00 -0.11396250054E+03  0.11396250054E+03  0.00000000000E+00 0.  1.
        -24    2    1    2    0    0  0.17895034613E+03 -0.53827000879E+03  0.21501347334E+04  0.22251599362E+04  0.80619731898E+02 0.  0.
    5000000    2    1    2    0    0 -0.17895034613E+03  0.53827000879E+03  0.21520725329E+04  0.23049723312E+04  0.59976948230E+03 0.  0.
        -24    2    4    4    0    0  0.16904621520E+03  0.11581882242E+03  0.30037782660E+03  0.37249099475E+03  0.80821284081E+02 0.  0.
         24    2    4    4    0    0 -0.34799656133E+03  0.42245118638E+03  0.18516947063E+04  0.19324813365E+04  0.78385067018E+02 0.  0.
         13    1    5    5    0    0  0.16503917812E+02  0.14496165489E+02  0.15577075097E+01  0.22021457030E+02  0.00000000000E+00 0. -1.
        -14    1    5    5    0    0  0.15254229739E+03  0.10132265693E+03  0.29882011909E+03  0.35046953772E+03  0.00000000000E+00 0.  1.
         15    1    3    3    0    0  0.10490008128E+03 -0.42381570791E+03  0.16332941701E+04  0.16906438967E+04  0.17770000000E+01 0. -1.
        -16    1    3    3    0    0  0.74050264848E+02 -0.11445430089E+03  0.51684056329E+03  0.53451603959E+03  0.00000000000E+00 0.  1.
          4    1    6    6  502    0 -0.23978349394E+03  0.25743949975E+03  0.10746002748E+04  0.11307240913E+04  0.00000000000E+00 0. -1.
         -3    1    6    6    0  502 -0.10821306738E+03  0.16501168662E+03  0.77709443158E+03  0.80175724522E+03  0.00000000000E+00 0.  1.
<mgrwt>
<rscale>  0 0.66358135E+03</rscale>
<asrwt>0</asrwt>
<pdfrwt beam="1">  1        1 0.67941060E+00 0.66358135E+03</pdfrwt>
<pdfrwt beam="2">  1       -2 0.17532696E-01 0.66358135E+03</pdfrwt>
<totfact> 0.10567305E+00</totfact>
</mgrwt>
</event>
<event>
12    3  0.1092576E-007  0.7361467E+03  0.7818608E-02  0.9657338E-01
         -4   -1    0    0    0  501 -0.00000000000E+00  0.00000000000E+00  0.86977827972E+03  0.86977827972E+03  0.00000000000E+00 0.  1.
          3   -1    0    0  501    0  0.00000000000E+00 -0.00000000000E+00 -0.10069142032E+04  0.10069142032E+04  0.00000000000E+00 0. -1.
        -24    2    1    2    0    0  0.49529030593E+03 -0.42064523336E+03  0.46797120585E+03  0.80501373544E+03  0.82432792327E+02 0.  0.
    5000000    2    1    2    0    0 -0.49529030593E+03  0.42064523336E+03 -0.60510712936E+03  0.10716787475E+04  0.60007149602E+03 0.  0.
        -24    2    4    4    0    0 -0.53398941661E+03  0.18793045474E+03 -0.21865395378E+03  0.61209256810E+03  0.79907493669E+02 0.  0.
         24    2    4    4    0    0  0.38699110681E+02  0.23271477862E+03 -0.38645317558E+03  0.45958617940E+03  0.78864504195E+02 0.  0.
         11    1    5    5    0    0 -0.33161159682E+03  0.14647122479E+03 -0.16709295651E+03  0.39917430648E+03  0.00000000000E+00 0. -1.
        -12    1    5    5    0    0 -0.20237781979E+03  0.41459229950E+02 -0.51560997268E+02  0.21291826162E+03  0.00000000000E+00 0.  1.
         15    1    3    3    0    0  0.25710340214E+03 -0.27126911498E+03  0.27446907520E+03  0.46370844623E+03  0.17770000000E+01 0. -1.
        -16    1    3    3    0    0  0.23818690379E+03 -0.14937611838E+03  0.19350213065E+03  0.34130528921E+03  0.00000000000E+00 0.  1.
          2    1    6    6  502    0 -0.22011282959E+02  0.33977730302E+02 -0.73782226487E+02  0.84159370717E+02  0.00000000000E+00 0. -1.
         -1    1    6    6    0  502  0.60710393640E+02  0.19873704832E+03 -0.31267094910E+03  0.37542680868E+03  0.00000000000E+00 0.  1.
<mgrwt>
<rscale>  0 0.73614667E+03</rscale>
<asrwt>0</asrwt>
<pdfrwt beam="1">  1        3 0.15490988E+00 0.73614667E+03</pdfrwt>
<pdfrwt beam="2">  1       -4 0.13381204E+00 0.73614667E+03</pdfrwt>
<totfact> 0.26866442E-01</totfact>
</mgrwt>
</event>
<event>
12    3  0.1092576E-007  0.1382094E+04  0.7818608E-02  0.8966882E-01
          1   -1    0    0  501    0  0.00000000000E+00  0.00000000000E+00  0.23404806254E+04  0.23404806254E+04  0.00000000000E+00 0. -1.
         -2   -1    0    0    0  501 -0.00000000000E+00 -0.00000000000E+00 -0.10633354097E+04  0.10633354097E+04  0.00000000000E+00 0.  1.
        -24    2    1    2    0    0 -0.11516286463E+04 -0.71570913347E+03 -0.12390347430E+03  0.13639015932E+04  0.79921099448E+02 0.  0.
    5000000    2    1    2    0    0  0.11516286463E+04  0.71570913347E+03  0.14010486900E+04  0.20399144419E+04  0.59985447895E+03 0.  0.
        -24    2    4    4    0    0  0.27019859617E+03  0.37334926556E+03  0.19791158882E+03  0.50762711150E+03  0.78226158522E+02 0.  0.
         24    2    4    4    0    0  0.88143005015E+03  0.34235986791E+03  0.12031371011E+04  0.15322873304E+04  0.78970667497E+02 0.  0.
         13    1    5    5    0    0  0.22601830254E+03  0.30542085904E+03  0.19371257688E+03  0.42648650232E+03  0.00000000000E+00 0. -1.
        -14    1    5    5    0    0  0.44180293631E+02  0.67928406521E+02  0.41990119455E+01  0.81140609186E+02  0.00000000000E+00 0.  1.
         15    1    3    3    0    0 -0.54394052922E+03 -0.32440238512E+03 -0.19589508554E+02  0.63363642050E+03  0.17770000000E+01 0. -1.
        -16    1    3    3    0    0 -0.60768811709E+03 -0.39130674835E+03 -0.10431396575E+03  0.73026517267E+03  0.00000000000E+00 0.  1.
          4    1    6    6  502    0  0.23986826455E+03  0.11896200231E+03  0.38343217043E+03  0.46766331014E+03  0.00000000000E+00 0. -1.
         -3    1    6    6    0  502  0.64156178560E+03  0.22339786560E+03  0.81970493070E+03  0.10646240203E+04  0.00000000000E+00 0.  1.
<mgrwt>
<rscale>  0 0.13820944E+04</rscale>
<asrwt>0</asrwt>
<pdfrwt beam="1">  1        1 0.36007394E+00 0.13820944E+04</pdfrwt>
<pdfrwt beam="2">  1       -2 0.16359006E+00 0.13820944E+04</pdfrwt>
<totfact> 0.34750083E-01</totfact>
</mgrwt>
</event>
<event>
12    3  0.1092576E-007  0.1084253E+04  0.7818608E-02  0.9220677E-01
          1   -1    0    0  501    0  0.00000000000E+00  0.00000000000E+00  0.10063921872E+04  0.10063921872E+04  0.00000000000E+00 0. -1.
         -2   -1    0    0    0  501 -0.00000000000E+00 -0.00000000000E+00 -0.12757577169E+04  0.12757577169E+04  0.00000000000E+00 0.  1.
        -24    2    1    2    0    0  0.99716777097E+03 -0.28260515111E+03 -0.30777486719E+03  0.10841282312E+04  0.79996361881E+02 0.  0.
    5000000    2    1    2    0    0 -0.99716777097E+03  0.28260515111E+03  0.38409337490E+02  0.11980216728E+04  0.59964274068E+03 0.  0.
        -24    2    4    4    0    0 -0.63292188553E+03  0.39068332439E+03  0.20502196507E+03  0.77566255506E+03  0.79967618607E+02 0.  0.
         24    2    4    4    0    0 -0.36424588544E+03 -0.10807817328E+03 -0.16661262758E+03  0.42235911776E+03  0.79192803255E+02 0.  0.
         11    1    5    5    0    0 -0.18156937994E+03  0.15383011773E+03  0.76799221598E+02  0.25005852374E+03  0.00000000000E+00 0. -1.
        -12    1    5    5    0    0 -0.45135250559E+03  0.23685320665E+03  0.12822274347E+03  0.52560403133E+03  0.00000000000E+00 0.  1.
         15    1    3    3    0    0  0.23440947018E+03 -0.36093293761E+02 -0.53205990958E+02  0.24307315929E+03  0.17770000000E+01 0. -1.
        -16    1    3    3    0    0  0.76275830080E+03 -0.24651185735E+03 -0.25456887623E+03  0.84105507192E+03  0.00000000000E+00 0.  1.
          2    1    6    6  502    0 -0.23599457100E+03 -0.49975576715E+02 -0.14049264838E+03  0.27915798405E+03  0.00000000000E+00 0. -1.
         -1    1    6    6    0  502 -0.12825131444E+03 -0.58102596561E+02 -0.26119979199E+02  0.14320113371E+03  0.00000000000E+00 0.  1.
<mgrwt>
<rscale>  0 0.10842530E+04</rscale>
<asrwt>0</asrwt>
<pdfrwt beam="1">  1        1 0.15482957E+00 0.10842530E+04</pdfrwt>
<pdfrwt beam="2">  1       -2 0.19627042E+00 0.10842530E+04</pdfrwt>
<totfact> 0.18221341E+00</totfact>
</mgrwt>
</event>
<event>
12    3  0.1092576E-007  0.6269026E+03  0.7818608E-02  0.9851112E-01
          1   -1    0    0  501    0  0.00000000000E+00  0.00000000000E+00  0.29606052606E+03  0.29606052606E+03  0.00000000000E+00 0. -1.
         -2   -1    0    0    0  501 -0.00000000000E+00 -0.00000000000E+00 -0.20870011923E+04  0.20870011923E+04  0.00000000000E+00 0.  1.
        -24    2    1    2    0    0  0.43177701977E+03 -0.39964294837E+03 -0.12496928243E+04  0.13835279542E+04  0.79193206429E+02 0.  0.
    5000000    2    1    2    0    0 -0.43177701977E+03  0.39964294837E+03 -0.54124784192E+03  0.99953376416E+03  0.59997719816E+03 0.  0.
        -24    2    4    4    0    0 -0.23655102934E+03  0.39164782603E+03 -0.61976884620E+03  0.77451592159E+03  0.80106684838E+02 0.  0.
         24    2    4    4    0    0 -0.19522599043E+03  0.79951223435E+01  0.78521004280E+02  0.22501784257E+03  0.79311865687E+02 0.  0.
         11    1    5    5    0    0 -0.99243003794E+02  0.95833013499E+02 -0.19937230604E+03  0.24245093667E+03  0.00000000000E+00 0. -1.
        -12    1    5    5    0    0 -0.13730802554E+03  0.29581481253E+03 -0.42039654017E+03  0.53206498492E+03  0.00000000000E+00 0.  1.
         15    1    3    3    0    0  0.24527067552E+03 -0.17472666512E+03 -0.61176278385E+03  0.68186800277E+03  0.17770000000E+01 0. -1.
        -16    1    3    3    0    0  0.18650634425E+03 -0.22491628326E+03 -0.63793004047E+03  0.70165995144E+03  0.00000000000E+00 0.  1.
          4    1    6    6  502    0 -0.12105378772E+03 -0.46370420547E+01  0.87222903440E+02  0.14927610849E+03  0.00000000000E+00 0. -1.
         -3    1    6    6    0  502 -0.74172202711E+02  0.12632164398E+02 -0.87018991599E+01  0.75741734080E+02  0.00000000000E+00 0.  1.
<mgrwt>
<rscale>  0 0.62690255E+03</rscale>
<asrwt>0</asrwt>
<pdfrwt beam="1">  1        1 0.45547775E-01 0.62690255E+03</pdfrwt>
<pdfrwt beam="2">  1       -2 0.32107709E+00 0.62690255E+03</pdfrwt>
<totfact> 0.19688454E+00</totfact>
</mgrwt>
</event>
<event>
12    3  0.1092576E-007  0.4946859E+03  0.7818608E-02  0.1015175E+00
          1   -1    0    0  501    0  0.00000000000E+00  0.00000000000E+00  0.15815364874E+04  0.15815364874E+04  0.00000000000E+00 0. -1.
         -2   -1    0    0    0  501 -0.00000000000E+00 -0.00000000000E+00 -0.27282172193E+03  0.27282172193E+03  0.00000000000E+00 0.  1.
        -24    2    1    2    0    0 -0.13009975574E+03  0.47119876426E+03  0.28705713215E+03  0.57255015166E+03  0.80359549351E+02 0.  0.
    5000000    2    1    2    0    0  0.13009975574E+03 -0.47119876426E+03  0.10216576333E+04  0.12818080576E+04  0.60024441280E+03 0.  0.
        -24    2    4    4    0    0  0.45998671022E+02 -0.26894502018E+03  0.10073425093E+04  0.10467682758E+04  0.80855367821E+02 0.  0.
         24    2    4    4    0    0  0.84101084715E+02 -0.20225374408E+03  0.14315123982E+02  0.23503978186E+03  0.84019086163E+02 0.  0.
         11    1    5    5    0    0  0.15321226651E+02 -0.94024068354E+02  0.50628565524E+03  0.51517029235E+03  0.00000000000E+00 0. -1.
        -12    1    5    5    0    0  0.30677444370E+02 -0.17492095182E+03  0.50105685405E+03  0.53159798342E+03  0.00000000000E+00 0.  1.
         15    1    3    3    0    0 -0.22190043378E+02  0.10866896597E+03  0.10510982281E+03  0.15281549257E+03  0.17770000000E+01 0. -1.
        -16    1    3    3    0    0 -0.10790971236E+03  0.36252979828E+03  0.18194730935E+03  0.41973465909E+03  0.00000000000E+00 0.  1.
          2    1    6    6  502    0  0.14202003378E+01 -0.78481777666E+02  0.32754194671E+02  0.85054357109E+02  0.00000000000E+00 0. -1.
         -1    1    6    6    0  502  0.82680884377E+02 -0.12377196641E+03 -0.18439070688E+02  0.14998542475E+03  0.00000000000E+00 0.  1.
<mgrwt>
<rscale>  0 0.49468594E+03</rscale>
<asrwt>0</asrwt>
<pdfrwt beam="1">  1        1 0.24331330E+00 0.49468594E+03</pdfrwt>
<pdfrwt beam="2">  1       -2 0.41972574E-01 0.49468594E+03</pdfrwt>
<totfact> 0.28987489E+01</totfact>
</mgrwt>
</event>
<event>
12    3  0.1092576E-007  0.6667560E+03  0.7818608E-02  0.9775836E-01
          1   -1    0    0  501    0  0.00000000000E+00  0.00000000000E+00  0.13950991230E+04  0.13950991230E+04  0.00000000000E+00 0. -1.
         -2   -1    0    0    0  501 -0.00000000000E+00 -0.00000000000E+00 -0.54058533841E+03  0.54058533841E+03  0.00000000000E+00 0.  1.
        -24    2    1    2    0    0 -0.43424770582E+03 -0.43924093031E+03 -0.12105572574E+03  0.63445920218E+03  0.79876940507E+02 0.  0.
    5000000    2    1    2    0    0  0.43424770582E+03  0.43924093031E+03  0.97556951031E+03  0.13012252592E+04  0.59995636583E+03 0.  0.
        -24    2    4    4    0    0  0.26412536492E+03  0.32084177073E+02  0.63320266577E+02  0.28487155193E+03  0.79691543620E+02 0.  0.
         24    2    4    4    0    0  0.17012234090E+03  0.40715675323E+03  0.91224924374E+03  0.10163537073E+04  0.77832789000E+02 0.  0.
         11    1    5    5    0    0  0.22491814732E+03  0.42656609610E+02  0.77759338503E+02  0.24177318723E+03  0.00000000000E+00 0. -1.
        -12    1    5    5    0    0  0.39207217602E+02 -0.10572432537E+02 -0.14439071925E+02  0.43098364701E+02  0.00000000000E+00 0.  1.
         15    1    3    3    0    0 -0.37468763623E+03 -0.33610505917E+03 -0.10628614245E+03  0.51444857600E+03  0.17770000000E+01 0. -1.
        -16    1    3    3    0    0 -0.59560069600E+02 -0.10313587114E+03 -0.14769583282E+02  0.12001062618E+03  0.00000000000E+00 0.  1.
          4    1    6    6  502    0  0.10150862892E+03  0.26185774624E+03  0.49324229867E+03  0.56759267631E+03  0.00000000000E+00 0. -1.
         -1    1    6    6    0  502  0.68613711986E+02  0.14529900700E+03  0.41900694507E+03  0.44876103098E+03  0.00000000000E+00 0.  1.
<mgrwt>
<rscale>  0 0.66675596E+03</rscale>
<asrwt>0</asrwt>
<pdfrwt beam="1">  1        1 0.21463063E+00 0.66675596E+03</pdfrwt>
<pdfrwt beam="2">  1       -2 0.83166976E-01 0.66675596E+03</pdfrwt>
<totfact> 0.89707585E+00</totfact>
</mgrwt>
</event>
<event>
12    3  0.1092576E-007  0.5988469E+03  0.7818608E-02  0.9907801E-01
         -2   -1    0    0    0  501 -0.00000000000E+00  0.00000000000E+00  0.27673206415E+03  0.27673206415E+03  0.00000000000E+00 0.  1.
          1   -1    0    0  501    0  0.00000000000E+00 -0.00000000000E+00 -0.20558117044E+04  0.20558117044E+04  0.00000000000E+00 0. -1.
        -24    2    1    2    0    0 -0.47635860664E+03 -0.18668969438E+03 -0.13252761441E+04  0.14228140146E+04  0.79197839868E+02 0.  0.
    5000000    2    1    2    0    0  0.47635860664E+03  0.18668969438E+03 -0.45380349614E+03  0.90972975396E+03  0.59991670090E+03 0.  0.
        -24    2    4    4    0    0 -0.67026915713E+02 -0.30052154456E+02  0.62283625784E+02  0.12564931026E+03  0.80701671046E+02 0.  0.
         24    2    4    4    0    0  0.54338552236E+03  0.21674184884E+03 -0.51608712192E+03  0.78408044370E+03  0.78685258084E+02 0.  0.
         13    1    5    5    0    0 -0.25083473777E+02 -0.46414888154E+02  0.52978112978E+01  0.53024421767E+02  0.00000000000E+00 0. -1.
        -14    1    5    5    0    0 -0.41943441936E+02  0.16362733698E+02  0.56985814486E+02  0.72624888489E+02  0.00000000000E+00 0.  1.
         15    1    3    3    0    0 -0.14518256738E+03 -0.55854163459E+02 -0.50922299280E+03  0.53245551886E+03  0.17770000000E+01 0. -1.
        -16    1    3    3    0    0 -0.33117603927E+03 -0.13083553092E+03 -0.81605315135E+03  0.89035849575E+03  0.00000000000E+00 0.  1.
          2    1    6    6  502    0  0.97169232044E+02  0.14093313915E+02 -0.11156019966E+03  0.14861412887E+03  0.00000000000E+00 0. -1.
         -1    1    6    6    0  502  0.44621629031E+03  0.20264853492E+03 -0.40452692226E+03  0.63546631483E+03  0.00000000000E+00 0.  1.
<mgrwt>
<rscale>  0 0.59884691E+03</rscale>
<asrwt>0</asrwt>
<pdfrwt beam="1">  1        1 0.31627873E+00 0.59884691E+03</pdfrwt>
<pdfrwt beam="2">  1       -2 0.42574163E-01 0.59884691E+03</pdfrwt>
<totfact> 0.13378175E+01</totfact>
</mgrwt>
</event>
<event>
12    3  0.1092576E-007  0.5323489E+03  0.7818608E-02  0.1005664E+00
          1   -1    0    0  501    0  0.00000000000E+00  0.00000000000E+00  0.18591971696E+04  0.18591971696E+04  0.00000000000E+00 0. -1.
         -2   -1    0    0    0  501 -0.00000000000E+00 -0.00000000000E+00 -0.43285602981E+03  0.43285602981E+03  0.00000000000E+00 0.  1.
        -24    2    1    2    0    0  0.48406630724E+03 -0.13903439315E+03  0.14197738781E+04  0.15086163353E+04  0.80713256642E+02 0.  0.
    5000000    2    1    2    0    0 -0.48406630724E+03  0.13903439315E+03  0.65672616739E+01  0.78343686413E+03  0.60006619541E+03 0.  0.
        -24    2    4    4    0    0 -0.40849639258E+03  0.18353782992E+03  0.24598960549E+03  0.51695023083E+03  0.78557096301E+02 0.  0.
         24    2    4    4    0    0 -0.75569914657E+02 -0.44503436778E+02 -0.23942234382E+03  0.26648663330E+03  0.77464179601E+02 0.  0.
         13    1    5    5    0    0 -0.10679500057E+02  0.23579817870E+02  0.13032871821E+02  0.28981291900E+02  0.00000000000E+00 0. -1.
        -14    1    5    5    0    0 -0.39781689252E+03  0.15995801205E+03  0.23295673367E+03  0.48796893893E+03  0.00000000000E+00 0.  1.
         15    1    3    3    0    0  0.38902151217E+03 -0.11528664910E+03  0.12275228729E+04  0.12928434977E+04  0.17770000000E+01 0. -1.
        -16    1    3    3    0    0  0.95044795066E+02 -0.23747744042E+02  0.19225100519E+03  0.21577283753E+03  0.00000000000E+00 0.  1.
          4    1    6    6  502    0 -0.55894555730E+02  0.18964214668E+01 -0.18042000948E+03  0.18888932631E+03  0.00000000000E+00 0. -1.
         -3    1    6    6    0  502 -0.19675358927E+02 -0.46399858245E+02 -0.59002334341E+02  0.77597306987E+02  0.00000000000E+00 0.  1.
<mgrwt>
<rscale>  0 0.53234893E+03</rscale>
<asrwt>0</asrwt>
<pdfrwt beam="1">  1        1 0.28603033E+00 0.53234893E+03</pdfrwt>
<pdfrwt beam="2">  1       -2 0.66593236E-01 0.53234893E+03</pdfrwt>
<totfact> 0.73034335E+00</totfact>
</mgrwt>
</event>
<event>
12    3  0.1092576E-007  0.3938097E+03  0.7818608E-02  0.1045944E+00
          1   -1    0    0  501    0  0.00000000000E+00  0.00000000000E+00  0.26542596520E+03  0.26542596520E+03  0.00000000000E+00 0. -1.
         -2   -1    0    0    0  501 -0.00000000000E+00 -0.00000000000E+00 -0.17059932605E+04  0.17059932605E+04  0.00000000000E+00 0.  1.
        -24    2    1    2    0    0  0.10222949677E+03 -0.30925649499E+03 -0.12023484988E+04  0.12482865427E+04  0.80541481713E+02 0.  0.
    5000000    2    1    2    0    0 -0.10222949677E+03  0.30925649499E+03 -0.23821879651E+03  0.72313268306E+03  0.60006852324E+03 0.  0.
        -24    2    4    4    0    0 -0.12967244516E+03 -0.16712912150E+02 -0.33819246656E+03  0.37104571914E+03  0.78781449541E+02 0.  0.
         24    2    4    4    0    0  0.27442948393E+02  0.32596940714E+03  0.99973670049E+02  0.35208696391E+03  0.83434559057E+02 0.  0.
         13    1    5    5    0    0 -0.95628836339E+02 -0.99659779503E+00 -0.14134179553E+03  0.17065570811E+03  0.00000000000E+00 0. -1.
        -14    1    5    5    0    0 -0.34043608826E+02 -0.15716314355E+02 -0.19685067102E+03  0.20039001103E+03  0.00000000000E+00 0.  1.
         15    1    3    3    0    0  0.37784763967E+02 -0.11319195095E+03 -0.59436830202E+03  0.60623175628E+03  0.17770000000E+01 0. -1.
        -16    1    3    3    0    0  0.64444732805E+02 -0.19606454404E+03 -0.60798019679E+03  0.64205478637E+03  0.00000000000E+00 0.  1.
          2    1    6    6  502    0  0.15465552149E+02  0.29712927658E+03  0.11297766398E+03  0.31825923846E+03  0.00000000000E+00 0. -1.
         -1    1    6    6    0  502  0.11977396244E+02  0.28840130560E+02 -0.13003993926E+02  0.33827725456E+02  0.00000000000E+00 0.  1.
<mgrwt>
<rscale>  0 0.39380974E+03</rscale>
<asrwt>0</asrwt>
<pdfrwt beam="1">  1        1 0.40834763E-01 0.39380974E+03</pdfrwt>
<pdfrwt beam="2">  1       -2 0.26246051E+00 0.39380974E+03</pdfrwt>
<totfact> 0.53105998E+00</totfact>
</mgrwt>
</event>
<event>
12    3  0.1092576E-007  0.5790750E+03  0.7818608E-02  0.9949796E-01
          1   -1    0    0  501    0  0.00000000000E+00  0.00000000000E+00  0.69672500494E+03  0.69672500494E+03  0.00000000000E+00 0. -1.
         -2   -1    0    0    0  501 -0.00000000000E+00 -0.00000000000E+00 -0.50706878113E+03  0.50706878113E+03  0.00000000000E+00 0.  1.
        -24    2    1    2    0    0  0.42275782751E+03  0.82720875437E+02  0.15244954988E+03  0.46426858566E+03  0.82082461093E+02 0.  0.
    5000000    2    1    2    0    0 -0.42275782751E+03 -0.82720875437E+02  0.37206673924E+02  0.73952520040E+03  0.59995521623E+03 0.  0.
        -24    2    4    4    0    0 -0.13220703393E+03 -0.31690283673E+03  0.58317024719E+02  0.35730491341E+03  0.79748467208E+02 0.  0.
         24    2    4    4    0    0 -0.29055079358E+03  0.23418196130E+03 -0.21110350795E+02  0.38222028699E+03  0.79910864290E+02 0.  0.
         13    1    5    5    0    0 -0.55169168883E+02 -0.15104527840E+03  0.67042292391E+02  0.17422107304E+03  0.00000000000E+00 0. -1.
        -14    1    5    5    0    0 -0.77037865051E+02 -0.16585755833E+03 -0.87252676717E+01  0.18308384037E+03  0.00000000000E+00 0.  1.
         15    1    3    3    0    0  0.19135446770E+03 -0.17413851652E+01  0.52621837630E+02  0.19847362609E+03  0.17770000000E+01 0. -1.
        -16    1    3    3    0    0  0.23140335981E+03  0.84462260603E+02  0.99827712253E+02  0.26579495957E+03  0.00000000000E+00 0.  1.
          2    1    6    6  502    0 -0.15847160225E+03  0.16036380723E+03 -0.42446670933E+02  0.22941560379E+03  0.00000000000E+00 0. -1.
         -1    1    6    6    0  502 -0.13207919133E+03  0.73818154070E+02  0.21336320138E+02  0.15280468320E+03  0.00000000000E+00 0.  1.
<mgrwt>
<rscale>  0 0.57907499E+03</rscale>
<asrwt>0</asrwt>
<pdfrwt beam="1">  1        1 0.10718846E+00 0.57907499E+03</pdfrwt>
<pdfrwt beam="2">  1       -2 0.78010582E-01 0.57907499E+03</pdfrwt>
<totfact> 0.36407681E+01</totfact>
</mgrwt>
</event>
<event>
12    3  0.1092576E-007  0.7549832E+03  0.7818608E-02  0.9627565E-01
         -2   -1    0    0    0  501 -0.00000000000E+00  0.00000000000E+00  0.54330696719E+03  0.54330696719E+03  0.00000000000E+00 0.  1.
          1   -1    0    0  501    0  0.00000000000E+00 -0.00000000000E+00 -0.13518406484E+04  0.13518406484E+04  0.00000000000E+00 0. -1.
        -24    2    1    2    0    0  0.41737621296E+03  0.54578606387E+03 -0.68707757166E+03  0.97480540682E+03  0.78004237296E+02 0.  0.
    5000000    2    1    2    0    0 -0.41737621296E+03 -0.54578606387E+03 -0.12145610955E+03  0.92034220877E+03  0.60016069852E+03 0.  0.
        -24    2    4    4    0    0 -0.69771302629E+02  0.60500449548E+02  0.12518409456E+03  0.17490667964E+03  0.79955925279E+02 0.  0.
         24    2    4    4    0    0 -0.34760491033E+03 -0.60628651342E+03 -0.24664020411E+03  0.74543552913E+03  0.80188701020E+02 0.  0.
         11    1    5    5    0    0 -0.67386128079E+02  0.73608777095E+01  0.82000582698E+02  0.10639158022E+03  0.00000000000E+00 0. -1.
        -12    1    5    5    0    0 -0.23851745503E+01  0.53139571839E+02  0.43183511859E+02  0.68515099426E+02  0.00000000000E+00 0.  1.
         15    1    3    3    0    0  0.24544555792E+03  0.27309255612E+03 -0.40217041864E+03  0.54457990182E+03  0.17770000000E+01 0. -1.
        -16    1    3    3    0    0  0.17193065504E+03  0.27269350775E+03 -0.28490715302E+03  0.43022550500E+03  0.00000000000E+00 0.  1.
          2    1    6    6  502    0 -0.10963629512E+03 -0.21816425001E+03 -0.48566466966E+02  0.24894669892E+03  0.00000000000E+00 0. -1.
         -1    1    6    6    0  502 -0.23796861521E+03 -0.38812226340E+03 -0.19807373714E+03  0.49648883021E+03  0.00000000000E+00 0.  1.
<mgrwt>
<rscale>  0 0.75498321E+03</rscale>
<asrwt>0</asrwt>
<pdfrwt beam="1">  1        1 0.20797548E+00 0.75498321E+03</pdfrwt>
<pdfrwt beam="2">  1       -2 0.83585688E-01 0.75498321E+03</pdfrwt>
<totfact> 0.93892346E+00</totfact>
</mgrwt>
</event>
<event>
12    3  0.1092576E-007  0.6338642E+03  0.7818608E-02  0.9837537E-01
          1   -1    0    0  501    0  0.00000000000E+00  0.00000000000E+00  0.69481551125E+03  0.69481551125E+03  0.00000000000E+00 0. -1.
         -2   -1    0    0    0  501 -0.00000000000E+00 -0.00000000000E+00 -0.20423426849E+04  0.20423426849E+04  0.00000000000E+00 0.  1.
        -24    2    1    2    0    0 -0.45375700419E+03  0.19696403262E+03  0.51518274732E+03  0.71865585538E+03  0.79766699431E+02 0.  0.
    5000000    2    1    2    0    0  0.45375700419E+03 -0.19696403262E+03 -0.18627099209E+04  0.20185023407E+04  0.59997766711E+03 0.  0.
        -24    2    4    4    0    0  0.19913591598E+03  0.20224647757E+03 -0.79261107706E+03  0.84567528925E+03  0.79847508663E+02 0.  0.
         24    2    4    4    0    0  0.25462108821E+03 -0.39921051019E+03 -0.10700988439E+04  0.11728270515E+04  0.78808800591E+02 0.  0.
         13    1    5    5    0    0  0.13999782339E+03  0.11217876268E+03 -0.39696235681E+03  0.43561746759E+03  0.00000000000E+00 0. -1.
        -14    1    5    5    0    0  0.59138092592E+02  0.90067714892E+02 -0.39564872026E+03  0.41005782166E+03  0.00000000000E+00 0.  1.
         15    1    3    3    0    0 -0.14981623526E+03  0.25509129812E+02  0.14961996629E+03  0.21327192055E+03  0.17770000000E+01 0. -1.
        -16    1    3    3    0    0 -0.30394076892E+03  0.17145490281E+03  0.36556278103E+03  0.50538393483E+03  0.00000000000E+00 0.  1.
          4    1    6    6  502    0  0.22355273737E+03 -0.29042548962E+03 -0.79750875093E+03  0.87769185892E+03  0.00000000000E+00 0. -1.
         -3    1    6    6    0  502  0.31068350839E+02 -0.10878502057E+03 -0.27259009295E+03  0.29513519258E+03  0.00000000000E+00 0.  1.
<mgrwt>
<rscale>  0 0.63386416E+03</rscale>
<asrwt>0</asrwt>
<pdfrwt beam="1">  1        1 0.10689470E+00 0.63386416E+03</pdfrwt>
<pdfrwt beam="2">  1       -2 0.31420656E+00 0.63386416E+03</pdfrwt>
<totfact> 0.67719144E-01</totfact>
</mgrwt>
</event>
<event>
12    3  0.1092576E-007  0.1332692E+04  0.7818608E-02  0.9004035E-01
          1   -1    0    0  501    0  0.00000000000E+00  0.00000000000E+00  0.18705409084E+04  0.18705409084E+04  0.00000000000E+00 0. -1.
         -2   -1    0    0    0  501 -0.00000000000E+00 -0.00000000000E+00 -0.16100093629E+04  0.16100093629E+04  0.00000000000E+00 0.  1.
        -24    2    1    2    0    0  0.95752388909E+03  0.88084702374E+03  0.11964130614E+04  0.17693390776E+04  0.80081711761E+02 0.  0.
    5000000    2    1    2    0    0 -0.95752388909E+03 -0.88084702374E+03 -0.93588151591E+03  0.17112111938E+04  0.59968830271E+03 0.  0.
        -24    2    4    4    0    0 -0.35250909689E+03 -0.58693358308E+03 -0.21855776494E+03  0.72463934600E+03  0.92633637593E+02 0.  0.
         24    2    4    4    0    0 -0.60501479220E+03 -0.29391344066E+03 -0.71732375096E+03  0.98657184776E+03  0.79640678740E+02 0.  0.
         11    1    5    5    0    0 -0.11525861915E+03 -0.12233288064E+03 -0.71357920507E+02  0.18259746930E+03  0.00000000000E+00 0. -1.
        -12    1    5    5    0    0 -0.23725047774E+03 -0.46460070244E+03 -0.14719984444E+03  0.54204187670E+03  0.00000000000E+00 0.  1.
         15    1    3    3    0    0  0.81992392114E+03  0.74208089345E+03  0.10522411508E+04  0.15264907094E+04  0.17770000000E+01 0. -1.
        -16    1    3    3    0    0  0.13759996795E+03  0.13876613029E+03  0.14417191057E+03  0.24284836811E+03  0.00000000000E+00 0.  1.
          2    1    6    6  502    0 -0.30009349201E+03 -0.17243977847E+03 -0.41437255259E+03  0.53990387430E+03  0.00000000000E+00 0. -1.
         -1    1    6    6    0  502 -0.30492130019E+03 -0.12147366219E+03 -0.30295119837E+03  0.44666797346E+03  0.00000000000E+00 0.  1.
<mgrwt>
<rscale>  0 0.13326917E+04</rscale>
<asrwt>0</asrwt>
<pdfrwt beam="1">  1        1 0.28777553E+00 0.13326917E+04</pdfrwt>
<pdfrwt beam="2">  1       -2 0.24769375E+00 0.13326917E+04</pdfrwt>
<totfact> 0.20379404E-01</totfact>
</mgrwt>
</event>
<event>
12    3  0.1092576E-007  0.7387863E+03  0.7818608E-02  0.9653109E-01
         -2   -1    0    0    0  501 -0.00000000000E+00  0.00000000000E+00  0.99266777547E+03  0.99266777547E+03  0.00000000000E+00 0.  1.
          1   -1    0    0  501    0  0.00000000000E+00 -0.00000000000E+00 -0.61176421722E+03  0.61176421722E+03  0.00000000000E+00 0. -1.
        -24    2    1    2    0    0  0.39611258794E+03 -0.48183624937E+03  0.38719756193E+03  0.73849260426E+03  0.79862513401E+02 0.  0.
    5000000    2    1    2    0    0 -0.39611258794E+03  0.48183624937E+03 -0.62940036765E+01  0.86593938843E+03  0.60061639706E+03 0.  0.
        -24    2    4    4    0    0  0.55721253613E+02 -0.79997624992E+02 -0.59700486001E+02  0.13866698169E+03  0.78485066558E+02 0.  0.
         24    2    4    4    0    0 -0.45183384155E+03  0.56183387436E+03  0.53406482324E+02  0.72727240674E+03  0.79131400240E+02 0.  0.
         13    1    5    5    0    0 -0.19502953354E+02 -0.26049948859E+02 -0.13878543861E+02  0.35377662512E+02  0.00000000000E+00 0. -1.
        -14    1    5    5    0    0  0.75224206968E+02 -0.53947676133E+02 -0.45821942140E+02  0.10328931917E+03  0.00000000000E+00 0.  1.
         15    1    3    3    0    0  0.32809382525E+03 -0.34739505346E+03  0.28392875434E+03  0.55583052867E+03  0.17770000000E+01 0. -1.
        -16    1    3    3    0    0  0.68018762694E+02 -0.13444119591E+03  0.10326880759E+03  0.18266207559E+03  0.00000000000E+00 0.  1.
          2    1    6    6  502    0 -0.76922268100E+02  0.60097945393E+02 -0.79437272121E+01  0.97938251833E+02  0.00000000000E+00 0. -1.
         -1    1    6    6    0  502 -0.37491157345E+03  0.50173592897E+03  0.61350209536E+02  0.62933415491E+03  0.00000000000E+00 0.  1.
<mgrwt>
<rscale>  0 0.73878627E+03</rscale>
<asrwt>0</asrwt>
<pdfrwt beam="1">  1        1 0.94117572E-01 0.73878627E+03</pdfrwt>
<pdfrwt beam="2">  1       -2 0.15271812E+00 0.73878627E+03</pdfrwt>
<totfact> 0.85121995E+00</totfact>
</mgrwt>
</event>
<event>
12    3  0.1092576E-007  0.1753697E+04  0.7818608E-02  0.8731318E-01
         -2   -1    0    0    0  501 -0.00000000000E+00  0.00000000000E+00  0.18872720569E+04  0.18872720569E+04  0.00000000000E+00 0.  1.
          1   -1    0    0  501    0  0.00000000000E+00 -0.00000000000E+00 -0.17987484515E+04  0.17987484515E+04  0.00000000000E+00 0. -1.
        -24    2    1    2    0    0  0.17492260381E+04 -0.40043616621E+02  0.43375642694E+03  0.18043712790E+04  0.78840668782E+02 0.  0.
    5000000    2    1    2    0    0 -0.17492260381E+04  0.40043616621E+02 -0.34523282147E+03  0.18816492294E+04  0.60001908133E+03 0.  0.
        -24    2    4    4    0    0 -0.97461356970E+03 -0.92694127310E-02 -0.48091743226E+03  0.10900476307E+04  0.83968150364E+02 0.  0.
         24    2    4    4    0    0 -0.77461246837E+03  0.40052886034E+02  0.13568461079E+03  0.79160159867E+03  0.81203864272E+02 0.  0.
         13    1    5    5    0    0 -0.96692834209E+03 -0.79986646013E+01 -0.47317870741E+03  0.10765279776E+04  0.00000000000E+00 0. -1.
        -14    1    5    5    0    0 -0.76852276119E+01  0.79893951885E+01 -0.77387248473E+01  0.13519653146E+02  0.00000000000E+00 0.  1.
         15    1    3    3    0    0  0.13236423202E+04 -0.64089897352E+02  0.32962155190E+03  0.13655731514E+04  0.17770000000E+01 0. -1.
        -16    1    3    3    0    0  0.42558371792E+03  0.24046280731E+02  0.10413487504E+03  0.43879812759E+03  0.00000000000E+00 0.  1.
          4    1    6    6  502    0 -0.30108781694E+03 -0.13225087185E+02  0.25071166092E+02  0.30241914591E+03  0.00000000000E+00 0. -1.
         -3    1    6    6    0  502 -0.47352465143E+03  0.53277973219E+02  0.11061344469E+03  0.48918245276E+03  0.00000000000E+00 0.  1.
<mgrwt>
<rscale>  0 0.17536972E+04</rscale>
<asrwt>0</asrwt>
<pdfrwt beam="1">  1        1 0.27673053E+00 0.17536972E+04</pdfrwt>
<pdfrwt beam="2">  1       -2 0.29034955E+00 0.17536972E+04</pdfrwt>
<totfact> 0.11925959E-01</totfact>
</mgrwt>
</event>
<event>
12    3  0.1092576E-007  0.7365057E+03  0.7818608E-02  0.9656762E-01
         -4   -1    0    0    0  501 -0.00000000000E+00  0.00000000000E+00  0.16072950919E+04  0.16072950919E+04  0.00000000000E+00 0.  1.
          3   -1    0    0  501    0  0.00000000000E+00 -0.00000000000E+00 -0.38365024104E+03  0.38365024104E+03  0.00000000000E+00 0. -1.
        -24    2    1    2    0    0  0.60267014409E+03  0.12002072716E+03  0.85586080399E+03  0.10566990140E+04  0.80615215354E+02 0.  0.
    5000000    2    1    2    0    0 -0.60267014409E+03 -0.12002072716E+03  0.36778404689E+03  0.93424631891E+03  0.59994566564E+03 0.  0.
        -24    2    4    4    0    0 -0.31733787320E+03 -0.35365027593E+03  0.19123080355E+03  0.51838306980E+03  0.79874547856E+02 0.  0.
         24    2    4    4    0    0 -0.28533227090E+03  0.23362954877E+03  0.17655324334E+03  0.41586324911E+03  0.75986336639E+02 0.  0.
         13    1    5    5    0    0 -0.29707755636E+03 -0.29079993320E+03  0.16804331895E+03  0.44839517469E+03  0.00000000000E+00 0. -1.
        -14    1    5    5    0    0 -0.20260316840E+02 -0.62850342729E+02  0.23187484608E+02  0.69987895111E+02  0.00000000000E+00 0.  1.
         15    1    3    3    0    0  0.33104927594E+03  0.57377656857E+02  0.40024245784E+03  0.52257344115E+03  0.17770000000E+01 0. -1.
        -16    1    3    3    0    0  0.27162086815E+03  0.62643070300E+02  0.45561834614E+03  0.53412557289E+03  0.00000000000E+00 0.  1.
          4    1    6    6  502    0 -0.16052592667E+03  0.17854584044E+03  0.11152101201E+03  0.26473406730E+03  0.00000000000E+00 0. -1.
         -3    1    6    6    0  502 -0.12480634423E+03  0.55083708332E+02  0.65032231329E+02  0.15112918181E+03  0.00000000000E+00 0.  1.
<mgrwt>
<rscale>  0 0.73650565E+03</rscale>
<asrwt>0</asrwt>
<pdfrwt beam="1">  1        3 0.59023115E-01 0.73650565E+03</pdfrwt>
<pdfrwt beam="2">  1       -4 0.24727616E+00 0.73650565E+03</pdfrwt>
<totfact> 0.42323334E-01</totfact>
</mgrwt>
</event>
<event>
12    3  0.1092576E-007  0.5406118E+03  0.7818608E-02  0.1003691E+00
         -2   -1    0    0    0  501 -0.00000000000E+00  0.00000000000E+00  0.10710166898E+03  0.10710166898E+03  0.00000000000E+00 0.  1.
          1   -1    0    0  501    0  0.00000000000E+00 -0.00000000000E+00 -0.29827730344E+04  0.29827730344E+04  0.00000000000E+00 0. -1.
        -24    2    1    2    0    0  0.37398188481E+03  0.10142448574E+03 -0.75931046599E+03  0.85620207146E+03  0.79876322737E+02 0.  0.
    5000000    2    1    2    0    0 -0.37398188481E+03 -0.10142448574E+03 -0.21163608994E+04  0.22336726319E+04  0.60013381299E+03 0.  0.
        -24    2    4    4    0    0  0.10668897493E+03  0.11095980360E+03 -0.38763910362E+03  0.42475950473E+03  0.80386235266E+02 0.  0.
         24    2    4    4    0    0 -0.48067085974E+03 -0.21238428934E+03 -0.17287217958E+04  0.18089131272E+04  0.86810671280E+02 0.  0.
         13    1    5    5    0    0  0.29584041986E+02  0.56348841584E+02 -0.24886080587E+03  0.25686982732E+03  0.00000000000E+00 0. -1.
        -14    1    5    5    0    0  0.77104932943E+02  0.54610962019E+02 -0.13877829775E+03  0.16788967742E+03  0.00000000000E+00 0.  1.
         15    1    3    3    0    0  0.37425338408E+02 -0.87388673683E+01 -0.11099884271E+03  0.11747733641E+03  0.17770000000E+01 0. -1.
        -16    1    3    3    0    0  0.33655654640E+03  0.11016335311E+03 -0.64831162329E+03  0.73872473505E+03  0.00000000000E+00 0.  1.
          4    1    6    6  502    0 -0.80854837649E+02 -0.73976124951E+01 -0.32775084176E+03  0.33765787969E+03  0.00000000000E+00 0. -1.
         -3    1    6    6    0  502 -0.39981602209E+03 -0.20498667685E+03 -0.14009709540E+04  0.14712552475E+04  0.00000000000E+00 0.  1.
<mgrwt>
<rscale>  0 0.54061184E+03</rscale>
<asrwt>0</asrwt>
<pdfrwt beam="1">  1        1 0.45888815E+00 0.54061184E+03</pdfrwt>
<pdfrwt beam="2">  1       -2 0.16477180E-01 0.54061184E+03</pdfrwt>
<totfact> 0.17743830E+01</totfact>
</mgrwt>
</event>
<event>
12    3  0.1092576E-007  0.4083364E+03  0.7818608E-02  0.1040931E+00
          1   -1    0    0  501    0  0.00000000000E+00  0.00000000000E+00  0.97321972199E+03  0.97321972199E+03  0.00000000000E+00 0. -1.
         -2   -1    0    0    0  501 -0.00000000000E+00 -0.00000000000E+00 -0.27116926318E+03  0.27116926318E+03  0.00000000000E+00 0.  1.
        -24    2    1    2    0    0 -0.23875744696E+03  0.23097582936E+03  0.24251987242E+03  0.41909245287E+03  0.80421659450E+02 0.  0.
    5000000    2    1    2    0    0  0.23875744696E+03 -0.23097582936E+03  0.45953058640E+03  0.82529653230E+03  0.59965911496E+03 0.  0.
        -24    2    4    4    0    0 -0.43070555182E+02  0.25677790604E+02  0.42381822845E+03  0.43414057873E+03  0.79634977713E+02 0.  0.
         24    2    4    4    0    0  0.28182800214E+03 -0.25665361996E+03  0.35712357946E+02  0.39115595357E+03  0.80184188410E+02 0.  0.
         13    1    5    5    0    0 -0.27117020757E+02  0.54522995628E+02  0.25953694204E+03  0.26658490983E+03  0.00000000000E+00 0. -1.
        -14    1    5    5    0    0 -0.15953534425E+02 -0.28845205024E+02  0.16428128642E+03  0.16755566890E+03  0.00000000000E+00 0.  1.
         15    1    3    3    0    0 -0.11752143686E+03  0.60699446223E+02  0.83218969326E+02  0.15628264612E+03  0.17770000000E+01 0. -1.
        -16    1    3    3    0    0 -0.12123601010E+03  0.17027638313E+03  0.15930090309E+03  0.26280980675E+03  0.00000000000E+00 0.  1.
          2    1    6    6  502    0  0.82546655028E+02 -0.65640798615E+02 -0.25290824163E+02  0.10845409391E+03  0.00000000000E+00 0. -1.
         -1    1    6    6    0  502  0.19928134712E+03 -0.19101282135E+03  0.61003182109E+02  0.28270185966E+03  0.00000000000E+00 0.  1.
<mgrwt>
<rscale>  0 0.40833643E+03</rscale>
<asrwt>0</asrwt>
<pdfrwt beam="1">  1        1 0.14972611E+00 0.40833643E+03</pdfrwt>
<pdfrwt beam="2">  1       -2 0.41718349E-01 0.40833643E+03</pdfrwt>
<totfact> 0.80038500E+01</totfact>
</mgrwt>
</event>
<event>
12    3  0.1092576E-007  0.6809767E+03  0.7818608E-02  0.9750329E-01
          1   -1    0    0  501    0  0.00000000000E+00  0.00000000000E+00  0.48034743874E+03  0.48034743874E+03  0.00000000000E+00 0. -1.
         -2   -1    0    0    0  501 -0.00000000000E+00 -0.00000000000E+00 -0.13281972387E+04  0.13281972387E+04  0.00000000000E+00 0.  1.
        -24    2    1    2    0    0 -0.35127292565E+03 -0.43511139140E+03 -0.80996461930E+03  0.98754374709E+03  0.80531836405E+02 0.  0.
    5000000    2    1    2    0    0  0.35127292565E+03  0.43511139140E+03 -0.37885180691E+02  0.82100093039E+03  0.59991053463E+03 0.  0.
        -24    2    4    4    0    0  0.78423553597E+02  0.50743122041E+03  0.30264789616E+02  0.52047146887E+03  0.79610898855E+02 0.  0.
         24    2    4    4    0    0  0.27284937206E+03 -0.72319829010E+02 -0.68149970306E+02  0.30052946151E+03  0.77437725200E+02 0.  0.
         11    1    5    5    0    0  0.29391550044E+02  0.29606057710E+03  0.53358303380E+02  0.30226286088E+03  0.00000000000E+00 0. -1.
        -12    1    5    5    0    0  0.49032003552E+02  0.21137064331E+03 -0.23093513764E+02  0.21820860799E+03  0.00000000000E+00 0.  1.
         15    1    3    3    0    0 -0.31095494693E+03 -0.38783260673E+03 -0.66879659805E+03  0.83330616052E+03  0.17770000000E+01 0. -1.
        -16    1    3    3    0    0 -0.40317978727E+02 -0.47278784667E+02 -0.14116802125E+03  0.15423758657E+03  0.00000000000E+00 0.  1.
          2    1    6    6  502    0  0.56407561476E+02 -0.40517293659E+02  0.55758372583E+01  0.69674629804E+02  0.00000000000E+00 0. -1.
         -1    1    6    6    0  502  0.21644181058E+03 -0.31802535351E+02 -0.73725807564E+02  0.23085483171E+03  0.00000000000E+00 0.  1.
<mgrwt>
<rscale>  0 0.68097670E+03</rscale>
<asrwt>0</asrwt>
<pdfrwt beam="1">  1        1 0.73899608E-01 0.68097670E+03</pdfrwt>
<pdfrwt beam="2">  1       -2 0.20433803E+00 0.68097670E+03</pdfrwt>
<totfact> 0.52827627E+00</totfact>
</mgrwt>
</event>
<event>
12    3  0.1092576E-007  0.6218554E+03  0.7818608E-02  0.9861073E-01
         -2   -1    0    0    0  501 -0.00000000000E+00  0.00000000000E+00  0.28599534559E+03  0.28599534559E+03  0.00000000000E+00 0.  1.
          1   -1    0    0  501    0  0.00000000000E+00 -0.00000000000E+00 -0.20545107511E+04  0.20545107511E+04  0.00000000000E+00 0. -1.
        -24    2    1    2    0    0  0.21811516765E+03  0.57042576582E+03 -0.42882775094E+03  0.75063752158E+03  0.81262956882E+02 0.  0.
    5000000    2    1    2    0    0 -0.21811516765E+03 -0.57042576582E+03 -0.13396876546E+04  0.15898685751E+04  0.59996607708E+03 0.  0.
        -24    2    4    4    0    0 -0.41707620260E+02 -0.13603362371E+03 -0.98076857646E+03  0.99417957006E+03  0.79002180909E+02 0.  0.
         24    2    4    4    0    0 -0.17640754739E+03 -0.43439214211E+03 -0.35891907811E+03  0.59568900504E+03  0.78780265274E+02 0.  0.
         11    1    5    5    0    0  0.20292970862E+02 -0.43348261797E+02 -0.39521299356E+03  0.39810072437E+03  0.00000000000E+00 0. -1.
        -12    1    5    5    0    0 -0.62000591122E+02 -0.92685361909E+02 -0.58555558290E+03  0.59607884569E+03  0.00000000000E+00 0.  1.
         15    1    3    3    0    0  0.46247457844E+02  0.14800889984E+03 -0.15202331662E+03  0.21716286127E+03  0.17770000000E+01 0. -1.
        -16    1    3    3    0    0  0.17186770981E+03  0.42241686598E+03 -0.27680443432E+03  0.53347466032E+03  0.00000000000E+00 0.  1.
          2    1    6    6  502    0 -0.10185526274E+03 -0.16684338376E+03 -0.17673735272E+03  0.26352855842E+03  0.00000000000E+00 0. -1.
         -1    1    6    6    0  502 -0.74552284653E+02 -0.26754875835E+03 -0.18218172538E+03  0.33216044663E+03  0.00000000000E+00 0.  1.
<mgrwt>
<rscale>  0 0.62185536E+03</rscale>
<asrwt>0</asrwt>
<pdfrwt beam="1">  1        1 0.31607857E+00 0.62185536E+03</pdfrwt>
<pdfrwt beam="2">  1       -2 0.43999285E-01 0.62185536E+03</pdfrwt>
<totfact> 0.12510911E+01</totfact>
</mgrwt>
</event>
<event>
12    3  0.1092576E-007  0.4515875E+03  0.7818608E-02  0.1027250E+00
          1   -1    0    0  501    0  0.00000000000E+00  0.00000000000E+00  0.20581860568E+03  0.20581860568E+03  0.00000000000E+00 0. -1.
         -2   -1    0    0    0  501 -0.00000000000E+00 -0.00000000000E+00 -0.11102942094E+04  0.11102942094E+04  0.00000000000E+00 0.  1.
        -24    2    1    2    0    0  0.11230786501E+03  0.24575181682E+03 -0.16594822162E+03  0.32697446829E+03  0.79790216444E+02 0.  0.
    5000000    2    1    2    0    0 -0.11230786501E+03 -0.24575181682E+03 -0.73852738214E+03  0.98913834683E+03  0.59997080178E+03 0.  0.
        -24    2    4    4    0    0 -0.30330121791E+03  0.70649287696E+01 -0.47682146256E+03  0.57057142494E+03  0.78431510194E+02 0.  0.
         24    2    4    4    0    0  0.19099335291E+03 -0.25281674559E+03 -0.26170591958E+03  0.41856692189E+03  0.79457611689E+02 0.  0.
         11    1    5    5    0    0 -0.18048562717E+03  0.18009088615E+02 -0.21587384590E+03  0.28195905063E+03  0.00000000000E+00 0. -1.
        -12    1    5    5    0    0 -0.12281559075E+03 -0.10944159846E+02 -0.26094761666E+03  0.28861237431E+03  0.00000000000E+00 0.  1.
         15    1    3    3    0    0  0.65737837145E+02  0.60230498637E+02 -0.67549208276E+02  0.11187148639E+03  0.17770000000E+01 0. -1.
        -16    1    3    3    0    0  0.46570027860E+02  0.18552131818E+03 -0.98399013342E+02  0.21510298190E+03  0.00000000000E+00 0.  1.
          2    1    6    6  502    0  0.14702439309E+03 -0.17411125788E+03 -0.14124856450E+03  0.26810829763E+03  0.00000000000E+00 0. -1.
         -3    1    6    6    0  502  0.43968959816E+02 -0.78705487711E+02 -0.12045735508E+03  0.15045862426E+03  0.00000000000E+00 0.  1.
<mgrwt>
<rscale>  0 0.45158753E+03</rscale>
<asrwt>0</asrwt>
<pdfrwt beam="1">  1        1 0.31664401E-01 0.45158753E+03</pdfrwt>
<pdfrwt beam="2">  1       -2 0.17081449E+00 0.45158753E+03</pdfrwt>
<totfact> 0.27427680E+01</totfact>
</mgrwt>
</event>
<event>
12    3  0.1092576E-007  0.2964420E+03  0.7818608E-02  0.1087033E+00
          1   -1    0    0  501    0  0.00000000000E+00  0.00000000000E+00  0.13963676973E+04  0.13963676973E+04  0.00000000000E+00 0. -1.
         -2   -1    0    0    0  501 -0.00000000000E+00 -0.00000000000E+00 -0.10083377495E+03  0.10083377495E+03  0.00000000000E+00 0.  1.
        -24    2    1    2    0    0 -0.25726263617E+02  0.10713892124E+03  0.17953114531E+03  0.22536758617E+03  0.80115714302E+02 0.  0.
    5000000    2    1    2    0    0  0.25726263617E+02 -0.10713892124E+03  0.11160027770E+04  0.12718338861E+04  0.59996553760E+03 0.  0.
        -24    2    4    4    0    0  0.14824994218E+03  0.10908382616E+03  0.10134943794E+03  0.22401542599E+03  0.77678027932E+02 0.  0.
         24    2    4    4    0    0 -0.12252367856E+03 -0.21622274740E+03  0.10146533391E+04  0.10478184601E+04  0.81472685314E+02 0.  0.
         13    1    5    5    0    0  0.25454218174E+02  0.64107211502E+02  0.33195129335E+02  0.76547817742E+02  0.00000000000E+00 0. -1.
        -14    1    5    5    0    0  0.12279572400E+03  0.44976614657E+02  0.68154308607E+02  0.14746760824E+03  0.00000000000E+00 0.  1.
         15    1    3    3    0    0 -0.11372903101E+02 -0.11225639222E+02  0.30803814038E+02  0.34747526375E+02  0.17770000000E+01 0. -1.
        -16    1    3    3    0    0 -0.14353360516E+02  0.11836456046E+03  0.14872733127E+03  0.19062005980E+03  0.00000000000E+00 0.  1.
          4    1    6    6  502    0 -0.11732836969E+03 -0.14550333719E+03  0.80799799165E+03  0.82933583184E+03  0.00000000000E+00 0. -1.
         -1    1    6    6    0  502 -0.51953088654E+01 -0.70719410209E+02  0.20665534743E+03  0.21848262822E+03  0.00000000000E+00 0.  1.
<mgrwt>
<rscale>  0 0.29644204E+03</rscale>
<asrwt>0</asrwt>
<pdfrwt beam="1">  1        1 0.21482579E+00 0.29644204E+03</pdfrwt>
<pdfrwt beam="2">  1       -2 0.15512889E-01 0.29644204E+03</pdfrwt>
<totfact> 0.23903472E+02</totfact>
</mgrwt>
</event>
<event>
12    3  0.1092576E-007  0.6786949E+03  0.7818608E-02  0.9754377E-01
         -2   -1    0    0    0  501 -0.00000000000E+00  0.00000000000E+00  0.36307813105E+03  0.36307813105E+03  0.00000000000E+00 0.  1.
          1   -1    0    0  501    0  0.00000000000E+00 -0.00000000000E+00 -0.17853821701E+04  0.17853821701E+04  0.00000000000E+00 0. -1.
        -24    2    1    2    0    0 -0.58111924991E+03  0.33875777213E+03 -0.40434774832E+03  0.78873471629E+03  0.78415179074E+02 0.  0.
    5000000    2    1    2    0    0  0.58111924991E+03 -0.33875777213E+03 -0.10179562908E+04  0.13597255849E+04  0.60013518936E+03 0.  0.
        -24    2    4    4    0    0  0.12735044561E+03 -0.11753650016E+03 -0.76753491860E+03  0.79101529797E+03  0.81008551943E+02 0.  0.
         24    2    4    4    0    0  0.45376880431E+03 -0.22122127197E+03 -0.25042137216E+03  0.56871028692E+03  0.76652122484E+02 0.  0.
         11    1    5    5    0    0  0.27120097537E+02 -0.11598648624E+02 -0.44290266697E+02  0.53213307211E+02  0.00000000000E+00 0. -1.
        -12    1    5    5    0    0  0.10023034807E+03 -0.10593785154E+03 -0.72324465190E+03  0.73780199076E+03  0.00000000000E+00 0.  1.
         15    1    3    3    0    0 -0.62651045185E+02  0.11602459005E+02 -0.30300968720E+02  0.70576745123E+02  0.17770000000E+01 0. -1.
        -16    1    3    3    0    0 -0.51846820473E+03  0.32715531312E+03 -0.37404677960E+03  0.71815797117E+03  0.00000000000E+00 0.  1.
          4    1    6    6  502    0  0.16783327842E+03 -0.93129127781E+02 -0.13564534497E+03  0.23503340912E+03  0.00000000000E+00 0. -1.
         -3    1    6    6    0  502  0.28593552588E+03 -0.12809214419E+03 -0.11477602718E+03  0.33367687780E+03  0.00000000000E+00 0.  1.
<mgrwt>
<rscale>  0 0.67869492E+03</rscale>
<asrwt>0</asrwt>
<pdfrwt beam="1">  1        1 0.27467418E+00 0.67869492E+03</pdfrwt>
<pdfrwt beam="2">  1       -2 0.55858174E-01 0.67869492E+03</pdfrwt>
<totfact> 0.11543695E+01</totfact>
</mgrwt>
</event>
<event>
12    3  0.1092576E-007  0.1569828E+04  0.7818608E-02  0.8839301E-01
         -2   -1    0    0    0  501 -0.00000000000E+00  0.00000000000E+00  0.12123510437E+04  0.12123510437E+04  0.00000000000E+00 0.  1.
          1   -1    0    0  501    0  0.00000000000E+00 -0.00000000000E+00 -0.24234308436E+04  0.24234308436E+04  0.00000000000E+00 0. -1.
        -24    2    1    2    0    0  0.38200090364E+03 -0.14697651332E+04 -0.12996495395E+04  0.20005245757E+04  0.82918123737E+02 0.  0.
    5000000    2    1    2    0    0 -0.38200090364E+03  0.14697651332E+04  0.88569739549E+02  0.16352573116E+04  0.60007302811E+03 0.  0.
        -24    2    4    4    0    0 -0.30921166442E+03  0.25225977655E+03  0.66320304830E+02  0.41280670032E+03  0.82244396252E+02 0.  0.
         24    2    4    4    0    0 -0.72789239215E+02  0.12175053567E+04  0.22249434719E+02  0.12224506112E+04  0.79201595559E+02 0.  0.
         11    1    5    5    0    0 -0.74657107629E+02  0.46682367347E+02  0.48215598247E+02  0.10038760409E+03  0.00000000000E+00 0. -1.
        -12    1    5    5    0    0 -0.23455455679E+03  0.20557740921E+03  0.18104706583E+02  0.31241909623E+03  0.00000000000E+00 0.  1.
         15    1    3    3    0    0  0.13889453578E+03 -0.56970596904E+03 -0.45045957743E+03  0.73944139177E+03  0.17770000000E+01 0. -1.
        -16    1    3    3    0    0  0.24310636786E+03 -0.90005916417E+03 -0.84918996208E+03  0.12610831839E+04  0.00000000000E+00 0.  1.
          4    1    6    6  502    0 -0.44959950380E+02  0.10669648983E+04  0.37735234076E+02  0.10685782327E+04  0.00000000000E+00 0. -1.
         -3    1    6    6    0  502 -0.27829288835E+02  0.15054045833E+03 -0.15485799357E+02  0.15387237859E+03  0.00000000000E+00 0.  1.
<mgrwt>
<rscale>  0 0.15698280E+04</rscale>
<asrwt>0</asrwt>
<pdfrwt beam="1">  1        1 0.37283551E+00 0.15698280E+04</pdfrwt>
<pdfrwt beam="2">  1       -2 0.18651555E+00 0.15698280E+04</pdfrwt>
<totfact> 0.20548599E-01</totfact>
</mgrwt>
</event>
<event>
12    3  0.1092576E-007  0.8773169E+03  0.7818608E-02  0.9454389E-01
          1   -1    0    0  501    0  0.00000000000E+00  0.00000000000E+00  0.18069772119E+04  0.18069772119E+04  0.00000000000E+00 0. -1.
         -2   -1    0    0    0  501 -0.00000000000E+00 -0.00000000000E+00 -0.43836562981E+03  0.43836562981E+03  0.00000000000E+00 0.  1.
        -24    2    1    2    0    0  0.13619718547E+03  0.77308880870E+03  0.54486072573E+03  0.95899878870E+03  0.81175654103E+02 0.  0.
    5000000    2    1    2    0    0 -0.13619718547E+03 -0.77308880870E+03  0.82375085633E+03  0.12863440530E+04  0.59991630241E+03 0.  0.
        -24    2    4    4    0    0 -0.23660721283E+03 -0.80682976084E+03  0.76669966361E+03  0.11408694742E+04  0.82447237172E+02 0.  0.
         24    2    4    4    0    0  0.10041002736E+03  0.33740952148E+02  0.57051192713E+02  0.14547457875E+03  0.81776457658E+02 0.  0.
         13    1    5    5    0    0 -0.12926825662E+03 -0.52539172588E+03  0.53445511034E+03  0.76051891019E+03  0.00000000000E+00 0. -1.
        -14    1    5    5    0    0 -0.10733895620E+03 -0.28143803497E+03  0.23224455327E+03  0.38035056405E+03  0.00000000000E+00 0.  1.
         15    1    3    3    0    0  0.94949548659E+02  0.57790782755E+03  0.44726250669E+03  0.73691232963E+03  0.17770000000E+01 0. -1.
        -16    1    3    3    0    0  0.41247636810E+02  0.19518098114E+03  0.97598219041E+02  0.22208645907E+03  0.00000000000E+00 0.  1.
          4    1    6    6  502    0  0.83893364124E+02  0.54980434191E+02  0.62278380162E+02  0.11806583470E+03  0.00000000000E+00 0. -1.
         -3    1    6    6    0  502  0.16516663232E+02 -0.21239482043E+02 -0.52271874489E+01  0.27408744050E+02  0.00000000000E+00 0.  1.
<mgrwt>
<rscale>  0 0.87731686E+03</rscale>
<asrwt>0</asrwt>
<pdfrwt beam="1">  1        1 0.27799649E+00 0.87731686E+03</pdfrwt>
<pdfrwt beam="2">  1       -2 0.67440867E-01 0.87731686E+03</pdfrwt>
<totfact> 0.72788083E+00</totfact>
</mgrwt>
</event>
<event>
12    3  0.1619976E-007  0.9480990E+03  0.7818608E-02  0.9367375E-01
         -2   -1    0    0    0  501 -0.00000000000E+00  0.00000000000E+00  0.43463060382E+03  0.43463060382E+03  0.00000000000E+00 0.  1.
          1   -1    0    0  501    0  0.00000000000E+00 -0.00000000000E+00 -0.23685560407E+04  0.23685560407E+04  0.00000000000E+00 0. -1.
        -24    2    1    2    0    0  0.28685188058E+03 -0.87559331667E+03 -0.96035374713E+03  0.13345764449E+04  0.99334334271E+02 0.  0.
    5000000    2    1    2    0    0 -0.28685188058E+03  0.87559331667E+03 -0.97357168977E+03  0.14686101997E+04  0.60002202114E+03 0.  0.
        -24    2    4    4    0    0 -0.25503903624E+03  0.83815216777E+03 -0.55693905446E+03  0.10413700966E+04  0.82015860966E+02 0.  0.
         24    2    4    4    0    0 -0.31812844337E+02  0.37441148900E+02 -0.41663263531E+03  0.42724010302E+03  0.80854536858E+02 0.  0.
         13    1    5    5    0    0 -0.10283560885E+03  0.42456366830E+03 -0.31552465389E+03  0.53887408371E+03  0.00000000000E+00 0. -1.
        -14    1    5    5    0    0 -0.15220342739E+03  0.41358849948E+03 -0.24141440057E+03  0.50249601293E+03  0.00000000000E+00 0.  1.
         15    1    3    3    0    0  0.15589337062E+03 -0.34983116868E+03 -0.35599748262E+03  0.52289765246E+03  0.17770000000E+01 0. -1.
        -16    1    3    3    0    0  0.13095850996E+03 -0.52576214799E+03 -0.60435626451E+03  0.81167879241E+03  0.00000000000E+00 0.  1.
          4    1    6    6  502    0 -0.95215792033E+01  0.60798765066E+02 -0.24608615474E+03  0.25366423843E+03  0.00000000000E+00 0. -1.
         -3    1    6    6    0  502 -0.22291265134E+02 -0.23357616166E+02 -0.17054648057E+03  0.17357586459E+03  0.00000000000E+00 0.  1.
<mgrwt>
<rscale>  0 0.94809898E+03</rscale>
<asrwt>0</asrwt>
<pdfrwt beam="1">  1        1 0.36439323E+00 0.94809898E+03</pdfrwt>
<pdfrwt beam="2">  1       -2 0.66866248E-01 0.94809898E+03</pdfrwt>
<totfact> 0.30736839E+00</totfact>
</mgrwt>
</event>
<event>
12    3  0.1092576E-007  0.5443513E+03  0.7818608E-02  0.1002810E+00
          1   -1    0    0  501    0  0.00000000000E+00  0.00000000000E+00  0.12186447867E+04  0.12186447867E+04  0.00000000000E+00 0. -1.
         -2   -1    0    0    0  501 -0.00000000000E+00 -0.00000000000E+00 -0.25414788106E+03  0.25414788106E+03  0.00000000000E+00 0.  1.
        -24    2    1    2    0    0  0.20811476299E+03  0.32436289449E+03  0.42384202428E+03  0.57817411927E+03  0.78231763067E+02 0.  0.
    5000000    2    1    2    0    0 -0.20811476299E+03 -0.32436289449E+03  0.54065488139E+03  0.89461854852E+03  0.59959286577E+03 0.  0.
        -24    2    4    4    0    0 -0.15321098216E+03  0.14217519521E+03  0.25523477893E+03  0.33943708815E+03  0.79908405392E+02 0.  0.
         24    2    4    4    0    0 -0.54903780832E+02 -0.46653808970E+03  0.28542010246E+03  0.55518146036E+03  0.78035919615E+02 0.  0.
         13    1    5    5    0    0 -0.11647038245E+03  0.14576042679E+03  0.21913096348E+03  0.28780172196E+03  0.00000000000E+00 0. -1.
        -14    1    5    5    0    0 -0.36740599712E+02 -0.35852315742E+01  0.36103815444E+02  0.51635366196E+02  0.00000000000E+00 0.  1.
         15    1    3    3    0    0  0.62973631830E+02  0.17022505589E+03  0.19859099814E+03  0.26904235768E+03  0.17770000000E+01 0. -1.
        -16    1    3    3    0    0  0.14514113116E+03  0.15413783860E+03  0.22525102615E+03  0.30913176159E+03  0.00000000000E+00 0.  1.
          4    1    6    6  502    0  0.25842027376E+00 -0.18981352022E+03  0.79135613356E+02  0.20564942144E+03  0.00000000000E+00 0. -1.
         -1    1    6    6    0  502 -0.55162201106E+02 -0.27672456948E+03  0.20628448910E+03  0.34953203892E+03  0.00000000000E+00 0.  1.
<mgrwt>
<rscale>  0 0.54435129E+03</rscale>
<asrwt>0</asrwt>
<pdfrwt beam="1">  1        1 0.18748381E+00 0.54435129E+03</pdfrwt>
<pdfrwt beam="2">  1       -2 0.39099675E-01 0.54435129E+03</pdfrwt>
<totfact> 0.58712184E+01</totfact>
</mgrwt>
</event>
<event>
12    3  0.1092576E-007  0.8808122E+03  0.7818608E-02  0.9449890E-01
         -2   -1    0    0    0  501 -0.00000000000E+00  0.00000000000E+00  0.58679413245E+03  0.58679413245E+03  0.00000000000E+00 0.  1.
          1   -1    0    0  501    0  0.00000000000E+00 -0.00000000000E+00 -0.16230509602E+04  0.16230509602E+04  0.00000000000E+00 0. -1.
        -24    2    1    2    0    0 -0.19334865725E+03 -0.83839855733E+03 -0.25592229280E+03  0.90246851461E+03  0.93044912401E+02 0.  0.
    5000000    2    1    2    0    0  0.19334865725E+03  0.83839855733E+03 -0.78033453492E+03  0.13073765780E+04  0.60001307162E+03 0.  0.
        -24    2    4    4    0    0 -0.20316774412E+01  0.51891219595E+03 -0.75831341971E+03  0.92282350511E+03  0.85381404589E+02 0.  0.
         24    2    4    4    0    0  0.19538033469E+03  0.31948636138E+03 -0.22021115209E+02  0.38455307289E+03  0.84564330894E+02 0.  0.
         13    1    5    5    0    0  0.23567771951E+02  0.39963235380E+03 -0.53291944565E+03  0.66653176490E+03  0.00000000000E+00 0. -1.
        -14    1    5    5    0    0 -0.25599449392E+02  0.11927984215E+03 -0.22539397407E+03  0.25629174021E+03  0.00000000000E+00 0.  1.
         15    1    3    3    0    0 -0.29568711479E+02 -0.31320124796E+03 -0.11037046621E+03  0.33339785237E+03  0.17770000000E+01 0. -1.
        -16    1    3    3    0    0 -0.16377994577E+03 -0.52519730937E+03 -0.14555182658E+03  0.56907066224E+03  0.00000000000E+00 0.  1.
          2    1    6    6  502    0  0.19205859688E+03  0.31206681827E+03 -0.36193423648E+02  0.36821483894E+03  0.00000000000E+00 0. -1.
         -1    1    6    6    0  502  0.33217378097E+01  0.74195431153E+01  0.14172308439E+02  0.16338233950E+02  0.00000000000E+00 0.  1.
<mgrwt>
<rscale>  0 0.88081217E+03</rscale>
<asrwt>0</asrwt>
<pdfrwt beam="1">  1        1 0.24970014E+00 0.88081217E+03</pdfrwt>
<pdfrwt beam="2">  1       -2 0.90276023E-01 0.88081217E+03</pdfrwt>
<totfact> 0.50382623E+00</totfact>
</mgrwt>
</event>
<event>
12    3  0.1092576E-007  0.6863852E+03  0.7818608E-02  0.9740803E-01
         -4   -1    0    0    0  501 -0.00000000000E+00  0.00000000000E+00  0.43624722882E+03  0.43624722882E+03  0.00000000000E+00 0.  1.
          3   -1    0    0  501    0  0.00000000000E+00 -0.00000000000E+00 -0.12289884491E+04  0.12289884491E+04  0.00000000000E+00 0. -1.
        -24    2    1    2    0    0  0.28662693123E+03 -0.48366589958E+03 -0.71972014977E+02  0.57209370901E+03  0.77611473493E+02 0.  0.
    5000000    2    1    2    0    0 -0.28662693123E+03  0.48366589958E+03 -0.72076920527E+03  0.10931419689E+04  0.59946927922E+03 0.  0.
        -24    2    4    4    0    0  0.97510446546E+01  0.50590691380E+03 -0.48983667632E+03  0.70825238687E+03  0.75130458097E+02 0.  0.
         24    2    4    4    0    0 -0.29637797589E+03 -0.22241014219E+02 -0.23093252895E+03  0.38488958201E+03  0.80471051365E+02 0.  0.
         11    1    5    5    0    0 -0.16602432775E+02  0.27629739992E+03 -0.30860847726E+03  0.41455408117E+03  0.00000000000E+00 0. -1.
        -12    1    5    5    0    0  0.26353477430E+02  0.22960951388E+03 -0.18122819906E+03  0.29369830570E+03  0.00000000000E+00 0.  1.
         15    1    3    3    0    0  0.65826298535E+02 -0.81132155068E+02 -0.39931010394E+02  0.11186228804E+03  0.17770000000E+01 0. -1.
        -16    1    3    3    0    0  0.22080063270E+03 -0.40253374452E+03 -0.32041004583E+02  0.46023142097E+03  0.00000000000E+00 0.  1.
          2    1    6    6  502    0 -0.49893566418E+02  0.14698209717E+02 -0.73684216079E+02  0.90192954480E+02  0.00000000000E+00 0. -1.
         -3    1    6    6    0  502 -0.24648440947E+03 -0.36939223935E+02 -0.15724831287E+03  0.29469662753E+03  0.00000000000E+00 0.  1.
<mgrwt>
<rscale>  0 0.68638521E+03</rscale>
<asrwt>0</asrwt>
<pdfrwt beam="1">  1        3 0.18907514E+00 0.68638521E+03</pdfrwt>
<pdfrwt beam="2">  1       -4 0.67114959E-01 0.68638521E+03</pdfrwt>
<totfact> 0.80706047E-01</totfact>
</mgrwt>
</event>
<event>
12    3  0.1092576E-007  0.1085467E+04  0.7818608E-02  0.9219474E-01
         -2   -1    0    0    0  501 -0.00000000000E+00  0.00000000000E+00  0.65766610924E+03  0.65766610924E+03  0.00000000000E+00 0.  1.
          1   -1    0    0  501    0  0.00000000000E+00 -0.00000000000E+00 -0.21240860753E+04  0.21240860753E+04  0.00000000000E+00 0. -1.
        -24    2    1    2    0    0  0.47062369946E+03  0.93345676850E+03 -0.11051717588E+04  0.15234303696E+04  0.81285111703E+02 0.  0.
    5000000    2    1    2    0    0 -0.47062369946E+03 -0.93345676850E+03 -0.36124820729E+03  0.12583218150E+04  0.60003776350E+03 0.  0.
        -24    2    4    4    0    0 -0.53635048994E+03 -0.90152144177E+03 -0.21043964682E+03  0.10726172384E+04  0.76224255892E+02 0.  0.
         24    2    4    4    0    0  0.65726790482E+02 -0.31935326733E+02 -0.15080856048E+03  0.18570457655E+03  0.80019321157E+02 0.  0.
         13    1    5    5    0    0 -0.74750746367E+02 -0.14128307421E+03 -0.56327497322E+01  0.15993845382E+03  0.00000000000E+00 0. -1.
        -14    1    5    5    0    0 -0.46159974358E+03 -0.76023836755E+03 -0.20480689708E+03  0.91267878460E+03  0.00000000000E+00 0.  1.
         15    1    3    3    0    0  0.19902314213E+03  0.42672522942E+03 -0.44300713884E+03  0.64650066923E+03  0.17770000000E+01 0. -1.
        -16    1    3    3    0    0  0.27160055733E+03  0.50673153908E+03 -0.66216461995E+03  0.87692970035E+03  0.00000000000E+00 0.  1.
          2    1    6    6  502    0  0.36108968854E+02 -0.61380352915E+01 -0.78635493979E+01  0.37461560540E+02  0.00000000000E+00 0. -1.
         -1    1    6    6    0  502  0.29617821628E+02 -0.25797291442E+02 -0.14294501108E+03  0.14824301601E+03  0.00000000000E+00 0.  1.
<mgrwt>
<rscale>  0 0.10854670E+04</rscale>
<asrwt>0</asrwt>
<pdfrwt beam="1">  1        1 0.32678247E+00 0.10854670E+04</pdfrwt>
<pdfrwt beam="2">  1       -2 0.10117940E+00 0.10854670E+04</pdfrwt>
<totfact> 0.17241515E+00</totfact>
</mgrwt>
</event>
<event>
12    3  0.1092576E-007  0.7899981E+03  0.7818608E-02  0.9574608E-01
         -2   -1    0    0    0  501 -0.00000000000E+00  0.00000000000E+00  0.50000010446E+03  0.50000010446E+03  0.00000000000E+00 0.  1.
          1   -1    0    0  501    0  0.00000000000E+00 -0.00000000000E+00 -0.17306481230E+04  0.17306481230E+04  0.00000000000E+00 0. -1.
        -24    2    1    2    0    0 -0.65248452476E+03  0.24895366229E+03 -0.10932707856E+04  0.12997611305E+04  0.80149888814E+02 0.  0.
    5000000    2    1    2    0    0  0.65248452476E+03 -0.24895366229E+03 -0.13737723294E+03  0.93088709696E+03  0.59997025105E+03 0.  0.
        -24    2    4    4    0    0  0.45039782046E+03  0.10186974650E+03  0.61370190916E+02  0.47274511738E+03  0.80535729586E+02 0.  0.
         24    2    4    4    0    0  0.20208670430E+03 -0.35082340880E+03 -0.19874742385E+03  0.45814197959E+03  0.80482512126E+02 0.  0.
         11    1    5    5    0    0  0.70707755036E+02  0.36507869695E+02  0.33886949195E+02  0.86491250989E+02  0.00000000000E+00 0. -1.
        -12    1    5    5    0    0  0.37969006543E+03  0.65361876809E+02  0.27483241721E+02  0.38625386639E+03  0.00000000000E+00 0.  1.
         15    1    3    3    0    0 -0.38925840443E+03  0.10810821164E+03 -0.60652356000E+03  0.72875474435E+03  0.17770000000E+01 0. -1.
        -16    1    3    3    0    0 -0.26322612034E+03  0.14084545065E+03 -0.48674722556E+03  0.57100638612E+03  0.00000000000E+00 0.  1.
          4    1    6    6  502    0  0.31103568890E+02 -0.12811032241E+03 -0.57270104227E+02  0.14373430887E+03  0.00000000000E+00 0. -1.
         -3    1    6    6    0  502  0.17098313541E+03 -0.22271308638E+03 -0.14147731963E+03  0.31440767072E+03  0.00000000000E+00 0.  1.
<mgrwt>
<rscale>  0 0.78999807E+03</rscale>
<asrwt>0</asrwt>
<pdfrwt beam="1">  1        1 0.26625356E+00 0.78999807E+03</pdfrwt>
<pdfrwt beam="2">  1       -2 0.76923094E-01 0.78999807E+03</pdfrwt>
<totfact> 0.62056712E+00</totfact>
</mgrwt>
</event>
<event>
12    3  0.1092576E-007  0.5907419E+03  0.7818608E-02  0.9924802E-01
         -2   -1    0    0    0  501 -0.00000000000E+00  0.00000000000E+00  0.26729392812E+03  0.26729392812E+03  0.00000000000E+00 0.  1.
          1   -1    0    0  501    0  0.00000000000E+00 -0.00000000000E+00 -0.14749786126E+04  0.14749786126E+04  0.00000000000E+00 0. -1.
        -24    2    1    2    0    0  0.35441960344E+03  0.31561617516E+03 -0.37091312537E+03  0.60839846019E+03  0.85704810023E+02 0.  0.
    5000000    2    1    2    0    0 -0.35441960344E+03 -0.31561617516E+03 -0.83677155911E+03  0.11338740805E+04  0.60021409769E+03 0.  0.
        -24    2    4    4    0    0  0.99932252894E+02  0.33887000518E+02 -0.36040080538E+03  0.38423624785E+03  0.81326315954E+02 0.  0.
         24    2    4    4    0    0 -0.45435185634E+03 -0.34950317568E+03 -0.47637075372E+03  0.74963783269E+03  0.80247779006E+02 0.  0.
         11    1    5    5    0    0  0.74706847359E+02  0.59392136856E+02 -0.23059344040E+03  0.24956336614E+03  0.00000000000E+00 0. -1.
        -12    1    5    5    0    0  0.25225405535E+02 -0.25505136338E+02 -0.12980736498E+03  0.13467288171E+03  0.00000000000E+00 0.  1.
         15    1    3    3    0    0  0.26000039132E+03  0.20223744829E+03 -0.29632610092E+03  0.44307167003E+03  0.17770000000E+01 0. -1.
        -16    1    3    3    0    0  0.94419212125E+02  0.11337872687E+03 -0.74587024457E+02  0.16532679016E+03  0.00000000000E+00 0.  1.
          2    1    6    6  502    0 -0.22507728369E+03 -0.17204852954E+03 -0.28743624225E+03  0.40358403525E+03  0.00000000000E+00 0. -1.
         -1    1    6    6    0  502 -0.22927457264E+03 -0.17745464614E+03 -0.18893451147E+03  0.34605379744E+03  0.00000000000E+00 0.  1.
<mgrwt>
<rscale>  0 0.59074194E+03</rscale>
<asrwt>0</asrwt>
<pdfrwt beam="1">  1        1 0.22691979E+00 0.59074194E+03</pdfrwt>
<pdfrwt beam="2">  1       -2 0.41122143E-01 0.59074194E+03</pdfrwt>
<totfact> 0.35080574E+01</totfact>
</mgrwt>
</event>
<event>
12    3  0.1092576E-007  0.1216932E+04  0.7818608E-02  0.9098164E-01
          3   -1    0    0  501    0  0.00000000000E+00  0.00000000000E+00  0.70642451194E+03  0.70642451194E+03  0.00000000000E+00 0. -1.
         -4   -1    0    0    0  501 -0.00000000000E+00 -0.00000000000E+00 -0.23155217426E+04  0.23155217426E+04  0.00000000000E+00 0.  1.
        -24    2    1    2    0    0  0.46549134913E+03  0.11125448342E+04 -0.70107080007E+03  0.13973367096E+04  0.81310571579E+02 0.  0.
    5000000    2    1    2    0    0 -0.46549134913E+03 -0.11125448342E+04 -0.90802643061E+03  0.16246095450E+04  0.60033821362E+03 0.  0.
        -24    2    4    4    0    0 -0.41500640410E+03 -0.87134593961E+03 -0.95603656984E+03  0.13607459103E+04  0.78418413909E+02 0.  0.
         24    2    4    4    0    0 -0.50484945039E+02 -0.24119889458E+03  0.48010139224E+02  0.26386363467E+03  0.81199801783E+02 0.  0.
         11    1    5    5    0    0 -0.18311560592E+03 -0.30693524839E+03 -0.32816132904E+03  0.48521173699E+03  0.00000000000E+00 0. -1.
        -12    1    5    5    0    0 -0.23189079817E+03 -0.56441069122E+03 -0.62787524079E+03  0.87553417331E+03  0.00000000000E+00 0.  1.
         15    1    3    3    0    0  0.25195611139E+03  0.52666308936E+03 -0.37171128052E+03  0.69211872215E+03  0.17770000000E+01 0. -1.
        -16    1    3    3    0    0  0.21353523774E+03  0.58588174482E+03 -0.32935951955E+03  0.70521798743E+03  0.00000000000E+00 0.  1.
          2    1    6    6  502    0 -0.50636141833E+02 -0.63797287332E+02  0.67658271637E+01  0.81730588814E+02  0.00000000000E+00 0. -1.
         -1    1    6    6    0  502  0.15119679459E+00 -0.17740160725E+03  0.41244312060E+02  0.18213304585E+03  0.00000000000E+00 0.  1.
<mgrwt>
<rscale>  0 0.12169321E+04</rscale>
<asrwt>0</asrwt>
<pdfrwt beam="1">  1        3 0.10868069E+00 0.12169321E+04</pdfrwt>
<pdfrwt beam="2">  1       -4 0.35623411E+00 0.12169321E+04</pdfrwt>
<totfact> 0.21379936E-02</totfact>
</mgrwt>
</event>
<event>
12    3  0.1092576E-007  0.9235606E+03  0.7818608E-02  0.9396599E-01
          1   -1    0    0  501    0  0.00000000000E+00  0.00000000000E+00  0.14121143641E+04  0.14121143641E+04  0.00000000000E+00 0. -1.
         -2   -1    0    0    0  501 -0.00000000000E+00 -0.00000000000E+00 -0.75626029635E+03  0.75626029635E+03  0.00000000000E+00 0.  1.
        -24    2    1    2    0    0  0.45245565997E+03  0.72036558867E+03 -0.12964933295E+03  0.86433305211E+03  0.81363197183E+02 0.  0.
    5000000    2    1    2    0    0 -0.45245565997E+03 -0.72036558867E+03  0.78550340067E+03  0.13040416083E+04  0.59988850477E+03 0.  0.
        -24    2    4    4    0    0  0.98200494197E+02 -0.23739339487E+03  0.37159661062E+03  0.45876274757E+03  0.79876508076E+02 0.  0.
         24    2    4    4    0    0 -0.55065615417E+03 -0.48297219380E+03  0.41390679005E+03  0.84527886074E+03  0.81811866214E+02 0.  0.
         13    1    5    5    0    0  0.58801365287E+02 -0.95492578046E+02  0.22267997099E+03  0.24932469292E+03  0.00000000000E+00 0. -1.
        -14    1    5    5    0    0  0.39399128910E+02 -0.14190081682E+03  0.14891663963E+03  0.20943805464E+03  0.00000000000E+00 0.  1.
         15    1    3    3    0    0  0.11669356579E+03  0.24677749721E+03 -0.21680983474E+02  0.27384255367E+03  0.17770000000E+01 0. -1.
        -16    1    3    3    0    0  0.33576209418E+03  0.47358809146E+03 -0.10796834948E+03  0.59049049844E+03  0.00000000000E+00 0.  1.
          2    1    6    6  502    0 -0.14804603339E+03 -0.10102637602E+03  0.13361123657E+03  0.22355294494E+03  0.00000000000E+00 0. -1.
         -1    1    6    6    0  502 -0.40261012078E+03 -0.38194581778E+03  0.28029555348E+03  0.62172591580E+03  0.00000000000E+00 0.  1.
<mgrwt>
<rscale>  0 0.92356059E+03</rscale>
<asrwt>0</asrwt>
<pdfrwt beam="1">  1        1 0.21724836E+00 0.92356059E+03</pdfrwt>
<pdfrwt beam="2">  1       -2 0.11634774E+00 0.92356059E+03</pdfrwt>
<totfact> 0.38175949E+00</totfact>
</mgrwt>
</event>
<event>
12    3  0.1092576E-007  0.6175870E+03  0.7818608E-02  0.9869576E-01
          1   -1    0    0  501    0  0.00000000000E+00  0.00000000000E+00  0.24292613001E+04  0.24292613001E+04  0.00000000000E+00 0. -1.
         -2   -1    0    0    0  501 -0.00000000000E+00 -0.00000000000E+00 -0.29385326075E+03  0.29385326075E+03  0.00000000000E+00 0.  1.
        -24    2    1    2    0    0 -0.45711723148E+03  0.20033567573E+03  0.63716601590E+02  0.50934024299E+03  0.79228350561E+02 0.  0.
    5000000    2    1    2    0    0  0.45711723148E+03 -0.20033567573E+03  0.20716914377E+04  0.22137743178E+04  0.59983395272E+03 0.  0.
        -24    2    4    4    0    0  0.28331531865E+03 -0.38033177881E+03  0.10023094038E+04  0.11116604510E+04  0.79025222031E+02 0.  0.
         24    2    4    4    0    0  0.17380191283E+03  0.17999610308E+03  0.10693820340E+04  0.11021138668E+04  0.92039876361E+02 0.  0.
         11    1    5    5    0    0  0.15628567679E+03 -0.26948600737E+03  0.67811838695E+03  0.74625228151E+03  0.00000000000E+00 0. -1.
        -12    1    5    5    0    0  0.12702964186E+03 -0.11084577144E+03  0.32419101682E+03  0.36540816951E+03  0.00000000000E+00 0.  1.
         15    1    3    3    0    0 -0.17850709252E+03  0.49989782269E+02  0.51992041813E+02  0.19253594613E+03  0.17770000000E+01 0. -1.
        -16    1    3    3    0    0 -0.27861013896E+03  0.15034589346E+03  0.11724559776E+02  0.31680429687E+03  0.00000000000E+00 0.  1.
          4    1    6    6  502    0  0.14562036183E+03  0.12770671701E+03  0.94001171589E+03  0.95975847033E+03  0.00000000000E+00 0. -1.
         -3    1    6    6    0  502  0.28181550997E+02  0.52289386071E+02  0.12937031808E+03  0.14235539650E+03  0.00000000000E+00 0.  1.
<mgrwt>
<rscale>  0 0.61758699E+03</rscale>
<asrwt>0</asrwt>
<pdfrwt beam="1">  1        1 0.37373249E+00 0.61758699E+03</pdfrwt>
<pdfrwt beam="2">  1       -2 0.45208196E-01 0.61758699E+03</pdfrwt>
<totfact> 0.66564968E+00</totfact>
</mgrwt>
</event>
<event>
12    3  0.1092576E-007  0.8791082E+03  0.7818608E-02  0.9452081E-01
          1   -1    0    0  501    0  0.00000000000E+00  0.00000000000E+00  0.28946823093E+04  0.28946823093E+04  0.00000000000E+00 0. -1.
         -2   -1    0    0    0  501 -0.00000000000E+00 -0.00000000000E+00 -0.32905899454E+03  0.32905899454E+03  0.00000000000E+00 0.  1.
        -24    2    1    2    0    0 -0.71973080423E+03 -0.42915382984E+03  0.71061483605E+03  0.11016288573E+04  0.80170154921E+02 0.  0.
    5000000    2    1    2    0    0  0.71973080423E+03  0.42915382984E+03  0.18550084787E+04  0.21221124466E+04  0.60009944143E+03 0.  0.
        -24    2    4    4    0    0  0.20340917386E+03 -0.37350989323E+02  0.96233363190E+03  0.98743585862E+03  0.78569506726E+02 0.  0.
         24    2    4    4    0    0  0.51632163036E+03  0.46650481916E+03  0.89267484680E+03  0.11346765879E+04  0.80048765416E+02 0.  0.
         11    1    5    5    0    0  0.16590793534E+03  0.71674297807E+00  0.77909364139E+03  0.79656315430E+03  0.00000000000E+00 0. -1.
        -12    1    5    5    0    0  0.37501238518E+02 -0.38067732301E+02  0.18323999051E+03  0.19087270432E+03  0.00000000000E+00 0.  1.
         15    1    3    3    0    0 -0.31935201327E+03 -0.21974791080E+03  0.28771998812E+03  0.48276371236E+03  0.17770000000E+01 0. -1.
        -16    1    3    3    0    0 -0.40037879095E+03 -0.20940591903E+03  0.42289484794E+03  0.61886514491E+03  0.00000000000E+00 0.  1.
          2    1    6    6  502    0  0.18083923110E+03  0.11972058918E+03  0.24838909608E+03  0.32974685750E+03  0.00000000000E+00 0. -1.
         -1    1    6    6    0  502  0.33548239926E+03  0.34678422998E+03  0.64428575072E+03  0.80492973045E+03  0.00000000000E+00 0.  1.
<mgrwt>
<rscale>  0 0.87910825E+03</rscale>
<asrwt>0</asrwt>
<pdfrwt beam="1">  1        1 0.44533572E+00 0.87910825E+03</pdfrwt>
<pdfrwt beam="2">  1       -2 0.50624463E-01 0.87910825E+03</pdfrwt>
<totfact> 0.24071135E+00</totfact>
</mgrwt>
</event>
<event>
12    3  0.1092576E-007  0.7243145E+03  0.7818608E-02  0.9676531E-01
         -2   -1    0    0    0  501 -0.00000000000E+00  0.00000000000E+00  0.10593622823E+04  0.10593622823E+04  0.00000000000E+00 0.  1.
          1   -1    0    0  501    0  0.00000000000E+00 -0.00000000000E+00 -0.68389725722E+03  0.68389725722E+03  0.00000000000E+00 0. -1.
        -24    2    1    2    0    0  0.59221362644E+03  0.20641223838E+03 -0.24322128491E+03  0.67739132478E+03  0.79871283663E+02 0.  0.
    5000000    2    1    2    0    0 -0.59221362644E+03 -0.20641223838E+03  0.61868630999E+03  0.10658682147E+04  0.59998275768E+03 0.  0.
        -24    2    4    4    0    0 -0.66769108023E+03 -0.14240422303E+03  0.36355977051E+03  0.77745512181E+03  0.78552010423E+02 0.  0.
         24    2    4    4    0    0  0.75477453786E+02 -0.64008015343E+02  0.25512653948E+03  0.28841309292E+03  0.91097140253E+02 0.  0.
         13    1    5    5    0    0 -0.22736751619E+02  0.92713937655E+01  0.10477309637E+02  0.26696303748E+02  0.00000000000E+00 0. -1.
        -14    1    5    5    0    0 -0.64495432861E+03 -0.15167561680E+03  0.35308246087E+03  0.75075881806E+03  0.00000000000E+00 0.  1.
         15    1    3    3    0    0  0.13283631337E+03  0.14890610127E+02 -0.37434383260E+02  0.13882257453E+03  0.17770000000E+01 0. -1.
        -16    1    3    3    0    0  0.45937731307E+03  0.19152162825E+03 -0.20578690165E+03  0.53856875025E+03  0.00000000000E+00 0.  1.
          4    1    6    6  502    0  0.42472284287E+02  0.14579908217E+02  0.12532187348E+03  0.13312415494E+03  0.00000000000E+00 0. -1.
         -3    1    6    6    0  502  0.33005169499E+02 -0.78587923560E+02  0.12980466600E+03  0.15528893798E+03  0.00000000000E+00 0.  1.
<mgrwt>
<rscale>  0 0.72431452E+03</rscale>
<asrwt>0</asrwt>
<pdfrwt beam="1">  1        1 0.10521496E+00 0.72431452E+03</pdfrwt>
<pdfrwt beam="2">  1       -2 0.16297881E+00 0.72431452E+03</pdfrwt>
<totfact> 0.60737957E+00</totfact>
</mgrwt>
</event>
<event>
12    3  0.1092576E-007  0.6066854E+03  0.7818608E-02  0.9891632E-01
          1   -1    0    0  501    0  0.00000000000E+00  0.00000000000E+00  0.12268348478E+04  0.12268348478E+04  0.00000000000E+00 0. -1.
         -2   -1    0    0    0  501 -0.00000000000E+00 -0.00000000000E+00 -0.32681320320E+03  0.32681320320E+03  0.00000000000E+00 0.  1.
        -24    2    1    2    0    0 -0.32376074301E+03  0.35977247793E+03  0.29433194131E+03  0.57299820547E+03  0.86246143142E+02 0.  0.
    5000000    2    1    2    0    0  0.32376074301E+03 -0.35977247793E+03  0.60568970330E+03  0.98064984555E+03  0.60046386094E+03 0.  0.
        -24    2    4    4    0    0  0.40311221142E+03 -0.43555129136E+03  0.35695737420E+03  0.69705296707E+03  0.79119463554E+02 0.  0.
         24    2    4    4    0    0 -0.79351468411E+02  0.75778813432E+02  0.24873232911E+03  0.28359687847E+03  0.80748584089E+02 0.  0.
         13    1    5    5    0    0  0.29740159110E+03 -0.34529100448E+03  0.23810820213E+03  0.51416835772E+03  0.00000000000E+00 0. -1.
        -14    1    5    5    0    0  0.10571062032E+03 -0.90260286877E+02  0.11884917207E+03  0.18288460935E+03  0.00000000000E+00 0.  1.
         15    1    3    3    0    0 -0.56021414730E+02  0.63782354691E+02  0.93153422095E+02  0.12604485493E+03  0.17770000000E+01 0. -1.
        -16    1    3    3    0    0 -0.26773932828E+03  0.29599012324E+03  0.20117851922E+03  0.44695335054E+03  0.00000000000E+00 0.  1.
          4    1    6    6  502    0 -0.75857984921E+02  0.19610113109E+02  0.12287189606E+03  0.14572746225E+03  0.00000000000E+00 0. -1.
         -3    1    6    6    0  502 -0.34934834894E+01  0.56168700323E+02  0.12586043304E+03  0.13786941622E+03  0.00000000000E+00 0.  1.
<mgrwt>
<rscale>  0 0.60668542E+03</rscale>
<asrwt>0</asrwt>
<pdfrwt beam="1">  1        1 0.18874382E+00 0.60668542E+03</pdfrwt>
<pdfrwt beam="2">  1       -2 0.50278955E-01 0.60668542E+03</pdfrwt>
<totfact> 0.34923624E+01</totfact>
</mgrwt>
</event>
<event>
12    3  0.1092576E-007  0.7588065E+03  0.7818608E-02  0.9621635E-01
          1   -1    0    0  501    0  0.00000000000E+00  0.00000000000E+00  0.15310589779E+04  0.15310589779E+04  0.00000000000E+00 0. -1.
         -2   -1    0    0    0  501 -0.00000000000E+00 -0.00000000000E+00 -0.45624230590E+03  0.45624230590E+03  0.00000000000E+00 0.  1.
        -24    2    1    2    0    0  0.66052426284E+03 -0.18455239760E+03  0.75157333071E+03  0.10205881434E+04  0.79911186588E+02 0.  0.
    5000000    2    1    2    0    0 -0.66052426284E+03  0.18455239760E+03  0.32324334127E+03  0.96671314039E+03  0.59974673726E+03 0.  0.
        -24    2    4    4    0    0  0.66003392669E+02  0.62694387081E+01  0.16949413928E+03  0.19980617767E+03  0.82452966484E+02 0.  0.
         24    2    4    4    0    0 -0.72652765551E+03  0.17828295890E+03  0.15374920200E+03  0.76690696271E+03  0.69858604961E+02 0.  0.
         11    1    5    5    0    0  0.52099113652E+02  0.23467442683E+02  0.43311784103E+02  0.71700412492E+02  0.00000000000E+00 0. -1.
        -12    1    5    5    0    0  0.13904279018E+02 -0.17198003975E+02  0.12618235517E+03  0.12810576518E+03  0.00000000000E+00 0.  1.
         15    1    3    3    0    0  0.53052352450E+03 -0.13127448739E+03  0.55451717304E+03  0.77857604254E+03  0.17770000000E+01 0. -1.
        -16    1    3    3    0    0  0.13000073834E+03 -0.53277910214E+02  0.19705615768E+03  0.24201210086E+03  0.00000000000E+00 0.  1.
          2    1    6    6  502    0 -0.17985995303E+03  0.75626319338E+02  0.39246508068E+02  0.19902068052E+03  0.00000000000E+00 0. -1.
         -1    1    6    6    0  502 -0.54666770248E+03  0.10265663956E+03  0.11450269393E+03  0.56788628219E+03  0.00000000000E+00 0.  1.
<mgrwt>
<rscale>  0 0.75880646E+03</rscale>
<asrwt>0</asrwt>
<pdfrwt beam="1">  1        1 0.23554753E+00 0.75880646E+03</pdfrwt>
<pdfrwt beam="2">  1       -2 0.70191125E-01 0.75880646E+03</pdfrwt>
<totfact> 0.10413356E+01</totfact>
</mgrwt>
</event>
<event>
12    3  0.1092576E-007  0.7040310E+03  0.7818608E-02  0.9710363E-01
          1   -1    0    0  501    0  0.00000000000E+00  0.00000000000E+00  0.76816423466E+03  0.76816423466E+03  0.00000000000E+00 0. -1.
         -2   -1    0    0    0  501 -0.00000000000E+00 -0.00000000000E+00 -0.11561729281E+04  0.11561729281E+04  0.00000000000E+00 0.  1.
        -24    2    1    2    0    0 -0.68470075861E+03  0.33748653107E+02  0.32946446853E+03  0.76471134445E+03  0.79262247519E+02 0.  0.
    5000000    2    1    2    0    0  0.68470075861E+03 -0.33748653107E+02 -0.71747316195E+03  0.11596258183E+04  0.60000849988E+03 0.  0.
        -24    2    4    4    0    0  0.50523170696E+03 -0.97890679957E+02 -0.12723203722E+03  0.53416262173E+03  0.65574783473E+02 0.  0.
         24    2    4    4    0    0  0.17946905165E+03  0.64142026850E+02 -0.59024112473E+03  0.62546319657E+03  0.80599533661E+02 0.  0.
         11    1    5    5    0    0  0.22622803500E+03 -0.77045714410E+02 -0.60930177325E+02  0.24663262647E+03  0.00000000000E+00 0. -1.
        -12    1    5    5    0    0  0.27900367196E+03 -0.20844965548E+02 -0.66301859892E+02  0.28752999527E+03  0.00000000000E+00 0.  1.
         15    1    3    3    0    0 -0.81527303871E+02 -0.10919153559E+01  0.12723263283E+02  0.82540491355E+02  0.17770000000E+01 0. -1.
        -16    1    3    3    0    0 -0.60317345473E+03  0.34840568463E+02  0.31674120525E+03  0.68217085309E+03  0.00000000000E+00 0.  1.
          4    1    6    6  502    0  0.14622760892E+03  0.80053704295E+02 -0.52105943422E+03  0.54707773046E+03  0.00000000000E+00 0. -1.
         -3    1    6    6    0  502  0.33241442727E+02 -0.15911677445E+02 -0.69181690513E+02  0.78385466101E+02  0.00000000000E+00 0.  1.
<mgrwt>
<rscale>  0 0.70403099E+03</rscale>
<asrwt>0</asrwt>
<pdfrwt beam="1">  1        1 0.11817911E+00 0.70403099E+03</pdfrwt>
<pdfrwt beam="2">  1       -2 0.17787276E+00 0.70403099E+03</pdfrwt>
<totfact> 0.40006526E+00</totfact>
</mgrwt>
</event>
<event>
12    3  0.1092576E-007  0.6219037E+03  0.7818608E-02  0.9860977E-01
          1   -1    0    0  501    0  0.00000000000E+00  0.00000000000E+00  0.12036444657E+04  0.12036444657E+04  0.00000000000E+00 0. -1.
         -2   -1    0    0    0  501 -0.00000000000E+00 -0.00000000000E+00 -0.41737384697E+03  0.41737384697E+03  0.00000000000E+00 0.  1.
        -24    2    1    2    0    0 -0.43990464071E+03  0.36131844063E+03  0.44290803136E+03  0.72554797813E+03  0.78646270554E+02 0.  0.
    5000000    2    1    2    0    0  0.43990464071E+03 -0.36131844063E+03  0.34336258734E+03  0.89547033451E+03  0.59991844875E+03 0.  0.
        -24    2    4    4    0    0 -0.34299946164E+02 -0.42833663483E+02 -0.12059221941E+03  0.15523282711E+03  0.80892139268E+02 0.  0.
         24    2    4    4    0    0  0.47420458688E+03 -0.31848477714E+03  0.46395480675E+03  0.74023750740E+03  0.79968501129E+02 0.  0.
         11    1    5    5    0    0 -0.44285826430E+02  0.87097463387E+01 -0.52046243363E+02  0.68890533109E+02  0.00000000000E+00 0. -1.
        -12    1    5    5    0    0  0.99858802655E+01 -0.51543409822E+02 -0.68545976048E+02  0.86342294000E+02  0.00000000000E+00 0.  1.
         15    1    3    3    0    0 -0.42796815585E+02  0.44333236593E+02  0.21050457356E+02  0.65140484914E+02  0.17770000000E+01 0. -1.
        -16    1    3    3    0    0 -0.39710782513E+03  0.31698520403E+03  0.42185757401E+03  0.66040749322E+03  0.00000000000E+00 0.  1.
          2    1    6    6  502    0  0.88784827789E+02 -0.25785660318E+02  0.84512451251E+02  0.12525973152E+03  0.00000000000E+00 0. -1.
         -1    1    6    6    0  502  0.38541975909E+03 -0.29269911682E+03  0.37944235550E+03  0.61497777589E+03  0.00000000000E+00 0.  1.
<mgrwt>
<rscale>  0 0.62190372E+03</rscale>
<asrwt>0</asrwt>
<pdfrwt beam="1">  1        1 0.18517607E+00 0.62190372E+03</pdfrwt>
<pdfrwt beam="2">  1       -2 0.64211362E-01 0.62190372E+03</pdfrwt>
<totfact> 0.21758214E+01</totfact>
</mgrwt>
</event>
<event>
12    3  0.1092576E-007  0.2061297E+04  0.7818608E-02  0.8578487E-01
         -2   -1    0    0    0  501 -0.00000000000E+00  0.00000000000E+00  0.20339698327E+04  0.20339698327E+04  0.00000000000E+00 0.  1.
          1   -1    0    0  501    0  0.00000000000E+00 -0.00000000000E+00 -0.22935152004E+04  0.22935152004E+04  0.00000000000E+00 0. -1.
        -24    2    1    2    0    0  0.48002121589E+02  0.20523661358E+04  0.39210035297E+03  0.20915777359E+04  0.80273155543E+02 0.  0.
    5000000    2    1    2    0    0 -0.48002121589E+02 -0.20523661358E+04 -0.65164572068E+03  0.22359072972E+04  0.60010693819E+03 0.  0.
        -24    2    4    4    0    0 -0.89594017554E+02 -0.18943189218E+04 -0.42354211690E+03  0.19447819776E+04  0.79484277002E+02 0.  0.
         24    2    4    4    0    0  0.41591895965E+02 -0.15804721398E+03 -0.22810360378E+03  0.29112531953E+03  0.77549274370E+02 0.  0.
         11    1    5    5    0    0 -0.31011553257E+02 -0.17652371197E+03 -0.34770234850E+02  0.18256863519E+03  0.00000000000E+00 0. -1.
        -12    1    5    5    0    0 -0.58582464297E+02 -0.17177952098E+04 -0.38877188205E+03  0.17622133424E+04  0.00000000000E+00 0.  1.
         15    1    3    3    0    0  0.51721535276E+02  0.12054049342E+04  0.19803723759E+03  0.12226602462E+04  0.17770000000E+01 0. -1.
        -16    1    3    3    0    0 -0.37194136871E+01  0.84696120162E+03  0.19406311539E+03  0.86891748966E+03  0.00000000000E+00 0.  1.
          2    1    6    6  502    0 -0.78363855086E+01 -0.67280105146E+02 -0.13916273912E+03  0.15477173335E+03  0.00000000000E+00 0. -1.
         -1    1    6    6    0  502  0.49428281474E+02 -0.90767108837E+02 -0.88940864663E+02  0.13635358618E+03  0.00000000000E+00 0.  1.
<mgrwt>
<rscale>  0 0.20612967E+04</rscale>
<asrwt>0</asrwt>
<pdfrwt beam="1">  1        1 0.35284849E+00 0.20612967E+04</pdfrwt>
<pdfrwt beam="2">  1       -2 0.31291844E+00 0.20612967E+04</pdfrwt>
<totfact> 0.38517468E-02</totfact>
</mgrwt>
</event>
<event>
12    3  0.1092576E-007  0.6492383E+03  0.7818608E-02  0.9808210E-01
         -2   -1    0    0    0  501 -0.00000000000E+00  0.00000000000E+00  0.25063464573E+03  0.25063464573E+03  0.00000000000E+00 0.  1.
          1   -1    0    0  501    0  0.00000000000E+00 -0.00000000000E+00 -0.21437036050E+04  0.21437036050E+04  0.00000000000E+00 0. -1.
        -24    2    1    2    0    0 -0.47808672897E+03  0.26053092381E+03 -0.35142602428E+03  0.65283075386E+03  0.79021895421E+02 0.  0.
    5000000    2    1    2    0    0  0.47808672897E+03 -0.26053092381E+03 -0.15416429350E+04  0.17415074969E+04  0.59978507817E+03 0.  0.
        -24    2    4    4    0    0  0.50507708864E+02 -0.30492637705E+03 -0.35770941887E+03  0.47973023832E+03  0.81571742267E+02 0.  0.
         24    2    4    4    0    0  0.42757902011E+03  0.44395453236E+02 -0.11839335162E+04  0.12617772586E+04  0.74756303490E+02 0.  0.
         13    1    5    5    0    0  0.60329545758E+02 -0.14098756329E+03 -0.20009811248E+03  0.25210395021E+03  0.00000000000E+00 0. -1.
        -14    1    5    5    0    0 -0.98218368938E+01 -0.16393881376E+03 -0.15761130639E+03  0.22762628811E+03  0.00000000000E+00 0.  1.
         15    1    3    3    0    0 -0.22603369938E+03  0.12904285832E+03 -0.21453706933E+03  0.33730194838E+03  0.17770000000E+01 0. -1.
        -16    1    3    3    0    0 -0.25205302960E+03  0.13148806549E+03 -0.13688895495E+03  0.31552880547E+03  0.00000000000E+00 0.  1.
          2    1    6    6  502    0  0.28113689780E+03 -0.67117122961E+01 -0.76680052555E+03  0.81674111466E+03  0.00000000000E+00 0. -1.
         -1    1    6    6    0  502  0.14644212231E+03  0.51107165532E+02 -0.41713299061E+03  0.44503614394E+03  0.00000000000E+00 0.  1.
<mgrwt>
<rscale>  0 0.64923827E+03</rscale>
<asrwt>0</asrwt>
<pdfrwt beam="1">  1        1 0.32980054E+00 0.64923827E+03</pdfrwt>
<pdfrwt beam="2">  1       -2 0.38559178E-01 0.64923827E+03</pdfrwt>
<totfact> 0.14057949E+01</totfact>
</mgrwt>
</event>
<event>
12    3  0.1092576E-007  0.4008916E+03  0.7818608E-02  0.1043471E+00
         -2   -1    0    0    0  501 -0.00000000000E+00  0.00000000000E+00  0.34481829083E+03  0.34481829083E+03  0.00000000000E+00 0.  1.
          1   -1    0    0  501    0  0.00000000000E+00 -0.00000000000E+00 -0.95916787259E+03  0.95916787259E+03  0.00000000000E+00 0. -1.
        -24    2    1    2    0    0 -0.28511419092E+03  0.16603504339E+03  0.58503931714E+02  0.34403795517E+03  0.77985043886E+02 0.  0.
    5000000    2    1    2    0    0  0.28511419092E+03 -0.16603504339E+03 -0.67285351347E+03  0.95994820825E+03  0.59992580743E+03 0.  0.
        -24    2    4    4    0    0  0.35091341243E+03 -0.80290697504E+02 -0.11443562189E+03  0.38608469534E+03  0.79869025824E+02 0.  0.
         24    2    4    4    0    0 -0.65799221507E+02 -0.85744345884E+02 -0.55841789158E+03  0.57386351291E+03  0.76204720415E+02 0.  0.
         11    1    5    5    0    0  0.12622330690E+03 -0.47936285332E+02 -0.77066053221E+01  0.13523905657E+03  0.00000000000E+00 0. -1.
        -12    1    5    5    0    0  0.22469010553E+03 -0.32354412172E+02 -0.10672901657E+03  0.25084563876E+03  0.00000000000E+00 0.  1.
         15    1    3    3    0    0 -0.22156103483E+03  0.13898606471E+03  0.14112212155E+02  0.26193268334E+03  0.17770000000E+01 0. -1.
        -16    1    3    3    0    0 -0.63553156090E+02  0.27048978681E+02  0.44391719559E+02  0.82105271829E+02  0.00000000000E+00 0.  1.
          2    1    6    6  502    0 -0.14226084143E+02 -0.29939999490E+02 -0.35788597264E+03  0.35941779929E+03  0.00000000000E+00 0. -1.
         -1    1    6    6    0  502 -0.51573137364E+02 -0.55804346394E+02 -0.20053191894E+03  0.21444571362E+03  0.00000000000E+00 0.  1.
<mgrwt>
<rscale>  0 0.40089162E+03</rscale>
<asrwt>0</asrwt>
<pdfrwt beam="1">  1        1 0.14756429E+00 0.40089162E+03</pdfrwt>
<pdfrwt beam="2">  1       -2 0.53048969E-01 0.40089162E+03</pdfrwt>
<totfact> 0.50903559E+01</totfact>
</mgrwt>
</event>
<event>
12    3  0.1092576E-007  0.6678349E+03  0.7818608E-02  0.9773877E-01
          1   -1    0    0  501    0  0.00000000000E+00  0.00000000000E+00  0.19725839127E+04  0.19725839127E+04  0.00000000000E+00 0. -1.
         -2   -1    0    0    0  501 -0.00000000000E+00 -0.00000000000E+00 -0.30197836832E+03  0.30197836832E+03  0.00000000000E+00 0.  1.
        -24    2    1    2    0    0 -0.21324087241E+03 -0.61516018799E+03  0.77225455371E+03  0.10131995554E+04  0.79388392153E+02 0.  0.
    5000000    2    1    2    0    0  0.21324087241E+03  0.61516018799E+03  0.89835099066E+03  0.12613627256E+04  0.60008974040E+03 0.  0.
        -24    2    4    4    0    0  0.15980421084E+03  0.26612880598E+03  0.32915059971E+02  0.32330585975E+03  0.84150761154E+02 0.  0.
         24    2    4    4    0    0  0.53436661572E+02  0.34903138202E+03  0.86543593069E+03  0.93805686585E+03  0.79328122336E+02 0.  0.
         13    1    5    5    0    0  0.16030136742E+02  0.90061638730E+02 -0.98513841886E+01  0.92006053199E+02  0.00000000000E+00 0. -1.
        -14    1    5    5    0    0  0.14377407409E+03  0.17606716725E+03  0.42766444159E+02  0.23129980655E+03  0.00000000000E+00 0.  1.
         15    1    3    3    0    0 -0.10426216625E+03 -0.40698965309E+03  0.47121171157E+03  0.63131197667E+03  0.17770000000E+01 0. -1.
        -16    1    3    3    0    0 -0.10897870616E+03 -0.20817053490E+03  0.30104284214E+03  0.38188757875E+03  0.00000000000E+00 0.  1.
          4    1    6    6  502    0 -0.18335503689E+01  0.23546672928E+03  0.55142947709E+03  0.59960187684E+03  0.00000000000E+00 0. -1.
         -3    1    6    6    0  502  0.55270211941E+02  0.11356465273E+03  0.31400645361E+03  0.33845498901E+03  0.00000000000E+00 0.  1.
<mgrwt>
<rscale>  0 0.66783495E+03</rscale>
<asrwt>0</asrwt>
<pdfrwt beam="1">  1        1 0.30347444E+00 0.66783495E+03</pdfrwt>
<pdfrwt beam="2">  1       -2 0.46458212E-01 0.66783495E+03</pdfrwt>
<totfact> 0.12632116E+01</totfact>
</mgrwt>
</event>
<event>
12    3  0.1092576E-007  0.1152730E+04  0.7818608E-02  0.9155269E-01
         -2   -1    0    0    0  501 -0.00000000000E+00  0.00000000000E+00  0.42806145926E+03  0.42806145926E+03  0.00000000000E+00 0.  1.
          1   -1    0    0  501    0  0.00000000000E+00 -0.00000000000E+00 -0.32059333649E+04  0.32059333649E+04  0.00000000000E+00 0. -1.
        -24    2    1    2    0    0  0.10124798173E+04  0.37809468733E+03 -0.10454696581E+04  0.15057923669E+04  0.79579351721E+02 0.  0.
    5000000    2    1    2    0    0 -0.10124798173E+04 -0.37809468733E+03 -0.17324022475E+04  0.21282024573E+04  0.59996431472E+03 0.  0.
        -24    2    4    4    0    0 -0.32065911433E+03 -0.41437381238E+03 -0.63178536750E+03  0.82459626912E+03  0.79235929118E+02 0.  0.
         24    2    4    4    0    0 -0.69182070293E+03  0.36279125048E+02 -0.11006168800E+04  0.13036061882E+04  0.89997318105E+02 0.  0.
         13    1    5    5    0    0 -0.33266058880E+02 -0.54973662471E+02 -0.12161926903E+03  0.13754992126E+03  0.00000000000E+00 0. -1.
        -14    1    5    5    0    0 -0.28739305545E+03 -0.35940014991E+03 -0.51016609847E+03  0.68704634786E+03  0.00000000000E+00 0.  1.
         15    1    3    3    0    0  0.53058207480E+03  0.23550157444E+03 -0.53437973189E+03  0.78901405897E+03  0.17770000000E+01 0. -1.
        -16    1    3    3    0    0  0.48189774246E+03  0.14259311290E+03 -0.51108992624E+03  0.71677830794E+03  0.00000000000E+00 0.  1.
          2    1    6    6  502    0 -0.35599569554E+03 -0.23913020251E+02 -0.59000554561E+03  0.68950076986E+03  0.00000000000E+00 0. -1.
         -1    1    6    6    0  502 -0.33582500739E+03  0.60192145299E+02 -0.51061133444E+03  0.61410541831E+03  0.00000000000E+00 0.  1.
<mgrwt>
<rscale>  0 0.11527300E+04</rscale>
<asrwt>0</asrwt>
<pdfrwt beam="1">  1        1 0.49322053E+00 0.11527300E+04</pdfrwt>
<pdfrwt beam="2">  1       -2 0.65855608E-01 0.11527300E+04</pdfrwt>
<totfact> 0.78933356E-01</totfact>
</mgrwt>
</event>
<event>
12    3  0.1092576E-007  0.7618839E+03  0.7818608E-02  0.9616889E-01
         -2   -1    0    0    0  501 -0.00000000000E+00  0.00000000000E+00  0.24401437517E+03  0.24401437517E+03  0.00000000000E+00 0.  1.
          1   -1    0    0  501    0  0.00000000000E+00 -0.00000000000E+00 -0.24782528459E+04  0.24782528459E+04  0.00000000000E+00 0. -1.
        -24    2    1    2    0    0  0.64662831722E+03  0.12694991790E+03 -0.93612917882E+03  0.11476843206E+04  0.81221905846E+02 0.  0.
    5000000    2    1    2    0    0 -0.64662831722E+03 -0.12694991790E+03 -0.12981092919E+04  0.15745829005E+04  0.59998259515E+03 0.  0.
        -24    2    4    4    0    0 -0.43989513384E+03 -0.34273052598E+03 -0.98100140508E+03  0.11310842280E+04  0.77561794027E+02 0.  0.
         24    2    4    4    0    0 -0.20673318338E+03  0.21578060808E+03 -0.31710788683E+03  0.44349867247E+03  0.82666684099E+02 0.  0.
         11    1    5    5    0    0 -0.15126502886E+03 -0.12654106518E+03 -0.42272644938E+03  0.46646693466E+03  0.00000000000E+00 0. -1.
        -12    1    5    5    0    0 -0.28863010498E+03 -0.21618946080E+03 -0.55827495571E+03  0.66461729336E+03  0.00000000000E+00 0.  1.
         15    1    3    3    0    0  0.28928935649E+03  0.92162207353E+02 -0.46498800764E+03  0.55533702309E+03  0.17770000000E+01 0. -1.
        -16    1    3    3    0    0  0.35733896073E+03  0.34787710550E+02 -0.47114117118E+03  0.59234729749E+03  0.00000000000E+00 0.  1.
          2    1    6    6  502    0 -0.15665704398E+03  0.12831383991E+03 -0.25296094590E+03  0.32402949108E+03  0.00000000000E+00 0. -1.
         -1    1    6    6    0  502 -0.50076139402E+02  0.87466768163E+02 -0.64146940929E+02  0.11946918138E+03  0.00000000000E+00 0.  1.
<mgrwt>
<rscale>  0 0.76188389E+03</rscale>
<asrwt>0</asrwt>
<pdfrwt beam="1">  1        1 0.38126967E+00 0.76188389E+03</pdfrwt>
<pdfrwt beam="2">  1       -2 0.37540673E-01 0.76188389E+03</pdfrwt>
<totfact> 0.86487951E+00</totfact>
</mgrwt>
</event>
<event>
12    3  0.1092576E-007  0.5164626E+03  0.7818608E-02  0.1009569E+00
          1   -1    0    0  501    0  0.00000000000E+00  0.00000000000E+00  0.15508292239E+04  0.15508292239E+04  0.00000000000E+00 0. -1.
         -2   -1    0    0    0  501 -0.00000000000E+00 -0.00000000000E+00 -0.24554794453E+03  0.24554794453E+03  0.00000000000E+00 0.  1.
        -24    2    1    2    0    0  0.25686432570E+03  0.38072672186E+03  0.38592018822E+03  0.60598692073E+03  0.85753354833E+02 0.  0.
    5000000    2    1    2    0    0 -0.25686432570E+03 -0.38072672186E+03  0.91936109115E+03  0.11903902477E+04  0.60072623329E+03 0.  0.
        -24    2    4    4    0    0  0.64805836873E+02 -0.12401733395E+03  0.69977673378E+03  0.71803709093E+03  0.79433564677E+02 0.  0.
         24    2    4    4    0    0 -0.32167016257E+03 -0.25670938790E+03  0.21958435736E+03  0.47235315677E+03  0.74355977477E+02 0.  0.
         11    1    5    5    0    0  0.19545612949E+02 -0.10935629595E+03  0.54090752505E+03  0.55219723026E+03  0.00000000000E+00 0. -1.
        -12    1    5    5    0    0  0.45260223923E+02 -0.14661038002E+02  0.15886920874E+03  0.16583986068E+03  0.00000000000E+00 0.  1.
         15    1    3    3    0    0  0.16591527362E+03  0.27825251510E+03  0.22395319044E+03  0.39384074119E+03  0.17770000000E+01 0. -1.
        -16    1    3    3    0    0  0.90949052082E+02  0.10247420675E+03  0.16196699778E+03  0.21214617954E+03  0.00000000000E+00 0.  1.
          4    1    6    6  502    0 -0.31585048454E+03 -0.25735591301E+03  0.22407261827E+03  0.46497541097E+03  0.00000000000E+00 0. -1.
         -3    1    6    6    0  502 -0.58196780340E+01  0.64652511024E+00 -0.44882609096E+01  0.73777458028E+01  0.00000000000E+00 0.  1.
<mgrwt>
<rscale>  0 0.51646264E+03</rscale>
<asrwt>0</asrwt>
<pdfrwt beam="1">  1        1 0.23858911E+00 0.51646264E+03</pdfrwt>
<pdfrwt beam="2">  1       -2 0.37776608E-01 0.51646264E+03</pdfrwt>
<totfact> 0.37140037E+01</totfact>
</mgrwt>
</event>
<event>
12    3  0.1092576E-007  0.1007919E+04  0.7818608E-02  0.9299902E-01
          3   -1    0    0  501    0  0.00000000000E+00  0.00000000000E+00  0.45244195097E+03  0.45244195097E+03  0.00000000000E+00 0. -1.
         -2   -1    0    0    0  501 -0.00000000000E+00 -0.00000000000E+00 -0.23733674572E+04  0.23733674572E+04  0.00000000000E+00 0.  1.
        -24    2    1    2    0    0 -0.27178797828E+03 -0.88433357441E+03 -0.60184272196E+03  0.11065683911E+04  0.79776977993E+02 0.  0.
    5000000    2    1    2    0    0  0.27178797828E+03  0.88433357441E+03 -0.13190827843E+04  0.17192410171E+04  0.59991308297E+03 0.  0.
        -24    2    4    4    0    0 -0.15869485729E+03  0.43552492994E+03 -0.65274761160E+03  0.80468029663E+03  0.81024150827E+02 0.  0.
         24    2    4    4    0    0  0.43048283557E+03  0.44880864447E+03 -0.66633517272E+03  0.91456072049E+03  0.75326476003E+02 0.  0.
         13    1    5    5    0    0 -0.15401637220E+03  0.41757228934E+03 -0.58874816301E+03  0.73804610911E+03  0.00000000000E+00 0. -1.
        -14    1    5    5    0    0 -0.46784850841E+01  0.17952640604E+02 -0.63999448586E+02  0.66634187521E+02  0.00000000000E+00 0.  1.
         15    1    3    3    0    0 -0.18648065652E+03 -0.50828135239E+03 -0.31962418705E+03  0.62871913214E+03  0.17770000000E+01 0. -1.
        -16    1    3    3    0    0 -0.85307321762E+02 -0.37605222202E+03 -0.28221853491E+03  0.47784925895E+03  0.00000000000E+00 0.  1.
          4    1    6    6  502    0  0.19940891107E+03  0.25426315585E+03 -0.31563598228E+03  0.45170758191E+03  0.00000000000E+00 0. -1.
         -3    1    6    6    0  502  0.23107392450E+03  0.19454548862E+03 -0.35069919044E+03  0.46285313858E+03  0.00000000000E+00 0.  1.
<mgrwt>
<rscale>  0 0.10079192E+04</rscale>
<asrwt>0</asrwt>
<pdfrwt beam="1">  1        3 0.69606456E-01 0.10079192E+04</pdfrwt>
<pdfrwt beam="2">  1       -2 0.36513345E+00 0.10079192E+04</pdfrwt>
<totfact> 0.10424067E-01</totfact>
</mgrwt>
</event>
<event>
12    3  0.1092576E-007  0.7566371E+03  0.7818608E-02  0.9624995E-01
          1   -1    0    0  501    0  0.00000000000E+00  0.00000000000E+00  0.30872555088E+04  0.30872555088E+04  0.00000000000E+00 0. -1.
         -2   -1    0    0    0  501 -0.00000000000E+00 -0.00000000000E+00 -0.28370159489E+03  0.28370159489E+03  0.00000000000E+00 0.  1.
        -24    2    1    2    0    0  0.38320146489E+03 -0.51404498911E+03  0.28947674014E+03  0.70793875410E+03  0.79340298413E+02 0.  0.
    5000000    2    1    2    0    0 -0.38320146489E+03  0.51404498911E+03  0.25140771738E+04  0.26630183496E+04  0.59999756752E+03 0.  0.
        -24    2    4    4    0    0  0.10360577623E+03  0.31381177531E+03  0.11347280571E+04  0.11844627151E+04  0.78308191577E+02 0.  0.
         24    2    4    4    0    0 -0.48680724112E+03  0.20023321380E+03  0.13793491167E+04  0.14785556345E+04  0.80300364212E+02 0.  0.
         11    1    5    5    0    0  0.68753539590E+00  0.12043935016E+03  0.41820152986E+03  0.43519952820E+03  0.00000000000E+00 0. -1.
        -12    1    5    5    0    0  0.10291824083E+03  0.19337242515E+03  0.71652652720E+03  0.74926318693E+03  0.00000000000E+00 0.  1.
         15    1    3    3    0    0  0.28546460242E+03 -0.39841621740E+03  0.18451561666E+03  0.52371241349E+03  0.17770000000E+01 0. -1.
        -16    1    3    3    0    0  0.97736862476E+02 -0.11562877171E+03  0.10496112348E+03  0.18422634061E+03  0.00000000000E+00 0.  1.
          2    1    6    6  502    0 -0.11348267596E+03  0.84186068292E+02  0.38538223641E+03  0.41046934109E+03  0.00000000000E+00 0. -1.
         -1    1    6    6    0  502 -0.37332456516E+03  0.11604714551E+03  0.99396688033E+03  0.10680862934E+04  0.00000000000E+00 0.  1.
<mgrwt>
<rscale>  0 0.75663714E+03</rscale>
<asrwt>0</asrwt>
<pdfrwt beam="1">  1        1 0.47496236E+00 0.75663714E+03</pdfrwt>
<pdfrwt beam="2">  1       -2 0.43646401E-01 0.75663714E+03</pdfrwt>
<totfact> 0.24120125E+00</totfact>
</mgrwt>
</event>
<event>
12    3  0.1092576E-007  0.3402217E+03  0.7818608E-02  0.1066702E+00
          1   -1    0    0  501    0  0.00000000000E+00  0.00000000000E+00  0.49779200830E+03  0.49779200830E+03  0.00000000000E+00 0. -1.
         -2   -1    0    0    0  501 -0.00000000000E+00 -0.00000000000E+00 -0.61808674537E+03  0.61808674537E+03  0.00000000000E+00 0.  1.
        -24    2    1    2    0    0 -0.18435215229E+03  0.24122211734E+03 -0.28452797445E+03  0.42375634748E+03  0.80246170234E+02 0.  0.
    5000000    2    1    2    0    0  0.18435215229E+03 -0.24122211734E+03  0.16423323737E+03  0.69212240619E+03  0.59990586173E+03 0.  0.
        -24    2    4    4    0    0  0.25627176633E+02 -0.15596797517E+02  0.34368880336E+03  0.35384256755E+03  0.78629236154E+02 0.  0.
         24    2    4    4    0    0  0.15872497566E+03 -0.22562531982E+03 -0.17945556599E+03  0.33827983864E+03  0.78285031940E+02 0.  0.
         13    1    5    5    0    0 -0.79210479424E+01 -0.40564774668E+02  0.19815105527E+03  0.20241562353E+03  0.00000000000E+00 0. -1.
        -14    1    5    5    0    0  0.33548224575E+02  0.24967977151E+02  0.14553774809E+03  0.15142694402E+03  0.00000000000E+00 0.  1.
         15    1    3    3    0    0 -0.68127383621E+02  0.15431807754E+03 -0.14523999790E+03  0.22260553491E+03  0.17770000000E+01 0. -1.
        -16    1    3    3    0    0 -0.11622476867E+03  0.86904039803E+02 -0.13928797654E+03  0.20115081257E+03  0.00000000000E+00 0.  1.
          2    1    6    6  502    0  0.24663133164E+01 -0.43217095040E+02 -0.47372735372E+02  0.64171458310E+02  0.00000000000E+00 0. -1.
         -1    1    6    6    0  502  0.15625866234E+03 -0.18240822478E+03 -0.13208283062E+03  0.27410838033E+03  0.00000000000E+00 0.  1.
<mgrwt>
<rscale>  0 0.34022174E+03</rscale>
<asrwt>0</asrwt>
<pdfrwt beam="1">  1        1 0.76583385E-01 0.34022174E+03</pdfrwt>
<pdfrwt beam="2">  1       -2 0.95090269E-01 0.34022174E+03</pdfrwt>
<totfact> 0.38533936E+01</totfact>
</mgrwt>
</event>
<event>
12    3  0.1092576E-007  0.8297970E+03  0.7818608E-02  0.9517861E-01
          1   -1    0    0  501    0  0.00000000000E+00  0.00000000000E+00  0.16408068892E+04  0.16408068892E+04  0.00000000000E+00 0. -1.
         -2   -1    0    0    0  501 -0.00000000000E+00 -0.00000000000E+00 -0.75618470626E+03  0.75618470626E+03  0.00000000000E+00 0.  1.
        -24    2    1    2    0    0  0.60357404667E+03  0.52947393341E+03 -0.28600182009E+03  0.85599041570E+03  0.79235564679E+02 0.  0.
    5000000    2    1    2    0    0 -0.60357404667E+03 -0.52947393341E+03  0.11706240030E+04  0.15410011797E+04  0.59973311027E+03 0.  0.
        -24    2    4    4    0    0 -0.48805109632E+03 -0.27287609103E+03  0.11046751197E+04  0.12409289145E+04  0.83319969056E+02 0.  0.
         24    2    4    4    0    0 -0.11552295034E+03 -0.25659784237E+03  0.65948883338E+02  0.30007226519E+03  0.80660426223E+02 0.  0.
         11    1    5    5    0    0 -0.36116821965E+03 -0.22163850898E+03  0.89938932940E+03  0.99421691666E+03  0.00000000000E+00 0. -1.
        -12    1    5    5    0    0 -0.12688287668E+03 -0.51237582049E+02  0.20528579027E+03  0.24671199788E+03  0.00000000000E+00 0.  1.
         15    1    3    3    0    0  0.45024123521E+03  0.34694155633E+03 -0.20185985085E+03  0.60318833751E+03  0.17770000000E+01 0. -1.
        -16    1    3    3    0    0  0.15333281145E+03  0.18253237708E+03 -0.84141969240E+02  0.25280207819E+03  0.00000000000E+00 0.  1.
          4    1    6    6  502    0 -0.47338083195E+02 -0.19384014454E+03  0.36596948483E+02  0.20286505957E+03  0.00000000000E+00 0. -1.
         -3    1    6    6    0  502 -0.68184867148E+02 -0.62757697830E+02  0.29351934855E+02  0.97207205621E+02  0.00000000000E+00 0.  1.
<mgrwt>
<rscale>  0 0.82979702E+03</rscale>
<asrwt>0</asrwt>
<pdfrwt beam="1">  1        1 0.25243183E+00 0.82979702E+03</pdfrwt>
<pdfrwt beam="2">  1       -2 0.11633611E+00 0.82979702E+03</pdfrwt>
<totfact> 0.26940935E+00</totfact>
</mgrwt>
</event>
<event>
12    3  0.1092576E-007  0.4438821E+03  0.7818608E-02  0.1029562E+00
         -2   -1    0    0    0  501 -0.00000000000E+00  0.00000000000E+00  0.10940531927E+04  0.10940531927E+04  0.00000000000E+00 0.  1.
          1   -1    0    0  501    0  0.00000000000E+00 -0.00000000000E+00 -0.87739119669E+03  0.87739119669E+03  0.00000000000E+00 0. -1.
        -24    2    1    2    0    0 -0.18556798990E+03 -0.22873930810E+03 -0.74215941768E+03  0.80249757088E+03  0.80278266536E+02 0.  0.
    5000000    2    1    2    0    0  0.18556798990E+03  0.22873930810E+03  0.95882141367E+03  0.11689468185E+04  0.60028410873E+03 0.  0.
        -24    2    4    4    0    0  0.22754213142E+03 -0.97475699120E+02  0.17052664156E+03  0.31102353607E+03  0.79870964781E+02 0.  0.
         24    2    4    4    0    0 -0.41974141527E+02  0.32621500722E+03  0.78829477210E+03  0.85792328241E+03  0.80284813572E+02 0.  0.
         13    1    5    5    0    0  0.14686872545E+03 -0.31613221088E+02  0.68086375814E+02  0.16494111930E+03  0.00000000000E+00 0. -1.
        -14    1    5    5    0    0  0.80673405973E+02 -0.65862478032E+02  0.10244026575E+03  0.14608241677E+03  0.00000000000E+00 0.  1.
         15    1    3    3    0    0 -0.45421412756E+02 -0.11028491437E+03 -0.24353321991E+03  0.27117790103E+03  0.17770000000E+01 0. -1.
        -16    1    3    3    0    0 -0.14014657714E+03 -0.11845439373E+03 -0.49862619777E+03  0.53131966986E+03  0.00000000000E+00 0.  1.
          4    1    6    6  502    0 -0.36652844924E+02  0.15391826905E+03  0.28566336641E+03  0.32655447248E+03  0.00000000000E+00 0. -1.
         -3    1    6    6    0  502 -0.53212966029E+01  0.17229673817E+03  0.50263140569E+03  0.53136880994E+03  0.00000000000E+00 0.  1.
<mgrwt>
<rscale>  0 0.44388213E+03</rscale>
<asrwt>0</asrwt>
<pdfrwt beam="1">  1        1 0.13498326E+00 0.44388213E+03</pdfrwt>
<pdfrwt beam="2">  1       -2 0.16831588E+00 0.44388213E+03</pdfrwt>
<totfact> 0.39529989E+00</totfact>
</mgrwt>
</event>
<event>
12    3  0.1092576E-007  0.4592202E+03  0.7818608E-02  0.1025008E+00
          1   -1    0    0  501    0  0.00000000000E+00  0.00000000000E+00  0.29634211649E+04  0.29634211649E+04  0.00000000000E+00 0. -1.
         -2   -1    0    0    0  501 -0.00000000000E+00 -0.00000000000E+00 -0.18969665033E+03  0.18969665033E+03  0.00000000000E+00 0.  1.
        -24    2    1    2    0    0  0.25726671810E+03 -0.71674066368E+02 -0.23541120746E+02  0.27972849887E+03  0.79815491504E+02 0.  0.
    5000000    2    1    2    0    0 -0.25726671810E+03  0.71674066368E+02  0.27972656353E+04  0.28733893164E+04  0.60028975733E+03 0.  0.
        -24    2    4    4    0    0 -0.41268433868E+03  0.16315020336E+03  0.17132429421E+04  0.17716553921E+04  0.81456107106E+02 0.  0.
         24    2    4    4    0    0  0.15541762058E+03 -0.91476136996E+02  0.10840226932E+04  0.11017339243E+04  0.78676044967E+02 0.  0.
         11    1    5    5    0    0 -0.27245474582E+03  0.69294094590E+02  0.10040845944E+04  0.10426980065E+04  0.00000000000E+00 0. -1.
        -12    1    5    5    0    0 -0.14022959286E+03  0.93856108773E+02  0.70915834776E+03  0.72895738563E+03  0.00000000000E+00 0.  1.
         15    1    3    3    0    0  0.36951350601E+02  0.17522465379E+02 -0.63183064943E+01  0.41418810101E+02  0.17770000000E+01 0. -1.
        -16    1    3    3    0    0  0.22031536750E+03 -0.89196531747E+02 -0.17222814252E+02  0.23830968877E+03  0.00000000000E+00 0.  1.
          2    1    6    6  502    0  0.66025847650E+02 -0.73442316339E+02  0.41862652213E+03  0.43011783434E+03  0.00000000000E+00 0. -1.
         -1    1    6    6    0  502  0.89391772928E+02 -0.18033820657E+02  0.66539617108E+03  0.67161608992E+03  0.00000000000E+00 0.  1.
<mgrwt>
<rscale>  0 0.45922020E+03</rscale>
<asrwt>0</asrwt>
<pdfrwt beam="1">  1        1 0.45591091E+00 0.45922020E+03</pdfrwt>
<pdfrwt beam="2">  1       -2 0.29184102E-01 0.45922020E+03</pdfrwt>
<totfact> 0.68279795E+00</totfact>
</mgrwt>
</event>
<event>
12    3  0.1092576E-007  0.1297374E+04  0.7818608E-02  0.9031650E-01
         -2   -1    0    0    0  501 -0.00000000000E+00  0.00000000000E+00  0.13819503810E+04  0.13819503810E+04  0.00000000000E+00 0.  1.
          1   -1    0    0  501    0  0.00000000000E+00 -0.00000000000E+00 -0.20184289824E+04  0.20184289824E+04  0.00000000000E+00 0. -1.
        -24    2    1    2    0    0 -0.11848101734E+04  0.34282590836E+03  0.75373806318E+03  0.14474639665E+04  0.75671104323E+02 0.  0.
    5000000    2    1    2    0    0  0.11848101734E+04 -0.34282590836E+03 -0.13902166645E+04  0.19529153969E+04  0.59989284260E+03 0.  0.
        -24    2    4    4    0    0  0.86060517224E+03  0.31030624052E+02 -0.96209390697E+03  0.12932251989E+04  0.72128822512E+02 0.  0.
         24    2    4    4    0    0  0.32420500112E+03 -0.37385653241E+03 -0.42812275757E+03  0.65969019800E+03  0.83812124477E+02 0.  0.
         11    1    5    5    0    0  0.69444822421E+03  0.52552932734E+02 -0.76435986500E+03  0.10340532627E+04  0.00000000000E+00 0. -1.
        -12    1    5    5    0    0  0.16615694803E+03 -0.21522308682E+02 -0.19773404197E+03  0.25917193618E+03  0.00000000000E+00 0.  1.
         15    1    3    3    0    0 -0.35303463577E+03  0.76560556766E+02  0.19265286607E+03  0.40940598120E+03  0.17770000000E+01 0. -1.
        -16    1    3    3    0    0 -0.83177553759E+03  0.26626535160E+03  0.56108519711E+03  0.10380579853E+04  0.00000000000E+00 0.  1.
          4    1    6    6  502    0  0.67244749360E+02 -0.10124913816E+03 -0.64439872260E+02  0.13757085968E+03  0.00000000000E+00 0. -1.
         -1    1    6    6    0  502  0.25696025176E+03 -0.27260739425E+03 -0.36368288531E+03  0.52211933833E+03  0.00000000000E+00 0.  1.
<mgrwt>
<rscale>  0 0.12973740E+04</rscale>
<asrwt>0</asrwt>
<pdfrwt beam="1">  1        1 0.31052754E+00 0.12973740E+04</pdfrwt>
<pdfrwt beam="2">  1       -2 0.21260775E+00 0.12973740E+04</pdfrwt>
<totfact> 0.26954156E-01</totfact>
</mgrwt>
</event>
<event>
12    3  0.1092576E-007  0.5106633E+03  0.7818608E-02  0.1011033E+00
         -2   -1    0    0    0  501 -0.00000000000E+00  0.00000000000E+00  0.34204251116E+03  0.34204251116E+03  0.00000000000E+00 0.  1.
          1   -1    0    0  501    0  0.00000000000E+00 -0.00000000000E+00 -0.77854677426E+03  0.77854677426E+03  0.00000000000E+00 0. -1.
        -24    2    1    2    0    0  0.24655659472E+03  0.22663314446E+03 -0.13404415879E+03  0.36992623183E+03  0.82005145686E+02 0.  0.
    5000000    2    1    2    0    0 -0.24655659472E+03 -0.22663314446E+03 -0.30246010431E+03  0.75066305360E+03  0.59988346266E+03 0.  0.
        -24    2    4    4    0    0 -0.97676767003E+02 -0.41516105126E+03 -0.17211729904E+03  0.46646421627E+03  0.77878438259E+02 0.  0.
         24    2    4    4    0    0 -0.14887982772E+03  0.18852790680E+03 -0.13034280528E+03  0.28419883732E+03  0.77921482954E+02 0.  0.
         11    1    5    5    0    0 -0.69299670264E+02 -0.13399904241E+03 -0.55140058715E+02  0.16061946875E+03  0.00000000000E+00 0. -1.
        -12    1    5    5    0    0 -0.28377096739E+02 -0.28116200884E+03 -0.11697724032E+03  0.30584474753E+03  0.00000000000E+00 0.  1.
         15    1    3    3    0    0  0.15758600660E+03  0.11085627780E+03 -0.11023156909E+03  0.22198337856E+03  0.17770000000E+01 0. -1.
        -16    1    3    3    0    0  0.88970588125E+02  0.11577686666E+03 -0.23812589698E+02  0.14794285327E+03  0.00000000000E+00 0.  1.
          2    1    6    6  502    0 -0.14891659013E+02 -0.32443159625E+01 -0.21041840811E+02  0.25981650428E+02  0.00000000000E+00 0. -1.
         -1    1    6    6    0  502 -0.13398816871E+03  0.19177222276E+03 -0.10930096446E+03  0.25821718690E+03  0.00000000000E+00 0.  1.
<mgrwt>
<rscale>  0 0.51066335E+03</rscale>
<asrwt>0</asrwt>
<pdfrwt beam="1">  1        1 0.11977642E+00 0.51066335E+03</pdfrwt>
<pdfrwt beam="2">  1       -2 0.52621926E-01 0.51066335E+03</pdfrwt>
<totfact> 0.71685451E+01</totfact>
</mgrwt>
</event>
<event>
12    3  0.1092576E-007  0.1800993E+04  0.7818608E-02  0.8705771E-01
         -2   -1    0    0    0  501 -0.00000000000E+00  0.00000000000E+00  0.19153644375E+04  0.19153644375E+04  0.00000000000E+00 0.  1.
          1   -1    0    0  501    0  0.00000000000E+00 -0.00000000000E+00 -0.19742743927E+04  0.19742743927E+04  0.00000000000E+00 0. -1.
        -24    2    1    2    0    0  0.93008838511E+03 -0.14876746339E+04 -0.75119368977E+03  0.19103208874E+04  0.82423983792E+02 0.  0.
    5000000    2    1    2    0    0 -0.93008838511E+03  0.14876746339E+04  0.69228373454E+03  0.19793179428E+04  0.60016875052E+03 0.  0.
        -24    2    4    4    0    0 -0.11089452425E+02  0.48295354078E+03  0.16693836365E+03  0.51752305866E+03  0.81207145475E+02 0.  0.
         24    2    4    4    0    0 -0.91899893269E+03  0.10047210931E+04  0.52534537088E+03  0.14617948841E+04  0.82662030811E+02 0.  0.
         13    1    5    5    0    0 -0.46328723744E+00  0.27941265214E+03  0.54262331233E+02  0.28463317692E+03  0.00000000000E+00 0. -1.
        -14    1    5    5    0    0 -0.10626165187E+02  0.20354088863E+03  0.11267603242E+03  0.23288988174E+03  0.00000000000E+00 0.  1.
         15    1    3    3    0    0  0.16489510251E+03 -0.29015021021E+03 -0.11159045539E+03  0.35189931341E+03  0.17770000000E+01 0. -1.
        -16    1    3    3    0    0  0.76519328261E+03 -0.11975244236E+04 -0.63960323438E+03  0.15584215740E+04  0.00000000000E+00 0.  1.
          4    1    6    6  502    0 -0.84866743968E+03  0.89351586276E+03  0.46657632645E+03  0.13176875535E+04  0.00000000000E+00 0. -1.
         -1    1    6    6    0  502 -0.70331493009E+02  0.11120523032E+03  0.58769044430E+02  0.14410733064E+03  0.00000000000E+00 0.  1.
<mgrwt>
<rscale>  0 0.18009934E+04</rscale>
<asrwt>0</asrwt>
<pdfrwt beam="1">  1        1 0.30373452E+00 0.18009934E+04</pdfrwt>
<pdfrwt beam="2">  1       -2 0.29467145E+00 0.18009934E+04</pdfrwt>
<totfact> 0.84719443E-02</totfact>
</mgrwt>
</event>
<event>
12    3  0.1092576E-007  0.7717792E+03  0.7818608E-02  0.9601789E-01
          1   -1    0    0  501    0  0.00000000000E+00  0.00000000000E+00  0.89204542061E+03  0.89204542061E+03  0.00000000000E+00 0. -1.
         -2   -1    0    0    0  501 -0.00000000000E+00 -0.00000000000E+00 -0.11362530230E+04  0.11362530230E+04  0.00000000000E+00 0.  1.
        -24    2    1    2    0    0  0.65067616952E+03 -0.12425365861E+03 -0.74775553600E+03  0.10023591025E+04  0.82261652359E+02 0.  0.
    5000000    2    1    2    0    0 -0.65067616952E+03  0.12425365861E+03  0.50354793358E+03  0.10259393412E+04  0.60014378365E+03 0.  0.
        -24    2    4    4    0    0  0.41368081430E+02 -0.12487111093E+03  0.76987915464E+02  0.17181089128E+03  0.79295212518E+02 0.  0.
         24    2    4    4    0    0 -0.69204425095E+03  0.24912476954E+03  0.42656001812E+03  0.85412844987E+03  0.81200762048E+02 0.  0.
         11    1    5    5    0    0  0.30555144459E+02 -0.23336481113E+02  0.55417607886E+02  0.67448643185E+02  0.00000000000E+00 0. -1.
        -12    1    5    5    0    0  0.10812936971E+02 -0.10153462982E+03  0.21570307578E+02  0.10436224810E+03  0.00000000000E+00 0.  1.
         15    1    3    3    0    0  0.23067961279E+03 -0.83991002496E+02 -0.26676073924E+03  0.36253554582E+03  0.17770000000E+01 0. -1.
        -16    1    3    3    0    0  0.41999655673E+03 -0.40262656110E+02 -0.48099479676E+03  0.63982355665E+03  0.00000000000E+00 0.  1.
          2    1    6    6  502    0 -0.47918666864E+03  0.16788404905E+03  0.33656519899E+03  0.60916422293E+03  0.00000000000E+00 0. -1.
         -1    1    6    6    0  502 -0.21285758231E+03  0.81240720492E+02  0.89994819130E+02  0.24496422694E+03  0.00000000000E+00 0.  1.
<mgrwt>
<rscale>  0 0.77177917E+03</rscale>
<asrwt>0</asrwt>
<pdfrwt beam="1">  1        1 0.13723776E+00 0.77177917E+03</pdfrwt>
<pdfrwt beam="2">  1       -2 0.17480816E+00 0.77177917E+03</pdfrwt>
<totfact> 0.32663553E+00</totfact>
</mgrwt>
</event>
<event>
12    3  0.1092576E-007  0.1057813E+04  0.7818608E-02  0.9247314E-01
          1   -1    0    0  501    0  0.00000000000E+00  0.00000000000E+00  0.13632813759E+04  0.13632813759E+04  0.00000000000E+00 0. -1.
         -2   -1    0    0    0  501 -0.00000000000E+00 -0.00000000000E+00 -0.21075725354E+04  0.21075725354E+04  0.00000000000E+00 0.  1.
        -24    2    1    2    0    0  0.69037975652E+03  0.69019606107E+03  0.98966081006E+03  0.13924783482E+04  0.81071697779E+02 0.  0.
    5000000    2    1    2    0    0 -0.69037975652E+03 -0.69019606107E+03 -0.17339519696E+04  0.20783755632E+04  0.60005061270E+03 0.  0.
        -24    2    4    4    0    0 -0.33627245243E+03  0.19329407700E+02 -0.59523088985E+03  0.68849893159E+03  0.79234956362E+02 0.  0.
         24    2    4    4    0    0 -0.35410730409E+03 -0.70952546877E+03 -0.11387210798E+04  0.13898766316E+04  0.79075785898E+02 0.  0.
         11    1    5    5    0    0 -0.20583502013E+03  0.42966195457E+02 -0.40927143105E+03  0.46012743207E+03  0.00000000000E+00 0. -1.
        -12    1    5    5    0    0 -0.13043743230E+03 -0.23636787757E+02 -0.18595945879E+03  0.22837149953E+03  0.00000000000E+00 0.  1.
         15    1    3    3    0    0  0.25411446339E+03  0.30592844184E+03  0.42398344423E+03  0.58131875141E+03  0.17770000000E+01 0. -1.
        -16    1    3    3    0    0  0.43626529313E+03  0.38426761923E+03  0.56567736583E+03  0.81115959675E+03  0.00000000000E+00 0.  1.
          2    1    6    6  502    0 -0.11514886952E+03 -0.26769131301E+03 -0.47921813558E+03  0.56086355086E+03  0.00000000000E+00 0. -1.
         -1    1    6    6    0  502 -0.23895843457E+03 -0.44183415575E+03 -0.65950294419E+03  0.82901308074E+03  0.00000000000E+00 0.  1.
<mgrwt>
<rscale>  0 0.10578134E+04</rscale>
<asrwt>0</asrwt>
<pdfrwt beam="1">  1        1 0.20973559E+00 0.10578134E+04</pdfrwt>
<pdfrwt beam="2">  1       -2 0.32424193E+00 0.10578134E+04</pdfrwt>
<totfact> 0.16179598E-01</totfact>
</mgrwt>
</event>
<event>
12    3  0.1092576E-007  0.2281653E+04  0.7818608E-02  0.8485191E-01
         -2   -1    0    0    0  501 -0.00000000000E+00  0.00000000000E+00  0.18267961696E+04  0.18267961696E+04  0.00000000000E+00 0.  1.
          1   -1    0    0  501    0  0.00000000000E+00 -0.00000000000E+00 -0.29852891903E+04  0.29852891903E+04  0.00000000000E+00 0. -1.
        -24    2    1    2    0    0 -0.98244809280E+03  0.20246371391E+04 -0.10389733389E+04  0.24799756912E+04  0.80336977103E+02 0.  0.
    5000000    2    1    2    0    0  0.98244809280E+03 -0.20246371391E+04 -0.11951968186E+03  0.23321096687E+04  0.60007562235E+03 0.  0.
        -24    2    4    4    0    0  0.49706719505E+03 -0.15690883792E+04  0.16325866912E+02  0.16479670398E+04  0.80091774840E+02 0.  0.
         24    2    4    4    0    0  0.48538089775E+03 -0.45554875991E+03 -0.13584554877E+03  0.68414262887E+03  0.80484998415E+02 0.  0.
         11    1    5    5    0    0  0.38957918076E+03 -0.12867087971E+04 -0.12489399249E+02  0.13444506133E+04  0.00000000000E+00 0. -1.
        -12    1    5    5    0    0  0.10748801429E+03 -0.28237958208E+03  0.28815266161E+02  0.30351642650E+03  0.00000000000E+00 0.  1.
         15    1    3    3    0    0 -0.79896309432E+03  0.16308158974E+04 -0.80390957039E+03  0.19859950333E+04  0.17770000000E+01 0. -1.
        -16    1    3    3    0    0 -0.18348499848E+03  0.39382124168E+03 -0.23506376850E+03  0.49398065785E+03  0.00000000000E+00 0.  1.
          4    1    6    6  502    0  0.37845161837E+03 -0.37100484420E+03 -0.13861798540E+03  0.54780029914E+03  0.00000000000E+00 0. -1.
         -3    1    6    6    0  502  0.10692927938E+03 -0.84543915711E+02  0.27724366259E+01  0.13634232973E+03  0.00000000000E+00 0.  1.
<mgrwt>
<rscale>  0 0.22816526E+04</rscale>
<asrwt>0</asrwt>
<pdfrwt beam="1">  1        1 0.45927526E+00 0.22816526E+04</pdfrwt>
<pdfrwt beam="2">  1       -2 0.28104557E+00 0.22816526E+04</pdfrwt>
<totfact> 0.19203202E-02</totfact>
</mgrwt>
</event>
<event>
12    3  0.1092576E-007  0.9490095E+03  0.7818608E-02  0.9366309E-01
          1   -1    0    0  501    0  0.00000000000E+00  0.00000000000E+00  0.98336624422E+03  0.98336624422E+03  0.00000000000E+00 0. -1.
         -2   -1    0    0    0  501 -0.00000000000E+00 -0.00000000000E+00 -0.10458419923E+04  0.10458419923E+04  0.00000000000E+00 0.  1.
        -24    2    1    2    0    0 -0.79648131406E+03 -0.30644040451E+03  0.32417415470E+03  0.91624572290E+03  0.78288805110E+02 0.  0.
    5000000    2    1    2    0    0  0.79648131406E+03  0.30644040451E+03 -0.38664990277E+03  0.11129625136E+04  0.60074886953E+03 0.  0.
        -24    2    4    4    0    0  0.80620742949E+03  0.93050735588E+02 -0.30073511960E+03  0.86923864210E+03  0.80655725136E+02 0.  0.
         24    2    4    4    0    0 -0.97261154378E+01  0.21338966893E+03 -0.85914783176E+02  0.24372387151E+03  0.79938898239E+02 0.  0.
         11    1    5    5    0    0  0.21508599608E+03  0.47517312226E+02 -0.11158952873E+03  0.24692529962E+03  0.00000000000E+00 0. -1.
        -12    1    5    5    0    0  0.59112143341E+03  0.45533423363E+02 -0.18914559087E+03  0.62231334248E+03  0.00000000000E+00 0.  1.
         15    1    3    3    0    0 -0.54016410571E+03 -0.24557642296E+03  0.21613055879E+03  0.63150662449E+03  0.17770000000E+01 0. -1.
        -16    1    3    3    0    0 -0.25631720835E+03 -0.60863981557E+02  0.10804359591E+03  0.28473909841E+03  0.00000000000E+00 0.  1.
          4    1    6    6  502    0 -0.16860373535E+02  0.21858487964E+03 -0.81971549463E+02  0.23405759275E+03  0.00000000000E+00 0. -1.
         -3    1    6    6    0  502  0.71342580970E+01 -0.51952107158E+01 -0.39432337132E+01  0.96662787614E+01  0.00000000000E+00 0.  1.
<mgrwt>
<rscale>  0 0.94900949E+03</rscale>
<asrwt>0</asrwt>
<pdfrwt beam="1">  1        1 0.15128712E+00 0.94900949E+03</pdfrwt>
<pdfrwt beam="2">  1       -2 0.16089877E+00 0.94900949E+03</pdfrwt>
<totfact> 0.33955662E+00</totfact>
</mgrwt>
</event>
<event>
12    3  0.1661909E-007  0.1220079E+04  0.7818608E-02  0.9095460E-01
         -2   -1    0    0    0  501 -0.00000000000E+00  0.00000000000E+00  0.94262309668E+03  0.94262309668E+03  0.00000000000E+00 0.  1.
          1   -1    0    0  501    0  0.00000000000E+00 -0.00000000000E+00 -0.24378816685E+04  0.24378816685E+04  0.00000000000E+00 0. -1.
        -24    2    1    2    0    0  0.11411502892E+04 -0.11544797658E+03 -0.17175024471E+04  0.20668951268E+04  0.81783807450E+02 0.  0.
    5000000    2    1    2    0    0 -0.11411502892E+04  0.11544797658E+03  0.22224387527E+03  0.13136096385E+04  0.60052121051E+03 0.  0.
        -24    2    4    4    0    0 -0.93362435657E+03 -0.14810339061E+03  0.13804280077E+03  0.95868203971E+03  0.80164736114E+02 0.  0.
         24    2    4    4    0    0 -0.20752593266E+03  0.26355136719E+03  0.84201074504E+02  0.35492759876E+03  0.79733578512E+02 0.  0.
         11    1    5    5    0    0 -0.71775196493E+03 -0.80353775625E+02  0.96676546122E+02  0.72867754665E+03  0.00000000000E+00 0. -1.
        -12    1    5    5    0    0 -0.21587239164E+03 -0.67749614983E+02  0.41366254645E+02  0.23000449306E+03  0.00000000000E+00 0.  1.
         15    1    3    3    0    0  0.74969252547E+03 -0.55825596210E+02 -0.10639755989E+04  0.13027672904E+04  0.17770000000E+01 0. -1.
        -16    1    3    3    0    0  0.39145776376E+03 -0.59622380369E+02 -0.65352684820E+03  0.76412783640E+03  0.00000000000E+00 0.  1.
          2    1    6    6  502    0 -0.18104837213E+03  0.17614520559E+03  0.72871471727E+02  0.26289902604E+03  0.00000000000E+00 0. -1.
         -1    1    6    6    0  502 -0.26477560523E+02  0.87406161599E+02  0.11329602777E+02  0.92028572715E+02  0.00000000000E+00 0.  1.
<mgrwt>
<rscale>  0 0.12200794E+04</rscale>
<asrwt>0</asrwt>
<pdfrwt beam="1">  1        1 0.37505871E+00 0.12200794E+04</pdfrwt>
<pdfrwt beam="2">  1       -2 0.14501894E+00 0.12200794E+04</pdfrwt>
<totfact> 0.42067092E-01</totfact>
</mgrwt>
</event>
<event>
12    3  0.1092576E-007  0.2868503E+03  0.7818608E-02  0.1092005E+00
          1   -1    0    0  501    0  0.00000000000E+00  0.00000000000E+00  0.11486391220E+04  0.11486391220E+04  0.00000000000E+00 0. -1.
         -2   -1    0    0    0  501 -0.00000000000E+00 -0.00000000000E+00 -0.34987331891E+03  0.34987331891E+03  0.00000000000E+00 0.  1.
        -24    2    1    2    0    0 -0.72607445632E+02  0.24744145141E+03 -0.17814698724E+03  0.32331798618E+03  0.79366605612E+02 0.  0.
    5000000    2    1    2    0    0  0.72607445632E+02 -0.24744145141E+03  0.97691279030E+03  0.11751944547E+04  0.60018688212E+03 0.  0.
        -24    2    4    4    0    0  0.98343988558E+02 -0.17970656524E+03  0.29825475910E+02  0.22206288090E+03  0.80351567405E+02 0.  0.
         24    2    4    4    0    0 -0.25736542926E+02 -0.67734886170E+02  0.94708731439E+03  0.95313157380E+03  0.78962215349E+02 0.  0.
         13    1    5    5    0    0  0.68030466016E+02 -0.79232509898E+02 -0.19278376343E+02  0.10619600146E+03  0.00000000000E+00 0. -1.
        -14    1    5    5    0    0  0.30313522543E+02 -0.10047405534E+03  0.49103852253E+02  0.11586687944E+03  0.00000000000E+00 0.  1.
         15    1    3    3    0    0 -0.11670483949E+02  0.98468162540E+02 -0.11119024501E+03  0.14899197141E+03  0.17770000000E+01 0. -1.
        -16    1    3    3    0    0 -0.60936961683E+02  0.14897328887E+03 -0.66956742233E+02  0.17432601477E+03  0.00000000000E+00 0.  1.
          4    1    6    6  502    0 -0.18945804323E+02  0.13125943163E+02  0.13024518731E+03  0.13226882740E+03  0.00000000000E+00 0. -1.
         -3    1    6    6    0  502 -0.67907386039E+01 -0.80860829334E+02  0.81684212708E+03  0.82086274639E+03  0.00000000000E+00 0.  1.
<mgrwt>
<rscale>  0 0.28685030E+03</rscale>
<asrwt>0</asrwt>
<pdfrwt beam="1">  1        1 0.17671371E+00 0.28685030E+03</pdfrwt>
<pdfrwt beam="2">  1       -2 0.53826665E-01 0.28685030E+03</pdfrwt>
<totfact> 0.36610805E+01</totfact>
</mgrwt>
</event>
<event>
12    3  0.1092576E-007  0.8164107E+03  0.7818608E-02  0.9536562E-01
         -2   -1    0    0    0  501 -0.00000000000E+00  0.00000000000E+00  0.49333879138E+03  0.49333879138E+03  0.00000000000E+00 0.  1.
          1   -1    0    0  501    0  0.00000000000E+00 -0.00000000000E+00 -0.17331955186E+04  0.17331955186E+04  0.00000000000E+00 0. -1.
        -24    2    1    2    0    0  0.61490950250E+03  0.52704852717E+03 -0.36459584372E+03  0.89163468155E+03  0.78666573821E+02 0.  0.
    5000000    2    1    2    0    0 -0.61490950250E+03 -0.52704852717E+03 -0.87526088352E+03  0.13348996284E+04  0.59998463107E+03 0.  0.
        -24    2    4    4    0    0 -0.47932254344E+03 -0.38546561755E+03 -0.92832241990E+03  0.11164970203E+04  0.80307148830E+02 0.  0.
         24    2    4    4    0    0 -0.13558695905E+03 -0.14158290962E+03  0.53061536389E+02  0.21840260810E+03  0.80340704614E+02 0.  0.
         11    1    5    5    0    0 -0.30240507018E+03 -0.20063574419E+03 -0.58283911136E+03  0.68658936640E+03  0.00000000000E+00 0. -1.
        -12    1    5    5    0    0 -0.17691747326E+03 -0.18482987336E+03 -0.34548330854E+03  0.42990765394E+03  0.00000000000E+00 0.  1.
         15    1    3    3    0    0  0.10295173961E+03  0.83656673633E+02 -0.92589979831E+02  0.16178245216E+03  0.17770000000E+01 0. -1.
        -16    1    3    3    0    0  0.51195776288E+03  0.44339185354E+03 -0.27200586389E+03  0.72985222939E+03  0.00000000000E+00 0.  1.
          4    1    6    6  502    0 -0.82487484209E+02 -0.45160836758E+02  0.53762812007E+02  0.10832417174E+03  0.00000000000E+00 0. -1.
         -3    1    6    6    0  502 -0.53099474846E+02 -0.96422072865E+02 -0.70127561790E+00  0.11007843636E+03  0.00000000000E+00 0.  1.
<mgrwt>
<rscale>  0 0.81641067E+03</rscale>
<asrwt>0</asrwt>
<pdfrwt beam="1">  1        1 0.26664546E+00 0.81641067E+03</pdfrwt>
<pdfrwt beam="2">  1       -2 0.75898276E-01 0.81641067E+03</pdfrwt>
<totfact> 0.63452979E+00</totfact>
</mgrwt>
</event>
<event>
12    3  0.1092576E-007  0.4771687E+03  0.7818608E-02  0.1019916E+00
          1   -1    0    0  501    0  0.00000000000E+00  0.00000000000E+00  0.12058055858E+04  0.12058055858E+04  0.00000000000E+00 0. -1.
         -2   -1    0    0    0  501 -0.00000000000E+00 -0.00000000000E+00 -0.45622250589E+03  0.45622250589E+03  0.00000000000E+00 0.  1.
        -24    2    1    2    0    0  0.40477745259E+03  0.74357172584E+02  0.82967869422E+03  0.92963227568E+03  0.80471467640E+02 0.  0.
    5000000    2    1    2    0    0 -0.40477745259E+03 -0.74357172584E+02 -0.80095614258E+02  0.73239581606E+03  0.60051190556E+03 0.  0.
        -24    2    4    4    0    0  0.37040479721E+02 -0.58690967066E+02  0.18293902891E+03  0.21207924381E+03  0.81818644593E+02 0.  0.
         24    2    4    4    0    0 -0.44181793231E+03 -0.15666205518E+02 -0.26303464317E+03  0.52031657225E+03  0.78061492078E+02 0.  0.
         13    1    5    5    0    0 -0.85003241326E+01 -0.44214608375E+02  0.14261296907E+03  0.14955148294E+03  0.00000000000E+00 0. -1.
        -14    1    5    5    0    0  0.45540803853E+02 -0.14476358691E+02  0.40326059842E+02  0.62527760866E+02  0.00000000000E+00 0.  1.
         15    1    3    3    0    0  0.18263598668E+03  0.66432167427E+01  0.30013045455E+03  0.35139932190E+03  0.17770000000E+01 0. -1.
        -16    1    3    3    0    0  0.22214146591E+03  0.67713955842E+02  0.52954823967E+03  0.57823295377E+03  0.00000000000E+00 0.  1.
          4    1    6    6  502    0 -0.35452458005E+03  0.12671676070E+02 -0.18634473839E+03  0.40071512419E+03  0.00000000000E+00 0. -1.
         -3    1    6    6    0  502 -0.87293352262E+02 -0.28337881589E+02 -0.76689904779E+02  0.11960144806E+03  0.00000000000E+00 0.  1.
<mgrwt>
<rscale>  0 0.47716871E+03</rscale>
<asrwt>0</asrwt>
<pdfrwt beam="1">  1        1 0.18550855E+00 0.47716871E+03</pdfrwt>
<pdfrwt beam="2">  1       -2 0.70188078E-01 0.47716871E+03</pdfrwt>
<totfact> 0.18309093E+01</totfact>
</mgrwt>
</event>
<event>
12    3  0.1092576E-007  0.6035496E+03  0.7818608E-02  0.9898069E-01
          1   -1    0    0  501    0  0.00000000000E+00  0.00000000000E+00  0.22366384307E+04  0.22366384307E+04  0.00000000000E+00 0. -1.
         -2   -1    0    0    0  501 -0.00000000000E+00 -0.00000000000E+00 -0.20278056729E+03  0.20278056729E+03  0.00000000000E+00 0.  1.
        -24    2    1    2    0    0  0.20742670803E+03 -0.48124588821E+03  0.61149190924E+03  0.80916268555E+03  0.78730251451E+02 0.  0.
    5000000    2    1    2    0    0 -0.20742670803E+03  0.48124588821E+03  0.14223659541E+04  0.16302563124E+04  0.59998941036E+03 0.  0.
        -24    2    4    4    0    0  0.63203049493E+02 -0.34217502720E+02  0.19120440059E+02  0.10896697112E+03  0.79641362422E+02 0.  0.
         24    2    4    4    0    0 -0.27062975752E+03  0.51546339093E+03  0.14032455141E+04  0.15212893413E+04  0.79248432848E+02 0.  0.
         13    1    5    5    0    0  0.60742880511E+02 -0.48122786535E+02  0.37253138121E+02  0.85984280054E+02  0.00000000000E+00 0. -1.
        -14    1    5    5    0    0  0.24601689820E+01  0.13905283815E+02 -0.18132698062E+02  0.22982691061E+02  0.00000000000E+00 0.  1.
         15    1    3    3    0    0  0.18098038395E+03 -0.34031054657E+03  0.46813800449E+03  0.60640045882E+03  0.17770000000E+01 0. -1.
        -16    1    3    3    0    0  0.26446324084E+02 -0.14093534164E+03  0.14335390475E+03  0.20276222673E+03  0.00000000000E+00 0.  1.
          2    1    6    6  502    0 -0.17475115264E+03  0.40036477347E+03  0.10808791008E+04  0.11658171159E+04  0.00000000000E+00 0. -1.
         -1    1    6    6    0  502 -0.95878604889E+02  0.11509861746E+03  0.32236641333E+03  0.35547222544E+03  0.00000000000E+00 0.  1.
<mgrwt>
<rscale>  0 0.60354962E+03</rscale>
<asrwt>0</asrwt>
<pdfrwt beam="1">  1        1 0.34409820E+00 0.60354962E+03</pdfrwt>
<pdfrwt beam="2">  1       -2 0.31197012E-01 0.60354962E+03</pdfrwt>
<totfact> 0.18352065E+01</totfact>
</mgrwt>
</event>
<event>
12    3  0.1092576E-007  0.2141716E+04  0.7818608E-02  0.8543086E-01
         -2   -1    0    0    0  501 -0.00000000000E+00  0.00000000000E+00  0.18916397209E+04  0.18916397209E+04  0.00000000000E+00 0.  1.
          1   -1    0    0  501    0  0.00000000000E+00 -0.00000000000E+00 -0.26765725287E+04  0.26765725287E+04  0.00000000000E+00 0. -1.
        -24    2    1    2    0    0  0.20490658008E+04 -0.61191582414E+03  0.17832110035E+03  0.21473708722E+04  0.79319707520E+02 0.  0.
    5000000    2    1    2    0    0 -0.20490658008E+04  0.61191582414E+03 -0.96325390822E+03  0.24208413774E+04  0.59958589946E+03 0.  0.
        -24    2    4    4    0    0 -0.73243760745E+03  0.15581344820E+03 -0.63977475304E+03  0.98824911545E+03  0.81128910519E+02 0.  0.
         24    2    4    4    0    0 -0.13166281934E+04  0.45610237594E+03 -0.32347915518E+03  0.14325922619E+04  0.78375048241E+02 0.  0.
         13    1    5    5    0    0 -0.41286452554E+03  0.75706453833E+02 -0.40852487042E+03  0.58573129791E+03  0.00000000000E+00 0. -1.
        -14    1    5    5    0    0 -0.31957308191E+03  0.80106994369E+02 -0.23124988262E+03  0.40251781755E+03  0.00000000000E+00 0.  1.
         15    1    3    3    0    0  0.48144000896E+03 -0.15481729278E+03  0.10145445067E+02  0.50582503314E+03  0.17770000000E+01 0. -1.
        -16    1    3    3    0    0  0.15676257919E+04 -0.45709853136E+03  0.16817565528E+03  0.16415458391E+04  0.00000000000E+00 0.  1.
          2    1    6    6  502    0 -0.25370526736E+03  0.55646905750E+02 -0.60884327412E+02  0.26677676460E+03  0.00000000000E+00 0. -1.
         -1    1    6    6    0  502 -0.10629229260E+04  0.40045547019E+03 -0.26259482777E+03  0.11658154973E+04  0.00000000000E+00 0.  1.
<mgrwt>
<rscale>  0 0.21417164E+04</rscale>
<asrwt>0</asrwt>
<pdfrwt beam="1">  1        1 0.41178039E+00 0.21417164E+04</pdfrwt>
<pdfrwt beam="2">  1       -2 0.29102150E+00 0.21417164E+04</pdfrwt>
<totfact> 0.28176327E-02</totfact>
</mgrwt>
</event>
<event>
12    3  0.1092576E-007  0.5053029E+03  0.7818608E-02  0.1012404E+00
          1   -1    0    0  501    0  0.00000000000E+00  0.00000000000E+00  0.52167174210E+03  0.52167174210E+03  0.00000000000E+00 0. -1.
         -2   -1    0    0    0  501 -0.00000000000E+00 -0.00000000000E+00 -0.52219933197E+03  0.52219933197E+03  0.00000000000E+00 0.  1.
        -24    2    1    2    0    0 -0.31407166517E+03 -0.13468821244E+03  0.33610232724E+02  0.35256303692E+03  0.79931982509E+02 0.  0.
    5000000    2    1    2    0    0  0.31407166517E+03  0.13468821244E+03 -0.34137822590E+02  0.69130803715E+03  0.59996623727E+03 0.  0.
        -24    2    4    4    0    0  0.23088337723E+03 -0.19761269721E+03 -0.10686109921E+03  0.33002196252E+03  0.71674885714E+02 0.  0.
         24    2    4    4    0    0  0.83188287938E+02  0.33230090965E+03  0.72723276615E+02  0.36128607463E+03  0.88852501110E+02 0.  0.
         11    1    5    5    0    0  0.13218608508E+03 -0.15694682779E+03 -0.63406198452E+02  0.21476921066E+03  0.00000000000E+00 0. -1.
        -12    1    5    5    0    0  0.98697292150E+02 -0.40665869419E+02 -0.43454900754E+02  0.11525275187E+03  0.00000000000E+00 0.  1.
         15    1    3    3    0    0 -0.18735023072E+03 -0.54076473636E+02 -0.12636655766E+02  0.19541549773E+03  0.17770000000E+01 0. -1.
        -16    1    3    3    0    0 -0.12672143445E+03 -0.80611738803E+02  0.46246888490E+02  0.15714753920E+03  0.00000000000E+00 0.  1.
          4    1    6    6  502    0  0.36610076127E+02  0.28406364808E+03  0.51943287385E+02  0.29108514036E+03  0.00000000000E+00 0. -1.
         -3    1    6    6    0  502  0.46578211811E+02  0.48237261567E+02  0.20779989230E+02  0.70200934263E+02  0.00000000000E+00 0.  1.
<mgrwt>
<rscale>  0 0.50530294E+03</rscale>
<asrwt>0</asrwt>
<pdfrwt beam="1">  1        1 0.80257192E-01 0.50530294E+03</pdfrwt>
<pdfrwt beam="2">  1       -2 0.80338358E-01 0.50530294E+03</pdfrwt>
<totfact> 0.51961033E+01</totfact>
</mgrwt>
</event>
<event>
12    3  0.1092576E-007  0.7825386E+03  0.7818608E-02  0.9585641E-01
         -2   -1    0    0    0  501 -0.00000000000E+00  0.00000000000E+00  0.78645766114E+03  0.78645766114E+03  0.00000000000E+00 0.  1.
          1   -1    0    0  501    0  0.00000000000E+00 -0.00000000000E+00 -0.14297248975E+04  0.14297248975E+04  0.00000000000E+00 0. -1.
        -24    2    1    2    0    0  0.65787641195E+03 -0.11606174343E+03  0.44439145553E+03  0.80581060485E+03  0.74667686797E+02 0.  0.
    5000000    2    1    2    0    0 -0.65787641195E+03  0.11606174343E+03 -0.10876586919E+04  0.14103719538E+04  0.59989658802E+03 0.  0.
        -24    2    4    4    0    0 -0.42866098873E+03 -0.21581823132E+03 -0.61176143329E+03  0.78159348434E+03  0.79426514924E+02 0.  0.
         24    2    4    4    0    0 -0.22921542322E+03  0.33187997475E+03 -0.47589725859E+03  0.62877846944E+03  0.78740936117E+02 0.  0.
         13    1    5    5    0    0 -0.35254433458E+03 -0.20859485258E+03 -0.52619299394E+03  0.66684210068E+03  0.00000000000E+00 0. -1.
        -14    1    5    5    0    0 -0.76116654151E+02 -0.72233787446E+01 -0.85568439346E+02  0.11475138366E+03  0.00000000000E+00 0.  1.
         15    1    3    3    0    0  0.34190421160E+03 -0.60897527139E+02  0.27560413070E+03  0.44335966586E+03  0.17770000000E+01 0. -1.
        -16    1    3    3    0    0  0.31597220034E+03 -0.55164216290E+02  0.16878732483E+03  0.36245093899E+03  0.00000000000E+00 0.  1.
          4    1    6    6  502    0 -0.97709582069E+01  0.63600882721E+02 -0.72852004037E+02  0.97200609048E+02  0.00000000000E+00 0. -1.
         -3    1    6    6    0  502 -0.21944446501E+03  0.26827909203E+03 -0.40304525455E+03  0.53157786039E+03  0.00000000000E+00 0.  1.
<mgrwt>
<rscale>  0 0.78253858E+03</rscale>
<asrwt>0</asrwt>
<pdfrwt beam="1">  1        1 0.21995768E+00 0.78253858E+03</pdfrwt>
<pdfrwt beam="2">  1       -2 0.12099349E+00 0.78253858E+03</pdfrwt>
<totfact> 0.34329030E+00</totfact>
</mgrwt>
</event>
<event>
12    3  0.1092576E-007  0.7827035E+03  0.7818608E-02  0.9585396E-01
          1   -1    0    0  501    0  0.00000000000E+00  0.00000000000E+00  0.11151319747E+04  0.11151319747E+04  0.00000000000E+00 0. -1.
         -2   -1    0    0    0  501 -0.00000000000E+00 -0.00000000000E+00 -0.56800308739E+03  0.56800308739E+03  0.00000000000E+00 0.  1.
        -24    2    1    2    0    0 -0.32618472626E+03  0.59343396976E+03  0.30266517847E+03  0.74603579431E+03  0.80017773191E+02 0.  0.
    5000000    2    1    2    0    0  0.32618472626E+03 -0.59343396976E+03  0.24446370887E+03  0.93709926780E+03  0.59986013423E+03 0.  0.
        -24    2    4    4    0    0 -0.46332659638E+02 -0.49076447754E+03  0.66489985220E+02  0.50395697461E+03  0.80964352419E+02 0.  0.
         24    2    4    4    0    0  0.37251738590E+03 -0.10266949222E+03  0.17797372365E+03  0.43314229318E+03  0.81408675250E+02 0.  0.
         13    1    5    5    0    0 -0.72237519648E+01 -0.18637190224E+03  0.63572096525E+02  0.19704842043E+03  0.00000000000E+00 0. -1.
        -14    1    5    5    0    0 -0.39108907673E+02 -0.30439257530E+03  0.29178886951E+01  0.30690855418E+03  0.00000000000E+00 0.  1.
         15    1    3    3    0    0 -0.14164267096E+03  0.25275501578E+03  0.86579006153E+02  0.30240176301E+03  0.17770000000E+01 0. -1.
        -16    1    3    3    0    0 -0.18454205530E+03  0.34067895398E+03  0.21608617232E+03  0.44363403130E+03  0.00000000000E+00 0.  1.
          2    1    6    6  502    0  0.13752305017E+02 -0.23780850220E+02  0.10164413835E+02  0.29291125603E+02  0.00000000000E+00 0. -1.
         -1    1    6    6    0  502  0.35876508088E+03 -0.78888641998E+02  0.16780930981E+03  0.40385116758E+03  0.00000000000E+00 0.  1.
<mgrwt>
<rscale>  0 0.78270348E+03</rscale>
<asrwt>0</asrwt>
<pdfrwt beam="1">  1        1 0.17155876E+00 0.78270348E+03</pdfrwt>
<pdfrwt beam="2">  1       -2 0.87385091E-01 0.78270348E+03</pdfrwt>
<totfact> 0.12515666E+01</totfact>
</mgrwt>
</event>
<event>
12    3  0.1092576E-007  0.5257664E+03  0.7818608E-02  0.1007264E+00
         -2   -1    0    0    0  501 -0.00000000000E+00  0.00000000000E+00  0.17399512258E+04  0.17399512258E+04  0.00000000000E+00 0.  1.
          1   -1    0    0  501    0  0.00000000000E+00 -0.00000000000E+00 -0.25118893168E+03  0.25118893168E+03  0.00000000000E+00 0. -1.
        -24    2    1    2    0    0 -0.40582738717E+03 -0.20846747973E+03  0.97363874117E+03  0.10782117297E+04  0.80084814295E+02 0.  0.
    5000000    2    1    2    0    0  0.40582738717E+03  0.20846747973E+03  0.51512355292E+03  0.91292842775E+03  0.59994289823E+03 0.  0.
        -24    2    4    4    0    0 -0.13186661413E+02 -0.60979946459E+02  0.37715001846E+03  0.39022167656E+03  0.78347804847E+02 0.  0.
         24    2    4    4    0    0  0.41901404858E+03  0.26944742619E+03  0.13797353446E+03  0.52270675119E+03  0.77530401397E+02 0.  0.
         11    1    5    5    0    0 -0.39243130523E+02 -0.42904469601E+02  0.15011167517E+03  0.16097929006E+03  0.00000000000E+00 0. -1.
        -12    1    5    5    0    0  0.26056469110E+02 -0.18075476858E+02  0.22703834329E+03  0.22924238650E+03  0.00000000000E+00 0.  1.
         15    1    3    3    0    0 -0.18050501556E+03 -0.12432267815E+03  0.39839057915E+03  0.45470473962E+03  0.17770000000E+01 0. -1.
        -16    1    3    3    0    0 -0.22532237160E+03 -0.84144801582E+02  0.57524816202E+03  0.62350699008E+03  0.00000000000E+00 0.  1.
          4    1    6    6  502    0  0.46241394352E+02  0.86938335285E+01 -0.90650954500E+00  0.47060291676E+02  0.00000000000E+00 0. -1.
         -1    1    6    6    0  502  0.37277265423E+03  0.26075359266E+03  0.13888004401E+03  0.47564645951E+03  0.00000000000E+00 0.  1.
<mgrwt>
<rscale>  0 0.52576645E+03</rscale>
<asrwt>0</asrwt>
<pdfrwt beam="1">  1        1 0.38644452E-01 0.52576645E+03</pdfrwt>
<pdfrwt beam="2">  1       -2 0.26768480E+00 0.52576645E+03</pdfrwt>
<totfact> 0.51666975E+00</totfact>
</mgrwt>
</event>
<event>
12    3  0.1092576E-007  0.9870234E+03  0.7818608E-02  0.9322893E-01
         -2   -1    0    0    0  501 -0.00000000000E+00  0.00000000000E+00  0.70931220297E+03  0.70931220297E+03  0.00000000000E+00 0.  1.
          1   -1    0    0  501    0  0.00000000000E+00 -0.00000000000E+00 -0.14631457239E+04  0.14631457239E+04  0.00000000000E+00 0. -1.
        -24    2    1    2    0    0  0.69187710062E+03 -0.61277638931E+03 -0.24964235816E+03  0.96064757075E+03  0.79584059575E+02 0.  0.
    5000000    2    1    2    0    0 -0.69187710062E+03  0.61277638931E+03 -0.50419116278E+03  0.12118103561E+04  0.60007231641E+03 0.  0.
        -24    2    4    4    0    0 -0.29533874830E+03  0.58008022040E+03 -0.14714688324E+03  0.67204504024E+03  0.79210431878E+02 0.  0.
         24    2    4    4    0    0 -0.39653835233E+03  0.32696168917E+02 -0.35704427954E+03  0.53976531589E+03  0.74527004221E+02 0.  0.
         11    1    5    5    0    0 -0.27499866769E+03  0.53666406135E+03 -0.15694706370E+03  0.62310910985E+03  0.00000000000E+00 0. -1.
        -12    1    5    5    0    0 -0.20340080603E+02  0.43416159049E+02  0.98001804627E+01  0.48935930385E+02  0.00000000000E+00 0.  1.
         15    1    3    3    0    0  0.78803211614E+02 -0.64748384222E+02 -0.26393843004E+01  0.10204128331E+03  0.17770000000E+01 0. -1.
        -16    1    3    3    0    0  0.61307388901E+03 -0.54802800509E+03 -0.24700297386E+03  0.85860628744E+03  0.00000000000E+00 0.  1.
          2    1    6    6  502    0 -0.21435095420E+03  0.30917109603E+02 -0.23972825414E+03  0.32306630135E+03  0.00000000000E+00 0. -1.
         -1    1    6    6    0  502 -0.18218739813E+03  0.17790593133E+01 -0.11731602540E+03  0.21669901454E+03  0.00000000000E+00 0.  1.
<mgrwt>
<rscale>  0 0.98702342E+03</rscale>
<asrwt>0</asrwt>
<pdfrwt beam="1">  1        1 0.22509934E+00 0.98702342E+03</pdfrwt>
<pdfrwt beam="2">  1       -2 0.10912495E+00 0.98702342E+03</pdfrwt>
<totfact> 0.40836673E+00</totfact>
</mgrwt>
</event>
<event>
12    3  0.1092576E-007  0.8542234E+03  0.7818608E-02  0.9484686E-01
          1   -1    0    0  501    0  0.00000000000E+00  0.00000000000E+00  0.26314453140E+04  0.26314453140E+04  0.00000000000E+00 0. -1.
         -2   -1    0    0    0  501 -0.00000000000E+00 -0.00000000000E+00 -0.32177500427E+03  0.32177500427E+03  0.00000000000E+00 0.  1.
        -24    2    1    2    0    0  0.38843104116E+03 -0.67288625014E+03  0.14576238636E+04  0.16533768959E+04  0.73029122834E+02 0.  0.
    5000000    2    1    2    0    0 -0.38843104116E+03  0.67288625014E+03  0.85204644606E+03  0.12998434223E+04  0.59996266294E+03 0.  0.
        -24    2    4    4    0    0  0.10026283991E+03  0.23826296732E+03  0.45875100054E+03  0.53255468986E+03  0.79624986847E+02 0.  0.
         24    2    4    4    0    0 -0.48869388107E+03  0.43462328282E+03  0.39329544552E+03  0.76728873246E+03  0.79571251839E+02 0.  0.
         11    1    5    5    0    0 -0.65135829898E+01  0.74773162209E+02  0.11931268378E+03  0.14095733064E+03  0.00000000000E+00 0. -1.
        -12    1    5    5    0    0  0.10677642290E+03  0.16348980511E+03  0.33943831677E+03  0.39159735922E+03  0.00000000000E+00 0.  1.
         15    1    3    3    0    0  0.31105148149E+03 -0.47818921188E+03  0.10894750445E+04  0.12297873706E+04  0.17770000000E+01 0. -1.
        -16    1    3    3    0    0  0.77379559676E+02 -0.19469703826E+03  0.36814881915E+03  0.42358952537E+03  0.00000000000E+00 0.  1.
          2    1    6    6  502    0 -0.42657307891E+03  0.34256766371E+03  0.33964562483E+03  0.64395368338E+03  0.00000000000E+00 0. -1.
         -1    1    6    6    0  502 -0.62120802165E+02  0.92055619107E+02  0.53649820692E+02  0.12333504908E+03  0.00000000000E+00 0.  1.
<mgrwt>
<rscale>  0 0.85422340E+03</rscale>
<asrwt>0</asrwt>
<pdfrwt beam="1">  1        1 0.40483773E+00 0.85422340E+03</pdfrwt>
<pdfrwt beam="2">  1       -2 0.49503848E-01 0.85422340E+03</pdfrwt>
<totfact> 0.38684821E+00</totfact>
</mgrwt>
</event>
<event>
12    3  0.1092576E-007  0.7520373E+03  0.7818608E-02  0.9632160E-01
         -2   -1    0    0    0  501 -0.00000000000E+00  0.00000000000E+00  0.78607603124E+03  0.78607603124E+03  0.00000000000E+00 0.  1.
          1   -1    0    0  501    0  0.00000000000E+00 -0.00000000000E+00 -0.13556850857E+04  0.13556850857E+04  0.00000000000E+00 0. -1.
        -24    2    1    2    0    0  0.64972274663E+03 -0.26588823818E+03  0.39217841214E+03  0.80844871689E+03  0.83361970916E+02 0.  0.
    5000000    2    1    2    0    0 -0.64972274663E+03  0.26588823818E+03 -0.96178746658E+03  0.13333124000E+04  0.59987550584E+03 0.  0.
        -24    2    4    4    0    0 -0.26868159210E+03  0.31034035495E+03 -0.81275257917E+03  0.91403563380E+03  0.79959058685E+02 0.  0.
         24    2    4    4    0    0 -0.38104115453E+03 -0.44452116774E+02 -0.14903488741E+03  0.41927676623E+03  0.80082812765E+02 0.  0.
         11    1    5    5    0    0 -0.16903510102E+03  0.24095868660E+03 -0.61835425287E+03  0.68483277964E+03  0.00000000000E+00 0. -1.
        -12    1    5    5    0    0 -0.99646491082E+02  0.69381668348E+02 -0.19439832630E+03  0.22920285416E+03  0.00000000000E+00 0.  1.
         15    1    3    3    0    0  0.33223236669E+03 -0.16482051580E+03  0.24297556536E+03  0.44337842866E+03  0.17770000000E+01 0. -1.
        -16    1    3    3    0    0  0.31749037994E+03 -0.10106772237E+03  0.14920284678E+03  0.36507028823E+03  0.00000000000E+00 0.  1.
          4    1    6    6  502    0 -0.17029430746E+03 -0.30870108953E+02 -0.26410899845E+02  0.17507327155E+03  0.00000000000E+00 0. -1.
         -3    1    6    6    0  502 -0.21074684707E+03 -0.13582007820E+02 -0.12262398757E+03  0.24420349468E+03  0.00000000000E+00 0.  1.
<mgrwt>
<rscale>  0 0.75203726E+03</rscale>
<asrwt>0</asrwt>
<pdfrwt beam="1">  1        1 0.20856693E+00 0.75203726E+03</pdfrwt>
<pdfrwt beam="2">  1       -2 0.12093478E+00 0.75203726E+03</pdfrwt>
<totfact> 0.38872765E+00</totfact>
</mgrwt>
</event>
<event>
12    3  0.1092576E-007  0.7801538E+03  0.7818608E-02  0.9589196E-01
         -2   -1    0    0    0  501 -0.00000000000E+00  0.00000000000E+00  0.64441283601E+03  0.64441283601E+03  0.00000000000E+00 0.  1.
          1   -1    0    0  501    0  0.00000000000E+00 -0.00000000000E+00 -0.10185045647E+04  0.10185045647E+04  0.00000000000E+00 0. -1.
        -24    2    1    2    0    0  0.48114026784E+03  0.46311885878E+03 -0.36484771195E+03  0.76512882530E+03  0.79581603918E+02 0.  0.
    5000000    2    1    2    0    0 -0.48114026784E+03 -0.46311885878E+03 -0.92440167009E+01  0.89778857538E+03  0.59996986552E+03 0.  0.
        -24    2    4    4    0    0 -0.45119320378E+03 -0.33308686422E+02  0.19832418777E+01  0.45955116747E+03  0.80613687085E+02 0.  0.
         24    2    4    4    0    0 -0.29947064061E+02 -0.42981017236E+03 -0.11227258579E+02  0.43823740791E+03  0.79324418945E+02 0.  0.
         11    1    5    5    0    0 -0.25732786368E+03 -0.24691710518E+02 -0.38373770292E+02  0.26134241187E+03  0.00000000000E+00 0. -1.
        -12    1    5    5    0    0 -0.19386534010E+03 -0.86169759040E+01  0.40357012169E+02  0.19820875561E+03  0.00000000000E+00 0.  1.
         15    1    3    3    0    0  0.12534386628E+03  0.15709145952E+03 -0.81154011947E+02  0.21674395690E+03  0.17770000000E+01 0. -1.
        -16    1    3    3    0    0  0.35579640157E+03  0.30602739927E+03 -0.28369370000E+03  0.54838486840E+03  0.00000000000E+00 0.  1.
          4    1    6    6  502    0 -0.51161234485E+02 -0.19172534639E+03 -0.16803723308E+02  0.19914428307E+03  0.00000000000E+00 0. -1.
         -3    1    6    6    0  502  0.21214170424E+02 -0.23808482597E+03  0.55764647292E+01  0.23909312484E+03  0.00000000000E+00 0.  1.
<mgrwt>
<rscale>  0 0.78015384E+03</rscale>
<asrwt>0</asrwt>
<pdfrwt beam="1">  1        1 0.15669301E+00 0.78015384E+03</pdfrwt>
<pdfrwt beam="2">  1       -2 0.99140437E-01 0.78015384E+03</pdfrwt>
<totfact> 0.11042774E+01</totfact>
</mgrwt>
</event>
<event>
12    3  0.1092576E-007  0.1074160E+04  0.7818608E-02  0.9230750E-01
         -2   -1    0    0    0  501 -0.00000000000E+00  0.00000000000E+00  0.27583585852E+04  0.27583585852E+04  0.00000000000E+00 0.  1.
          1   -1    0    0  501    0  0.00000000000E+00 -0.00000000000E+00 -0.42217821271E+03  0.42217821271E+03  0.00000000000E+00 0. -1.
        -24    2    1    2    0    0 -0.23990216781E+03  0.96462866054E+03  0.10572411702E+04  0.14533095015E+04  0.79297618871E+02 0.  0.
    5000000    2    1    2    0    0  0.23990216781E+03 -0.96462866054E+03  0.12789392022E+04  0.17272272964E+04  0.59963918098E+03 0.  0.
        -24    2    4    4    0    0 -0.10913591511E+03 -0.11950527331E+02  0.21499292727E+03  0.25484302016E+03  0.81667270531E+02 0.  0.
         24    2    4    4    0    0  0.34903808292E+03 -0.95267813321E+03  0.10639462750E+04  0.14723842762E+04  0.80688115133E+02 0.  0.
         11    1    5    5    0    0  0.13254665487E+02 -0.50929450646E+01  0.24484278195E+02  0.28303782880E+02  0.00000000000E+00 0. -1.
        -12    1    5    5    0    0 -0.12239058060E+03 -0.68575822665E+01  0.19050864907E+03  0.22653923728E+03  0.00000000000E+00 0.  1.
         15    1    3    3    0    0 -0.12081164666E+03  0.52047479875E+03  0.62426967408E+03  0.82170874025E+03  0.17770000000E+01 0. -1.
        -16    1    3    3    0    0 -0.11909052115E+03  0.44415386179E+03  0.43297149616E+03  0.63160076129E+03  0.00000000000E+00 0.  1.
          4    1    6    6  502    0  0.30837272077E+03 -0.75471959876E+03  0.83530467424E+03  0.11672314708E+04  0.00000000000E+00 0. -1.
         -3    1    6    6    0  502  0.40665362155E+02 -0.19795853445E+03  0.22864160074E+03  0.30515280538E+03  0.00000000000E+00 0.  1.
<mgrwt>
<rscale>  0 0.10741602E+04</rscale>
<asrwt>0</asrwt>
<pdfrwt beam="1">  1        1 0.64950496E-01 0.10741602E+04</pdfrwt>
<pdfrwt beam="2">  1       -2 0.42436285E+00 0.10741602E+04</pdfrwt>
<totfact> 0.25416419E-01</totfact>
</mgrwt>
</event>
<event>
12    3  0.1092576E-007  0.1148681E+04  0.7818608E-02  0.9159002E-01
         -2   -1    0    0    0  501 -0.00000000000E+00  0.00000000000E+00  0.72160223558E+03  0.72160223558E+03  0.00000000000E+00 0.  1.
          1   -1    0    0  501    0  0.00000000000E+00 -0.00000000000E+00 -0.22118658299E+04  0.22118658299E+04  0.00000000000E+00 0. -1.
        -24    2    1    2    0    0  0.93660108171E+03 -0.52600316939E+03 -0.10765213013E+03  0.10825557254E+04  0.80230897704E+02 0.  0.
    5000000    2    1    2    0    0 -0.93660108171E+03  0.52600316939E+03 -0.13826114642E+04  0.18509123401E+04  0.60030084905E+03 0.  0.
        -24    2    4    4    0    0 -0.73288728023E+02 -0.10421063200E+03 -0.24667844639E+03  0.28911512179E+03  0.80661045452E+02 0.  0.
         24    2    4    4    0    0 -0.86331235369E+03  0.63021380140E+03 -0.11359330178E+04  0.15617972183E+04  0.79931687859E+02 0.  0.
         11    1    5    5    0    0 -0.90677519571E+02 -0.87780723543E+02 -0.21656459252E+03  0.25065532254E+03  0.00000000000E+00 0. -1.
        -12    1    5    5    0    0  0.17388791547E+02 -0.16429908462E+02 -0.30113853867E+02  0.38459799249E+02  0.00000000000E+00 0.  1.
         15    1    3    3    0    0  0.18653645246E+03 -0.12844734614E+03 -0.48234644433E+02  0.23156922827E+03  0.17770000000E+01 0. -1.
        -16    1    3    3    0    0  0.75006462925E+03 -0.39755582325E+03 -0.59417485698E+02  0.85098649711E+03  0.00000000000E+00 0.  1.
          2    1    6    6  502    0 -0.63632287730E+03  0.50666675703E+03 -0.86601499113E+03  0.11881077273E+04  0.00000000000E+00 0. -1.
         -1    1    6    6    0  502 -0.22698947639E+03  0.12354704436E+03 -0.26991802668E+03  0.37368949101E+03  0.00000000000E+00 0.  1.
<mgrwt>
<rscale>  0 0.11486807E+04</rscale>
<asrwt>0</asrwt>
<pdfrwt beam="1">  1        1 0.34028704E+00 0.11486807E+04</pdfrwt>
<pdfrwt beam="2">  1       -2 0.11101573E+00 0.11486807E+04</pdfrwt>
<totfact> 0.11921413E+00</totfact>
</mgrwt>
</event>
<event>
12    3  0.1092576E-007  0.1931715E+04  0.7818608E-02  0.8639229E-01
          1   -1    0    0  501    0  0.00000000000E+00  0.00000000000E+00  0.29156621788E+04  0.29156621788E+04  0.00000000000E+00 0. -1.
         -2   -1    0    0    0  501 -0.00000000000E+00 -0.00000000000E+00 -0.13049838603E+04  0.13049838603E+04  0.00000000000E+00 0.  1.
        -24    2    1    2    0    0 -0.16026350630E+03  0.18968498714E+04  0.77514399196E+03  0.20568833948E+04  0.78722712635E+02 0.  0.
    5000000    2    1    2    0    0  0.16026350630E+03 -0.18968498714E+04  0.83553432654E+03  0.21637626443E+04  0.60002278624E+03 0.  0.
        -24    2    4    4    0    0  0.28781901224E+03 -0.77708314675E+03  0.15998815073E+03  0.84737196979E+03  0.75796081954E+02 0.  0.
         24    2    4    4    0    0 -0.12755550594E+03 -0.11197667247E+04  0.67554617581E+03  0.13163906745E+04  0.79836380108E+02 0.  0.
         11    1    5    5    0    0  0.17373085620E+03 -0.50453001948E+03  0.68019408576E+02  0.53792154716E+03  0.00000000000E+00 0. -1.
        -12    1    5    5    0    0  0.11408815605E+03 -0.27255312727E+03  0.91968742155E+02  0.30945042263E+03  0.00000000000E+00 0.  1.
         15    1    3    3    0    0 -0.54982273452E+02  0.10438146089E+04  0.44794776009E+03  0.11372037380E+04  0.17770000000E+01 0. -1.
        -16    1    3    3    0    0 -0.10528123285E+03  0.85303526248E+03  0.32719623187E+03  0.91967965683E+03  0.00000000000E+00 0.  1.
          2    1    6    6  502    0 -0.62461042768E+02 -0.84124803001E+03  0.49250681232E+03  0.97681246411E+03  0.00000000000E+00 0. -1.
         -1    1    6    6    0  502 -0.65094463176E+02 -0.27851869464E+03  0.18303936349E+03  0.33957821041E+03  0.00000000000E+00 0.  1.
<mgrwt>
<rscale>  0 0.19317153E+04</rscale>
<asrwt>0</asrwt>
<pdfrwt beam="1">  1        1 0.44856341E+00 0.19317153E+04</pdfrwt>
<pdfrwt beam="2">  1       -2 0.20076675E+00 0.19317153E+04</pdfrwt>
<totfact> 0.71394474E-02</totfact>
</mgrwt>
</event>
<event>
12    3  0.1092576E-007  0.8885730E+03  0.7818608E-02  0.9439980E-01
          1   -1    0    0  501    0  0.00000000000E+00  0.00000000000E+00  0.18121157788E+04  0.18121157788E+04  0.00000000000E+00 0. -1.
         -2   -1    0    0    0  501 -0.00000000000E+00 -0.00000000000E+00 -0.52311324084E+03  0.52311324084E+03  0.00000000000E+00 0.  1.
        -24    2    1    2    0    0 -0.84904577578E+03  0.16942643474E+03  0.40066013151E+03  0.95729763913E+03  0.79411477329E+02 0.  0.
    5000000    2    1    2    0    0  0.84904577578E+03 -0.16942643474E+03  0.88834240640E+03  0.13779313805E+04  0.59996550910E+03 0.  0.
        -24    2    4    4    0    0  0.60956964632E+02 -0.79036325490E+02  0.45039354869E+03  0.46791840356E+03  0.78299370407E+02 0.  0.
         24    2    4    4    0    0  0.78808881115E+03 -0.90390109255E+02  0.43794885771E+03  0.91001297691E+03  0.84083708628E+02 0.  0.
         11    1    5    5    0    0  0.59825641523E+02 -0.30549821482E+02  0.16041481702E+03  0.17391179516E+03  0.00000000000E+00 0. -1.
        -12    1    5    5    0    0  0.11313231083E+01 -0.48486504007E+02  0.28997873167E+03  0.29400660840E+03  0.00000000000E+00 0.  1.
         15    1    3    3    0    0 -0.63676827099E+03  0.15473240072E+03  0.27932877666E+03  0.71235080541E+03  0.17770000000E+01 0. -1.
        -16    1    3    3    0    0 -0.21227750480E+03  0.14694034026E+02  0.12133135486E+03  0.24494683372E+03  0.00000000000E+00 0.  1.
          2    1    6    6  502    0  0.51841363763E+03 -0.52594009465E+02  0.33179198817E+03  0.61774165549E+03  0.00000000000E+00 0. -1.
         -1    1    6    6    0  502  0.26967517352E+03 -0.37796099790E+02  0.10615686954E+03  0.29227132141E+03  0.00000000000E+00 0.  1.
<mgrwt>
<rscale>  0 0.88857298E+03</rscale>
<asrwt>0</asrwt>
<pdfrwt beam="1">  1        1 0.27878704E+00 0.88857298E+03</pdfrwt>
<pdfrwt beam="2">  1       -2 0.80478961E-01 0.88857298E+03</pdfrwt>
<totfact> 0.48764365E+00</totfact>
</mgrwt>
</event>
<event>
12    3  0.1092576E-007  0.8296681E+03  0.7818608E-02  0.9518040E-01
         -2   -1    0    0    0  501 -0.00000000000E+00  0.00000000000E+00  0.90476946112E+03  0.90476946112E+03  0.00000000000E+00 0.  1.
          1   -1    0    0  501    0  0.00000000000E+00 -0.00000000000E+00 -0.80657168048E+03  0.80657168048E+03  0.00000000000E+00 0. -1.
        -24    2    1    2    0    0 -0.23429418210E+03  0.69006869422E+03 -0.11897725013E+03  0.74251179000E+03  0.77971826535E+02 0.  0.
    5000000    2    1    2    0    0  0.23429418210E+03 -0.69006869422E+03  0.21717503077E+03  0.96882935159E+03  0.60031387791E+03 0.  0.
        -24    2    4    4    0    0  0.11523554211E+03  0.72301972790E+02  0.90835446774E+02  0.18279141582E+03  0.81577067070E+02 0.  0.
         24    2    4    4    0    0  0.11905863999E+03 -0.76237066701E+03  0.12633958400E+03  0.78603793578E+03  0.80684275547E+02 0.  0.
         13    1    5    5    0    0  0.62928687698E+02  0.77120837479E+02  0.83161731678E+02  0.12970550075E+03  0.00000000000E+00 0. -1.
        -14    1    5    5    0    0  0.52306854411E+02 -0.48188646899E+01  0.76737150954E+01  0.53085915069E+02  0.00000000000E+00 0.  1.
         15    1    3    3    0    0 -0.16723620027E+03  0.37736532970E+03 -0.78228437052E+02  0.42011353803E+03  0.17770000000E+01 0. -1.
        -16    1    3    3    0    0 -0.67057981833E+02  0.31270336452E+03 -0.40748813076E+02  0.32239825197E+03  0.00000000000E+00 0.  1.
          2    1    6    6  502    0  0.28453048239E+02 -0.40557263232E+03  0.45152619691E+02  0.40906905909E+03  0.00000000000E+00 0. -1.
         -1    1    6    6    0  502  0.90605591756E+02 -0.35679803469E+03  0.81186964306E+02  0.37696887669E+03  0.00000000000E+00 0.  1.
<mgrwt>
<rscale>  0 0.82966807E+03</rscale>
<asrwt>0</asrwt>
<pdfrwt beam="1">  1        1 0.12408795E+00 0.82966807E+03</pdfrwt>
<pdfrwt beam="2">  1       -2 0.13919530E+00 0.82966807E+03</pdfrwt>
<totfact> 0.70631698E+00</totfact>
</mgrwt>
</event>
<event>
12    3  0.1092576E-007  0.3803880E+03  0.7818608E-02  0.1050790E+00
         -2   -1    0    0    0  501 -0.00000000000E+00  0.00000000000E+00  0.23886681527E+03  0.23886681527E+03  0.00000000000E+00 0.  1.
          1   -1    0    0  501    0  0.00000000000E+00 -0.00000000000E+00 -0.64886652729E+03  0.64886652729E+03  0.00000000000E+00 0. -1.
        -24    2    1    2    0    0 -0.56253968972E+01  0.13613441458E+03 -0.15180982360E+03  0.22048744002E+03  0.83691485491E+02 0.  0.
    5000000    2    1    2    0    0  0.56253968972E+01 -0.13613441458E+03 -0.25818988841E+03  0.66724590254E+03  0.59999237666E+03 0.  0.
        -24    2    4    4    0    0 -0.18603512958E+03  0.15293505902E+03 -0.15432446191E+03  0.29695043985E+03  0.79782971041E+02 0.  0.
         24    2    4    4    0    0  0.19166052648E+03 -0.28906947360E+03 -0.10386542651E+03  0.37029546269E+03  0.77690314028E+02 0.  0.
         11    1    5    5    0    0 -0.11559036963E+03  0.13816597768E+03 -0.12482964515E+03  0.21916526013E+03  0.00000000000E+00 0. -1.
        -12    1    5    5    0    0 -0.70444759951E+02  0.14769081336E+02 -0.29494816756E+02  0.77785179717E+02  0.00000000000E+00 0.  1.
         15    1    3    3    0    0 -0.31138788815E+02  0.12465080605E+02 -0.29915456986E+02  0.44978825007E+02  0.17770000000E+01 0. -1.
        -16    1    3    3    0    0  0.25513391918E+02  0.12366933397E+03 -0.12189436662E+03  0.17550861502E+03  0.00000000000E+00 0.  1.
          4    1    6    6  502    0  0.50542968425E+02 -0.10790713128E+03 -0.69932151813E+02  0.13816311554E+03  0.00000000000E+00 0. -1.
         -3    1    6    6    0  502  0.14111755805E+03 -0.18116234232E+03 -0.33933274692E+02  0.23213234716E+03  0.00000000000E+00 0.  1.
<mgrwt>
<rscale>  0 0.38038799E+03</rscale>
<asrwt>0</asrwt>
<pdfrwt beam="1">  1        1 0.99825619E-01 0.38038799E+03</pdfrwt>
<pdfrwt beam="2">  1       -2 0.36748741E-01 0.38038799E+03</pdfrwt>
<totfact> 0.19349158E+02</totfact>
</mgrwt>
</event>
<event>
12    3  0.1092576E-007  0.6260099E+03  0.7818608E-02  0.9852866E-01
         -4   -1    0    0    0  501 -0.00000000000E+00  0.00000000000E+00  0.77338609674E+03  0.77338609674E+03  0.00000000000E+00 0.  1.
          3   -1    0    0  501    0  0.00000000000E+00 -0.00000000000E+00 -0.72241650248E+03  0.72241650248E+03  0.00000000000E+00 0. -1.
        -24    2    1    2    0    0  0.44530046309E+03 -0.37354741207E+03  0.24864998144E+03  0.63736522847E+03  0.81101477808E+02 0.  0.
    5000000    2    1    2    0    0 -0.44530046309E+03  0.37354741207E+03 -0.19768038718E+03  0.85843737075E+03  0.60000584375E+03 0.  0.
        -24    2    4    4    0    0 -0.27688441667E+03  0.31167238225E+02 -0.33082790412E+03  0.44600900537E+03  0.10881430877E+03 0.  0.
         24    2    4    4    0    0 -0.16841604642E+03  0.34238017385E+03  0.13314751694E+03  0.41242836538E+03  0.82345292316E+02 0.  0.
         11    1    5    5    0    0 -0.87522346306E+02 -0.24815241994E+01 -0.37498829424E+02  0.95249573613E+02  0.00000000000E+00 0. -1.
        -12    1    5    5    0    0 -0.18936207037E+03  0.33648762424E+02 -0.29332907470E+03  0.35075943176E+03  0.00000000000E+00 0.  1.
         15    1    3    3    0    0  0.32858561016E+03 -0.22819486451E+03  0.15867883997E+03  0.43037603485E+03  0.17770000000E+01 0. -1.
        -16    1    3    3    0    0  0.11671485293E+03 -0.14535254757E+03  0.89971141470E+02  0.20698919362E+03  0.00000000000E+00 0.  1.
          4    1    6    6  502    0 -0.13506105948E+03  0.21427334671E+03  0.11721596725E+03  0.27909521650E+03  0.00000000000E+00 0. -1.
         -3    1    6    6    0  502 -0.33354986936E+02  0.12810682714E+03  0.15931549697E+02  0.13333314888E+03  0.00000000000E+00 0.  1.
<mgrwt>
<rscale>  0 0.62600993E+03</rscale>
<asrwt>0</asrwt>
<pdfrwt beam="1">  1        3 0.11114100E+00 0.62600993E+03</pdfrwt>
<pdfrwt beam="2">  1       -4 0.11898248E+00 0.62600993E+03</pdfrwt>
<totfact> 0.83231752E-01</totfact>
</mgrwt>
</event>
<event>
12    3  0.1092576E-007  0.6162532E+03  0.7818608E-02  0.9872248E-01
          1   -1    0    0  501    0  0.00000000000E+00  0.00000000000E+00  0.46792386269E+03  0.46792386269E+03  0.00000000000E+00 0. -1.
         -2   -1    0    0    0  501 -0.00000000000E+00 -0.00000000000E+00 -0.96614728061E+03  0.96614728061E+03  0.00000000000E+00 0.  1.
        -24    2    1    2    0    0  0.12262930806E+03  0.50492487925E+03 -0.63922259699E+02  0.52927526382E+03  0.77840662374E+02 0.  0.
    5000000    2    1    2    0    0 -0.12262930806E+03 -0.50492487925E+03 -0.43430115822E+03  0.90479587948E+03  0.60004250400E+03 0.  0.
        -24    2    4    4    0    0  0.50509450071E+01 -0.55171796609E+03 -0.48524202761E+03  0.73917398310E+03  0.80623357546E+02 0.  0.
         24    2    4    4    0    0 -0.12768025307E+03  0.46793086838E+02  0.50940869391E+02  0.16562189638E+03  0.79647977913E+02 0.  0.
         11    1    5    5    0    0  0.30584295383E+02 -0.89155950073E+02 -0.77435331495E+02  0.12198529879E+03  0.00000000000E+00 0. -1.
        -12    1    5    5    0    0 -0.25533350376E+02 -0.46256201602E+03 -0.40780669612E+03  0.61718868431E+03  0.00000000000E+00 0.  1.
         15    1    3    3    0    0  0.10937029319E+03  0.34651254793E+03 -0.70626866807E+02  0.37016769031E+03  0.17770000000E+01 0. -1.
        -16    1    3    3    0    0  0.13259014870E+02  0.15841233133E+03  0.67046071073E+01  0.15910757351E+03  0.00000000000E+00 0.  1.
          4    1    6    6  502    0 -0.99805997239E+02  0.65229021661E+02  0.56163557663E+02  0.13179684200E+03  0.00000000000E+00 0. -1.
         -1    1    6    6    0  502 -0.27874255830E+02 -0.18435934822E+02 -0.52226882719E+01  0.33825054377E+02  0.00000000000E+00 0.  1.
<mgrwt>
<rscale>  0 0.61625324E+03</rscale>
<asrwt>0</asrwt>
<pdfrwt beam="1">  1        1 0.71988286E-01 0.61625324E+03</pdfrwt>
<pdfrwt beam="2">  1       -2 0.14863804E+00 0.61625324E+03</pdfrwt>
<totfact> 0.13470959E+01</totfact>
</mgrwt>
</event>
<event>
12    3  0.1092576E-007  0.1587788E+04  0.7818608E-02  0.8828085E-01
          1   -1    0    0  501    0  0.00000000000E+00  0.00000000000E+00  0.22121437358E+04  0.22121437358E+04  0.00000000000E+00 0. -1.
         -2   -1    0    0    0  501 -0.00000000000E+00 -0.00000000000E+00 -0.14717921659E+04  0.14717921659E+04  0.00000000000E+00 0.  1.
        -24    2    1    2    0    0 -0.95145582553E+03  0.12136079159E+04  0.12122402139E+04  0.19632204687E+04  0.81215215966E+02 0.  0.
    5000000    2    1    2    0    0  0.95145582553E+03 -0.12136079159E+04 -0.47188864400E+03  0.17207154330E+04  0.60005862028E+03 0.  0.
        -24    2    4    4    0    0  0.66832040060E+03 -0.42595553100E+03 -0.10522744751E+03  0.80344493164E+03  0.79753810068E+02 0.  0.
         24    2    4    4    0    0  0.28313542493E+03 -0.78765238488E+03 -0.36666119649E+03  0.91727050140E+03  0.79892374378E+02 0.  0.
         13    1    5    5    0    0  0.49648936937E+03 -0.34142881458E+03 -0.52598584091E+02  0.60484869213E+03  0.00000000000E+00 0. -1.
        -14    1    5    5    0    0  0.17183103123E+03 -0.84526716413E+02 -0.52628863418E+02  0.19859623951E+03  0.00000000000E+00 0.  1.
         15    1    3    3    0    0 -0.81815483331E+03  0.10129095898E+04  0.10510127695E+04  0.16733183104E+04  0.17770000000E+01 0. -1.
        -16    1    3    3    0    0 -0.13330099222E+03  0.20069832604E+03  0.16122744438E+03  0.28990215836E+03  0.00000000000E+00 0.  1.
          4    1    6    6  502    0  0.97475263500E+02 -0.34526846274E+03 -0.12367484290E+03  0.37948281269E+03  0.00000000000E+00 0. -1.
         -3    1    6    6    0  502  0.18566016143E+03 -0.44238392213E+03 -0.24298635359E+03  0.53778768872E+03  0.00000000000E+00 0.  1.
<mgrwt>
<rscale>  0 0.15877885E+04</rscale>
<asrwt>0</asrwt>
<pdfrwt beam="1">  1        1 0.34032981E+00 0.15877885E+04</pdfrwt>
<pdfrwt beam="2">  1       -2 0.22642956E+00 0.15877885E+04</pdfrwt>
<totfact> 0.15709233E-01</totfact>
</mgrwt>
</event>
<event>
12    3  0.1092576E-007  0.5872424E+03  0.7818608E-02  0.9932233E-01
          1   -1    0    0  501    0  0.00000000000E+00  0.00000000000E+00  0.32889394309E+03  0.32889394309E+03  0.00000000000E+00 0. -1.
         -2   -1    0    0    0  501 -0.00000000000E+00 -0.00000000000E+00 -0.11272650835E+04  0.11272650835E+04  0.00000000000E+00 0.  1.
        -24    2    1    2    0    0  0.32093951395E+02 -0.45160082121E+03 -0.37604256527E+03  0.59396648049E+03  0.80092731355E+02 0.  0.
    5000000    2    1    2    0    0 -0.32093951395E+02  0.45160082121E+03 -0.42232857518E+03  0.86219254614E+03  0.60003436383E+03 0.  0.
        -24    2    4    4    0    0 -0.28117664230E+03  0.17034359483E+03 -0.80074167054E+02  0.34818815794E+03  0.82133285719E+02 0.  0.
         24    2    4    4    0    0  0.24908269091E+03  0.28125722639E+03 -0.34225440813E+03  0.51400438820E+03  0.76906546581E+02 0.  0.
         13    1    5    5    0    0 -0.12528963200E+03  0.12296224646E+03 -0.33304470244E+02  0.17867958383E+03  0.00000000000E+00 0. -1.
        -14    1    5    5    0    0 -0.15588701031E+03  0.47381348368E+02 -0.46769696810E+02  0.16950857410E+03  0.00000000000E+00 0.  1.
         15    1    3    3    0    0  0.75243034380E+01 -0.41773831699E+03 -0.34568375821E+03  0.54227514699E+03  0.17770000000E+01 0. -1.
        -16    1    3    3    0    0  0.24569647957E+02 -0.33862504222E+02 -0.30358807054E+02  0.51691333497E+02  0.00000000000E+00 0.  1.
          2    1    6    6  502    0  0.16839741531E+03  0.20550681538E+03 -0.19391024677E+03  0.32892540865E+03  0.00000000000E+00 0. -1.
         -1    1    6    6    0  502  0.80685275602E+02  0.75750411005E+02 -0.14834416135E+03  0.18507897956E+03  0.00000000000E+00 0.  1.
<mgrwt>
<rscale>  0 0.58724240E+03</rscale>
<asrwt>0</asrwt>
<pdfrwt beam="1">  1        1 0.50599070E-01 0.58724240E+03</pdfrwt>
<pdfrwt beam="2">  1       -2 0.17342539E+00 0.58724240E+03</pdfrwt>
<totfact> 0.14182738E+01</totfact>
</mgrwt>
</event>
<event>
12    3  0.1092576E-007  0.1085450E+04  0.7818608E-02  0.9219491E-01
          1   -1    0    0  501    0  0.00000000000E+00  0.00000000000E+00  0.11516212816E+04  0.11516212816E+04  0.00000000000E+00 0. -1.
         -2   -1    0    0    0  501 -0.00000000000E+00 -0.00000000000E+00 -0.14133867173E+04  0.14133867173E+04  0.00000000000E+00 0.  1.
        -24    2    1    2    0    0  0.59857624418E+03  0.87516331382E+03  0.44847637108E+03  0.11547805721E+04  0.90458655751E+02 0.  0.
    5000000    2    1    2    0    0 -0.59857624418E+03 -0.87516331382E+03 -0.71024180680E+03  0.14102274268E+04  0.60007801602E+03 0.  0.
        -24    2    4    4    0    0 -0.58639556761E+03 -0.63962055074E+03 -0.27999322658E+03  0.91533446634E+03  0.80416215309E+02 0.  0.
         24    2    4    4    0    0 -0.12180676570E+02 -0.23554276308E+03 -0.43024858023E+03  0.49489296050E+03  0.64625377710E+02 0.  0.
         13    1    5    5    0    0 -0.10465706595E+03 -0.16004112527E+03 -0.48983077814E+02  0.19739707481E+03  0.00000000000E+00 0. -1.
        -14    1    5    5    0    0 -0.48173850166E+03 -0.47957942547E+03 -0.23101014876E+03  0.71793739152E+03  0.00000000000E+00 0.  1.
         15    1    3    3    0    0  0.45554527975E+03  0.60595771778E+03  0.29486584623E+03  0.81342195855E+03  0.17770000000E+01 0. -1.
        -16    1    3    3    0    0  0.14303096443E+03  0.26920559604E+03  0.15361052485E+03  0.34135861359E+03  0.00000000000E+00 0.  1.
          4    1    6    6  502    0  0.68869031612E+01 -0.53184659040E+02 -0.15632993672E+03  0.16527276396E+03  0.00000000000E+00 0. -1.
         -3    1    6    6    0  502 -0.19067579731E+02 -0.18235810404E+03 -0.27391864350E+03  0.32962019653E+03  0.00000000000E+00 0.  1.
<mgrwt>
<rscale>  0 0.10854498E+04</rscale>
<asrwt>0</asrwt>
<pdfrwt beam="1">  1        1 0.17717251E+00 0.10854498E+04</pdfrwt>
<pdfrwt beam="2">  1       -2 0.21744411E+00 0.10854498E+04</pdfrwt>
<totfact> 0.10307755E+00</totfact>
</mgrwt>
</event>
<event>
12    3  0.1092576E-007  0.1170350E+04  0.7818608E-02  0.9139213E-01
         -2   -1    0    0    0  501 -0.00000000000E+00  0.00000000000E+00  0.14054028040E+04  0.14054028040E+04  0.00000000000E+00 0.  1.
          1   -1    0    0  501    0  0.00000000000E+00 -0.00000000000E+00 -0.11827216246E+04  0.11827216246E+04  0.00000000000E+00 0. -1.
        -24    2    1    2    0    0  0.11326089791E+04  0.10163789236E+03  0.54367413402E+03  0.12629140105E+04  0.78973877143E+02 0.  0.
    5000000    2    1    2    0    0 -0.11326089791E+04 -0.10163789236E+03 -0.32099295462E+03  0.13252104180E+04  0.60001067860E+03 0.  0.
        -24    2    4    4    0    0 -0.34266011423E+02 -0.58237872582E+02  0.10246039834E+03  0.14462299924E+03  0.76497511971E+02 0.  0.
         24    2    4    4    0    0 -0.10983429677E+04 -0.43400019773E+02 -0.42345335297E+03  0.11805874188E+04  0.78949825244E+02 0.  0.
         13    1    5    5    0    0 -0.51104231682E+02 -0.15531790097E+02  0.71520754403E+02  0.89264199485E+02  0.00000000000E+00 0. -1.
        -14    1    5    5    0    0  0.16838220259E+02 -0.42706082485E+02  0.30939643941E+02  0.55358799752E+02  0.00000000000E+00 0.  1.
         15    1    3    3    0    0  0.82124232178E+03  0.10752072259E+03  0.38390349408E+03  0.91289906746E+03  0.17770000000E+01 0. -1.
        -16    1    3    3    0    0  0.31136665732E+03 -0.58828302321E+01  0.15977063994E+03  0.35001494307E+03  0.00000000000E+00 0.  1.
          2    1    6    6  502    0 -0.39069618107E+03  0.20124387752E+02 -0.13667782891E+03  0.41440237186E+03  0.00000000000E+00 0. -1.
         -1    1    6    6    0  502 -0.70764678660E+03 -0.63524407525E+02 -0.28677552406E+03  0.76618504693E+03  0.00000000000E+00 0.  1.
<mgrwt>
<rscale>  0 0.11703498E+04</rscale>
<asrwt>0</asrwt>
<pdfrwt beam="1">  1        1 0.18195717E+00 0.11703498E+04</pdfrwt>
<pdfrwt beam="2">  1       -2 0.21621582E+00 0.11703498E+04</pdfrwt>
<totfact> 0.98554629E-01</totfact>
</mgrwt>
</event>
<event>
12    3  0.1092576E-007  0.1044447E+04  0.7818608E-02  0.9261096E-01
         -2   -1    0    0    0  501 -0.00000000000E+00  0.00000000000E+00  0.79829439172E+03  0.79829439172E+03  0.00000000000E+00 0.  1.
          1   -1    0    0  501    0  0.00000000000E+00 -0.00000000000E+00 -0.15771727793E+04  0.15771727793E+04  0.00000000000E+00 0. -1.
        -24    2    1    2    0    0 -0.98932042134E+02  0.10353743217E+04 -0.33861630056E+03  0.10965582130E+04  0.77404008302E+02 0.  0.
    5000000    2    1    2    0    0  0.98932042134E+02 -0.10353743217E+04 -0.44026208706E+03  0.12789089581E+04  0.59999156900E+03 0.  0.
        -24    2    4    4    0    0  0.99911758364E+01 -0.67900919304E+03 -0.56208189789E+03  0.88520945005E+03  0.80662275616E+02 0.  0.
         24    2    4    4    0    0  0.88940866297E+02 -0.35636512863E+03  0.12181981083E+03  0.39369950804E+03  0.72475193834E+02 0.  0.
         11    1    5    5    0    0  0.52247800820E+01 -0.20979476591E+03 -0.12696132520E+03  0.24527600826E+03  0.00000000000E+00 0. -1.
        -12    1    5    5    0    0  0.47663957544E+01 -0.46921442712E+03 -0.43512057269E+03  0.63993344179E+03  0.00000000000E+00 0.  1.
         15    1    3    3    0    0 -0.71107829687E+02  0.63395735302E+03 -0.16939177528E+03  0.66004165031E+03  0.17770000000E+01 0. -1.
        -16    1    3    3    0    0 -0.27824212446E+02  0.40141696865E+03 -0.16922452528E+03  0.43651656265E+03  0.00000000000E+00 0.  1.
          4    1    6    6  502    0  0.62138541155E+02 -0.16623045892E+03  0.26855985492E+02  0.17948539697E+03  0.00000000000E+00 0. -1.
         -3    1    6    6    0  502  0.26802325142E+02 -0.19013466971E+03  0.94963825337E+02  0.21421411107E+03  0.00000000000E+00 0.  1.
<mgrwt>
<rscale>  0 0.10444466E+04</rscale>
<asrwt>0</asrwt>
<pdfrwt beam="1">  1        1 0.24264196E+00 0.10444466E+04</pdfrwt>
<pdfrwt beam="2">  1       -2 0.12281452E+00 0.10444466E+04</pdfrwt>
<totfact> 0.25303308E+00</totfact>
</mgrwt>
</event>
<event>
12    3  0.1194659E-007  0.1440517E+04  0.7818608E-02  0.8925001E-01
          1   -1    0    0  501    0  0.00000000000E+00  0.00000000000E+00  0.33062689806E+04  0.33062689806E+04  0.00000000000E+00 0. -1.
         -2   -1    0    0    0  501 -0.00000000000E+00 -0.00000000000E+00 -0.10468200867E+04  0.10468200867E+04  0.00000000000E+00 0.  1.
        -24    2    1    2    0    0 -0.98518848597E+03 -0.10162296362E+04 -0.22123457891E+03  0.14347669322E+04  0.79324551401E+02 0.  0.
    5000000    2    1    2    0    0  0.98518848597E+03  0.10162296362E+04  0.24806834729E+04  0.29183221351E+04  0.59957865644E+03 0.  0.
        -24    2    4    4    0    0  0.24144040138E+03  0.49360904301E+03  0.13853419577E+04  0.14926767861E+04  0.83476303049E+02 0.  0.
         24    2    4    4    0    0  0.74374808459E+03  0.52262059315E+03  0.10953415152E+04  0.14256453490E+04  0.79988302777E+02 0.  0.
         11    1    5    5    0    0  0.26700525836E+02  0.12428036083E+03  0.36518142822E+03  0.38667299063E+03  0.00000000000E+00 0. -1.
        -12    1    5    5    0    0  0.21473987554E+03  0.36932868218E+03  0.10201605295E+04  0.11060037954E+04  0.00000000000E+00 0.  1.
         15    1    3    3    0    0 -0.71339881397E+03 -0.71712710025E+03 -0.12418374117E+03  0.10191338994E+04  0.17770000000E+01 0. -1.
        -16    1    3    3    0    0 -0.27178967200E+03 -0.29910253591E+03 -0.97050837740E+02  0.41563303273E+03  0.00000000000E+00 0.  1.
          4    1    6    6  502    0  0.24282010278E+03  0.13659105846E+03  0.29796393984E+03  0.40792306751E+03  0.00000000000E+00 0. -1.
         -3    1    6    6    0  502  0.50092798182E+03  0.38602953469E+03  0.79737757534E+03  0.10177222815E+04  0.00000000000E+00 0.  1.
<mgrwt>
<rscale>  0 0.14405174E+04</rscale>
<asrwt>0</asrwt>
<pdfrwt beam="1">  1        1 0.50865676E+00 0.14405174E+04</pdfrwt>
<pdfrwt beam="2">  1       -2 0.16104925E+00 0.14405174E+04</pdfrwt>
<totfact> 0.73376099E-02</totfact>
</mgrwt>
</event>
<event>
12    3  0.1092576E-007  0.3274172E+04  0.7818608E-02  0.8169499E-01
          1   -1    0    0  501    0  0.00000000000E+00  0.00000000000E+00  0.42602589060E+04  0.42602589060E+04  0.00000000000E+00 0. -1.
         -2   -1    0    0    0  501 -0.00000000000E+00 -0.00000000000E+00 -0.26616831384E+04  0.26616831384E+04  0.00000000000E+00 0.  1.
        -24    2    1    2    0    0 -0.26519774340E+04 -0.18753070026E+04  0.15937661435E+04  0.36189332009E+04  0.82621592898E+02 0.  0.
    5000000    2    1    2    0    0  0.26519774340E+04  0.18753070026E+04  0.48096240585E+01  0.33030088436E+04  0.60006968272E+03 0.  0.
        -24    2    4    4    0    0  0.97345015486E+03  0.10359129436E+04  0.39528692352E+02  0.14242957340E+04  0.79592647833E+02 0.  0.
         24    2    4    4    0    0  0.16785272791E+04  0.83939405901E+03 -0.34719068294E+02  0.18787131096E+04  0.79506739051E+02 0.  0.
         13    1    5    5    0    0  0.65301049139E+03  0.70383434357E+03 -0.10109791901E+02  0.96016024336E+03  0.00000000000E+00 0. -1.
        -14    1    5    5    0    0  0.32043966347E+03  0.33207860005E+03  0.49638484253E+02  0.46413549062E+03  0.00000000000E+00 0.  1.
         15    1    3    3    0    0 -0.24526285168E+04 -0.17086098127E+04  0.14576045777E+04  0.33255598621E+04  0.17770000000E+01 0. -1.
        -16    1    3    3    0    0 -0.19934891715E+03 -0.16669718996E+03  0.13616156584E+03  0.29337333880E+03  0.00000000000E+00 0.  1.
          2    1    6    6  502    0  0.48075599602E+03  0.27302167313E+03 -0.31737526437E+02  0.55378193569E+03  0.00000000000E+00 0. -1.
         -1    1    6    6    0  502  0.11977712831E+04  0.56637238588E+03 -0.29815418564E+01  0.13249311739E+04  0.00000000000E+00 0.  1.
<mgrwt>
<rscale>  0 0.32741723E+04</rscale>
<asrwt>0</asrwt>
<pdfrwt beam="1">  1        1 0.65542445E+00 0.32741723E+04</pdfrwt>
<pdfrwt beam="2">  1       -2 0.40948971E+00 0.32741723E+04</pdfrwt>
<totfact> 0.23993072E-04</totfact>
</mgrwt>
</event>
<event>
12    3  0.1092576E-007  0.1165766E+04  0.7818608E-02  0.9143360E-01
         -2   -1    0    0    0  501 -0.00000000000E+00  0.00000000000E+00  0.83568211109E+03  0.83568211109E+03  0.00000000000E+00 0.  1.
          1   -1    0    0  501    0  0.00000000000E+00 -0.00000000000E+00 -0.16900581592E+04  0.16900581592E+04  0.00000000000E+00 0. -1.
        -24    2    1    2    0    0  0.10219016734E+04  0.42823672075E+03 -0.31230135496E+03  0.11539543521E+04  0.80054927069E+02 0.  0.
    5000000    2    1    2    0    0 -0.10219016734E+04 -0.42823672075E+03 -0.54207469315E+03  0.13717859182E+04  0.60023488188E+03 0.  0.
        -24    2    4    4    0    0 -0.90014846467E+03 -0.15368951846E+03 -0.26210158294E+03  0.95328513928E+03  0.78534008315E+02 0.  0.
         24    2    4    4    0    0 -0.12175320870E+03 -0.27454720228E+03 -0.27997311021E+03  0.41850077893E+03  0.80981167030E+02 0.  0.
         13    1    5    5    0    0 -0.69934853640E+03 -0.11279219009E+03 -0.16933830886E+03  0.72834464119E+03  0.00000000000E+00 0. -1.
        -14    1    5    5    0    0 -0.20079992827E+03 -0.40897328375E+02 -0.92763274080E+02  0.22494049809E+03  0.00000000000E+00 0.  1.
         15    1    3    3    0    0  0.72444242436E+03  0.28901976317E+03 -0.18416164236E+03  0.80141619522E+03  0.17770000000E+01 0. -1.
        -16    1    3    3    0    0  0.29745924901E+03  0.13921695758E+03 -0.12813971260E+03  0.35253815686E+03  0.00000000000E+00 0.  1.
          4    1    6    6  502    0  0.56396678356E+01 -0.60340416229E+02 -0.40652547106E+02  0.72975347003E+02  0.00000000000E+00 0. -1.
         -3    1    6    6    0  502 -0.12739287653E+03 -0.21420678605E+03 -0.23932056311E+03  0.34552543193E+03  0.00000000000E+00 0.  1.
<mgrwt>
<rscale>  0 0.11657662E+04</rscale>
<asrwt>0</asrwt>
<pdfrwt beam="1">  1        1 0.26000895E+00 0.11657662E+04</pdfrwt>
<pdfrwt beam="2">  1       -2 0.12856648E+00 0.11657662E+04</pdfrwt>
<totfact> 0.18620991E+00</totfact>
</mgrwt>
</event>
<event>
12    3  0.1092576E-007  0.4348763E+03  0.7818608E-02  0.1032331E+00
         -2   -1    0    0    0  501 -0.00000000000E+00  0.00000000000E+00  0.23183379974E+03  0.23183379974E+03  0.00000000000E+00 0.  1.
          1   -1    0    0  501    0  0.00000000000E+00 -0.00000000000E+00 -0.92488883295E+03  0.92488883295E+03  0.00000000000E+00 0. -1.
        -24    2    1    2    0    0  0.20154353181E+03  0.12323962684E+03 -0.70482562860E+02  0.26040139258E+03  0.83864728880E+02 0.  0.
    5000000    2    1    2    0    0 -0.20154353181E+03 -0.12323962684E+03 -0.62257247035E+03  0.89632124011E+03  0.59998956974E+03 0.  0.
        -24    2    4    4    0    0 -0.34495926494E+03  0.99796558725E+02 -0.37514402491E+03  0.52519067216E+03  0.78332337515E+02 0.  0.
         24    2    4    4    0    0  0.14341573312E+03 -0.22303618557E+03 -0.24742844544E+03  0.37113056795E+03  0.78764524209E+02 0.  0.
         11    1    5    5    0    0 -0.25245035158E+03  0.78501148536E+02 -0.22302064266E+03  0.34587832743E+03  0.00000000000E+00 0. -1.
        -12    1    5    5    0    0 -0.92508913360E+02  0.21295410188E+02 -0.15212338225E+03  0.17931234473E+03  0.00000000000E+00 0.  1.
         15    1    3    3    0    0  0.10249420985E+03  0.10042287918E+03 -0.14167922460E+02  0.14420022701E+03  0.17770000000E+01 0. -1.
        -16    1    3    3    0    0  0.99049321966E+02  0.22816747665E+02 -0.56314640399E+02  0.11620116557E+03  0.00000000000E+00 0.  1.
          2    1    6    6  502    0  0.44878179648E+01 -0.10134423019E+02  0.56279156725E+01  0.12430626486E+02  0.00000000000E+00 0. -1.
         -1    1    6    6    0  502  0.13892791516E+03 -0.21290176255E+03 -0.25305636111E+03  0.35869994146E+03  0.00000000000E+00 0.  1.
<mgrwt>
<rscale>  0 0.43487625E+03</rscale>
<asrwt>0</asrwt>
<pdfrwt beam="1">  1        1 0.14229059E+00 0.43487625E+03</pdfrwt>
<pdfrwt beam="2">  1       -2 0.35666739E-01 0.43487625E+03</pdfrwt>
<totfact> 0.11753720E+02</totfact>
</mgrwt>
</event>
<event>
12    3  0.1092576E-007  0.5661621E+03  0.7818608E-02  0.9978207E-01
         -2   -1    0    0    0  501 -0.00000000000E+00  0.00000000000E+00  0.10638108667E+04  0.10638108667E+04  0.00000000000E+00 0.  1.
          1   -1    0    0  501    0  0.00000000000E+00 -0.00000000000E+00 -0.44071672810E+03  0.44071672810E+03  0.00000000000E+00 0. -1.
        -24    2    1    2    0    0 -0.44962449830E+03 -0.26183972897E+03  0.44829577716E+03  0.69133579947E+03  0.79081291553E+02 0.  0.
    5000000    2    1    2    0    0  0.44962449830E+03  0.26183972897E+03  0.17479836140E+03  0.81319179529E+03  0.60000349635E+03 0.  0.
        -24    2    4    4    0    0  0.40048478336E+03  0.31000936759E+03 -0.97029031646E+02  0.52192166829E+03  0.80583653100E+02 0.  0.
         24    2    4    4    0    0  0.49139714938E+02 -0.48169638622E+02  0.27182739305E+03  0.29127012700E+03  0.78823407705E+02 0.  0.
         11    1    5    5    0    0  0.85963226025E+02  0.97472080131E+02  0.61442736155E+00  0.12996484199E+03  0.00000000000E+00 0. -1.
        -12    1    5    5    0    0  0.31452155734E+03  0.21253728746E+03 -0.97643459008E+02  0.39195682629E+03  0.00000000000E+00 0.  1.
         15    1    3    3    0    0 -0.31713062387E+03 -0.18293744327E+03  0.26589243076E+03  0.45248191479E+03  0.17770000000E+01 0. -1.
        -16    1    3    3    0    0 -0.13249387443E+03 -0.78902285698E+02  0.18240334640E+03  0.23885388468E+03  0.00000000000E+00 0.  1.
          4    1    6    6  502    0  0.24903043711E+01  0.19823460574E+02  0.32649177505E+02  0.38277147186E+02  0.00000000000E+00 0. -1.
         -3    1    6    6    0  502  0.46649410567E+02 -0.67993099196E+02  0.23917821554E+03  0.25299297981E+03  0.00000000000E+00 0.  1.
<mgrwt>
<rscale>  0 0.56616215E+03</rscale>
<asrwt>0</asrwt>
<pdfrwt beam="1">  1        1 0.67802574E-01 0.56616215E+03</pdfrwt>
<pdfrwt beam="2">  1       -2 0.16366321E+00 0.56616215E+03</pdfrwt>
<totfact> 0.11356701E+01</totfact>
</mgrwt>
</event>
<event>
12    3  0.1092576E-007  0.4356244E+03  0.7818608E-02  0.1032098E+00
         -2   -1    0    0    0  501 -0.00000000000E+00  0.00000000000E+00  0.34651124439E+03  0.34651124439E+03  0.00000000000E+00 0.  1.
          1   -1    0    0  501    0  0.00000000000E+00 -0.00000000000E+00 -0.99531261395E+03  0.99531261395E+03  0.00000000000E+00 0. -1.
        -24    2    1    2    0    0  0.24543690587E+03  0.31979264059E+03 -0.72275642015E+02  0.41719970629E+03  0.79531243945E+02 0.  0.
    5000000    2    1    2    0    0 -0.24543690587E+03 -0.31979264059E+03 -0.57652572755E+03  0.92462415205E+03  0.60003441593E+03 0.  0.
        -24    2    4    4    0    0 -0.15145989489E+03 -0.38674262301E+02 -0.59083055983E+03  0.61635281175E+03  0.79838836413E+02 0.  0.
         24    2    4    4    0    0 -0.93977010977E+02 -0.28111837829E+03  0.14304832285E+02  0.30827134030E+03  0.83470772237E+02 0.  0.
         13    1    5    5    0    0 -0.18699601353E+02 -0.17034709628E+01 -0.14360882787E+02  0.23639201732E+02  0.00000000000E+00 0. -1.
        -14    1    5    5    0    0 -0.13276029354E+03 -0.36970791338E+02 -0.57646967704E+03  0.59271361002E+03  0.00000000000E+00 0.  1.
         15    1    3    3    0    0  0.18642831401E+03  0.18145595960E+03 -0.37706072008E+02  0.26288150778E+03  0.17770000000E+01 0. -1.
        -16    1    3    3    0    0  0.59008591858E+02  0.13833668099E+03 -0.34569570007E+02  0.15431819851E+03  0.00000000000E+00 0.  1.
          2    1    6    6  502    0 -0.48596209439E+02 -0.54657258936E+02  0.24366029795E+02  0.77088980628E+02  0.00000000000E+00 0. -1.
         -1    1    6    6    0  502 -0.45380801538E+02 -0.22646111936E+03 -0.10061197510E+02  0.23118235967E+03  0.00000000000E+00 0.  1.
<mgrwt>
<rscale>  0 0.43562441E+03</rscale>
<asrwt>0</asrwt>
<pdfrwt beam="1">  1        1 0.15312502E+00 0.43562441E+03</pdfrwt>
<pdfrwt beam="2">  1       -2 0.53309422E-01 0.43562441E+03</pdfrwt>
<totfact> 0.47013784E+01</totfact>
</mgrwt>
</event>
<event>
12    3  0.1092576E-007  0.3846636E+03  0.7818608E-02  0.1049223E+00
         -2   -1    0    0    0  501 -0.00000000000E+00  0.00000000000E+00  0.17264138116E+03  0.17264138116E+03  0.00000000000E+00 0.  1.
          1   -1    0    0  501    0  0.00000000000E+00 -0.00000000000E+00 -0.10176554845E+04  0.10176554845E+04  0.00000000000E+00 0. -1.
        -24    2    1    2    0    0 -0.18407631394E+03  0.51354883121E+02 -0.23197627404E+03  0.31139360767E+03  0.81434475525E+02 0.  0.
    5000000    2    1    2    0    0  0.18407631394E+03 -0.51354883121E+02 -0.61303782934E+03  0.87890325803E+03  0.60011177575E+03 0.  0.
        -24    2    4    4    0    0  0.67639185064E+02 -0.29138908080E+03 -0.15710382994E+03  0.34463771426E+03  0.67903497290E+02 0.  0.
         24    2    4    4    0    0  0.11643712888E+03  0.24003419768E+03 -0.45593399941E+03  0.53426554377E+03  0.79936464783E+02 0.  0.
         11    1    5    5    0    0  0.30531463405E+02 -0.10149967685E+03 -0.92431606808E+02  0.14063412315E+03  0.00000000000E+00 0. -1.
        -12    1    5    5    0    0  0.37107721659E+02 -0.18988940396E+03 -0.64672223129E+02  0.20400359111E+03  0.00000000000E+00 0.  1.
         15    1    3    3    0    0 -0.97380217940E+02  0.16422043901E+02 -0.17770815522E+03  0.20331241116E+03  0.17770000000E+01 0. -1.
        -16    1    3    3    0    0 -0.86696096003E+02  0.34932839220E+02 -0.54268118821E+02  0.10808119651E+03  0.00000000000E+00 0.  1.
          4    1    6    6  502    0  0.15202345125E+02  0.11835705695E+03 -0.21730673590E+03  0.24791474683E+03  0.00000000000E+00 0. -1.
         -3    1    6    6    0  502  0.10123478375E+03  0.12167714074E+03 -0.23862726350E+03  0.28635079694E+03  0.00000000000E+00 0.  1.
<mgrwt>
<rscale>  0 0.38466364E+03</rscale>
<asrwt>0</asrwt>
<pdfrwt beam="1">  1        1 0.15656239E+00 0.38466364E+03</pdfrwt>
<pdfrwt beam="2">  1       -2 0.26560212E-01 0.38466364E+03</pdfrwt>
<totfact> 0.17276475E+02</totfact>
</mgrwt>
</event>
<event>
12    3  0.1092576E-007  0.4466810E+03  0.7818608E-02  0.1028716E+00
         -2   -1    0    0    0  501 -0.00000000000E+00  0.00000000000E+00  0.20724364598E+03  0.20724364598E+03  0.00000000000E+00 0.  1.
          1   -1    0    0  501    0  0.00000000000E+00 -0.00000000000E+00 -0.15090671831E+04  0.15090671831E+04  0.00000000000E+00 0. -1.
        -24    2    1    2    0    0 -0.90619236548E+01  0.25022734184E+03 -0.93192310261E+03  0.96829545299E+03  0.80122244347E+02 0.  0.
    5000000    2    1    2    0    0  0.90619236548E+01 -0.25022734184E+03 -0.36990043446E+03  0.74801537604E+03  0.60000402525E+03 0.  0.
        -24    2    4    4    0    0 -0.43472609738E+02 -0.43286330751E+03 -0.27609260444E+03  0.52142782184E+03  0.79995852185E+02 0.  0.
         24    2    4    4    0    0  0.52534533393E+02  0.18263596567E+03 -0.93807830017E+02  0.22658755420E+03  0.80163817215E+02 0.  0.
         11    1    5    5    0    0 -0.42835173330E+02 -0.16729841342E+03 -0.14384474460E+03  0.22475524856E+03  0.00000000000E+00 0. -1.
        -12    1    5    5    0    0 -0.63743640790E+00 -0.26556489409E+03 -0.13224785985E+03  0.29667257328E+03  0.00000000000E+00 0.  1.
         15    1    3    3    0    0  0.15513336013E+02  0.11809428937E+03 -0.56778543373E+03  0.58014686181E+03  0.17770000000E+01 0. -1.
        -16    1    3    3    0    0 -0.24575259668E+02  0.13213305247E+03 -0.36413766888E+03  0.38814859119E+03  0.00000000000E+00 0.  1.
          2    1    6    6  502    0  0.34949746360E+02  0.25010770721E+02 -0.41072058909E+02  0.59446929658E+02  0.00000000000E+00 0. -1.
         -1    1    6    6    0  502  0.17584787033E+02  0.15762519495E+03 -0.52735771108E+02  0.16714062454E+03  0.00000000000E+00 0.  1.
<mgrwt>
<rscale>  0 0.44668099E+03</rscale>
<asrwt>0</asrwt>
<pdfrwt beam="1">  1        1 0.23216418E+00 0.44668099E+03</pdfrwt>
<pdfrwt beam="2">  1       -2 0.31883638E-01 0.44668099E+03</pdfrwt>
<totfact> 0.55220247E+01</totfact>
</mgrwt>
</event>
<event>
12    3  0.1092576E-007  0.1795415E+04  0.7818608E-02  0.8708742E-01
          1   -1    0    0  501    0  0.00000000000E+00  0.00000000000E+00  0.92270168354E+03  0.92270168354E+03  0.00000000000E+00 0. -1.
         -2   -1    0    0    0  501 -0.00000000000E+00 -0.00000000000E+00 -0.56227923607E+04  0.56227923607E+04  0.00000000000E+00 0.  1.
        -24    2    1    2    0    0 -0.10185435193E+04 -0.14476311168E+04 -0.42766720540E+04  0.46291712827E+04  0.78969336821E+02 0.  0.
    5000000    2    1    2    0    0  0.10185435193E+04  0.14476311168E+04 -0.42341862316E+03  0.19163227615E+04  0.59995236880E+03 0.  0.
        -24    2    4    4    0    0  0.16770039222E+03  0.40840644239E+02 -0.16522399717E+03  0.25013502240E+03  0.74007975382E+02 0.  0.
         24    2    4    4    0    0  0.85084312710E+03  0.14067904726E+04 -0.25819462599E+03  0.16661877391E+04  0.80769155566E+02 0.  0.
         11    1    5    5    0    0  0.94695904534E+02  0.54476388312E+01 -0.44723696036E+02  0.10486753593E+03  0.00000000000E+00 0. -1.
        -12    1    5    5    0    0  0.73004487683E+02  0.35393005408E+02 -0.12050030113E+03  0.14526748647E+03  0.00000000000E+00 0.  1.
         15    1    3    3    0    0 -0.33297584062E+03 -0.45978145420E+03 -0.14670956439E+04  0.15731003408E+04  0.17770000000E+01 0. -1.
        -16    1    3    3    0    0 -0.68556767869E+03 -0.98784966261E+03 -0.28095764101E+04  0.30560709419E+04  0.00000000000E+00 0.  1.
          2    1    6    6  502    0  0.20037823760E+03  0.36996220906E+03 -0.95525819176E+02  0.43144948298E+03  0.00000000000E+00 0. -1.
         -1    1    6    6    0  502  0.65046488950E+03  0.10368282635E+04 -0.16266880682E+03  0.12347382562E+04  0.00000000000E+00 0.  1.
<mgrwt>
<rscale>  0 0.17954147E+04</rscale>
<asrwt>0</asrwt>
<pdfrwt beam="1">  1        1 0.14195410E+00 0.17954147E+04</pdfrwt>
<pdfrwt beam="2">  1       -2 0.86504499E+00 0.17954147E+04</pdfrwt>
<totfact> 0.34441404E-04</totfact>
</mgrwt>
</event>
<event>
12    3  0.1092576E-007  0.6709213E+03  0.7818608E-02  0.9768295E-01
         -2   -1    0    0    0  501 -0.00000000000E+00  0.00000000000E+00  0.34574330688E+03  0.34574330688E+03  0.00000000000E+00 0.  1.
          1   -1    0    0  501    0  0.00000000000E+00 -0.00000000000E+00 -0.20880697677E+04  0.20880697677E+04  0.00000000000E+00 0. -1.
        -24    2    1    2    0    0  0.16183126373E+02  0.62718649991E+03 -0.13299351626E+04  0.14727134448E+04  0.80824220622E+02 0.  0.
    5000000    2    1    2    0    0 -0.16183126373E+02 -0.62718649991E+03 -0.41239129818E+03  0.96109962971E+03  0.60001759655E+03 0.  0.
        -24    2    4    4    0    0 -0.15897325527E+03 -0.34299685678E+03 -0.49023965114E+03  0.62414430047E+03  0.79384208801E+02 0.  0.
         24    2    4    4    0    0  0.14279012890E+03 -0.28418964313E+03  0.77848352957E+02  0.33695532924E+03  0.79534606778E+02 0.  0.
         13    1    5    5    0    0 -0.85200297627E+02 -0.95562224742E+02 -0.16792815328E+03  0.21116603462E+03  0.00000000000E+00 0. -1.
        -14    1    5    5    0    0 -0.73772957645E+02 -0.24743463204E+03 -0.32231149786E+03  0.41297826585E+03  0.00000000000E+00 0.  1.
         15    1    3    3    0    0  0.35701943714E+02  0.47861611997E+03 -0.10693080294E+04  0.11720797066E+04  0.17770000000E+01 0. -1.
        -16    1    3    3    0    0 -0.19518817341E+02  0.14857037994E+03 -0.26062713318E+03  0.30063373825E+03  0.00000000000E+00 0.  1.
          2    1    6    6  502    0  0.79799194751E+02 -0.83598469611E+02  0.45627226117E+02  0.12425159704E+03  0.00000000000E+00 0. -1.
         -1    1    6    6    0  502  0.62990934147E+02 -0.20059117352E+03  0.32221126840E+02  0.21270373220E+03  0.00000000000E+00 0.  1.
<mgrwt>
<rscale>  0 0.67092131E+03</rscale>
<asrwt>0</asrwt>
<pdfrwt beam="1">  1        1 0.32124151E+00 0.67092131E+03</pdfrwt>
<pdfrwt beam="2">  1       -2 0.53191276E-01 0.67092131E+03</pdfrwt>
<totfact> 0.80342873E+00</totfact>
</mgrwt>
</event>
<event>
12    3  0.1598219E-007  0.2147533E+04  0.7818608E-02  0.8540589E-01
          1   -1    0    0  501    0  0.00000000000E+00  0.00000000000E+00  0.20283868628E+04  0.20283868628E+04  0.00000000000E+00 0. -1.
         -2   -1    0    0    0  501 -0.00000000000E+00 -0.00000000000E+00 -0.23351397396E+04  0.23351397396E+04  0.00000000000E+00 0.  1.
        -24    2    1    2    0    0  0.46581473346E+02  0.21235406832E+04  0.58418393749E+02  0.21263871313E+04  0.80713423560E+02 0.  0.
    5000000    2    1    2    0    0 -0.46581473346E+02 -0.21235406832E+04 -0.36517127061E+03  0.22371394711E+04  0.59987339438E+03 0.  0.
        -24    2    4    4    0    0 -0.21993786006E+03 -0.72393175218E+03  0.56863333537E+02  0.76281971750E+03  0.78807605005E+02 0.  0.
         24    2    4    4    0    0  0.17335638671E+03 -0.13996089310E+04 -0.42203460415E+03  0.14743197536E+04  0.80919293506E+02 0.  0.
         13    1    5    5    0    0 -0.77983254131E+02 -0.15716989719E+03 -0.31124323712E+01  0.17548063068E+03  0.00000000000E+00 0. -1.
        -14    1    5    5    0    0 -0.14195460593E+03 -0.56676185499E+03  0.59975765908E+02  0.58733908682E+03  0.00000000000E+00 0.  1.
         15    1    3    3    0    0 -0.82472561145E+01  0.73288928640E+03  0.49814115507E+02  0.73462870022E+03  0.17770000000E+01 0. -1.
        -16    1    3    3    0    0  0.54828729461E+02  0.13906513968E+04  0.86042782424E+01  0.13917584311E+04  0.00000000000E+00 0.  1.
          4    1    6    6  502    0  0.67503741165E+02 -0.67638660535E+03 -0.24206879965E+03  0.72156281690E+03  0.00000000000E+00 0. -1.
         -3    1    6    6    0  502  0.10585264555E+03 -0.72322232565E+03 -0.17996580451E+03  0.75275693666E+03  0.00000000000E+00 0.  1.
<mgrwt>
<rscale>  0 0.21475330E+04</rscale>
<asrwt>0</asrwt>
<pdfrwt beam="1">  1        1 0.31205952E+00 0.21475330E+04</pdfrwt>
<pdfrwt beam="2">  1       -2 0.35925227E+00 0.21475330E+04</pdfrwt>
<totfact> 0.29744351E-02</totfact>
</mgrwt>
</event>
<event>
12    3  0.1092576E-007  0.6551830E+03  0.7818608E-02  0.9797102E-01
         -2   -1    0    0    0  501 -0.00000000000E+00  0.00000000000E+00  0.30841003495E+03  0.30841003495E+03  0.00000000000E+00 0.  1.
          1   -1    0    0  501    0  0.00000000000E+00 -0.00000000000E+00 -0.15656833245E+04  0.15656833245E+04  0.00000000000E+00 0. -1.
        -24    2    1    2    0    0  0.40513527386E+03  0.38888835198E+03 -0.47887872417E+03  0.74217903050E+03  0.78333520388E+02 0.  0.
    5000000    2    1    2    0    0 -0.40513527386E+03 -0.38888835198E+03 -0.77839456536E+03  0.11319143289E+04  0.59996933939E+03 0.  0.
        -24    2    4    4    0    0 -0.31146716851E+03 -0.49537380918E+03 -0.76790347924E+03  0.96885153088E+03  0.81182064418E+02 0.  0.
         24    2    4    4    0    0 -0.93668105350E+02  0.10648545720E+03 -0.10491086118E+02  0.16306279804E+03  0.79790642694E+02 0.  0.
         13    1    5    5    0    0 -0.14210375515E+03 -0.20977432282E+03 -0.39772316517E+03  0.47157444784E+03  0.00000000000E+00 0. -1.
        -14    1    5    5    0    0 -0.16936341336E+03 -0.28559948636E+03 -0.37018031407E+03  0.49727708304E+03  0.00000000000E+00 0.  1.
         15    1    3    3    0    0  0.18223673897E+03  0.12657180177E+03 -0.16747450143E+03  0.27799553305E+03  0.17770000000E+01 0. -1.
        -16    1    3    3    0    0  0.22289853490E+03  0.26231655021E+03 -0.31140422273E+03  0.46418349745E+03  0.00000000000E+00 0.  1.
          4    1    6    6  502    0 -0.10311403250E+03  0.79377583015E+02  0.54215853170E+01  0.13024092279E+03  0.00000000000E+00 0. -1.
         -3    1    6    6    0  502  0.94459271455E+01  0.27107874183E+02 -0.15912671435E+02  0.32821875244E+02  0.00000000000E+00 0.  1.
<mgrwt>
<rscale>  0 0.65518302E+03</rscale>
<asrwt>0</asrwt>
<pdfrwt beam="1">  1        1 0.24087436E+00 0.65518302E+03</pdfrwt>
<pdfrwt beam="2">  1       -2 0.47447698E-01 0.65518302E+03</pdfrwt>
<totfact> 0.22720258E+01</totfact>
</mgrwt>
</event>
<event>
12    3  0.1092576E-007  0.5952871E+03  0.7818608E-02  0.9915232E-01
          1   -1    0    0  501    0  0.00000000000E+00  0.00000000000E+00  0.70154139632E+03  0.70154139632E+03  0.00000000000E+00 0. -1.
         -2   -1    0    0    0  501 -0.00000000000E+00 -0.00000000000E+00 -0.63961471076E+03  0.63961471076E+03  0.00000000000E+00 0.  1.
        -24    2    1    2    0    0  0.34867505822E+02  0.52147884064E+03 -0.76247583655E+02  0.53343459692E+03  0.74718478180E+02 0.  0.
    5000000    2    1    2    0    0 -0.34867505822E+02 -0.52147884064E+03  0.13817426922E+03  0.80772151016E+03  0.60013830499E+03 0.  0.
        -24    2    4    4    0    0  0.11099706845E+03 -0.50284825147E+03 -0.85871455041E+02  0.52806105840E+03  0.79359066239E+02 0.  0.
         24    2    4    4    0    0 -0.14586457427E+03 -0.18630589168E+02  0.22404572426E+03  0.27966045177E+03  0.79936905392E+02 0.  0.
         13    1    5    5    0    0  0.83267394354E+02 -0.21777350380E+03 -0.58222428672E+02  0.24030940290E+03  0.00000000000E+00 0. -1.
        -14    1    5    5    0    0  0.27729674092E+02 -0.28507474767E+03 -0.27649026369E+02  0.28775165550E+03  0.00000000000E+00 0.  1.
         15    1    3    3    0    0  0.47671068526E+01  0.33320349154E+03 -0.16597968445E+02  0.33365542460E+03  0.17770000000E+01 0. -1.
        -16    1    3    3    0    0  0.30100398970E+02  0.18827534910E+03 -0.59649615210E+02  0.19977917231E+03  0.00000000000E+00 0.  1.
          4    1    6    6  502    0 -0.60718170791E+02 -0.95873829748E+01  0.31801040076E+02  0.69209250295E+02  0.00000000000E+00 0. -1.
         -3    1    6    6    0  502 -0.85146403477E+02 -0.90432061928E+01  0.19224468419E+03  0.21045120147E+03  0.00000000000E+00 0.  1.
<mgrwt>
<rscale>  0 0.59528712E+03</rscale>
<asrwt>0</asrwt>
<pdfrwt beam="1">  1        1 0.10792945E+00 0.59528712E+03</pdfrwt>
<pdfrwt beam="2">  1       -2 0.98402264E-01 0.59528712E+03</pdfrwt>
<totfact> 0.21151639E+01</totfact>
</mgrwt>
</event>
<event>
12    3  0.1092576E-007  0.1325393E+04  0.7818608E-02  0.9009667E-01
          1   -1    0    0  501    0  0.00000000000E+00  0.00000000000E+00  0.10235532953E+04  0.10235532953E+04  0.00000000000E+00 0. -1.
         -2   -1    0    0    0  501 -0.00000000000E+00 -0.00000000000E+00 -0.19780213148E+04  0.19780213148E+04  0.00000000000E+00 0.  1.
        -24    2    1    2    0    0 -0.10674668997E+04 -0.66607133947E+03  0.83140839165E+02  0.12637800183E+04  0.84207626178E+02 0.  0.
    5000000    2    1    2    0    0  0.10674668997E+04  0.66607133947E+03 -0.10376088587E+04  0.17377945917E+04  0.60013439176E+03 0.  0.
        -24    2    4    4    0    0  0.22404924055E+03  0.46501736381E+03 -0.42061828558E+03  0.67069983705E+03  0.80494213581E+02 0.  0.
         24    2    4    4    0    0  0.84341765917E+03  0.20105397566E+03 -0.61699057307E+03  0.10670947547E+04  0.78979739436E+02 0.  0.
         11    1    5    5    0    0  0.11142680544E+03  0.15147447287E+03 -0.17399713691E+03  0.25619416964E+03  0.00000000000E+00 0. -1.
        -12    1    5    5    0    0  0.11262243511E+03  0.31354289094E+03 -0.24662114867E+03  0.41450566741E+03  0.00000000000E+00 0.  1.
         15    1    3    3    0    0 -0.32353448372E+03 -0.15838488520E+03  0.32834192816E+02  0.36172030073E+03  0.17770000000E+01 0. -1.
        -16    1    3    3    0    0 -0.74393241600E+03 -0.50768645427E+03  0.50306646349E+02  0.90205971759E+03  0.00000000000E+00 0.  1.
          2    1    6    6  502    0  0.10802461315E+03  0.44502359996E+02 -0.59655077420E+02  0.13118119284E+03  0.00000000000E+00 0. -1.
         -1    1    6    6    0  502  0.73539304602E+03  0.15655161566E+03 -0.55733549565E+03  0.93591356183E+03  0.00000000000E+00 0.  1.
<mgrwt>
<rscale>  0 0.13253934E+04</rscale>
<asrwt>0</asrwt>
<pdfrwt beam="1">  1        1 0.15746974E+00 0.13253934E+04</pdfrwt>
<pdfrwt beam="2">  1       -2 0.30431097E+00 0.13253934E+04</pdfrwt>
<totfact> 0.36760369E-01</totfact>
</mgrwt>
</event>
<event>
12    3  0.1092576E-007  0.1440849E+04  0.7818608E-02  0.8924769E-01
         -2   -1    0    0    0  501 -0.00000000000E+00  0.00000000000E+00  0.92669323513E+03  0.92669323513E+03  0.00000000000E+00 0.  1.
          1   -1    0    0  501    0  0.00000000000E+00 -0.00000000000E+00 -0.27525739647E+04  0.27525739647E+04  0.00000000000E+00 0. -1.
        -24    2    1    2    0    0 -0.11983580524E+04  0.77111374540E+03 -0.21004747899E+03  0.14428753495E+04  0.84207485697E+02 0.  0.
    5000000    2    1    2    0    0  0.11983580524E+04 -0.77111374540E+03 -0.16158332506E+04  0.22363918504E+04  0.59987747449E+03 0.  0.
        -24    2    4    4    0    0  0.45620851527E+02 -0.68308854359E+02 -0.40604830419E+03  0.42182040188E+03  0.79434655132E+02 0.  0.
         24    2    4    4    0    0  0.11527372009E+04 -0.70280489104E+03 -0.12097849464E+04  0.18145714485E+04  0.79700412828E+02 0.  0.
         13    1    5    5    0    0  0.60143647778E+02 -0.34675417627E+02 -0.18189701222E+03  0.19469505903E+03  0.00000000000E+00 0. -1.
        -14    1    5    5    0    0 -0.14522796251E+02 -0.33633436732E+02 -0.22415129197E+03  0.22712534286E+03  0.00000000000E+00 0.  1.
         15    1    3    3    0    0 -0.30461812151E+03  0.21203339740E+03 -0.20083453515E+02  0.37169458484E+03  0.17770000000E+01 0. -1.
        -16    1    3    3    0    0 -0.89373993092E+03  0.55908034800E+03 -0.18996402548E+03  0.10711807647E+04  0.00000000000E+00 0.  1.
          2    1    6    6  502    0  0.92720522436E+03 -0.55447984277E+03 -0.10077489010E+04  0.14774015268E+04  0.00000000000E+00 0. -1.
         -1    1    6    6    0  502  0.22553197654E+03 -0.14832504827E+03 -0.20203604545E+03  0.33716992162E+03  0.00000000000E+00 0.  1.
<mgrwt>
<rscale>  0 0.14408490E+04</rscale>
<asrwt>0</asrwt>
<pdfrwt beam="1">  1        1 0.42347291E+00 0.14408490E+04</pdfrwt>
<pdfrwt beam="2">  1       -2 0.14256819E+00 0.14408490E+04</pdfrwt>
<totfact> 0.25850303E-01</totfact>
</mgrwt>
</event>
<event>
12    3  0.1092576E-007  0.2845324E+03  0.7818608E-02  0.1093239E+00
          1   -1    0    0  501    0  0.00000000000E+00  0.00000000000E+00  0.75728142545E+03  0.75728142545E+03  0.00000000000E+00 0. -1.
         -2   -1    0    0    0  501 -0.00000000000E+00 -0.00000000000E+00 -0.25119736414E+03  0.25119736414E+03  0.00000000000E+00 0.  1.
        -24    2    1    2    0    0  0.82163134460E+02  0.16165204909E+03  0.27953422145E+03  0.34198147692E+03  0.77005090429E+02 0.  0.
    5000000    2    1    2    0    0 -0.82163134460E+02 -0.16165204909E+03  0.22654983986E+03  0.66649731267E+03  0.60000972676E+03 0.  0.
        -24    2    4    4    0    0  0.12100567447E+03 -0.88038324474E+02 -0.14675070513E+03  0.22797150212E+03  0.89677848410E+02 0.  0.
         24    2    4    4    0    0 -0.20316880893E+03 -0.73613724620E+02  0.37330054499E+03  0.43852581054E+03  0.79088837721E+02 0.  0.
         13    1    5    5    0    0  0.18968822931E+02 -0.40604433039E+02 -0.23126542043E+01  0.44876325555E+02  0.00000000000E+00 0. -1.
        -14    1    5    5    0    0  0.10203685154E+03 -0.47433891434E+02 -0.14443805092E+03  0.18309517657E+03  0.00000000000E+00 0.  1.
         15    1    3    3    0    0  0.48098840700E+02  0.10519762501E+03  0.10820644216E+03  0.15840401081E+03  0.17770000000E+01 0. -1.
        -16    1    3    3    0    0  0.34064293760E+02  0.56454424080E+02  0.17132777929E+03  0.18357746611E+03  0.00000000000E+00 0.  1.
          4    1    6    6  502    0 -0.13782522445E+02 -0.33904940519E+02  0.60763669784E+02  0.70934663475E+02  0.00000000000E+00 0. -1.
         -3    1    6    6    0  502 -0.18938628648E+03 -0.39708784100E+02  0.31253687520E+03  0.36759114707E+03  0.00000000000E+00 0.  1.
<mgrwt>
<rscale>  0 0.28453240E+03</rscale>
<asrwt>0</asrwt>
<pdfrwt beam="1">  1        1 0.11650483E+00 0.28453240E+03</pdfrwt>
<pdfrwt beam="2">  1       -2 0.38645749E-01 0.28453240E+03</pdfrwt>
<totfact> 0.14145935E+02</totfact>
</mgrwt>
</event>
<event>
12    3  0.1092576E-007  0.7705764E+03  0.7818608E-02  0.9603611E-01
          1   -1    0    0  501    0  0.00000000000E+00  0.00000000000E+00  0.14671351901E+04  0.14671351901E+04  0.00000000000E+00 0. -1.
         -2   -1    0    0    0  501 -0.00000000000E+00 -0.00000000000E+00 -0.41830370806E+03  0.41830370806E+03  0.00000000000E+00 0.  1.
        -24    2    1    2    0    0 -0.48378801371E+03 -0.44834147327E+03  0.34051704721E+03  0.74674167913E+03  0.81304102307E+02 0.  0.
    5000000    2    1    2    0    0  0.48378801371E+03  0.44834147327E+03  0.70831443481E+03  0.11386972190E+04  0.59988423815E+03 0.  0.
        -24    2    4    4    0    0  0.45599443960E+03  0.34943375097E+02  0.43127798350E+03  0.63369452747E+03  0.80100478637E+02 0.  0.
         24    2    4    4    0    0  0.27793574104E+02  0.41339809817E+03  0.27703645131E+03  0.50500269155E+03  0.81289930413E+02 0.  0.
         13    1    5    5    0    0  0.12304209292E+03 -0.17150915245E+02  0.14973944789E+03  0.19456467505E+03  0.00000000000E+00 0. -1.
        -14    1    5    5    0    0  0.33295234668E+03  0.52094290342E+02  0.28153853561E+03  0.43912985241E+03  0.00000000000E+00 0.  1.
         15    1    3    3    0    0 -0.29604427976E+03 -0.23314011771E+03  0.16370115546E+03  0.41085004088E+03  0.17770000000E+01 0. -1.
        -16    1    3    3    0    0 -0.18774373394E+03 -0.21520135556E+03  0.17681589175E+03  0.33589163825E+03  0.00000000000E+00 0.  1.
          4    1    6    6  502    0 -0.59973258092E+01  0.27410296811E+03  0.14513770935E+03  0.31021502175E+03  0.00000000000E+00 0. -1.
         -3    1    6    6    0  502  0.33790899913E+02  0.13929513006E+03  0.13189874197E+03  0.19478766980E+03  0.00000000000E+00 0.  1.
<mgrwt>
<rscale>  0 0.77057643E+03</rscale>
<asrwt>0</asrwt>
<pdfrwt beam="1">  1        1 0.22571310E+00 0.77057643E+03</pdfrwt>
<pdfrwt beam="2">  1       -2 0.64354417E-01 0.77057643E+03</pdfrwt>
<totfact> 0.13878665E+01</totfact>
</mgrwt>
</event>
<event>
12    3  0.1092576E-007  0.4479171E+03  0.7818608E-02  0.1028345E+00
          1   -1    0    0  501    0  0.00000000000E+00  0.00000000000E+00  0.42460143909E+04  0.42460143909E+04  0.00000000000E+00 0. -1.
         -2   -1    0    0    0  501 -0.00000000000E+00 -0.00000000000E+00 -0.15882615492E+03  0.15882615492E+03  0.00000000000E+00 0.  1.
        -24    2    1    2    0    0  0.12637213847E+03 -0.38624369221E+03  0.21801628817E+03  0.46836078698E+03  0.81710572869E+02 0.  0.
    5000000    2    1    2    0    0 -0.12637213847E+03  0.38624369221E+03  0.38691719478E+04  0.39364797588E+04  0.60018932248E+03 0.  0.
        -24    2    4    4    0    0  0.12497869469E+02  0.32695629626E+03  0.36125102154E+04  0.36281867706E+04  0.80327889406E+02 0.  0.
         24    2    4    4    0    0 -0.13887000793E+03  0.59287395947E+02  0.25666173241E+03  0.30829298820E+03  0.79808816976E+02 0.  0.
         13    1    5    5    0    0 -0.87257058923E+01  0.17276954721E+03  0.14977784968E+04  0.15077353481E+04  0.00000000000E+00 0. -1.
        -14    1    5    5    0    0  0.21223575361E+02  0.15418674906E+03  0.21147317186E+04  0.21204514225E+04  0.00000000000E+00 0.  1.
         15    1    3    3    0    0  0.12669533672E+03 -0.26982195158E+03  0.15829021897E+03  0.33751228875E+03  0.17770000000E+01 0. -1.
        -16    1    3    3    0    0 -0.32319825636E+00 -0.11642174063E+03  0.59726069196E+02  0.13084849823E+03  0.00000000000E+00 0.  1.
          4    1    6    6  502    0 -0.69654422311E+02  0.42039619418E+02  0.20400842186E+03  0.21963265772E+03  0.00000000000E+00 0. -1.
         -3    1    6    6    0  502 -0.69215585624E+02  0.17247776530E+02  0.52653310549E+02  0.88660330476E+02  0.00000000000E+00 0.  1.
<mgrwt>
<rscale>  0 0.44791712E+03</rscale>
<asrwt>0</asrwt>
<pdfrwt beam="1">  1        1 0.65323290E+00 0.44791712E+03</pdfrwt>
<pdfrwt beam="2">  1       -2 0.24434796E-01 0.44791712E+03</pdfrwt>
<totfact> 0.91668453E-01</totfact>
</mgrwt>
</event>
<event>
12    3  0.1092576E-007  0.1784505E+04  0.7818608E-02  0.8714583E-01
          1   -1    0    0  501    0  0.00000000000E+00  0.00000000000E+00  0.15000972252E+04  0.15000972252E+04  0.00000000000E+00 0. -1.
         -2   -1    0    0    0  501 -0.00000000000E+00 -0.00000000000E+00 -0.21598464628E+04  0.21598464628E+04  0.00000000000E+00 0.  1.
        -24    2    1    2    0    0 -0.74336683408E+02 -0.17391020371E+04 -0.49421390079E+03  0.18113059450E+04  0.81117252422E+02 0.  0.
    5000000    2    1    2    0    0  0.74336683408E+02  0.17391020371E+04 -0.16553533683E+03  0.18486377431E+04  0.60004809771E+03 0.  0.
        -24    2    4    4    0    0  0.77184679149E+02  0.21620724283E+02  0.36794834102E+02  0.11734914834E+03  0.77408219109E+02 0.  0.
         24    2    4    4    0    0 -0.28479957413E+01  0.17174813128E+04 -0.20233017094E+03  0.17312885948E+04  0.81685551708E+02 0.  0.
         11    1    5    5    0    0  0.39236724188E+02 -0.27568065094E+02  0.70457506883E+01  0.48468147694E+02  0.00000000000E+00 0. -1.
        -12    1    5    5    0    0  0.37947954961E+02  0.49188789377E+02  0.29749083414E+02  0.68881000647E+02  0.00000000000E+00 0.  1.
         15    1    3    3    0    0 -0.19770656747E+02 -0.10082215978E+04 -0.31997975736E+03  0.10579659125E+04  0.17770000000E+01 0. -1.
        -16    1    3    3    0    0 -0.54566026660E+02 -0.73088043932E+03 -0.17423414343E+03  0.75334003251E+03  0.00000000000E+00 0.  1.
          2    1    6    6  502    0 -0.10424459718E+02  0.58621963275E+03 -0.31309752722E+02  0.58714770526E+03  0.00000000000E+00 0. -1.
         -1    1    6    6    0  502  0.75764639767E+01  0.11312616801E+04 -0.17102041821E+03  0.11441408895E+04  0.00000000000E+00 0.  1.
<mgrwt>
<rscale>  0 0.17845049E+04</rscale>
<asrwt>0</asrwt>
<pdfrwt beam="1">  1        1 0.23078419E+00 0.17845049E+04</pdfrwt>
<pdfrwt beam="2">  1       -2 0.33228407E+00 0.17845049E+04</pdfrwt>
<totfact> 0.10540545E-01</totfact>
</mgrwt>
</event>
<event>
12    3  0.1092576E-007  0.1253480E+04  0.7818608E-02  0.9067292E-01
         -2   -1    0    0    0  501 -0.00000000000E+00  0.00000000000E+00  0.20979733825E+04  0.20979733825E+04  0.00000000000E+00 0.  1.
          1   -1    0    0  501    0  0.00000000000E+00 -0.00000000000E+00 -0.91936942158E+03  0.91936942158E+03  0.00000000000E+00 0. -1.
        -24    2    1    2    0    0  0.10475858683E+04  0.59150143255E+03  0.11594946049E+04  0.16727658918E+04  0.80049321301E+02 0.  0.
    5000000    2    1    2    0    0 -0.10475858683E+04 -0.59150143255E+03  0.19109355986E+02  0.13445769122E+04  0.60017648164E+03 0.  0.
        -24    2    4    4    0    0 -0.39742225331E+03  0.33257636208E+02 -0.13188910168E+03  0.42718732426E+03  0.77741604522E+02 0.  0.
         24    2    4    4    0    0 -0.65016361503E+03 -0.62475906876E+03  0.15099845766E+03  0.91738958795E+03  0.75937484571E+02 0.  0.
         11    1    5    5    0    0 -0.34437961129E+03  0.38042064187E+02 -0.86247822812E+02  0.35704789911E+03  0.00000000000E+00 0. -1.
        -12    1    5    5    0    0 -0.53042642019E+02 -0.47844279785E+01 -0.45641278865E+02  0.70139425147E+02  0.00000000000E+00 0.  1.
         15    1    3    3    0    0  0.89042729496E+03  0.53244675308E+03  0.10114244506E+04  0.14489109322E+04  0.17770000000E+01 0. -1.
        -16    1    3    3    0    0  0.15715857338E+03  0.59054679467E+02  0.14807015427E+03  0.22385495960E+03  0.00000000000E+00 0.  1.
          4    1    6    6  502    0 -0.64267833917E+03 -0.61468443647E+03  0.15766480380E+03  0.90317805246E+03  0.00000000000E+00 0. -1.
         -1    1    6    6    0  502 -0.74852758629E+01 -0.10074632286E+02 -0.66663461368E+01  0.14211535499E+02  0.00000000000E+00 0.  1.
<mgrwt>
<rscale>  0 0.12534803E+04</rscale>
<asrwt>0</asrwt>
<pdfrwt beam="1">  1        1 0.14144145E+00 0.12534803E+04</pdfrwt>
<pdfrwt beam="2">  1       -2 0.32276514E+00 0.12534803E+04</pdfrwt>
<totfact> 0.34599836E-01</totfact>
</mgrwt>
</event>
<event>
12    3  0.1092576E-007  0.4627112E+03  0.7818608E-02  0.1023998E+00
         -2   -1    0    0    0  501 -0.00000000000E+00  0.00000000000E+00  0.22497348817E+03  0.22497348817E+03  0.00000000000E+00 0.  1.
          1   -1    0    0  501    0  0.00000000000E+00 -0.00000000000E+00 -0.13496997187E+04  0.13496997187E+04  0.00000000000E+00 0. -1.
        -24    2    1    2    0    0 -0.16536725430E+03 -0.34493709853E+03 -0.38738576982E+03  0.54996351801E+03  0.77873010356E+02 0.  0.
    5000000    2    1    2    0    0  0.16536725430E+03  0.34493709853E+03 -0.73734046073E+03  0.10247096889E+04  0.60002588336E+03 0.  0.
        -24    2    4    4    0    0  0.20072992306E+03  0.27818523831E+02 -0.64893017349E+03  0.68435519994E+03  0.78519407356E+02 0.  0.
         24    2    4    4    0    0 -0.35362668758E+02  0.31711857470E+03 -0.88410287239E+02  0.34035448894E+03  0.78804127347E+02 0.  0.
         13    1    5    5    0    0  0.11602980580E+03  0.42015056181E+02 -0.46925955910E+03  0.48521409150E+03  0.00000000000E+00 0. -1.
        -14    1    5    5    0    0  0.84700117260E+02 -0.14196532350E+02 -0.17967061439E+03  0.19914110844E+03  0.00000000000E+00 0.  1.
         15    1    3    3    0    0 -0.23554445109E+02 -0.13479647961E+03 -0.13755610638E+03  0.19403541669E+03  0.17770000000E+01 0. -1.
        -16    1    3    3    0    0 -0.14181280919E+03 -0.21014061893E+03 -0.24982966344E+03  0.35592810132E+03  0.00000000000E+00 0.  1.
          2    1    6    6  502    0 -0.51446650678E+02  0.16572040677E+03 -0.24536330550E+02  0.17524851669E+03  0.00000000000E+00 0. -1.
         -1    1    6    6    0  502  0.16083981920E+02  0.15139816793E+03 -0.63873956689E+02  0.16510597224E+03  0.00000000000E+00 0.  1.
<mgrwt>
<rscale>  0 0.46271116E+03</rscale>
<asrwt>0</asrwt>
<pdfrwt beam="1">  1        1 0.20764611E+00 0.46271116E+03</pdfrwt>
<pdfrwt beam="2">  1       -2 0.34611305E-01 0.46271116E+03</pdfrwt>
<totfact> 0.60649720E+01</totfact>
</mgrwt>
</event>
<event>
12    3  0.1092576E-007  0.8319565E+03  0.7818608E-02  0.9514879E-01
         -4   -1    0    0    0  501 -0.00000000000E+00  0.00000000000E+00  0.68388009174E+03  0.68388009174E+03  0.00000000000E+00 0.  1.
          1   -1    0    0  501    0  0.00000000000E+00 -0.00000000000E+00 -0.11724469247E+04  0.11724469247E+04  0.00000000000E+00 0. -1.
        -24    2    1    2    0    0  0.76564604916E+03 -0.11826579921E+03 -0.43789936856E+02  0.77996106235E+03  0.78873495896E+02 0.  0.
    5000000    2    1    2    0    0 -0.76564604916E+03  0.11826579921E+03 -0.44477689607E+03  0.10763659541E+04  0.60044692347E+03 0.  0.
        -24    2    4    4    0    0 -0.44336247264E+03  0.27454997732E+03 -0.47284242727E+03  0.70850417781E+03  0.80313366031E+02 0.  0.
         24    2    4    4    0    0 -0.32228357652E+03 -0.15628417811E+03  0.28065531195E+02  0.36786177624E+03  0.79013697267E+02 0.  0.
         11    1    5    5    0    0 -0.99963928249E+02  0.48039232381E+02 -0.61785509370E+02  0.12695670115E+03  0.00000000000E+00 0. -1.
        -12    1    5    5    0    0 -0.34339854439E+03  0.22651074494E+03 -0.41105691790E+03  0.58154747666E+03  0.00000000000E+00 0.  1.
         15    1    3    3    0    0  0.24074096283E+03 -0.30550654029E+02  0.22248147204E+02  0.24369589949E+03  0.17770000000E+01 0. -1.
        -16    1    3    3    0    0  0.52490508633E+03 -0.87715145179E+02 -0.66038084060E+02  0.53626516286E+03  0.00000000000E+00 0.  1.
          4    1    6    6  502    0 -0.10870869761E+03 -0.12774835626E+02  0.65557108265E+01  0.10965288279E+03  0.00000000000E+00 0. -1.
         -3    1    6    6    0  502 -0.21357487892E+03 -0.14350934248E+03  0.21509820368E+02  0.25820889345E+03  0.00000000000E+00 0.  1.
<mgrwt>
<rscale>  0 0.83195654E+03</rscale>
<asrwt>0</asrwt>
<pdfrwt beam="1">  1        1 0.18037645E+00 0.83195654E+03</pdfrwt>
<pdfrwt beam="2">  1       -4 0.10521232E+00 0.83195654E+03</pdfrwt>
<totfact> 0.39598523E+00</totfact>
</mgrwt>
</event>
<event>
12    3  0.1092576E-007  0.9758946E+03  0.7818608E-02  0.9335386E-01
          1   -1    0    0  501    0  0.00000000000E+00  0.00000000000E+00  0.22333597653E+04  0.22333597653E+04  0.00000000000E+00 0. -1.
         -2   -1    0    0    0  501 -0.00000000000E+00 -0.00000000000E+00 -0.51062322792E+03  0.51062322792E+03  0.00000000000E+00 0.  1.
        -24    2    1    2    0    0 -0.94942568559E+03  0.88428013858E-01  0.47345225092E+03  0.10640625859E+04  0.81627277541E+02 0.  0.
    5000000    2    1    2    0    0  0.94942568559E+03 -0.88428013858E-01  0.12492842864E+04  0.16799204074E+04  0.60001017191E+03 0.  0.
        -24    2    4    4    0    0  0.12611182953E+03  0.10404959900E+03  0.58853341076E+03  0.61605034264E+03  0.80099541131E+02 0.  0.
         24    2    4    4    0    0  0.82331385606E+03 -0.10413802702E+03  0.66075087569E+03  0.10638700647E+04  0.80853946166E+02 0.  0.
         13    1    5    5    0    0 -0.17972574643E+01 -0.28964129936E+01 -0.87089095648E+00  0.35182088739E+01  0.00000000000E+00 0. -1.
        -14    1    5    5    0    0  0.12790908699E+03  0.10694601200E+03  0.58940430172E+03  0.61253213377E+03  0.00000000000E+00 0.  1.
         15    1    3    3    0    0 -0.49875466021E+03  0.16474206635E+02  0.29026159821E+03  0.57730629972E+03  0.17770000000E+01 0. -1.
        -16    1    3    3    0    0 -0.45067102538E+03 -0.16385778621E+02  0.18319065271E+03  0.48675628614E+03  0.00000000000E+00 0.  1.
          4    1    6    6  502    0  0.18734595386E+03 -0.46823952146E+02  0.18660133300E+03  0.26853500032E+03  0.00000000000E+00 0. -1.
         -3    1    6    6    0  502  0.63596790221E+03 -0.57314074872E+02  0.47414954269E+03  0.79533506439E+03  0.00000000000E+00 0.  1.
<mgrwt>
<rscale>  0 0.97589463E+03</rscale>
<asrwt>0</asrwt>
<pdfrwt beam="1">  1        1 0.34359380E+00 0.97589463E+03</pdfrwt>
<pdfrwt beam="2">  1       -2 0.78557421E-01 0.97589463E+03</pdfrwt>
<totfact> 0.26499279E+00</totfact>
</mgrwt>
</event>
<event>
12    3  0.1092576E-007  0.9262007E+03  0.7818608E-02  0.9393409E-01
          1   -1    0    0  501    0  0.00000000000E+00  0.00000000000E+00  0.18248515922E+04  0.18248515922E+04  0.00000000000E+00 0. -1.
         -2   -1    0    0    0  501 -0.00000000000E+00 -0.00000000000E+00 -0.49266125061E+03  0.49266125061E+03  0.00000000000E+00 0.  1.
        -24    2    1    2    0    0  0.61543545644E+03  0.56260041049E+03  0.80901451337E+03  0.11646364215E+04  0.81200298759E+02 0.  0.
    5000000    2    1    2    0    0 -0.61543545644E+03 -0.56260041049E+03  0.52317582823E+03  0.11528764213E+04  0.60010921728E+03 0.  0.
        -24    2    4    4    0    0 -0.72006384529E+03 -0.47761087029E+03  0.40842406371E+03  0.95899485927E+03  0.79100186925E+02 0.  0.
         24    2    4    4    0    0  0.10462838885E+03 -0.84989540194E+02  0.11475176452E+03  0.19388156205E+03  0.79068141149E+02 0.  0.
         13    1    5    5    0    0 -0.19916156064E+03 -0.10431653564E+03  0.77977419291E+02  0.23796584789E+03  0.00000000000E+00 0. -1.
        -14    1    5    5    0    0 -0.52090228466E+03 -0.37329433465E+03  0.33044664442E+03  0.72102901138E+03  0.00000000000E+00 0.  1.
         15    1    3    3    0    0  0.37747821947E+03  0.33991968784E+03  0.43719445261E+03  0.67020694377E+03  0.17770000000E+01 0. -1.
        -16    1    3    3    0    0  0.23795723697E+03  0.22268072264E+03  0.37182006076E+03  0.49442947773E+03  0.00000000000E+00 0.  1.
          4    1    6    6  502    0  0.86000878362E+02 -0.24301571773E+02  0.46766459450E+02  0.10086535183E+03  0.00000000000E+00 0. -1.
         -3    1    6    6    0  502  0.18627510491E+02 -0.60687968421E+02  0.67985305069E+02  0.93016210218E+02  0.00000000000E+00 0.  1.
<mgrwt>
<rscale>  0 0.92620070E+03</rscale>
<asrwt>0</asrwt>
<pdfrwt beam="1">  1        1 0.28074639E+00 0.92620070E+03</pdfrwt>
<pdfrwt beam="2">  1       -2 0.75794040E-01 0.92620070E+03</pdfrwt>
<totfact> 0.54435868E+00</totfact>
</mgrwt>
</event>
<event>
12    3  0.1092576E-007  0.4677374E+03  0.7818608E-02  0.1022561E+00
         -2   -1    0    0    0  501 -0.00000000000E+00  0.00000000000E+00  0.24130451332E+03  0.24130451332E+03  0.00000000000E+00 0.  1.
          1   -1    0    0  501    0  0.00000000000E+00 -0.00000000000E+00 -0.13128470370E+04  0.13128470370E+04  0.00000000000E+00 0. -1.
        -24    2    1    2    0    0 -0.64826841536E+02  0.39247149203E+03 -0.38234567325E+03  0.55757539720E+03  0.80409690176E+02 0.  0.
    5000000    2    1    2    0    0  0.64826841536E+02 -0.39247149203E+03 -0.68919685040E+03  0.99657615309E+03  0.59994611330E+03 0.  0.
        -24    2    4    4    0    0  0.16885740600E+02  0.61644738775E+02  0.48431652038E+02  0.12528223376E+03  0.96253888867E+02 0.  0.
         24    2    4    4    0    0  0.47941100936E+02 -0.45411623081E+03 -0.73762850244E+03  0.87129391933E+03  0.80854103251E+02 0.  0.
         11    1    5    5    0    0  0.11550841255E+02  0.62855262394E+02 -0.11642401655E+02  0.64959614074E+02  0.00000000000E+00 0. -1.
        -12    1    5    5    0    0  0.53348993442E+01 -0.12105236188E+01  0.60074053693E+02  0.60322619685E+02  0.00000000000E+00 0.  1.
         15    1    3    3    0    0 -0.76731972647E+02  0.32944236865E+03 -0.34586810364E+03  0.48378504807E+03  0.17770000000E+01 0. -1.
        -16    1    3    3    0    0  0.11905131111E+02  0.63029123385E+02 -0.36477569602E+02  0.73790349135E+02  0.00000000000E+00 0.  1.
          4    1    6    6  502    0 -0.20696150065E+02 -0.17665308465E+03 -0.28946967975E+03  0.33974599106E+03  0.00000000000E+00 0. -1.
         -3    1    6    6    0  502  0.68637251001E+02 -0.27746314616E+03 -0.44815882268E+03  0.53154792827E+03  0.00000000000E+00 0.  1.
<mgrwt>
<rscale>  0 0.46773744E+03</rscale>
<asrwt>0</asrwt>
<pdfrwt beam="1">  1        1 0.20197647E+00 0.46773744E+03</pdfrwt>
<pdfrwt beam="2">  1       -2 0.37123771E-01 0.46773744E+03</pdfrwt>
<totfact> 0.56270163E+01</totfact>
</mgrwt>
</event>
<event>
12    3  0.1092576E-007  0.8041183E+03  0.7818608E-02  0.9554075E-01
         -2   -1    0    0    0  501 -0.00000000000E+00  0.00000000000E+00  0.74906965350E+03  0.74906965350E+03  0.00000000000E+00 0.  1.
          1   -1    0    0  501    0  0.00000000000E+00 -0.00000000000E+00 -0.14040988253E+04  0.14040988253E+04  0.00000000000E+00 0. -1.
        -24    2    1    2    0    0 -0.75445672526E+03 -0.10836313612E+03  0.26834861867E+03  0.81392365949E+03  0.97535751326E+02 0.  0.
    5000000    2    1    2    0    0  0.75445672526E+03  0.10836313612E+03 -0.92337779042E+03  0.13392448193E+04  0.60000218542E+03 0.  0.
        -24    2    4    4    0    0  0.56131951944E+03 -0.77085853700E+02 -0.89198194280E+03  0.10581316836E+04  0.54672130072E+02 0.  0.
         24    2    4    4    0    0  0.19313720581E+03  0.18544898982E+03 -0.31395847619E+02  0.28111313566E+03  0.79659197171E+02 0.  0.
         13    1    5    5    0    0  0.43210145183E+03 -0.51948851295E+02 -0.72362035648E+03  0.84441504494E+03  0.00000000000E+00 0. -1.
        -14    1    5    5    0    0  0.12921806762E+03 -0.25137002405E+02 -0.16836158633E+03  0.21371663866E+03  0.00000000000E+00 0.  1.
         15    1    3    3    0    0 -0.65807157162E+03 -0.71490802133E+02  0.25707469540E+03  0.71011244525E+03  0.17770000000E+01 0. -1.
        -16    1    3    3    0    0 -0.96385153643E+02 -0.36872333991E+02  0.11273923267E+02  0.10381121424E+03  0.00000000000E+00 0.  1.
          4    1    6    6  502    0  0.53421250342E+02  0.14295168501E+02 -0.23347192918E+02  0.60027270867E+02  0.00000000000E+00 0. -1.
         -3    1    6    6    0  502  0.13971595547E+03  0.17115382132E+03 -0.80486547015E+01  0.22108586479E+03  0.00000000000E+00 0.  1.
<mgrwt>
<rscale>  0 0.80411826E+03</rscale>
<asrwt>0</asrwt>
<pdfrwt beam="1">  1        1 0.21601520E+00 0.80411826E+03</pdfrwt>
<pdfrwt beam="2">  1       -2 0.11524149E+00 0.80411826E+03</pdfrwt>
<totfact> 0.40203455E+00</totfact>
</mgrwt>
</event>
<event>
12    3  0.1092576E-007  0.1241010E+04  0.7818608E-02  0.9077699E-01
          1   -1    0    0  501    0  0.00000000000E+00  0.00000000000E+00  0.99697159858E+03  0.99697159858E+03  0.00000000000E+00 0. -1.
         -2   -1    0    0    0  501 -0.00000000000E+00 -0.00000000000E+00 -0.22501755273E+04  0.22501755273E+04  0.00000000000E+00 0.  1.
        -24    2    1    2    0    0  0.12008440587E+04  0.28549068239E+03 -0.13985899179E+04  0.18670936279E+04  0.80333515423E+02 0.  0.
    5000000    2    1    2    0    0 -0.12008440587E+04 -0.28549068239E+03  0.14538598925E+03  0.13800534980E+04  0.59989931523E+03 0.  0.
        -24    2    4    4    0    0 -0.69008071369E+03 -0.20823059149E+03  0.36685226958E+03  0.81248570667E+03  0.77337346749E+02 0.  0.
         24    2    4    4    0    0 -0.51076334498E+03 -0.77260090903E+02 -0.22146628033E+03  0.56756779131E+03  0.78978276644E+02 0.  0.
         11    1    5    5    0    0 -0.28185518831E+03 -0.45682875975E+02  0.14740920357E+03  0.32133898866E+03  0.00000000000E+00 0. -1.
        -12    1    5    5    0    0 -0.40822552538E+03 -0.16254771551E+03  0.21944306602E+03  0.49114671801E+03  0.00000000000E+00 0.  1.
         15    1    3    3    0    0  0.84702323137E+03  0.22433987260E+03 -0.94778290555E+03  0.12907642413E+04  0.17770000000E+01 0. -1.
        -16    1    3    3    0    0  0.35382082730E+03  0.61150809789E+02 -0.45080701239E+03  0.57632938654E+03  0.00000000000E+00 0.  1.
          4    1    6    6  502    0 -0.28926816529E+03 -0.80550975927E+02 -0.11204946661E+03  0.32049900802E+03  0.00000000000E+00 0. -1.
         -3    1    6    6    0  502 -0.22149517969E+03  0.32908850244E+01 -0.10941681372E+03  0.24706878329E+03  0.00000000000E+00 0.  1.
<mgrwt>
<rscale>  0 0.12410105E+04</rscale>
<asrwt>0</asrwt>
<pdfrwt beam="1">  1        1 0.15338025E+00 0.12410105E+04</pdfrwt>
<pdfrwt beam="2">  1       -2 0.34618085E+00 0.12410105E+04</pdfrwt>
<totfact> 0.21492795E-01</totfact>
</mgrwt>
</event>
<event>
12    3  0.1092576E-007  0.1264823E+04  0.7818608E-02  0.9057936E-01
          1   -1    0    0  501    0  0.00000000000E+00  0.00000000000E+00  0.85665204596E+03  0.85665204596E+03  0.00000000000E+00 0. -1.
         -2   -1    0    0    0  501 -0.00000000000E+00 -0.00000000000E+00 -0.22439379991E+04  0.22439379991E+04  0.00000000000E+00 0.  1.
        -24    2    1    2    0    0  0.72095074463E+03 -0.10176962584E+04 -0.17696352166E+03  0.12620165594E+04  0.76772765076E+02 0.  0.
    5000000    2    1    2    0    0 -0.72095074463E+03  0.10176962584E+04 -0.12103224314E+04  0.18385734857E+04  0.59999701962E+03 0.  0.
        -24    2    4    4    0    0 -0.21795350340E+03  0.52390127852E+03 -0.20475506513E+03  0.60798599806E+03  0.75802756242E+02 0.  0.
         24    2    4    4    0    0 -0.50299724123E+03  0.49379497991E+03 -0.10055673663E+04  0.12305874876E+04  0.79624930856E+02 0.  0.
         11    1    5    5    0    0 -0.15053041176E+03  0.26510064680E+03 -0.11655407021E+03  0.32637801562E+03  0.00000000000E+00 0. -1.
        -12    1    5    5    0    0 -0.67423091642E+02  0.25880063172E+03 -0.88200994918E+02  0.28160798243E+03  0.00000000000E+00 0.  1.
         15    1    3    3    0    0  0.45983957066E+03 -0.60036090424E+03 -0.13214703578E+03  0.76769241424E+03  0.17770000000E+01 0. -1.
        -16    1    3    3    0    0  0.26111117397E+03 -0.41733535419E+03 -0.44816485886E+02  0.49432414511E+03  0.00000000000E+00 0.  1.
          4    1    6    6  502    0 -0.40748283859E+03  0.35553739271E+03 -0.78690322513E+03  0.95481191189E+03  0.00000000000E+00 0. -1.
         -3    1    6    6    0  502 -0.95514402646E+02  0.13825758720E+03 -0.21866414118E+03  0.27577557573E+03  0.00000000000E+00 0.  1.
<mgrwt>
<rscale>  0 0.12648227E+04</rscale>
<asrwt>0</asrwt>
<pdfrwt beam="1">  1        1 0.13179262E+00 0.12648227E+04</pdfrwt>
<pdfrwt beam="2">  1       -2 0.34522123E+00 0.12648227E+04</pdfrwt>
<totfact> 0.28271403E-01</totfact>
</mgrwt>
</event>
<event>
12    3  0.1092576E-007  0.5971416E+03  0.7818608E-02  0.9911354E-01
          1   -1    0    0  501    0  0.00000000000E+00  0.00000000000E+00  0.92922368945E+03  0.92922368945E+03  0.00000000000E+00 0. -1.
         -2   -1    0    0    0  501 -0.00000000000E+00 -0.00000000000E+00 -0.77119091160E+03  0.77119091160E+03  0.00000000000E+00 0.  1.
        -24    2    1    2    0    0 -0.29124009936E+03 -0.38327421461E+03 -0.49222309958E+03  0.69327267974E+03  0.81384947410E+02 0.  0.
    5000000    2    1    2    0    0  0.29124009936E+03  0.38327421461E+03  0.65025587742E+03  0.10071419213E+04  0.59981849295E+03 0.  0.
        -24    2    4    4    0    0  0.32978318194E+03  0.14232291126E+02  0.48661955090E+03  0.59353158467E+03  0.80756730287E+02 0.  0.
         24    2    4    4    0    0 -0.38543082577E+02  0.36904192348E+03  0.16363632652E+03  0.41361033664E+03  0.81358175462E+02 0.  0.
         11    1    5    5    0    0  0.15808094526E+03 -0.15721332272E+02  0.17403131470E+03  0.23563455612E+03  0.00000000000E+00 0. -1.
        -12    1    5    5    0    0  0.17170223668E+03  0.29953623398E+02  0.31258823620E+03  0.35789702855E+03  0.00000000000E+00 0.  1.
         15    1    3    3    0    0 -0.23458926738E+03 -0.31952184377E+03 -0.44437349918E+03  0.59548072809E+03  0.17770000000E+01 0. -1.
        -16    1    3    3    0    0 -0.56650831978E+02 -0.63752370840E+02 -0.47849600393E+02  0.97791951658E+02  0.00000000000E+00 0.  1.
          2    1    6    6  502    0 -0.57440146089E+02  0.16862699773E+03  0.67147520558E+02  0.19037653286E+03  0.00000000000E+00 0. -1.
         -1    1    6    6    0  502  0.18897063512E+02  0.20041492575E+03  0.96488805965E+02  0.22323380378E+03  0.00000000000E+00 0.  1.
<mgrwt>
<rscale>  0 0.59714156E+03</rscale>
<asrwt>0</asrwt>
<pdfrwt beam="1">  1        1 0.14295749E+00 0.59714156E+03</pdfrwt>
<pdfrwt beam="2">  1       -2 0.11864476E+00 0.59714156E+03</pdfrwt>
<totfact> 0.86149598E+00</totfact>
</mgrwt>
</event>
<event>
12    3  0.1092576E-007  0.4360606E+03  0.7818608E-02  0.1031962E+00
          1   -1    0    0  501    0  0.00000000000E+00  0.00000000000E+00  0.59492476625E+03  0.59492476625E+03  0.00000000000E+00 0. -1.
         -2   -1    0    0    0  501 -0.00000000000E+00 -0.00000000000E+00 -0.36398698227E+03  0.36398698227E+03  0.00000000000E+00 0.  1.
        -24    2    1    2    0    0  0.20821411393E+03 -0.10329987616E+03  0.19666375948E+03  0.31460697525E+03  0.79227097184E+02 0.  0.
    5000000    2    1    2    0    0 -0.20821411393E+03  0.10329987616E+03  0.34274024500E+02  0.64430477328E+03  0.59994162255E+03 0.  0.
        -24    2    4    4    0    0 -0.32659078642E+03  0.26505208197E+03  0.57079394001E+01  0.42834047381E+03  0.80801194315E+02 0.  0.
         24    2    4    4    0    0  0.11837667249E+03 -0.16175220581E+03  0.28566085100E+02  0.21596429947E+03  0.75151478718E+02 0.  0.
         13    1    5    5    0    0 -0.19636934744E+03  0.12439885280E+03 -0.26542962964E+02  0.23396692945E+03  0.00000000000E+00 0. -1.
        -14    1    5    5    0    0 -0.13022143898E+03  0.14065322917E+03  0.32250902364E+02  0.19437354436E+03  0.00000000000E+00 0.  1.
         15    1    3    3    0    0  0.14663780388E+03 -0.96384264107E+02  0.10673374919E+03  0.20539674496E+03  0.17770000000E+01 0. -1.
        -16    1    3    3    0    0  0.61576310050E+02 -0.69156120482E+01  0.89930010286E+02  0.10921023029E+03  0.00000000000E+00 0.  1.
          2    1    6    6  502    0  0.11091349673E+03 -0.10316907414E+03  0.37967662010E+02  0.15616403227E+03  0.00000000000E+00 0. -1.
         -1    1    6    6    0  502  0.74631757575E+01 -0.58583131675E+02 -0.94015769103E+01  0.59800267204E+02  0.00000000000E+00 0.  1.
<mgrwt>
<rscale>  0 0.43606058E+03</rscale>
<asrwt>0</asrwt>
<pdfrwt beam="1">  1        1 0.91526887E-01 0.43606058E+03</pdfrwt>
<pdfrwt beam="2">  1       -2 0.55997998E-01 0.43606058E+03</pdfrwt>
<totfact> 0.94649034E+01</totfact>
</mgrwt>
</event>
<event>
12    3  0.1092576E-007  0.1266744E+04  0.7818608E-02  0.9056361E-01
          1   -1    0    0  501    0  0.00000000000E+00  0.00000000000E+00  0.14877945735E+04  0.14877945735E+04  0.00000000000E+00 0. -1.
         -2   -1    0    0    0  501 -0.00000000000E+00 -0.00000000000E+00 -0.10867354377E+04  0.10867354377E+04  0.00000000000E+00 0.  1.
        -24    2    1    2    0    0 -0.27239101770E+03  0.11674517747E+04  0.22453242078E+03  0.12223171817E+04  0.80647206508E+02 0.  0.
    5000000    2    1    2    0    0  0.27239101770E+03 -0.11674517747E+04  0.17652671510E+03  0.13522128295E+04  0.60014776694E+03 0.  0.
        -24    2    4    4    0    0 -0.17083249667E+03 -0.50215333068E+03  0.50914256708E+02  0.53901765032E+03  0.81277650015E+02 0.  0.
         24    2    4    4    0    0  0.44322351437E+03 -0.66529844406E+03  0.12561245839E+03  0.81319517914E+03  0.80242172954E+02 0.  0.
         13    1    5    5    0    0 -0.88224484757E+02 -0.32563850389E+03  0.65145475738E+02  0.34361013946E+03  0.00000000000E+00 0. -1.
        -14    1    5    5    0    0 -0.82608011912E+02 -0.17651482678E+03 -0.14231219029E+02  0.19540751086E+03  0.00000000000E+00 0.  1.
         15    1    3    3    0    0 -0.11765230040E+03  0.34476655457E+03  0.60362058954E+02  0.36925976876E+03  0.17770000000E+01 0. -1.
        -16    1    3    3    0    0 -0.15473871729E+03  0.82268522017E+03  0.16417036182E+03  0.85305741297E+03  0.00000000000E+00 0.  1.
          2    1    6    6  502    0  0.34254678755E+03 -0.49448097667E+03  0.12752001535E+03  0.61490738511E+03  0.00000000000E+00 0. -1.
         -1    1    6    6    0  502  0.10067672682E+03 -0.17081746739E+03 -0.19075569606E+01  0.19828779403E+03  0.00000000000E+00 0.  1.
<mgrwt>
<rscale>  0 0.12667443E+04</rscale>
<asrwt>0</asrwt>
<pdfrwt beam="1">  1        1 0.22889147E+00 0.12667443E+04</pdfrwt>
<pdfrwt beam="2">  1       -2 0.16719007E+00 0.12667443E+04</pdfrwt>
<totfact> 0.12641206E+00</totfact>
</mgrwt>
</event>
<event>
12    3  0.1092576E-007  0.8021907E+03  0.7818608E-02  0.9556852E-01
         -2   -1    0    0    0  501 -0.00000000000E+00  0.00000000000E+00  0.16074427354E+04  0.16074427354E+04  0.00000000000E+00 0.  1.
          1   -1    0    0  501    0  0.00000000000E+00 -0.00000000000E+00 -0.49630476953E+03  0.49630476953E+03  0.00000000000E+00 0. -1.
        -24    2    1    2    0    0  0.78923070778E+03  0.29625529842E+02  0.46517602111E+03  0.92009568786E+03  0.80153365924E+02 0.  0.
    5000000    2    1    2    0    0 -0.78923070778E+03 -0.29625529842E+02  0.64596194476E+03  0.11836518171E+04  0.60000167320E+03 0.  0.
        -24    2    4    4    0    0 -0.38356558427E+03 -0.92984993716E+02 -0.13220805114E+02  0.40296632332E+03  0.80239027563E+02 0.  0.
         24    2    4    4    0    0 -0.40566512351E+03  0.63359463874E+02  0.65918274987E+03  0.78068549375E+03  0.79808071823E+02 0.  0.
         11    1    5    5    0    0 -0.18397299449E+03 -0.40260264266E+02  0.33558909764E+02  0.19129336634E+03  0.00000000000E+00 0. -1.
        -12    1    5    5    0    0 -0.19959258978E+03 -0.52724729450E+02 -0.46779714878E+02  0.21167295698E+03  0.00000000000E+00 0.  1.
         15    1    3    3    0    0  0.49775251855E+03  0.53924215405E+02  0.27507676316E+03  0.57125806260E+03  0.17770000000E+01 0. -1.
        -16    1    3    3    0    0  0.29147818924E+03 -0.24298685563E+02  0.19009925795E+03  0.34883762526E+03  0.00000000000E+00 0.  1.
          2    1    6    6  502    0 -0.25619838597E+03  0.73832949536E+02  0.45605114454E+03  0.52827224407E+03  0.00000000000E+00 0. -1.
         -1    1    6    6    0  502 -0.14946673754E+03 -0.10473485662E+02  0.20313160533E+03  0.25241324968E+03  0.00000000000E+00 0.  1.
<mgrwt>
<rscale>  0 0.80219072E+03</rscale>
<asrwt>0</asrwt>
<pdfrwt beam="1">  1        1 0.76354581E-01 0.80219072E+03</pdfrwt>
<pdfrwt beam="2">  1       -2 0.24729888E+00 0.80219072E+03</pdfrwt>
<totfact> 0.26869725E+00</totfact>
</mgrwt>
</event>
<event>
12    3  0.1092576E-007  0.1480936E+04  0.7818608E-02  0.8897230E-01
         -2   -1    0    0    0  501 -0.00000000000E+00  0.00000000000E+00  0.17696095524E+04  0.17696095524E+04  0.00000000000E+00 0.  1.
          1   -1    0    0  501    0  0.00000000000E+00 -0.00000000000E+00 -0.15026602303E+04  0.15026602303E+04  0.00000000000E+00 0. -1.
        -24    2    1    2    0    0  0.14184082025E+04  0.34707511687E+03 -0.46150569198E+03  0.15335774059E+04  0.80803406872E+02 0.  0.
    5000000    2    1    2    0    0 -0.14184082025E+04 -0.34707511687E+03  0.72845501408E+03  0.17386923768E+04  0.60005125446E+03 0.  0.
        -24    2    4    4    0    0 -0.34207323954E+03 -0.23609299101E+03 -0.16250226222E+02  0.42304511546E+03  0.77130397697E+02 0.  0.
         24    2    4    4    0    0 -0.10763349630E+04 -0.11098212586E+03  0.74470524030E+03  0.13156472614E+04  0.74349422413E+02 0.  0.
         11    1    5    5    0    0 -0.15041059332E+03 -0.11562967815E+03  0.29763697962E+02  0.19204022175E+03  0.00000000000E+00 0. -1.
        -12    1    5    5    0    0 -0.19166264621E+03 -0.12046331287E+03 -0.46013924184E+02  0.23100489371E+03  0.00000000000E+00 0.  1.
         15    1    3    3    0    0  0.63463300844E+03  0.12452846446E+03 -0.17619939361E+03  0.67031021020E+03  0.17770000000E+01 0. -1.
        -16    1    3    3    0    0  0.78377519408E+03  0.22254665241E+03 -0.28530629837E+03  0.86326719574E+03  0.00000000000E+00 0.  1.
          4    1    6    6  502    0 -0.46049205221E+03 -0.12874549535E+02  0.33203964488E+03  0.56786354870E+03  0.00000000000E+00 0. -1.
         -1    1    6    6    0  502 -0.61584291077E+03 -0.98107576326E+02  0.41266559542E+03  0.74778371267E+03  0.00000000000E+00 0.  1.
<mgrwt>
<rscale>  0 0.14809358E+04</rscale>
<asrwt>0</asrwt>
<pdfrwt beam="1">  1        1 0.23117850E+00 0.14809358E+04</pdfrwt>
<pdfrwt beam="2">  1       -2 0.27224762E+00 0.14809358E+04</pdfrwt>
<totfact> 0.25328283E-01</totfact>
</mgrwt>
</event>
<event>
12    3  0.1092576E-007  0.4991772E+03  0.7818608E-02  0.1013994E+00
         -2   -1    0    0    0  501 -0.00000000000E+00  0.00000000000E+00  0.20369195332E+03  0.20369195332E+03  0.00000000000E+00 0.  1.
          1   -1    0    0  501    0  0.00000000000E+00 -0.00000000000E+00 -0.17884176689E+04  0.17884176689E+04  0.00000000000E+00 0. -1.
        -24    2    1    2    0    0 -0.22173654414E+03  0.38497579394E+03 -0.71796763191E+03  0.84808870864E+03  0.80021749120E+02 0.  0.
    5000000    2    1    2    0    0  0.22173654414E+03 -0.38497579394E+03 -0.86675808368E+03  0.11440209136E+04  0.60011733700E+03 0.  0.
        -24    2    4    4    0    0  0.53276749722E+02 -0.36540624523E+03 -0.87815555740E+03  0.95625235018E+03  0.83073690972E+02 0.  0.
         24    2    4    4    0    0  0.16845979441E+03 -0.19569548715E+02  0.11397473718E+02  0.18776856340E+03  0.79783841867E+02 0.  0.
         11    1    5    5    0    0  0.30791549822E+02 -0.32522385906E+03 -0.70382818392E+03  0.77594638379E+03  0.00000000000E+00 0. -1.
        -12    1    5    5    0    0  0.22485199900E+02 -0.40182386172E+02 -0.17432737348E+03  0.18030596639E+03  0.00000000000E+00 0.  1.
         15    1    3    3    0    0 -0.21262406499E+03  0.32176742560E+03 -0.58674064294E+03  0.70214742683E+03  0.17770000000E+01 0. -1.
        -16    1    3    3    0    0 -0.91124791420E+01  0.63208368341E+02 -0.13122698897E+03  0.14594128181E+03  0.00000000000E+00 0.  1.
          4    1    6    6  502    0  0.16832473128E+03 -0.25425788924E+02  0.25839185974E+02  0.17218405685E+03  0.00000000000E+00 0. -1.
         -3    1    6    6    0  502  0.13506313585E+00  0.58562402089E+01 -0.14441712256E+02  0.15584506548E+02  0.00000000000E+00 0.  1.
<mgrwt>
<rscale>  0 0.49917720E+03</rscale>
<asrwt>0</asrwt>
<pdfrwt beam="1">  1        1 0.27514119E+00 0.49917720E+03</pdfrwt>
<pdfrwt beam="2">  1       -2 0.31337223E-01 0.49917720E+03</pdfrwt>
<totfact> 0.36786327E+01</totfact>
</mgrwt>
</event>
<event>
12    3  0.1092576E-007  0.4834315E+03  0.7818608E-02  0.1018196E+00
         -2   -1    0    0    0  501 -0.00000000000E+00  0.00000000000E+00  0.91813745293E+03  0.91813745293E+03  0.00000000000E+00 0.  1.
          1   -1    0    0  501    0  0.00000000000E+00 -0.00000000000E+00 -0.32651731052E+03  0.32651731052E+03  0.00000000000E+00 0. -1.
        -24    2    1    2    0    0 -0.21487604874E+02 -0.37551545409E+03  0.25177766387E+03  0.45933966904E+03  0.78277494219E+02 0.  0.
    5000000    2    1    2    0    0  0.21487604874E+02  0.37551545409E+03  0.33984247854E+03  0.78531509442E+03  0.59979439300E+03 0.  0.
        -24    2    4    4    0    0 -0.17849095506E+03  0.32266155969E+03 -0.67446257803E+00  0.37898465770E+03  0.87518070916E+02 0.  0.
         24    2    4    4    0    0  0.19997855994E+03  0.52853894406E+02  0.34051694112E+03  0.40633043671E+03  0.79797731933E+02 0.  0.
         11    1    5    5    0    0 -0.65977407305E+02  0.70256875912E+02 -0.30359632023E+02  0.10104827630E+03  0.00000000000E+00 0. -1.
        -12    1    5    5    0    0 -0.11251354776E+03  0.25240468377E+03  0.29685169445E+02  0.27793638140E+03  0.00000000000E+00 0.  1.
         15    1    3    3    0    0 -0.47736088330E+02 -0.19127215402E+03  0.14553146537E+03  0.24504353934E+03  0.17770000000E+01 0. -1.
        -16    1    3    3    0    0  0.26248483457E+02 -0.18424330007E+03  0.10624619850E+03  0.21429612969E+03  0.00000000000E+00 0.  1.
          2    1    6    6  502    0  0.14301266179E+03  0.56580271938E+02  0.18449453944E+03  0.24019197258E+03  0.00000000000E+00 0. -1.
         -1    1    6    6    0  502  0.56965898144E+02 -0.37263775322E+01  0.15602240168E+03  0.16613846414E+03  0.00000000000E+00 0.  1.
<mgrwt>
<rscale>  0 0.48343148E+03</rscale>
<asrwt>0</asrwt>
<pdfrwt beam="1">  1        1 0.50233433E-01 0.48343148E+03</pdfrwt>
<pdfrwt beam="2">  1       -2 0.14125192E+00 0.48343148E+03</pdfrwt>
<totfact> 0.25064417E+01</totfact>
</mgrwt>
</event>
<event>
12    3  0.1092576E-007  0.4346219E+03  0.7818608E-02  0.1032410E+00
          1   -1    0    0  501    0  0.00000000000E+00  0.00000000000E+00  0.11551619881E+04  0.11551619881E+04  0.00000000000E+00 0. -1.
         -2   -1    0    0    0  501 -0.00000000000E+00 -0.00000000000E+00 -0.19534471413E+03  0.19534471413E+03  0.00000000000E+00 0.  1.
        -24    2    1    2    0    0 -0.17555091816E+03  0.15658371298E+03  0.82082167356E+02  0.26158477304E+03  0.79702743068E+02 0.  0.
    5000000    2    1    2    0    0  0.17555091816E+03 -0.15658371298E+03  0.87773510662E+03  0.10889219292E+04  0.59999622202E+03 0.  0.
        -24    2    4    4    0    0  0.48826968190E+02 -0.36347859010E+03  0.62519756773E+03  0.72945003696E+03  0.82003655104E+02 0.  0.
         24    2    4    4    0    0  0.12672394997E+03  0.20689487712E+03  0.25253753889E+03  0.35947189222E+03  0.81119560360E+02 0.  0.
         13    1    5    5    0    0  0.32050729806E+01 -0.21742095442E+03  0.30508099995E+03  0.37464190962E+03  0.00000000000E+00 0. -1.
        -14    1    5    5    0    0  0.45621895209E+02 -0.14605763568E+03  0.32011656778E+03  0.35480812734E+03  0.00000000000E+00 0.  1.
         15    1    3    3    0    0 -0.80322435197E+02  0.21957705292E+02  0.32299252910E+02  0.89332154822E+02  0.17770000000E+01 0. -1.
        -16    1    3    3    0    0 -0.95228482965E+02  0.13462600768E+03  0.49782914447E+02  0.17225261822E+03  0.00000000000E+00 0.  1.
          2    1    6    6  502    0  0.11604744197E+02  0.73416310811E+02  0.43819948827E+02  0.86283328032E+02  0.00000000000E+00 0. -1.
         -1    1    6    6    0  502  0.11511920577E+03  0.13347856631E+03  0.20871759006E+03  0.27318856419E+03  0.00000000000E+00 0.  1.
<mgrwt>
<rscale>  0 0.43462186E+03</rscale>
<asrwt>0</asrwt>
<pdfrwt beam="1">  1        1 0.17771723E+00 0.43462186E+03</pdfrwt>
<pdfrwt beam="2">  1       -2 0.30053034E-01 0.43462186E+03</pdfrwt>
<totfact> 0.10860008E+02</totfact>
</mgrwt>
</event>
<event>
12    3  0.1092576E-007  0.7909649E+03  0.7818608E-02  0.9573188E-01
          1   -1    0    0  501    0  0.00000000000E+00  0.00000000000E+00  0.29020251150E+04  0.29020251150E+04  0.00000000000E+00 0. -1.
         -2   -1    0    0    0  501 -0.00000000000E+00 -0.00000000000E+00 -0.31980496557E+03  0.31980496557E+03  0.00000000000E+00 0.  1.
        -24    2    1    2    0    0 -0.27104561792E+03 -0.63401441706E+03  0.20498118536E+04  0.21641109544E+04  0.78788195710E+02 0.  0.
    5000000    2    1    2    0    0  0.27104561792E+03  0.63401441706E+03  0.53240829582E+03  0.10577191262E+04  0.59989261402E+03 0.  0.
        -24    2    4    4    0    0  0.15718785004E+03 -0.62290051209E+02  0.28768287490E+02  0.18739826202E+03  0.75514393078E+02 0.  0.
         24    2    4    4    0    0  0.11385776788E+03  0.69630446827E+03  0.50364000833E+03  0.87032086414E+03  0.77470282912E+02 0.  0.
         13    1    5    5    0    0  0.15416706708E+03 -0.36598957156E+02  0.30921500476E+02  0.16144072420E+03  0.00000000000E+00 0. -1.
        -14    1    5    5    0    0  0.30207829541E+01 -0.25691094054E+02 -0.21532129858E+01  0.25957537816E+02  0.00000000000E+00 0.  1.
         15    1    3    3    0    0 -0.11231190021E+03 -0.20680335732E+03  0.79482280240E+03  0.82893186479E+03  0.17770000000E+01 0. -1.
        -16    1    3    3    0    0 -0.15873371771E+03 -0.42721105974E+03  0.12549890512E+04  0.13351790896E+04  0.00000000000E+00 0.  1.
          4    1    6    6  502    0  0.93496176192E+02  0.63689566882E+03  0.43299824586E+03  0.77579965767E+03  0.00000000000E+00 0. -1.
         -3    1    6    6    0  502  0.20361591691E+02  0.59408799453E+02  0.70641762476E+02  0.94521206479E+02  0.00000000000E+00 0.  1.
<mgrwt>
<rscale>  0 0.79096494E+03</rscale>
<asrwt>0</asrwt>
<pdfrwt beam="1">  1        1 0.44646539E+00 0.79096494E+03</pdfrwt>
<pdfrwt beam="2">  1       -2 0.49200766E-01 0.79096494E+03</pdfrwt>
<totfact> 0.25591490E+00</totfact>
</mgrwt>
</event>
<event>
12    3  0.1092576E-007  0.5786784E+03  0.7818608E-02  0.9950656E-01
         -2   -1    0    0    0  501 -0.00000000000E+00  0.00000000000E+00  0.92209350131E+03  0.92209350131E+03  0.00000000000E+00 0.  1.
          1   -1    0    0  501    0  0.00000000000E+00 -0.00000000000E+00 -0.69270662498E+03  0.69270662498E+03  0.00000000000E+00 0. -1.
        -24    2    1    2    0    0 -0.36888580674E+03 -0.41217831763E+03 -0.30748729906E+03  0.63792139823E+03  0.80172110490E+02 0.  0.
    5000000    2    1    2    0    0  0.36888580674E+03  0.41217831763E+03  0.53687417539E+03  0.97687872805E+03  0.60007538291E+03 0.  0.
        -24    2    4    4    0    0  0.16319918854E+02  0.13128888474E+03 -0.10678895330E+03  0.18722394248E+03  0.78395236345E+02 0.  0.
         24    2    4    4    0    0  0.35256588789E+03  0.28088943289E+03  0.64366312869E+03  0.78965478558E+03  0.77787391930E+02 0.  0.
         13    1    5    5    0    0  0.39320677021E+02  0.68073211680E+02 -0.86665503573E+02  0.11700849242E+03  0.00000000000E+00 0. -1.
        -14    1    5    5    0    0 -0.23000758167E+02  0.63215673064E+02 -0.20123449722E+02  0.70215450051E+02  0.00000000000E+00 0.  1.
         15    1    3    3    0    0 -0.19971336010E+03 -0.24711116108E+03 -0.21733759676E+03  0.38495212796E+03  0.17770000000E+01 0. -1.
        -16    1    3    3    0    0 -0.16917244664E+03 -0.16506715655E+03 -0.90149702308E+02  0.25296927027E+03  0.00000000000E+00 0.  1.
          2    1    6    6  502    0  0.26267998357E+03  0.16303453847E+03  0.42910627360E+03  0.52887921924E+03  0.00000000000E+00 0. -1.
         -1    1    6    6    0  502  0.89885904317E+02  0.11785489441E+03  0.21455685509E+03  0.26077556633E+03  0.00000000000E+00 0.  1.
<mgrwt>
<rscale>  0 0.57867838E+03</rscale>
<asrwt>0</asrwt>
<pdfrwt beam="1">  1        1 0.10657025E+00 0.57867838E+03</pdfrwt>
<pdfrwt beam="2">  1       -2 0.14186054E+00 0.57867838E+03</pdfrwt>
<totfact> 0.87816195E+00</totfact>
</mgrwt>
</event>
<event>
12    3  0.1092576E-007  0.9920759E+03  0.7818608E-02  0.9317279E-01
         -2   -1    0    0    0  501 -0.00000000000E+00  0.00000000000E+00  0.11533743767E+04  0.11533743767E+04  0.00000000000E+00 0.  1.
          1   -1    0    0  501    0  0.00000000000E+00 -0.00000000000E+00 -0.88452891720E+03  0.88452891720E+03  0.00000000000E+00 0. -1.
        -24    2    1    2    0    0  0.80189885399E+03  0.43688379418E+03  0.17912777037E+02  0.91676902836E+03  0.78964309229E+02 0.  0.
    5000000    2    1    2    0    0 -0.80189885399E+03 -0.43688379418E+03  0.25093268250E+03  0.11211342656E+04  0.60005467140E+03 0.  0.
        -24    2    4    4    0    0 -0.87133753617E+03 -0.37110210572E+03  0.28404482062E+03  0.99184377657E+03  0.78273508879E+02 0.  0.
         24    2    4    4    0    0  0.69438682177E+02 -0.65781688455E+02 -0.33112138122E+02  0.12929048901E+03  0.80440386244E+02 0.  0.
         13    1    5    5    0    0 -0.32251369854E+03 -0.13975526539E+03  0.14507522528E+03  0.38025444237E+03  0.00000000000E+00 0. -1.
        -14    1    5    5    0    0 -0.54882383763E+03 -0.23134684033E+03  0.13896959534E+03  0.61158933420E+03  0.00000000000E+00 0.  1.
         15    1    3    3    0    0  0.35339913129E+03  0.17352100100E+03  0.43066516227E+02  0.39605348923E+03  0.17770000000E+01 0. -1.
        -16    1    3    3    0    0  0.44849972270E+03  0.26336279318E+03 -0.25153739190E+02  0.52071553913E+03  0.00000000000E+00 0.  1.
          4    1    6    6  502    0  0.83593119839E+02 -0.37477676770E+02 -0.15005666543E+02  0.92830792138E+02  0.00000000000E+00 0. -1.
         -3    1    6    6    0  502 -0.14154437662E+02 -0.28304011685E+02 -0.18106471579E+02  0.36459696873E+02  0.00000000000E+00 0.  1.
<mgrwt>
<rscale>  0 0.99207591E+03</rscale>
<asrwt>0</asrwt>
<pdfrwt beam="1">  1        1 0.13608137E+00 0.99207591E+03</pdfrwt>
<pdfrwt beam="2">  1       -2 0.17744221E+00 0.99207591E+03</pdfrwt>
<totfact> 0.30925733E+00</totfact>
</mgrwt>
</event>
<event>
12    3  0.2212046E-007  0.1470472E+04  0.7818608E-02  0.8904330E-01
          1   -1    0    0  501    0  0.00000000000E+00  0.00000000000E+00  0.16586292695E+04  0.16586292695E+04  0.00000000000E+00 0. -1.
         -2   -1    0    0    0  501 -0.00000000000E+00 -0.00000000000E+00 -0.14062315131E+04  0.14062315131E+04  0.00000000000E+00 0.  1.
        -24    2    1    2    0    0  0.92864694575E+03  0.10978992282E+04  0.41471349651E+03  0.14984039808E+04  0.73887349183E+02 0.  0.
    5000000    2    1    2    0    0 -0.92864694575E+03 -0.10978992282E+04 -0.16231574009E+03  0.15664568018E+04  0.59972714405E+03 0.  0.
        -24    2    4    4    0    0 -0.53502153227E+03 -0.92414849568E+03 -0.29160117298E+03  0.11098740888E+04  0.80565295807E+02 0.  0.
         24    2    4    4    0    0 -0.39362541348E+03 -0.17375073248E+03  0.12928543289E+03  0.45658271296E+03  0.81380387309E+02 0.  0.
         13    1    5    5    0    0 -0.26321323614E+03 -0.39025500102E+03 -0.15282799710E+03  0.49491066890E+03  0.00000000000E+00 0. -1.
        -14    1    5    5    0    0 -0.27180829613E+03 -0.53389349467E+03 -0.13877317588E+03  0.61496341992E+03  0.00000000000E+00 0.  1.
         15    1    3    3    0    0  0.44683944913E+03  0.58231074467E+03  0.19889706197E+03  0.76046991765E+03  0.17770000000E+01 0. -1.
        -16    1    3    3    0    0  0.48180749662E+03  0.51558848349E+03  0.21581643454E+03  0.73793406313E+03  0.00000000000E+00 0.  1.
          2    1    6    6  502    0 -0.10908420110E+03 -0.32774315151E+02  0.47635462319E+00  0.11390235106E+03  0.00000000000E+00 0. -1.
         -1    1    6    6    0  502 -0.28454121238E+03 -0.14097641733E+03  0.12880907826E+03  0.34268036189E+03  0.00000000000E+00 0.  1.
<mgrwt>
<rscale>  0 0.14704721E+04</rscale>
<asrwt>0</asrwt>
<pdfrwt beam="1">  1        1 0.25517373E+00 0.14704721E+04</pdfrwt>
<pdfrwt beam="2">  1       -2 0.21634331E+00 0.14704721E+04</pdfrwt>
<totfact> 0.43953050E-01</totfact>
</mgrwt>
</event>
<event>
12    3  0.1092576E-007  0.2640620E+03  0.7818608E-02  0.1104727E+00
          1   -1    0    0  501    0  0.00000000000E+00  0.00000000000E+00  0.41816881660E+03  0.41816881660E+03  0.00000000000E+00 0. -1.
         -2   -1    0    0    0  501 -0.00000000000E+00 -0.00000000000E+00 -0.35610986992E+03  0.35610986992E+03  0.00000000000E+00 0.  1.
        -24    2    1    2    0    0 -0.11094089530E+03  0.69322362209E+01  0.87772405841E+02  0.16374444739E+03  0.82172444748E+02 0.  0.
    5000000    2    1    2    0    0  0.11094089530E+03 -0.69322362209E+01 -0.25713459162E+02  0.61053423912E+03  0.59977907350E+03 0.  0.
        -24    2    4    4    0    0  0.19781487068E+03 -0.10755924883E+03 -0.24478810782E+03  0.34195821026E+03  0.79463732370E+02 0.  0.
         24    2    4    4    0    0 -0.86873975382E+02  0.10062701261E+03  0.21907464866E+03  0.26857602886E+03  0.80414540535E+02 0.  0.
         11    1    5    5    0    0  0.39919116599E+02  0.62383266354E+01 -0.67598012989E+02  0.78752421863E+02  0.00000000000E+00 0. -1.
        -12    1    5    5    0    0  0.15789575408E+03 -0.11379757547E+03 -0.17719009483E+03  0.26320578840E+03  0.00000000000E+00 0.  1.
         15    1    3    3    0    0 -0.37850802463E+02  0.42503378982E+02  0.36798568031E+02  0.67797587052E+02  0.17770000000E+01 0. -1.
        -16    1    3    3    0    0 -0.73090092834E+02 -0.35571142761E+02  0.50973837810E+02  0.95946860338E+02  0.00000000000E+00 0.  1.
          4    1    6    6  502    0 -0.97456667295E+02  0.63651014339E+02  0.15493340814E+03  0.19378755013E+03  0.00000000000E+00 0. -1.
         -3    1    6    6    0  502  0.10582691913E+02  0.36975998271E+02  0.64141240521E+02  0.74788478737E+02  0.00000000000E+00 0.  1.
<mgrwt>
<rscale>  0 0.26406200E+03</rscale>
<asrwt>0</asrwt>
<pdfrwt beam="1">  1        1 0.64333664E-01 0.26406200E+03</pdfrwt>
<pdfrwt beam="2">  1       -2 0.54786134E-01 0.26406200E+03</pdfrwt>
<totfact> 0.16194829E+02</totfact>
</mgrwt>
</event>
<event>
12    3  0.1092576E-007  0.3282680E+03  0.7818608E-02  0.1071906E+00
          1   -1    0    0  501    0  0.00000000000E+00  0.00000000000E+00  0.15034898109E+04  0.15034898109E+04  0.00000000000E+00 0. -1.
         -2   -1    0    0    0  501 -0.00000000000E+00 -0.00000000000E+00 -0.11921404849E+03  0.11921404849E+03  0.00000000000E+00 0.  1.
        -24    2    1    2    0    0 -0.56162986709E+02  0.15855256601E+03  0.13124391214E+03  0.22329065675E+03  0.65882893482E+02 0.  0.
    5000000    2    1    2    0    0  0.56162986709E+02 -0.15855256601E+03  0.12530318503E+04  0.13994132027E+04  0.59997941353E+03 0.  0.
        -24    2    4    4    0    0  0.14004335183E+03  0.11381258974E+03  0.12519335743E+03  0.23368295451E+03  0.79805391480E+02 0.  0.
         24    2    4    4    0    0 -0.83880365123E+02 -0.27236515575E+03  0.11278384929E+04  0.11657302481E+04  0.75423151184E+02 0.  0.
         13    1    5    5    0    0  0.10814678090E+03  0.76534311944E+02  0.45472570768E+02  0.14007491502E+03  0.00000000000E+00 0. -1.
        -14    1    5    5    0    0  0.31896570929E+02  0.37278277794E+02  0.79720786659E+02  0.93608039494E+02  0.00000000000E+00 0.  1.
         15    1    3    3    0    0 -0.70513855874E+02  0.14006031365E+03  0.11911086402E+03  0.19692549603E+03  0.17770000000E+01 0. -1.
        -16    1    3    3    0    0  0.14350869164E+02  0.18492252364E+02  0.12133048119E+02  0.26365160722E+02  0.00000000000E+00 0.  1.
          4    1    6    6  502    0 -0.98274620637E+02 -0.23962186348E+03  0.98446634993E+03  0.10179639152E+04  0.00000000000E+00 0. -1.
         -3    1    6    6    0  502  0.14394255514E+02 -0.32743292273E+02  0.14337214293E+03  0.14776633293E+03  0.00000000000E+00 0.  1.
<mgrwt>
<rscale>  0 0.32826801E+03</rscale>
<asrwt>0</asrwt>
<pdfrwt beam="1">  1        1 0.23130611E+00 0.32826801E+03</pdfrwt>
<pdfrwt beam="2">  1       -2 0.18340624E-01 0.32826801E+03</pdfrwt>
<totfact> 0.15192219E+02</totfact>
</mgrwt>
</event>
<event>
12    3  0.1092576E-007  0.4633923E+03  0.7818608E-02  0.1023802E+00
         -2   -1    0    0    0  501 -0.00000000000E+00  0.00000000000E+00  0.77822498008E+02  0.77822498008E+02  0.00000000000E+00 0.  1.
          1   -1    0    0  501    0  0.00000000000E+00 -0.00000000000E+00 -0.36171553160E+04  0.36171553160E+04  0.00000000000E+00 0. -1.
        -24    2    1    2    0    0 -0.29137494366E+03  0.56469982933E+02 -0.53387558650E+03  0.61589636176E+03  0.78847763429E+02 0.  0.
    5000000    2    1    2    0    0  0.29137494366E+03 -0.56469982933E+02 -0.30054572315E+04  0.30790814523E+04  0.59990099391E+03 0.  0.
        -24    2    4    4    0    0  0.43856441201E+03  0.21776159214E+02 -0.25274311762E+04  0.25665432223E+04  0.80142479633E+02 0.  0.
         24    2    4    4    0    0 -0.14718946835E+03 -0.78246142147E+02 -0.47802605528E+03  0.51253822992E+03  0.79995807654E+02 0.  0.
         13    1    5    5    0    0  0.97416719842E+02 -0.37291258061E+01 -0.39543280487E+03  0.40727266892E+03  0.00000000000E+00 0. -1.
        -14    1    5    5    0    0  0.34114769217E+03  0.25505285020E+02 -0.21319983714E+04  0.21592705534E+04  0.00000000000E+00 0.  1.
         15    1    3    3    0    0 -0.16708271431E+03  0.65341754994E+02 -0.35683298500E+03  0.39939844176E+03  0.17770000000E+01 0. -1.
        -16    1    3    3    0    0 -0.12429222936E+03 -0.88717720610E+01 -0.17704260150E+03  0.21649791999E+03  0.00000000000E+00 0.  1.
          4    1    6    6  502    0 -0.59210059189E+02 -0.74434808355E+02 -0.21317718513E+03  0.23343282559E+03  0.00000000000E+00 0. -1.
         -3    1    6    6    0  502 -0.87979409160E+02 -0.38113337920E+01 -0.26484887015E+03  0.27910540432E+03  0.00000000000E+00 0.  1.
<mgrwt>
<rscale>  0 0.46339226E+03</rscale>
<asrwt>0</asrwt>
<pdfrwt beam="1">  1        1 0.55648547E+00 0.46339226E+03</pdfrwt>
<pdfrwt beam="2">  1       -2 0.11972691E-01 0.46339226E+03</pdfrwt>
<totfact> 0.10404585E+01</totfact>
</mgrwt>
</event>
<event>
12    3  0.1092576E-007  0.8884580E+03  0.7818608E-02  0.9440126E-01
          1   -1    0    0  501    0  0.00000000000E+00  0.00000000000E+00  0.12051222617E+04  0.12051222617E+04  0.00000000000E+00 0. -1.
         -2   -1    0    0    0  501 -0.00000000000E+00 -0.00000000000E+00 -0.77463816017E+03  0.77463816017E+03  0.00000000000E+00 0.  1.
        -24    2    1    2    0    0 -0.84724667720E+03  0.41360424969E+02  0.39768993024E+03  0.94025681081E+03  0.79924795076E+02 0.  0.
    5000000    2    1    2    0    0  0.84724667720E+03 -0.41360424969E+02  0.32794171257E+02  0.10395036110E+04  0.59996223455E+03 0.  0.
        -24    2    4    4    0    0  0.48731580078E+02  0.78205903717E+02 -0.16416865413E+03  0.20470171600E+03  0.80377330526E+02 0.  0.
         24    2    4    4    0    0  0.79851509713E+03 -0.11956632869E+03  0.19696282539E+03  0.83480189502E+03  0.78596323421E+02 0.  0.
         11    1    5    5    0    0 -0.11092997866E+02  0.52088505665E+02 -0.99268435133E+02  0.11265207161E+03  0.00000000000E+00 0. -1.
        -12    1    5    5    0    0  0.59824577944E+02  0.26117398052E+02 -0.64900218999E+02  0.92049644395E+02  0.00000000000E+00 0.  1.
         15    1    3    3    0    0 -0.31412622477E+03  0.47245503177E+02  0.12453777883E+03  0.34120410130E+03  0.17770000000E+01 0. -1.
        -16    1    3    3    0    0 -0.53312045244E+03 -0.58850782080E+01  0.27315215140E+03  0.59905270951E+03  0.00000000000E+00 0.  1.
          4    1    6    6  502    0  0.57734648899E+03 -0.93433507139E+02  0.10676670294E+03  0.59452326907E+03  0.00000000000E+00 0. -1.
         -3    1    6    6    0  502  0.22116860813E+03 -0.26132821546E+02  0.90196122445E+02  0.24027862595E+03  0.00000000000E+00 0.  1.
<mgrwt>
<rscale>  0 0.88845799E+03</rscale>
<asrwt>0</asrwt>
<pdfrwt beam="1">  1        1 0.18540342E+00 0.88845799E+03</pdfrwt>
<pdfrwt beam="2">  1       -2 0.11917510E+00 0.88845799E+03</pdfrwt>
<totfact> 0.50689923E+00</totfact>
</mgrwt>
</event>
<event>
12    3  0.1092576E-007  0.6427727E+03  0.7818608E-02  0.9820436E-01
         -2   -1    0    0    0  501 -0.00000000000E+00  0.00000000000E+00  0.30857357412E+03  0.30857357412E+03  0.00000000000E+00 0.  1.
          1   -1    0    0  501    0  0.00000000000E+00 -0.00000000000E+00 -0.18324388003E+04  0.18324388003E+04  0.00000000000E+00 0. -1.
        -24    2    1    2    0    0  0.47147225497E+03  0.40609993899E+03 -0.50743719872E+03  0.80694647603E+03  0.80416769910E+02 0.  0.
    5000000    2    1    2    0    0 -0.47147225497E+03 -0.40609993899E+03 -0.10164280275E+04  0.13340658984E+04  0.59950199216E+03 0.  0.
        -24    2    4    4    0    0 -0.85208234665E+02 -0.35634565268E+02 -0.69269220788E+03  0.70352968859E+03  0.81248153069E+02 0.  0.
         24    2    4    4    0    0 -0.38626402031E+03 -0.37046537372E+03 -0.32373581962E+03  0.63053620984E+03  0.79539578186E+02 0.  0.
         13    1    5    5    0    0 -0.59647776176E+02 -0.61892552448E+02 -0.51098884340E+03  0.51816806475E+03  0.00000000000E+00 0. -1.
        -14    1    5    5    0    0 -0.25560458489E+02  0.26257987180E+02 -0.18170336448E+03  0.18536162384E+03  0.00000000000E+00 0.  1.
         15    1    3    3    0    0  0.26079486503E+03  0.23272590463E+03 -0.23379097155E+03  0.42051954107E+03  0.17770000000E+01 0. -1.
        -16    1    3    3    0    0  0.21067738994E+03  0.17337403436E+03 -0.27364622717E+03  0.38642693496E+03  0.00000000000E+00 0.  1.
          2    1    6    6  502    0 -0.34719350841E+03 -0.29506529092E+03 -0.28275400278E+03  0.53624312049E+03  0.00000000000E+00 0. -1.
         -1    1    6    6    0  502 -0.39070511901E+02 -0.75400082803E+02 -0.40981816845E+02  0.94293089348E+02  0.00000000000E+00 0.  1.
<mgrwt>
<rscale>  0 0.64277273E+03</rscale>
<asrwt>0</asrwt>
<pdfrwt beam="1">  1        1 0.28191366E+00 0.64277273E+03</pdfrwt>
<pdfrwt beam="2">  1       -2 0.47472858E-01 0.64277273E+03</pdfrwt>
<totfact> 0.15057976E+01</totfact>
</mgrwt>
</event>
<event>
12    3  0.1092576E-007  0.7526799E+03  0.7818608E-02  0.9631155E-01
          1   -1    0    0  501    0  0.00000000000E+00  0.00000000000E+00  0.78093202315E+03  0.78093202315E+03  0.00000000000E+00 0. -1.
         -2   -1    0    0    0  501 -0.00000000000E+00 -0.00000000000E+00 -0.86608293225E+03  0.86608293225E+03  0.00000000000E+00 0.  1.
        -24    2    1    2    0    0  0.61060240600E+03  0.28366335976E+03  0.18996161174E+03  0.70408124996E+03  0.79654207207E+02 0.  0.
    5000000    2    1    2    0    0 -0.61060240600E+03 -0.28366335976E+03 -0.27511252083E+03  0.94293370544E+03  0.60011405071E+03 0.  0.
        -24    2    4    4    0    0 -0.68304186557E+03 -0.25221175692E+03 -0.10618622637E+03  0.74011431675E+03  0.79603559823E+02 0.  0.
         24    2    4    4    0    0  0.72439459572E+02 -0.31451602836E+02 -0.16892629447E+03  0.20281938869E+03  0.79767993847E+02 0.  0.
         11    1    5    5    0    0 -0.27439413923E+03 -0.64897316054E+02 -0.22520977648E+02  0.28286215673E+03  0.00000000000E+00 0. -1.
        -12    1    5    5    0    0 -0.40864772634E+03 -0.18731444087E+03 -0.83665248718E+02  0.45725216002E+03  0.00000000000E+00 0.  1.
         15    1    3    3    0    0  0.48543157355E+03  0.19725752144E+03  0.16890556741E+03  0.55053300609E+03  0.17770000000E+01 0. -1.
        -16    1    3    3    0    0  0.12517083245E+03  0.86405838319E+02  0.21056044325E+02  0.15354824386E+03  0.00000000000E+00 0.  1.
          4    1    6    6  502    0  0.36989478320E+02  0.14514090769E+02 -0.12158896847E+03  0.12791699492E+03  0.00000000000E+00 0. -1.
         -3    1    6    6    0  502  0.35449981252E+02 -0.45965693605E+02 -0.47337326001E+02  0.74902393768E+02  0.00000000000E+00 0.  1.
<mgrwt>
<rscale>  0 0.75267993E+03</rscale>
<asrwt>0</asrwt>
<pdfrwt beam="1">  1        1 0.12014339E+00 0.75267993E+03</pdfrwt>
<pdfrwt beam="2">  1       -2 0.13324353E+00 0.75267993E+03</pdfrwt>
<totfact> 0.83903241E+00</totfact>
</mgrwt>
</event>
<event>
12    3  0.1092576E-007  0.7608447E+03  0.7818608E-02  0.9618489E-01
          1   -1    0    0  501    0  0.00000000000E+00  0.00000000000E+00  0.99490240495E+03  0.99490240495E+03  0.00000000000E+00 0. -1.
         -2   -1    0    0    0  501 -0.00000000000E+00 -0.00000000000E+00 -0.69389373970E+03  0.69389373970E+03  0.00000000000E+00 0.  1.
        -24    2    1    2    0    0  0.29019560458E+03  0.65686663113E+03  0.18476996928E+03  0.74578489746E+03  0.79799196185E+02 0.  0.
    5000000    2    1    2    0    0 -0.29019560458E+03 -0.65686663113E+03  0.11623869596E+03  0.94301124719E+03  0.60005959528E+03 0.  0.
        -24    2    4    4    0    0 -0.30361367912E+03 -0.25607851632E+03 -0.17416368119E+03  0.44084807319E+03  0.79098439432E+02 0.  0.
         24    2    4    4    0    0  0.13418074542E+02 -0.40078811482E+03  0.29040237715E+03  0.50216317401E+03  0.83804265841E+02 0.  0.
         11    1    5    5    0    0 -0.16690824969E+03 -0.13319516855E+03 -0.50883436038E+02  0.21951865707E+03  0.00000000000E+00 0. -1.
        -12    1    5    5    0    0 -0.13670542943E+03 -0.12288334777E+03 -0.12328024515E+03  0.22132941612E+03  0.00000000000E+00 0.  1.
         15    1    3    3    0    0  0.26715666360E+03  0.53504503062E+03  0.16358086410E+03  0.62000622942E+03  0.17770000000E+01 0. -1.
        -16    1    3    3    0    0  0.23038940976E+02  0.12182160051E+03  0.21189105183E+02  0.12577866803E+03  0.00000000000E+00 0.  1.
          4    1    6    6  502    0 -0.99942260440E+01 -0.18254733420E+03  0.17963302945E+03  0.25630341209E+03  0.00000000000E+00 0. -1.
         -3    1    6    6    0  502  0.23412300586E+02 -0.21824078061E+03  0.11076934770E+03  0.24585976192E+03  0.00000000000E+00 0.  1.
<mgrwt>
<rscale>  0 0.76084468E+03</rscale>
<asrwt>0</asrwt>
<pdfrwt beam="1">  1        1 0.15306191E+00 0.76084468E+03</pdfrwt>
<pdfrwt beam="2">  1       -2 0.10675288E+00 0.76084468E+03</pdfrwt>
<totfact> 0.96722286E+00</totfact>
</mgrwt>
</event>
<event>
12    3  0.1092576E-007  0.7460705E+03  0.7818608E-02  0.9641535E-01
          1   -1    0    0  501    0  0.00000000000E+00  0.00000000000E+00  0.74684161102E+03  0.74684161102E+03  0.00000000000E+00 0. -1.
         -2   -1    0    0    0  501 -0.00000000000E+00 -0.00000000000E+00 -0.81991198652E+03  0.81991198652E+03  0.00000000000E+00 0.  1.
        -24    2    1    2    0    0 -0.40467254952E+03 -0.50476010807E+03  0.12187805069E+03  0.66311362937E+03  0.79515955460E+02 0.  0.
    5000000    2    1    2    0    0  0.40467254952E+03  0.50476010807E+03 -0.19494842620E+03  0.90363996817E+03  0.60001471995E+03 0.  0.
        -24    2    4    4    0    0  0.53352267795E+03  0.46442043851E+03 -0.21480107694E+03  0.74356860311E+03  0.80137215294E+02 0.  0.
         24    2    4    4    0    0 -0.12885012843E+03  0.40339669563E+02  0.19852650742E+02  0.16007136506E+03  0.83660442471E+02 0.  0.
         11    1    5    5    0    0  0.34829629333E+03  0.32336994836E+03 -0.17977306944E+03  0.50813067999E+03  0.00000000000E+00 0. -1.
        -12    1    5    5    0    0  0.18522638462E+03  0.14105049015E+03 -0.35028007494E+02  0.23543792311E+03  0.00000000000E+00 0.  1.
         15    1    3    3    0    0 -0.22874709929E+03 -0.24396203826E+03  0.93447606664E+02  0.34724389766E+03  0.17770000000E+01 0. -1.
        -16    1    3    3    0    0 -0.17592545023E+03 -0.26079806981E+03  0.28430444031E+02  0.31586973170E+03  0.00000000000E+00 0.  1.
          2    1    6    6  502    0 -0.17752518280E+02  0.63626584284E+01 -0.28548788860E+02  0.34215035772E+02  0.00000000000E+00 0. -1.
         -1    1    6    6    0  502 -0.11109761015E+03  0.33977011135E+02  0.48401439601E+02  0.12585632929E+03  0.00000000000E+00 0.  1.
<mgrwt>
<rscale>  0 0.74607052E+03</rscale>
<asrwt>0</asrwt>
<pdfrwt beam="1">  1        1 0.11489871E+00 0.74607052E+03</pdfrwt>
<pdfrwt beam="2">  1       -2 0.12614031E+00 0.74607052E+03</pdfrwt>
<totfact> 0.10340849E+01</totfact>
</mgrwt>
</event>
<event>
12    3  0.1092576E-007  0.8272259E+03  0.7818608E-02  0.9521424E-01
          1   -1    0    0  501    0  0.00000000000E+00  0.00000000000E+00  0.12022727529E+04  0.12022727529E+04  0.00000000000E+00 0. -1.
         -2   -1    0    0    0  501 -0.00000000000E+00 -0.00000000000E+00 -0.11297725100E+04  0.11297725100E+04  0.00000000000E+00 0.  1.
        -24    2    1    2    0    0  0.38758955355E+03 -0.69543335743E+03 -0.70608286554E+03  0.10671244618E+04  0.79676767703E+02 0.  0.
    5000000    2    1    2    0    0 -0.38758955355E+03  0.69543335743E+03  0.77858310848E+03  0.12649208011E+04  0.59998313281E+03 0.  0.
        -24    2    4    4    0    0 -0.84175700212E+02  0.43567280403E+03  0.82237607198E+02  0.45805629426E+03  0.78461480932E+02 0.  0.
         24    2    4    4    0    0 -0.30341385334E+03  0.25976055340E+03  0.69634550129E+03  0.80686450687E+03  0.81226619937E+02 0.  0.
         13    1    5    5    0    0 -0.32679488819E+01  0.16555645484E+03  0.48644570191E+01  0.16566014056E+03  0.00000000000E+00 0. -1.
        -14    1    5    5    0    0 -0.80907751330E+02  0.27011634920E+03  0.77373150179E+02  0.29239615370E+03  0.00000000000E+00 0.  1.
         15    1    3    3    0    0  0.20809899589E+03 -0.45101702972E+03 -0.42774013915E+03  0.65550464343E+03  0.17770000000E+01 0. -1.
        -16    1    3    3    0    0  0.17949055766E+03 -0.24441632771E+03 -0.27834272639E+03  0.41161981837E+03  0.00000000000E+00 0.  1.
          4    1    6    6  502    0 -0.21641306734E+03  0.22790042845E+03  0.55646685638E+03  0.63908417541E+03  0.00000000000E+00 0. -1.
         -3    1    6    6    0  502 -0.87000785995E+02  0.31860124947E+02  0.13987864490E+03  0.16778033146E+03  0.00000000000E+00 0.  1.
<mgrwt>
<rscale>  0 0.82722586E+03</rscale>
<asrwt>0</asrwt>
<pdfrwt beam="1">  1        1 0.18496504E+00 0.82722586E+03</pdfrwt>
<pdfrwt beam="2">  1       -2 0.17381115E+00 0.82722586E+03</pdfrwt>
<totfact> 0.19062448E+00</totfact>
</mgrwt>
</event>
<event>
12    3  0.1092576E-007  0.6480148E+03  0.7818608E-02  0.9810511E-01
         -2   -1    0    0    0  501 -0.00000000000E+00  0.00000000000E+00  0.23257971398E+03  0.23257971398E+03  0.00000000000E+00 0.  1.
          1   -1    0    0  501    0  0.00000000000E+00 -0.00000000000E+00 -0.23888694634E+04  0.23888694634E+04  0.00000000000E+00 0. -1.
        -24    2    1    2    0    0 -0.22549651229E+03  0.56497442539E+03 -0.68232094807E+03  0.91780020050E+03  0.82161751909E+02 0.  0.
    5000000    2    1    2    0    0  0.22549651229E+03 -0.56497442539E+03 -0.14739688013E+04  0.17036489768E+04  0.59982583357E+03 0.  0.
        -24    2    4    4    0    0 -0.10914453528E+02 -0.36563599411E+03 -0.12723600210E+04  0.13262129263E+04  0.78306433216E+02 0.  0.
         24    2    4    4    0    0  0.23641096582E+03 -0.19933843128E+03 -0.20160878034E+03  0.37743605051E+03  0.78650600576E+02 0.  0.
         11    1    5    5    0    0  0.90771489276E+01 -0.15704200719E+03 -0.67753844907E+03  0.69555944147E+03  0.00000000000E+00 0. -1.
        -12    1    5    5    0    0 -0.19991602456E+02 -0.20859398692E+03 -0.59482157191E+03  0.63065348486E+03  0.00000000000E+00 0.  1.
         15    1    3    3    0    0 -0.21171142345E+03  0.47325305592E+03 -0.54615897858E+03  0.75304911484E+03  0.17770000000E+01 0. -1.
        -16    1    3    3    0    0 -0.13785088843E+02  0.91721369471E+02 -0.13616196949E+03  0.16475108566E+03  0.00000000000E+00 0.  1.
          4    1    6    6  502    0  0.19581044008E+03 -0.12223464593E+03 -0.13200917075E+03  0.26591250116E+03  0.00000000000E+00 0. -1.
         -3    1    6    6    0  502  0.40600525738E+02 -0.77103785341E+02 -0.69599609593E+02  0.11152354935E+03  0.00000000000E+00 0.  1.
<mgrwt>
<rscale>  0 0.64801476E+03</rscale>
<asrwt>0</asrwt>
<pdfrwt beam="1">  1        1 0.36751836E+00 0.64801476E+03</pdfrwt>
<pdfrwt beam="2">  1       -2 0.35781497E-01 0.64801476E+03</pdfrwt>
<totfact> 0.11113117E+01</totfact>
</mgrwt>
</event>
<event>
12    3  0.1092576E-007  0.9409720E+03  0.7818608E-02  0.9375766E-01
         -2   -1    0    0    0  501 -0.00000000000E+00  0.00000000000E+00  0.58295970706E+03  0.58295970706E+03  0.00000000000E+00 0.  1.
          1   -1    0    0  501    0  0.00000000000E+00 -0.00000000000E+00 -0.17171931342E+04  0.17171931342E+04  0.00000000000E+00 0. -1.
        -24    2    1    2    0    0  0.82380803785E+03 -0.21146522156E+03 -0.14921153029E+03  0.86717800645E+03  0.79726977487E+02 0.  0.
    5000000    2    1    2    0    0 -0.82380803785E+03  0.21146522156E+03 -0.98502189688E+03  0.14329748348E+04  0.59980956708E+03 0.  0.
        -24    2    4    4    0    0 -0.17830641433E+03  0.32088963242E+03 -0.42556498423E+03  0.56808181233E+03  0.82752982489E+02 0.  0.
         24    2    4    4    0    0 -0.64550162353E+03 -0.10942441086E+03 -0.55945691265E+03  0.86489302250E+03  0.80011596617E+02 0.  0.
         11    1    5    5    0    0 -0.70346946410E+02  0.88852608020E+02 -0.82985190933E+02  0.14046359221E+03  0.00000000000E+00 0. -1.
        -12    1    5    5    0    0 -0.10795946792E+03  0.23203702440E+03 -0.34257979330E+03  0.42761822012E+03  0.00000000000E+00 0.  1.
         15    1    3    3    0    0  0.64845495676E+03 -0.13229025899E+03 -0.11248906605E+03  0.67130581055E+03  0.17770000000E+01 0. -1.
        -16    1    3    3    0    0  0.17535308110E+03 -0.79174962568E+02 -0.36722464237E+02  0.19587219590E+03  0.00000000000E+00 0.  1.
          2    1    6    6  502    0 -0.47878082745E+03 -0.11213271266E+03 -0.43907436551E+03  0.65923525727E+03  0.00000000000E+00 0. -1.
         -1    1    6    6    0  502 -0.16672079608E+03  0.27083018050E+01 -0.12038254714E+03  0.20565776523E+03  0.00000000000E+00 0.  1.
<mgrwt>
<rscale>  0 0.94097203E+03</rscale>
<asrwt>0</asrwt>
<pdfrwt beam="1">  1        1 0.26418356E+00 0.94097203E+03</pdfrwt>
<pdfrwt beam="2">  1       -2 0.89686110E-01 0.94097203E+03</pdfrwt>
<totfact> 0.43833509E+00</totfact>
</mgrwt>
</event>
<event>
12    3  0.1092576E-007  0.8933644E+03  0.7818608E-02  0.9433915E-01
          1   -1    0    0  501    0  0.00000000000E+00  0.00000000000E+00  0.11533894461E+04  0.11533894461E+04  0.00000000000E+00 0. -1.
         -2   -1    0    0    0  501 -0.00000000000E+00 -0.00000000000E+00 -0.81658717489E+03  0.81658717489E+03  0.00000000000E+00 0.  1.
        -24    2    1    2    0    0 -0.87241639602E+03  0.69660110910E+02  0.18481203769E+03  0.89804184317E+03  0.79754396285E+02 0.  0.
    5000000    2    1    2    0    0  0.87241639602E+03 -0.69660110910E+02  0.15199023352E+03  0.10719347778E+04  0.59998353122E+03 0.  0.
        -24    2    4    4    0    0  0.51618067837E+03  0.64071036502E+02  0.35374346728E+03  0.63409695943E+03  0.79980765677E+02 0.  0.
         24    2    4    4    0    0  0.35623571765E+03 -0.13373114741E+03 -0.20175323375E+03  0.43783781840E+03  0.78801532797E+02 0.  0.
         11    1    5    5    0    0  0.10327305047E+03 -0.14804334739E+02  0.51504424387E+02  0.11634946073E+03  0.00000000000E+00 0. -1.
        -12    1    5    5    0    0  0.41290762790E+03  0.78875371241E+02  0.30223904289E+03  0.51774749870E+03  0.00000000000E+00 0.  1.
         15    1    3    3    0    0 -0.65138899094E+03  0.19376879932E+02  0.12428715856E+03  0.66342560737E+03  0.17770000000E+01 0. -1.
        -16    1    3    3    0    0 -0.22102740507E+03  0.50283230977E+02  0.60524879131E+02  0.23461623581E+03  0.00000000000E+00 0.  1.
          2    1    6    6  502    0  0.23782291557E+03 -0.11359384225E+03 -0.16989302348E+03  0.31357126717E+03  0.00000000000E+00 0. -1.
         -1    1    6    6    0  502  0.11841280208E+03 -0.20137305162E+02 -0.31860210275E+02  0.12426655123E+03  0.00000000000E+00 0.  1.
<mgrwt>
<rscale>  0 0.89336435E+03</rscale>
<asrwt>0</asrwt>
<pdfrwt beam="1">  1        1 0.17744453E+00 0.89336435E+03</pdfrwt>
<pdfrwt beam="2">  1       -2 0.12562880E+00 0.89336435E+03</pdfrwt>
<totfact> 0.48442849E+00</totfact>
</mgrwt>
</event>
<event>
12    3  0.1092576E-007  0.9201252E+03  0.7818608E-02  0.9400768E-01
          1   -1    0    0  501    0  0.00000000000E+00  0.00000000000E+00  0.14675103757E+04  0.14675103757E+04  0.00000000000E+00 0. -1.
         -2   -1    0    0    0  501 -0.00000000000E+00 -0.00000000000E+00 -0.83820499970E+03  0.83820499970E+03  0.00000000000E+00 0.  1.
        -24    2    1    2    0    0  0.51229454640E+03  0.64161741816E+03  0.93208708940E+03  0.12447123719E+04  0.80024577809E+02 0.  0.
    5000000    2    1    2    0    0 -0.51229454640E+03 -0.64161741816E+03 -0.30278171343E+03  0.10610030034E+04  0.59994332548E+03 0.  0.
        -24    2    4    4    0    0  0.11709891618E+03 -0.51416646802E+02 -0.38524233809E+02  0.15505633442E+03  0.78756095100E+02 0.  0.
         24    2    4    4    0    0 -0.62939346258E+03 -0.59020077135E+03 -0.26425747962E+03  0.90594666902E+03  0.80213903634E+02 0.  0.
         13    1    5    5    0    0  0.65093157036E+02  0.13998555340E+02 -0.15215775622E+02  0.68297865796E+02  0.00000000000E+00 0. -1.
        -14    1    5    5    0    0  0.52005759145E+02 -0.65415202143E+02 -0.23308458187E+02  0.86758468628E+02  0.00000000000E+00 0.  1.
         15    1    3    3    0    0  0.29784035824E+03  0.31078957917E+03  0.47231270275E+03  0.63904732878E+03  0.17770000000E+01 0. -1.
        -16    1    3    3    0    0  0.21445418815E+03  0.33082783899E+03  0.45977438665E+03  0.60566504315E+03  0.00000000000E+00 0.  1.
          2    1    6    6  502    0 -0.57051386063E+03 -0.50564341435E+03 -0.21723722846E+03  0.79268741700E+03  0.00000000000E+00 0. -1.
         -1    1    6    6    0  502 -0.58879601949E+02 -0.84557357003E+02 -0.47020251159E+02  0.11325925202E+03  0.00000000000E+00 0.  1.
<mgrwt>
<rscale>  0 0.92012522E+03</rscale>
<asrwt>0</asrwt>
<pdfrwt beam="1">  1        1 0.22577083E+00 0.92012522E+03</pdfrwt>
<pdfrwt beam="2">  1       -2 0.12895462E+00 0.92012522E+03</pdfrwt>
<totfact> 0.27026725E+00</totfact>
</mgrwt>
</event>
<event>
12    3  0.1092576E-007  0.4714476E+03  0.7818608E-02  0.1021512E+00
          1   -1    0    0  501    0  0.00000000000E+00  0.00000000000E+00  0.18649671113E+04  0.18649671113E+04  0.00000000000E+00 0. -1.
         -2   -1    0    0    0  501 -0.00000000000E+00 -0.00000000000E+00 -0.12741025029E+03  0.12741025029E+03  0.00000000000E+00 0.  1.
        -24    2    1    2    0    0 -0.28500183291E+03  0.37986795703E+02  0.68320896198E+03  0.74563110607E+03  0.80760257575E+02 0.  0.
    5000000    2    1    2    0    0  0.28500183291E+03 -0.37986795703E+02  0.10543478991E+04  0.12467462555E+04  0.60004807478E+03 0.  0.
        -24    2    4    4    0    0 -0.16481248724E+03  0.60680044673E+02  0.23988035631E+03  0.30795321164E+03  0.80295525688E+02 0.  0.
         24    2    4    4    0    0  0.44981432015E+03 -0.98666840376E+02  0.81446754274E+03  0.93879304389E+03  0.76856574719E+02 0.  0.
         11    1    5    5    0    0 -0.49811713206E+02  0.36930180183E+01  0.12904308955E+03  0.13837255550E+03  0.00000000000E+00 0. -1.
        -12    1    5    5    0    0 -0.11500077404E+03  0.56987026655E+02  0.11083726676E+03  0.16958065615E+03  0.00000000000E+00 0.  1.
         15    1    3    3    0    0 -0.13317132639E+03 -0.21951800764E+02  0.32937119271E+03  0.35595649179E+03  0.17770000000E+01 0. -1.
        -16    1    3    3    0    0 -0.15183050652E+03  0.59938596467E+02  0.35383776927E+03  0.38967461428E+03  0.00000000000E+00 0.  1.
          4    1    6    6  502    0  0.14274631402E+03 -0.67008105117E+02  0.25529865156E+03  0.30007332072E+03  0.00000000000E+00 0. -1.
         -3    1    6    6    0  502  0.30706800613E+03 -0.31658735258E+02  0.55916889118E+03  0.63871972318E+03  0.00000000000E+00 0.  1.
<mgrwt>
<rscale>  0 0.47144757E+03</rscale>
<asrwt>0</asrwt>
<pdfrwt beam="1">  1        1 0.28691800E+00 0.47144757E+03</pdfrwt>
<pdfrwt beam="2">  1       -2 0.19601578E-01 0.47144757E+03</pdfrwt>
<totfact> 0.76201509E+01</totfact>
</mgrwt>
</event>
<event>
12    3  0.1176235E-007  0.1552481E+04  0.7818608E-02  0.8850285E-01
         -2   -1    0    0    0  501 -0.00000000000E+00  0.00000000000E+00  0.14607042913E+04  0.14607042913E+04  0.00000000000E+00 0.  1.
          1   -1    0    0  501    0  0.00000000000E+00 -0.00000000000E+00 -0.17208466187E+04  0.17208466187E+04  0.00000000000E+00 0. -1.
        -24    2    1    2    0    0 -0.15193396128E+04  0.14000195787E+03 -0.20117312482E+03  0.15410169683E+04  0.79178679895E+02 0.  0.
    5000000    2    1    2    0    0  0.15193396128E+04 -0.14000195787E+03 -0.58969202617E+02  0.16405339417E+04  0.59990069171E+03 0.  0.
        -24    2    4    4    0    0  0.51789569104E+03  0.14305546066E+03 -0.21655216781E+03  0.58477310540E+03  0.79899510575E+02 0.  0.
         24    2    4    4    0    0  0.10014439217E+04 -0.28305741853E+03  0.15758296519E+03  0.10557608363E+04  0.82383991343E+02 0.  0.
         11    1    5    5    0    0  0.16706616135E+03  0.34583889936E+02 -0.10772121096E+03  0.20176968801E+03  0.00000000000E+00 0. -1.
        -12    1    5    5    0    0  0.35082952969E+03  0.10847157072E+03 -0.10883095685E+03  0.38300341738E+03  0.00000000000E+00 0.  1.
         15    1    3    3    0    0 -0.10853763490E+04  0.10494027229E+03 -0.10793597494E+03  0.10957680467E+04  0.17770000000E+01 0. -1.
        -16    1    3    3    0    0 -0.43396326378E+03  0.35061685575E+02 -0.93237149884E+02  0.44524892165E+03  0.00000000000E+00 0.  1.
          4    1    6    6  502    0  0.27781083256E+03 -0.95625525416E+02  0.78252162570E+02  0.30405016156E+03  0.00000000000E+00 0. -1.
         -3    1    6    6    0  502  0.72363308917E+03 -0.18743189311E+03  0.79330802622E+02  0.75171067476E+03  0.00000000000E+00 0.  1.
<mgrwt>
<rscale>  0 0.15524806E+04</rscale>
<asrwt>0</asrwt>
<pdfrwt beam="1">  1        1 0.26474563E+00 0.15524806E+04</pdfrwt>
<pdfrwt beam="2">  1       -2 0.22472374E+00 0.15524806E+04</pdfrwt>
<totfact> 0.34950320E-01</totfact>
</mgrwt>
</event>
<event>
12    3  0.1092576E-007  0.3638978E+03  0.7818608E-02  0.1057051E+00
          1   -1    0    0  501    0  0.00000000000E+00  0.00000000000E+00  0.11341266240E+04  0.11341266240E+04  0.00000000000E+00 0. -1.
         -2   -1    0    0    0  501 -0.00000000000E+00 -0.00000000000E+00 -0.33776469647E+03  0.33776469647E+03  0.00000000000E+00 0.  1.
        -24    2    1    2    0    0 -0.24050621217E+03  0.21598960753E+03 -0.98348640042E+02  0.34716267242E+03  0.79716481818E+02 0.  0.
    5000000    2    1    2    0    0  0.24050621217E+03 -0.21598960753E+03  0.89471056754E+03  0.11247286480E+04  0.60001065269E+03 0.  0.
        -24    2    4    4    0    0  0.94283675235E+01 -0.78216555730E+02  0.82812012768E+03  0.83826911984E+03  0.10346713353E+03 0.  0.
         24    2    4    4    0    0  0.23107784465E+03 -0.13777305180E+03  0.66590439868E+02  0.28645952817E+03  0.72431971605E+02 0.  0.
         11    1    5    5    0    0  0.50511546219E+01 -0.10194101795E+03  0.73595705932E+03  0.74300086034E+03  0.00000000000E+00 0. -1.
        -12    1    5    5    0    0  0.43772129016E+01  0.23724462219E+02  0.92163068351E+02  0.95268259501E+02  0.00000000000E+00 0.  1.
         15    1    3    3    0    0 -0.15522606304E+02  0.40391403985E+02 -0.32817073061E+02  0.54337232499E+02  0.17770000000E+01 0. -1.
        -16    1    3    3    0    0 -0.22498360587E+03  0.17559820354E+03 -0.65531566981E+02  0.29282543993E+03  0.00000000000E+00 0.  1.
          4    1    6    6  502    0  0.47281265046E+02 -0.51333130816E+02  0.43030460308E+02  0.81989199642E+02  0.00000000000E+00 0. -1.
         -3    1    6    6    0  502  0.18379657960E+03 -0.86439920984E+02  0.23559979560E+02  0.20447032853E+03  0.00000000000E+00 0.  1.
<mgrwt>
<rscale>  0 0.36389783E+03</rscale>
<asrwt>0</asrwt>
<pdfrwt beam="1">  1        1 0.17448102E+00 0.36389783E+03</pdfrwt>
<pdfrwt beam="2">  1       -2 0.51963800E-01 0.36389783E+03</pdfrwt>
<totfact> 0.39571194E+01</totfact>
</mgrwt>
</event>
<event>
12    3  0.1092576E-007  0.5760221E+03  0.7818608E-02  0.9956440E-01
         -2   -1    0    0    0  501 -0.00000000000E+00  0.00000000000E+00  0.28164079754E+03  0.28164079754E+03  0.00000000000E+00 0.  1.
          1   -1    0    0  501    0  0.00000000000E+00 -0.00000000000E+00 -0.13142430838E+04  0.13142430838E+04  0.00000000000E+00 0. -1.
        -24    2    1    2    0    0 -0.24821445322E+03  0.36116322551E+03 -0.56119761891E+03  0.71642937706E+03  0.79240107270E+02 0.  0.
    5000000    2    1    2    0    0  0.24821445322E+03 -0.36116322551E+03 -0.47140466739E+03  0.87945450433E+03  0.59930674491E+03 0.  0.
        -24    2    4    4    0    0  0.37131078707E+03 -0.40839562778E+03 -0.46320225855E+03  0.72528089302E+03  0.82567257863E+02 0.  0.
         24    2    4    4    0    0 -0.12309633385E+03  0.47232402270E+02 -0.82024088450E+01  0.15417361131E+03  0.79489720593E+02 0.  0.
         11    1    5    5    0    0  0.15264821221E+03 -0.11135332907E+03 -0.14560114188E+03  0.23853874550E+03  0.00000000000E+00 0. -1.
        -12    1    5    5    0    0  0.21866257486E+03 -0.29704229871E+03 -0.31760111667E+03  0.48674214752E+03  0.00000000000E+00 0.  1.
         15    1    3    3    0    0 -0.20001424986E+03  0.25808273809E+03 -0.46027332214E+03  0.56432888341E+03  0.17770000000E+01 0. -1.
        -16    1    3    3    0    0 -0.48200203352E+02  0.10308048742E+03 -0.10092429676E+03  0.15210049364E+03  0.00000000000E+00 0.  1.
          4    1    6    6  502    0  0.14481650518E+01  0.27857282028E+02 -0.58379804594E+00  0.27901006508E+02  0.00000000000E+00 0. -1.
         -3    1    6    6    0  502 -0.12454449891E+03  0.19375120242E+02 -0.76186107991E+01  0.12627260480E+03  0.00000000000E+00 0.  1.
<mgrwt>
<rscale>  0 0.57602207E+03</rscale>
<asrwt>0</asrwt>
<pdfrwt beam="1">  1        1 0.20219125E+00 0.57602207E+03</pdfrwt>
<pdfrwt beam="2">  1       -2 0.43329353E-01 0.57602207E+03</pdfrwt>
<totfact> 0.40958207E+01</totfact>
</mgrwt>
</event>
<event>
12    3  0.1092576E-007  0.1362714E+04  0.7818608E-02  0.8981259E-01
         -2   -1    0    0    0  501 -0.00000000000E+00  0.00000000000E+00  0.96184064620E+03  0.96184064620E+03  0.00000000000E+00 0.  1.
          1   -1    0    0  501    0  0.00000000000E+00 -0.00000000000E+00 -0.22269215890E+04  0.22269215890E+04  0.00000000000E+00 0. -1.
        -24    2    1    2    0    0  0.50892698377E+03  0.12430885234E+04 -0.17314195180E+03  0.13566558311E+04  0.79127471257E+02 0.  0.
    5000000    2    1    2    0    0 -0.50892698377E+03 -0.12430885234E+04 -0.10919389910E+04  0.18321064041E+04  0.60000613673E+03 0.  0.
        -24    2    4    4    0    0 -0.39073160463E+03 -0.55384048003E+03 -0.23130474509E+03  0.72033269436E+03  0.77245331815E+02 0.  0.
         24    2    4    4    0    0 -0.11819537915E+03 -0.68924804336E+03 -0.86063424586E+03  0.11117737097E+04  0.79476182312E+02 0.  0.
         13    1    5    5    0    0 -0.99893652854E+02 -0.13277954399E+03 -0.92181937780E+02  0.19001752245E+03  0.00000000000E+00 0. -1.
        -14    1    5    5    0    0 -0.29083795177E+03 -0.42106093603E+03 -0.13912280731E+03  0.53031517191E+03  0.00000000000E+00 0.  1.
         15    1    3    3    0    0  0.26896265794E+03  0.75923560556E+03 -0.10480149374E+03  0.81225988879E+03  0.17770000000E+01 0. -1.
        -16    1    3    3    0    0  0.23996432583E+03  0.48385291783E+03 -0.68340458064E+02  0.54439594228E+03  0.00000000000E+00 0.  1.
          2    1    6    6  502    0 -0.37600073512E+02 -0.93270230595E+02 -0.96647847340E+02  0.13947726639E+03  0.00000000000E+00 0. -1.
         -1    1    6    6    0  502 -0.80595305636E+02 -0.59597781277E+03 -0.76398639852E+03  0.97229644334E+03  0.00000000000E+00 0.  1.
<mgrwt>
<rscale>  0 0.13627138E+04</rscale>
<asrwt>0</asrwt>
<pdfrwt beam="1">  1        1 0.34260332E+00 0.13627138E+04</pdfrwt>
<pdfrwt beam="2">  1       -2 0.14797548E+00 0.13627138E+04</pdfrwt>
<totfact> 0.54654545E-01</totfact>
</mgrwt>
</event>
<event>
12    3  0.1092576E-007  0.6272296E+03  0.7818608E-02  0.9850470E-01
          1   -1    0    0  501    0  0.00000000000E+00  0.00000000000E+00  0.82537741972E+03  0.82537741972E+03  0.00000000000E+00 0. -1.
         -2   -1    0    0    0  501 -0.00000000000E+00 -0.00000000000E+00 -0.64744572987E+03  0.64744572987E+03  0.00000000000E+00 0.  1.
        -24    2    1    2    0    0  0.39538876644E+03  0.33767139480E+03 -0.23693411906E+03  0.57700716103E+03  0.80282249688E+02 0.  0.
    5000000    2    1    2    0    0 -0.39538876644E+03 -0.33767139480E+03  0.41486580891E+03  0.89581598855E+03  0.60001533185E+03 0.  0.
        -24    2    4    4    0    0 -0.68375601555E+00 -0.31959157580E+03  0.35946039009E+03  0.48881353710E+03  0.87107170599E+02 0.  0.
         24    2    4    4    0    0 -0.39470501042E+03 -0.18079819008E+02  0.55405418821E+02  0.40700245145E+03  0.80388493845E+02 0.  0.
         11    1    5    5    0    0  0.30937478620E+02 -0.11938300219E+03  0.17936319075E+03  0.21767081337E+03  0.00000000000E+00 0. -1.
        -12    1    5    5    0    0 -0.31621234635E+02 -0.20020857361E+03  0.18009719934E+03  0.27114272374E+03  0.00000000000E+00 0.  1.
         15    1    3    3    0    0  0.75993676565E+02  0.10863181016E+03 -0.48934899283E+02  0.14132830981E+03  0.17770000000E+01 0. -1.
        -16    1    3    3    0    0  0.31939508987E+03  0.22903958465E+03 -0.18799921977E+03  0.43567885123E+03  0.00000000000E+00 0.  1.
          2    1    6    6  502    0 -0.27095860732E+03  0.24247582168E+02  0.45747408402E+02  0.27586108370E+03  0.00000000000E+00 0. -1.
         -1    1    6    6    0  502 -0.12374640310E+03 -0.42327401176E+02  0.96580104185E+01  0.13114136775E+03  0.00000000000E+00 0.  1.
<mgrwt>
<rscale>  0 0.62722963E+03</rscale>
<asrwt>0</asrwt>
<pdfrwt beam="1">  1        1 0.12698114E+00 0.62722963E+03</pdfrwt>
<pdfrwt beam="2">  1       -2 0.99607036E-01 0.62722963E+03</pdfrwt>
<totfact> 0.15905640E+01</totfact>
</mgrwt>
</event>
<event>
12    3  0.1092576E-007  0.1796078E+04  0.7818608E-02  0.8708388E-01
         -2   -1    0    0    0  501 -0.00000000000E+00  0.00000000000E+00  0.14911642863E+04  0.14911642863E+04  0.00000000000E+00 0.  1.
          1   -1    0    0  501    0  0.00000000000E+00 -0.00000000000E+00 -0.31919166962E+04  0.31919166962E+04  0.00000000000E+00 0. -1.
        -24    2    1    2    0    0 -0.15893661983E+04 -0.72679791466E+03  0.49039401279E+03  0.18169104782E+04  0.79732533131E+02 0.  0.
    5000000    2    1    2    0    0  0.15893661983E+04  0.72679791466E+03 -0.21911464226E+04  0.28661705043E+04  0.59957534413E+03 0.  0.
        -24    2    4    4    0    0  0.32687613399E+03  0.43505173576E+03 -0.62653171105E+03  0.83366513228E+03  0.79608718544E+02 0.  0.
         24    2    4    4    0    0  0.12624900643E+04  0.29174617891E+03 -0.15646147116E+04  0.20325053720E+04  0.63733007357E+02 0.  0.
         13    1    5    5    0    0  0.81169531456E+02  0.15906578248E+03 -0.23706357674E+03  0.29679884672E+03  0.00000000000E+00 0. -1.
        -14    1    5    5    0    0  0.24570660253E+03  0.27598595327E+03 -0.38946813430E+03  0.53686628556E+03  0.00000000000E+00 0.  1.
         15    1    3    3    0    0 -0.11465425789E+04 -0.52343247586E+03  0.31631659618E+03  0.12994617304E+04  0.17770000000E+01 0. -1.
        -16    1    3    3    0    0 -0.44282361944E+03 -0.20336543880E+03  0.17407741661E+03  0.51744874781E+03  0.00000000000E+00 0.  1.
          4    1    6    6  502    0  0.56735930704E+03  0.15191761986E+03 -0.74719977385E+03  0.95041204146E+03  0.00000000000E+00 0. -1.
         -1    1    6    6    0  502  0.69513075730E+03  0.13982855905E+03 -0.81741493772E+03  0.10820933306E+04  0.00000000000E+00 0.  1.
<mgrwt>
<rscale>  0 0.17960783E+04</rscale>
<asrwt>0</asrwt>
<pdfrwt beam="1">  1        1 0.49106410E+00 0.17960783E+04</pdfrwt>
<pdfrwt beam="2">  1       -2 0.22940989E+00 0.17960783E+04</pdfrwt>
<totfact> 0.29640889E-02</totfact>
</mgrwt>
</event>
<event>
12    3  0.1092576E-007  0.2385300E+04  0.7818608E-02  0.8445027E-01
         -2   -1    0    0    0  501 -0.00000000000E+00  0.00000000000E+00  0.36423519564E+04  0.36423519564E+04  0.00000000000E+00 0.  1.
          1   -1    0    0  501    0  0.00000000000E+00 -0.00000000000E+00 -0.15801303785E+04  0.15801303785E+04  0.00000000000E+00 0. -1.
        -24    2    1    2    0    0 -0.85950241306E+03 -0.21952383233E+04  0.11514462351E+04  0.26248860763E+04  0.79892344796E+02 0.  0.
    5000000    2    1    2    0    0  0.85950241306E+03  0.21952383233E+04  0.91077534272E+03  0.25975962587E+04  0.60014906793E+03 0.  0.
        -24    2    4    4    0    0  0.35173134207E+03  0.34595553019E+03  0.79250072832E+02  0.50587075013E+03  0.78895347924E+02 0.  0.
         24    2    4    4    0    0  0.50777107099E+03  0.18492827931E+04  0.83152526989E+03  0.20917255085E+04  0.78759247017E+02 0.  0.
         13    1    5    5    0    0  0.11674073413E+03  0.99868535785E+02  0.60428020966E+02  0.16508685339E+03  0.00000000000E+00 0. -1.
        -14    1    5    5    0    0  0.23499060794E+03  0.24608699441E+03  0.18822051866E+02  0.34078389673E+03  0.00000000000E+00 0.  1.
         15    1    3    3    0    0 -0.35823753335E+03 -0.80905387472E+03  0.43383941335E+03  0.98545527387E+03  0.17770000000E+01 0. -1.
        -16    1    3    3    0    0 -0.50126487971E+03 -0.13861844486E+04  0.71760682176E+03  0.16394308024E+04  0.00000000000E+00 0.  1.
          4    1    6    6  502    0  0.24284330812E+03  0.84287421086E+03  0.33932089501E+03  0.94050437395E+03  0.00000000000E+00 0. -1.
         -1    1    6    6    0  502  0.26492776287E+03  0.10064085823E+04  0.49220437488E+03  0.11512211346E+04  0.00000000000E+00 0.  1.
<mgrwt>
<rscale>  0 0.23853004E+04</rscale>
<asrwt>0</asrwt>
<pdfrwt beam="1">  1        1 0.24309698E+00 0.23853004E+04</pdfrwt>
<pdfrwt beam="2">  1       -2 0.56036184E+00 0.23853004E+04</pdfrwt>
<totfact> 0.32167913E-03</totfact>
</mgrwt>
</event>
<event>
12    3  0.1092576E-007  0.4640869E+03  0.7818608E-02  0.1023603E+00
         -2   -1    0    0    0  501 -0.00000000000E+00  0.00000000000E+00  0.14822994900E+03  0.14822994900E+03  0.00000000000E+00 0.  1.
          1   -1    0    0  501    0  0.00000000000E+00 -0.00000000000E+00 -0.15969838797E+04  0.15969838797E+04  0.00000000000E+00 0. -1.
        -24    2    1    2    0    0 -0.14266880759E+03 -0.24387634337E+03 -0.30380713151E+03  0.42205982488E+03  0.77496213529E+02 0.  0.
    5000000    2    1    2    0    0  0.14266880759E+03  0.24387634337E+03 -0.11449467992E+04  0.13231540038E+04  0.60000273777E+03 0.  0.
        -24    2    4    4    0    0  0.22032303253E+03 -0.13256106679E+03 -0.41307211853E+03  0.49266247403E+03  0.77285594499E+02 0.  0.
         24    2    4    4    0    0 -0.77654224946E+02  0.37643741016E+03 -0.73187468065E+03  0.83049152978E+03  0.79626191937E+02 0.  0.
         13    1    5    5    0    0  0.12906099870E+03 -0.85017412934E+02 -0.17601986878E+03  0.23423854527E+03  0.00000000000E+00 0. -1.
        -14    1    5    5    0    0  0.91262033833E+02 -0.47543653856E+02 -0.23705224975E+03  0.25842392875E+03  0.00000000000E+00 0.  1.
         15    1    3    3    0    0 -0.97450981633E+02 -0.16907289044E+03 -0.25763896727E+03  0.32320787628E+03  0.17770000000E+01 0. -1.
        -16    1    3    3    0    0 -0.45217825952E+02 -0.74803452929E+02 -0.46168164241E+02  0.98851948607E+02  0.00000000000E+00 0.  1.
          4    1    6    6  502    0 -0.24019072061E+02  0.24537221554E+03 -0.40316749770E+03  0.47257641835E+03  0.00000000000E+00 0. -1.
         -3    1    6    6    0  502 -0.53635152885E+02  0.13106519462E+03 -0.32870718295E+03  0.35791511143E+03  0.00000000000E+00 0.  1.
<mgrwt>
<rscale>  0 0.46408688E+03</rscale>
<asrwt>0</asrwt>
<pdfrwt beam="1">  1        1 0.24568984E+00 0.46408688E+03</pdfrwt>
<pdfrwt beam="2">  1       -2 0.22804606E-01 0.46408688E+03</pdfrwt>
<totfact> 0.88183184E+01</totfact>
</mgrwt>
</event>
<event>
12    3  0.1092576E-007  0.7963121E+03  0.7818608E-02  0.9565371E-01
          1   -1    0    0  501    0  0.00000000000E+00  0.00000000000E+00  0.22404037722E+04  0.22404037722E+04  0.00000000000E+00 0. -1.
         -2   -1    0    0    0  501 -0.00000000000E+00 -0.00000000000E+00 -0.50771006354E+03  0.50771006354E+03  0.00000000000E+00 0.  1.
        -24    2    1    2    0    0 -0.53150846974E+03  0.44389154947E+03  0.16933106185E+04  0.18309277046E+04  0.73854231606E+02 0.  0.
    5000000    2    1    2    0    0  0.53150846974E+03 -0.44389154947E+03  0.39383090124E+02  0.91718613115E+03  0.60011533081E+03 0.  0.
        -24    2    4    4    0    0  0.60693128620E+03 -0.50095084592E+03  0.45026827197E+02  0.79303023688E+03  0.86903424754E+02 0.  0.
         24    2    4    4    0    0 -0.75422816462E+02  0.57059296450E+02 -0.56437370728E+01  0.12415589427E+03  0.80240075765E+02 0.  0.
         13    1    5    5    0    0  0.32711299472E+03 -0.32478054971E+03  0.33368584650E+02  0.46216747963E+03  0.00000000000E+00 0. -1.
        -14    1    5    5    0    0  0.27981829149E+03 -0.17617029622E+03  0.11658242547E+02  0.33086275725E+03  0.00000000000E+00 0.  1.
         15    1    3    3    0    0 -0.20580556825E+03  0.21907044386E+03  0.74386973843E+03  0.80230489016E+03  0.17770000000E+01 0. -1.
        -16    1    3    3    0    0 -0.32570290149E+03  0.22482110562E+03  0.94944088010E+03  0.10286228144E+04  0.00000000000E+00 0.  1.
          4    1    6    6  502    0 -0.77183575933E+02  0.38930146954E+02  0.23684733234E+02  0.89631620112E+02  0.00000000000E+00 0. -1.
         -3    1    6    6    0  502  0.17607594708E+01  0.18129149496E+02 -0.29328470307E+02  0.34524274155E+02  0.00000000000E+00 0.  1.
<mgrwt>
<rscale>  0 0.79631214E+03</rscale>
<asrwt>0</asrwt>
<pdfrwt beam="1">  1        1 0.34467750E+00 0.79631214E+03</pdfrwt>
<pdfrwt beam="2">  1       -2 0.78109242E-01 0.79631214E+03</pdfrwt>
<totfact> 0.27269735E+00</totfact>
</mgrwt>
</event>
<event>
12    3  0.1092576E-007  0.6517890E+03  0.7818608E-02  0.9803428E-01
         -2   -1    0    0    0  501 -0.00000000000E+00  0.00000000000E+00  0.27002451253E+04  0.27002451253E+04  0.00000000000E+00 0.  1.
          1   -1    0    0  501    0  0.00000000000E+00 -0.00000000000E+00 -0.21287997622E+03  0.21287997622E+03  0.00000000000E+00 0. -1.
        -24    2    1    2    0    0  0.55849045233E+03  0.13818251597E+03  0.52913140635E+03  0.78584688427E+03  0.81051139871E+02 0.  0.
    5000000    2    1    2    0    0 -0.55849045233E+03 -0.13818251597E+03  0.19582337428E+04  0.21272782173E+04  0.59968927737E+03 0.  0.
        -24    2    4    4    0    0 -0.26850034769E+03 -0.28418978211E+03  0.54736817741E+03  0.67733084191E+03  0.79428450779E+02 0.  0.
         24    2    4    4    0    0 -0.28999010464E+03  0.14600726614E+03  0.14108655654E+04  0.14499473754E+04  0.79958522467E+02 0.  0.
         13    1    5    5    0    0 -0.85982292640E+02 -0.12120192537E+03  0.26382971632E+03  0.30280188337E+03  0.00000000000E+00 0. -1.
        -14    1    5    5    0    0 -0.18251805505E+03 -0.16298785675E+03  0.28353846109E+03  0.37452895854E+03  0.00000000000E+00 0.  1.
         15    1    3    3    0    0  0.47837226277E+03  0.10423765253E+03  0.41169989649E+03  0.63969170112E+03  0.17770000000E+01 0. -1.
        -16    1    3    3    0    0  0.80118189559E+02  0.33944863446E+02  0.11743150986E+03  0.14615518315E+03  0.00000000000E+00 0.  1.
          2    1    6    6  502    0 -0.23118169042E+03  0.78531716387E+02  0.10729077937E+04  0.11003378292E+04  0.00000000000E+00 0. -1.
         -1    1    6    6    0  502 -0.58808414226E+02  0.67475549755E+02  0.33795777161E+03  0.34960954620E+03  0.00000000000E+00 0.  1.
<mgrwt>
<rscale>  0 0.65178903E+03</rscale>
<asrwt>0</asrwt>
<pdfrwt beam="1">  1        1 0.32750767E-01 0.65178903E+03</pdfrwt>
<pdfrwt beam="2">  1       -2 0.41542230E+00 0.65178903E+03</pdfrwt>
<totfact> 0.76405142E-01</totfact>
</mgrwt>
</event>
<event>
12    3  0.1092576E-007  0.3240509E+03  0.7818608E-02  0.1073800E+00
         -2   -1    0    0    0  501 -0.00000000000E+00  0.00000000000E+00  0.14577513973E+03  0.14577513973E+03  0.00000000000E+00 0.  1.
          1   -1    0    0  501    0  0.00000000000E+00 -0.00000000000E+00 -0.16284898818E+04  0.16284898818E+04  0.00000000000E+00 0. -1.
        -24    2    1    2    0    0  0.12322691222E+02  0.20701773568E+03 -0.84813453428E+03  0.87701801491E+03  0.82584615048E+02 0.  0.
    5000000    2    1    2    0    0 -0.12322691222E+02 -0.20701773568E+03 -0.63458020776E+03  0.89724700659E+03  0.59945972271E+03 0.  0.
        -24    2    4    4    0    0 -0.13455194583E+03 -0.26544588849E+03 -0.67066446326E+03  0.73812024745E+03  0.80404798184E+02 0.  0.
         24    2    4    4    0    0  0.12222925461E+03  0.58428152802E+02  0.36084255502E+02  0.15912675914E+03  0.75268932881E+02 0.  0.
         13    1    5    5    0    0 -0.40101040154E+02 -0.93815838681E+02 -0.14635556533E+03  0.17840811784E+03  0.00000000000E+00 0. -1.
        -14    1    5    5    0    0 -0.94450905678E+02 -0.17163004981E+03 -0.52430889793E+03  0.55971212960E+03  0.00000000000E+00 0.  1.
         15    1    3    3    0    0  0.28549276500E+02  0.88527272992E+02 -0.50852958493E+03  0.51696966616E+03  0.17770000000E+01 0. -1.
        -16    1    3    3    0    0 -0.16226585278E+02  0.11849046269E+03 -0.33960494935E+03  0.36004834876E+03  0.00000000000E+00 0.  1.
          4    1    6    6  502    0  0.91338888964E+01  0.12488618522E+02  0.33645659067E+02  0.37032740825E+02  0.00000000000E+00 0. -1.
         -3    1    6    6    0  502  0.11309536571E+03  0.45939534280E+02  0.24385964348E+01  0.12209401832E+03  0.00000000000E+00 0.  1.
<mgrwt>
<rscale>  0 0.32405093E+03</rscale>
<asrwt>0</asrwt>
<pdfrwt beam="1">  1        1 0.25053692E+00 0.32405093E+03</pdfrwt>
<pdfrwt beam="2">  1       -2 0.22426943E-01 0.32405093E+03</pdfrwt>
<totfact> 0.88746190E+01</totfact>
</mgrwt>
</event>
<event>
12    3  0.1092576E-007  0.5875929E+03  0.7818608E-02  0.9931487E-01
         -2   -1    0    0    0  501 -0.00000000000E+00  0.00000000000E+00  0.18623740719E+03  0.18623740719E+03  0.00000000000E+00 0.  1.
          1   -1    0    0  501    0  0.00000000000E+00 -0.00000000000E+00 -0.21557135730E+04  0.21557135730E+04  0.00000000000E+00 0. -1.
        -24    2    1    2    0    0 -0.26259313959E+03  0.40811800772E+03 -0.68167688277E+03  0.84064544465E+03  0.80535246525E+02 0.  0.
    5000000    2    1    2    0    0  0.26259313959E+03 -0.40811800772E+03 -0.12877992830E+04  0.15013055355E+04  0.59997987672E+03 0.  0.
        -24    2    4    4    0    0  0.37898326450E+03 -0.17512140497E+03 -0.44535308448E+03  0.61583812121E+03  0.81371987993E+02 0.  0.
         24    2    4    4    0    0 -0.11639012491E+03 -0.23299660275E+03 -0.84244619856E+03  0.88546741433E+03  0.80640351591E+02 0.  0.
         13    1    5    5    0    0 -0.19298446897E+01 -0.82225669784E+01 -0.37585106890E+01  0.92445286975E+01  0.00000000000E+00 0. -1.
        -14    1    5    5    0    0  0.38091310919E+03 -0.16689883799E+03 -0.44159457379E+03  0.60659359251E+03  0.00000000000E+00 0.  1.
         15    1    3    3    0    0 -0.13147548440E+03  0.14119014513E+03 -0.30190045533E+03  0.35828410896E+03  0.17770000000E+01 0. -1.
        -16    1    3    3    0    0 -0.13111765518E+03  0.26692786259E+03 -0.37977642745E+03  0.48236133569E+03  0.00000000000E+00 0.  1.
          4    1    6    6  502    0 -0.50868509808E+02 -0.94265742913E+02 -0.22427996169E+03  0.24854604562E+03  0.00000000000E+00 0. -1.
         -3    1    6    6    0  502 -0.65521615107E+02 -0.13873085984E+03 -0.61816623688E+03  0.63692136872E+03  0.00000000000E+00 0.  1.
<mgrwt>
<rscale>  0 0.58759288E+03</rscale>
<asrwt>0</asrwt>
<pdfrwt beam="1">  1        1 0.33164825E+00 0.58759288E+03</pdfrwt>
<pdfrwt beam="2">  1       -2 0.28651908E-01 0.58759288E+03</pdfrwt>
<totfact> 0.24389793E+01</totfact>
</mgrwt>
</event>
<event>
12    3  0.1092576E-007  0.6982104E+03  0.7818608E-02  0.9720298E-01
          1   -1    0    0  501    0  0.00000000000E+00  0.00000000000E+00  0.62931659894E+03  0.62931659894E+03  0.00000000000E+00 0. -1.
         -2   -1    0    0    0  501 -0.00000000000E+00 -0.00000000000E+00 -0.12198003319E+04  0.12198003319E+04  0.00000000000E+00 0.  1.
        -24    2    1    2    0    0 -0.99448640582E+01  0.63834016396E+03 -0.71637240493E+03  0.96404605337E+03  0.92834827751E+02 0.  0.
    5000000    2    1    2    0    0  0.99448640582E+01 -0.63834016396E+03  0.12588867197E+03  0.88507087746E+03  0.59993785940E+03 0.  0.
        -24    2    4    4    0    0  0.20104953758E+03 -0.41204772986E+03  0.27897896392E+03  0.54244293771E+03  0.78808820054E+02 0.  0.
         24    2    4    4    0    0 -0.19110467352E+03 -0.22629243410E+03 -0.15309029195E+03  0.34262793974E+03  0.78917714307E+02 0.  0.
         13    1    5    5    0    0  0.12227610533E+03 -0.29090905134E+03  0.15281271531E+03  0.35061552739E+03  0.00000000000E+00 0. -1.
        -14    1    5    5    0    0  0.78773432246E+02 -0.12113867852E+03  0.12616624861E+03  0.19182741032E+03  0.00000000000E+00 0.  1.
         15    1    3    3    0    0 -0.32758881329E+01  0.57412011527E+02 -0.11085682745E+03  0.12489701531E+03  0.17770000000E+01 0. -1.
        -16    1    3    3    0    0 -0.66689759253E+01  0.58092815243E+03 -0.60551557747E+03  0.83914903807E+03  0.00000000000E+00 0.  1.
          4    1    6    6  502    0 -0.10994982583E+03 -0.10579791371E+03 -0.37887675227E+02  0.15721844256E+03  0.00000000000E+00 0. -1.
         -3    1    6    6    0  502 -0.81154847689E+02 -0.12049452039E+03 -0.11520261672E+03  0.18540949718E+03  0.00000000000E+00 0.  1.
<mgrwt>
<rscale>  0 0.69821037E+03</rscale>
<asrwt>0</asrwt>
<pdfrwt beam="1">  1        1 0.96817938E-01 0.69821037E+03</pdfrwt>
<pdfrwt beam="2">  1       -2 0.18766159E+00 0.69821037E+03</pdfrwt>
<totfact> 0.46395282E+00</totfact>
</mgrwt>
</event>
<event>
12    3  0.1092576E-007  0.1389250E+04  0.7818608E-02  0.8961637E-01
         -2   -1    0    0    0  501 -0.00000000000E+00  0.00000000000E+00  0.22478784596E+04  0.22478784596E+04  0.00000000000E+00 0.  1.
          1   -1    0    0  501    0  0.00000000000E+00 -0.00000000000E+00 -0.10091823726E+04  0.10091823726E+04  0.00000000000E+00 0. -1.
        -24    2    1    2    0    0 -0.44005181263E+03  0.12506777198E+04 -0.26784593470E+02  0.13285287401E+04  0.80192532309E+02 0.  0.
    5000000    2    1    2    0    0  0.44005181263E+03 -0.12506777198E+04  0.12654806805E+04  0.19285320920E+04  0.59996193259E+03 0.  0.
        -24    2    4    4    0    0  0.48344412830E+03 -0.50828797944E+03  0.67196395101E+03  0.97384633911E+03  0.69038000529E+02 0.  0.
         24    2    4    4    0    0 -0.43392315674E+02 -0.74238974040E+03  0.59351672952E+03  0.95468575293E+03  0.78341297650E+02 0.  0.
         11    1    5    5    0    0  0.22659494924E+03 -0.28551420279E+03  0.36332478205E+03  0.51465379458E+03  0.00000000000E+00 0. -1.
        -12    1    5    5    0    0  0.25684917906E+03 -0.22277377665E+03  0.30863916896E+03  0.45919254454E+03  0.00000000000E+00 0.  1.
         15    1    3    3    0    0 -0.37808915000E+02  0.60778609693E+02  0.76439357736E+01  0.72007922709E+02  0.17770000000E+01 0. -1.
        -16    1    3    3    0    0 -0.40224289763E+03  0.11898991101E+04 -0.34428529243E+02  0.12565208174E+04  0.00000000000E+00 0.  1.
          2    1    6    6  502    0 -0.51472054805E+02 -0.33989920550E+03  0.30284143976E+03  0.45814165927E+03  0.00000000000E+00 0. -1.
         -1    1    6    6    0  502  0.80797391316E+01 -0.40249053491E+03  0.29067528975E+03  0.49654409366E+03  0.00000000000E+00 0.  1.
<mgrwt>
<rscale>  0 0.13892501E+04</rscale>
<asrwt>0</asrwt>
<pdfrwt beam="1">  1        1 0.15525883E+00 0.13892501E+04</pdfrwt>
<pdfrwt beam="2">  1       -2 0.34582745E+00 0.13892501E+04</pdfrwt>
<totfact> 0.20745275E-01</totfact>
</mgrwt>
</event>
<event>
12    3  0.1092576E-007  0.3989035E+03  0.7818608E-02  0.1044160E+00
         -2   -1    0    0    0  501 -0.00000000000E+00  0.00000000000E+00  0.94814733698E+02  0.94814733698E+02  0.00000000000E+00 0.  1.
          1   -1    0    0  501    0  0.00000000000E+00 -0.00000000000E+00 -0.19040677499E+04  0.19040677499E+04  0.00000000000E+00 0. -1.
        -24    2    1    2    0    0  0.13186809895E+03 -0.15141592395E+03 -0.50717144349E+03  0.55119648024E+03  0.79238306291E+02 0.  0.
    5000000    2    1    2    0    0 -0.13186809895E+03  0.15141592395E+03 -0.13020815727E+04  0.14476860034E+04  0.60005196842E+03 0.  0.
        -24    2    4    4    0    0 -0.15655136259E+03  0.34411668147E+03 -0.10540425544E+04  0.11226259869E+04  0.79741962175E+02 0.  0.
         24    2    4    4    0    0  0.24683263640E+02 -0.19270075752E+03 -0.24803901836E+03  0.32506001644E+03  0.79986337630E+02 0.  0.
         11    1    5    5    0    0 -0.10660985226E+03  0.29736551165E+03 -0.81830185934E+03  0.87716010005E+03  0.00000000000E+00 0. -1.
        -12    1    5    5    0    0 -0.49941510332E+02  0.46751169822E+02 -0.23574069501E+03  0.24546588687E+03  0.00000000000E+00 0.  1.
         15    1    3    3    0    0  0.10630858773E+03 -0.97818465770E+02 -0.26471396935E+03  0.30157355881E+03  0.17770000000E+01 0. -1.
        -16    1    3    3    0    0  0.25559511217E+02 -0.53597458176E+02 -0.24245747414E+03  0.24962292143E+03  0.00000000000E+00 0.  1.
          2    1    6    6  502    0  0.46642840067E+02 -0.64624418743E+02 -0.10477961195E+03  0.13164587767E+03  0.00000000000E+00 0. -1.
         -1    1    6    6    0  502 -0.21959576427E+02 -0.12807633878E+03 -0.14325940641E+03  0.19341413877E+03  0.00000000000E+00 0.  1.
<mgrwt>
<rscale>  0 0.39890349E+03</rscale>
<asrwt>0</asrwt>
<pdfrwt beam="1">  1        1 0.29293349E+00 0.39890349E+03</pdfrwt>
<pdfrwt beam="2">  1       -2 0.14586883E-01 0.39890349E+03</pdfrwt>
<totfact> 0.12005404E+02</totfact>
</mgrwt>
</event>
<event>
12    3  0.1092576E-007  0.7691370E+03  0.7818608E-02  0.9605797E-01
         -2   -1    0    0    0  501 -0.00000000000E+00  0.00000000000E+00  0.11894348740E+04  0.11894348740E+04  0.00000000000E+00 0.  1.
          1   -1    0    0  501    0  0.00000000000E+00 -0.00000000000E+00 -0.54835542516E+03  0.54835542516E+03  0.00000000000E+00 0. -1.
        -24    2    1    2    0    0 -0.45364894117E+03  0.51950202360E+03  0.35612338474E+03  0.78021394844E+03  0.78931779653E+02 0.  0.
    5000000    2    1    2    0    0  0.45364894117E+03 -0.51950202360E+03  0.28495606408E+03  0.95757635070E+03  0.60006065912E+03 0.  0.
        -24    2    4    4    0    0  0.52289140651E+03 -0.52000485977E+03  0.36380255277E+03  0.82552058528E+03  0.72879778683E+02 0.  0.
         24    2    4    4    0    0 -0.69242465339E+02  0.50283617087E+00 -0.78846488693E+02  0.13205576542E+03  0.80169723403E+02 0.  0.
         13    1    5    5    0    0  0.48175712927E+03 -0.50025333096E+03  0.35078011010E+03  0.77806812837E+03  0.00000000000E+00 0. -1.
        -14    1    5    5    0    0  0.41134277238E+02 -0.19751528806E+02  0.13022442669E+02  0.47452456914E+02  0.00000000000E+00 0.  1.
         15    1    3    3    0    0 -0.38936447585E+03  0.39891021906E+03  0.28062632665E+03  0.62409001824E+03  0.17770000000E+01 0. -1.
        -16    1    3    3    0    0 -0.64284465322E+02  0.12059180454E+03  0.75497058083E+02  0.15612393020E+03  0.00000000000E+00 0.  1.
          2    1    6    6  502    0 -0.44228030419E+02 -0.37875294007E+02 -0.31618548098E+02  0.66260011731E+02  0.00000000000E+00 0. -1.
         -1    1    6    6    0  502 -0.25014434920E+02  0.38378130178E+02 -0.47227940595E+02  0.65795753686E+02  0.00000000000E+00 0.  1.
<mgrwt>
<rscale>  0 0.76913700E+03</rscale>
<asrwt>0</asrwt>
<pdfrwt beam="1">  1        1 0.84362373E-01 0.76913700E+03</pdfrwt>
<pdfrwt beam="2">  1       -2 0.18298998E+00 0.76913700E+03</pdfrwt>
<totfact> 0.60207005E+00</totfact>
</mgrwt>
</event>
<event>
12    3  0.1092576E-007  0.8126784E+03  0.7818608E-02  0.9541845E-01
         -2   -1    0    0    0  501 -0.00000000000E+00  0.00000000000E+00  0.99564842521E+03  0.99564842521E+03  0.00000000000E+00 0.  1.
          1   -1    0    0  501    0  0.00000000000E+00 -0.00000000000E+00 -0.75455681905E+03  0.75455681905E+03  0.00000000000E+00 0. -1.
        -24    2    1    2    0    0 -0.34653114328E+03 -0.65414457147E+03  0.28068018025E+03  0.79648551111E+03  0.87286036561E+02 0.  0.
    5000000    2    1    2    0    0  0.34653114328E+03  0.65414457147E+03 -0.39588574092E+02  0.95371973314E+03  0.60002093342E+03 0.  0.
        -24    2    4    4    0    0 -0.11741066204E+03  0.12927533855E+03 -0.13947424475E+03  0.24075621343E+03  0.89515990964E+02 0.  0.
         24    2    4    4    0    0  0.46394180533E+03  0.52486923292E+03  0.99885670654E+02  0.71296351972E+03  0.87236018040E+02 0.  0.
         11    1    5    5    0    0 -0.10150906927E+03  0.86265355671E+02 -0.53967741306E+02  0.14373002413E+03  0.00000000000E+00 0. -1.
        -12    1    5    5    0    0 -0.15901592771E+02  0.43009982875E+02 -0.85506503440E+02  0.97026189300E+02  0.00000000000E+00 0.  1.
         15    1    3    3    0    0 -0.30780474293E+03 -0.60588318395E+03  0.23318867064E+03  0.71848333746E+03  0.17770000000E+01 0. -1.
        -16    1    3    3    0    0 -0.38726400351E+02 -0.48261387518E+02  0.47491509606E+02  0.78002173649E+02  0.00000000000E+00 0.  1.
          2    1    6    6  502    0  0.36909554611E+03  0.46064533936E+03  0.98317957932E+02  0.59840794754E+03  0.00000000000E+00 0. -1.
         -1    1    6    6    0  502  0.94846259223E+02  0.64223893562E+02  0.15677127214E+01  0.11455557217E+03  0.00000000000E+00 0.  1.
<mgrwt>
<rscale>  0 0.81267836E+03</rscale>
<asrwt>0</asrwt>
<pdfrwt beam="1">  1        1 0.11608566E+00 0.81267836E+03</pdfrwt>
<pdfrwt beam="2">  1       -2 0.15317668E+00 0.81267836E+03</pdfrwt>
<totfact> 0.61148930E+00</totfact>
</mgrwt>
</event>
<event>
12    3  0.1092576E-007  0.5159380E+03  0.7818608E-02  0.1009701E+00
          1   -1    0    0  501    0  0.00000000000E+00  0.00000000000E+00  0.87981120868E+03  0.87981120868E+03  0.00000000000E+00 0. -1.
         -2   -1    0    0    0  501 -0.00000000000E+00 -0.00000000000E+00 -0.60094778575E+03  0.60094778575E+03  0.00000000000E+00 0.  1.
        -24    2    1    2    0    0  0.17632131465E+03  0.44456869977E+03  0.48563217761E+03  0.68611833853E+03  0.78671644976E+02 0.  0.
    5000000    2    1    2    0    0 -0.17632131465E+03 -0.44456869977E+03 -0.20676875468E+03  0.79464065590E+03  0.59997493221E+03 0.  0.
        -24    2    4    4    0    0  0.52912101309E+02 -0.20965081469E+03  0.16879549040E+03  0.28939759584E+03  0.92227416390E+02 0.  0.
         24    2    4    4    0    0 -0.22923341596E+03 -0.23491788509E+03 -0.37556424508E+03  0.50524306006E+03  0.80546109958E+02 0.  0.
         11    1    5    5    0    0  0.52390958625E+02 -0.19070406362E+03  0.10720631698E+03  0.22495787790E+03  0.00000000000E+00 0. -1.
        -12    1    5    5    0    0  0.52114268357E+00 -0.18946751063E+02  0.61589173421E+02  0.64439717940E+02  0.00000000000E+00 0.  1.
         15    1    3    3    0    0  0.71497557012E+02  0.25852956882E+03  0.30733403234E+03  0.40792990057E+03  0.17770000000E+01 0. -1.
        -16    1    3    3    0    0  0.10482375764E+03  0.18603913096E+03  0.17829814527E+03  0.27818843797E+03  0.00000000000E+00 0.  1.
          4    1    6    6  502    0 -0.72338372638E+02 -0.11516570656E+03 -0.19496195120E+03  0.23771020706E+03  0.00000000000E+00 0. -1.
         -3    1    6    6    0  502 -0.15689504332E+03 -0.11975217853E+03 -0.18060229388E+03  0.26753285300E+03  0.00000000000E+00 0.  1.
<mgrwt>
<rscale>  0 0.51593797E+03</rscale>
<asrwt>0</asrwt>
<pdfrwt beam="1">  1        1 0.13535557E+00 0.51593797E+03</pdfrwt>
<pdfrwt beam="2">  1       -2 0.92453505E-01 0.51593797E+03</pdfrwt>
<totfact> 0.17319252E+01</totfact>
</mgrwt>
</event>
<event>
12    3  0.1092576E-007  0.5363567E+03  0.7818608E-02  0.1004702E+00
         -2   -1    0    0    0  501 -0.00000000000E+00  0.00000000000E+00  0.55031981368E+03  0.55031981368E+03  0.00000000000E+00 0.  1.
          1   -1    0    0  501    0  0.00000000000E+00 -0.00000000000E+00 -0.12514822707E+04  0.12514822707E+04  0.00000000000E+00 0. -1.
        -24    2    1    2    0    0  0.12431815521E+03 -0.34806590328E+03  0.36366852969E+03  0.52490539499E+03  0.81645559988E+02 0.  0.
    5000000    2    1    2    0    0 -0.12431815521E+03  0.34806590328E+03 -0.10648309868E+04  0.12768966894E+04  0.59999604030E+03 0.  0.
        -24    2    4    4    0    0  0.22765265045E+03  0.91738367712E+02 -0.32901809391E+03  0.41814233046E+03  0.79677129920E+02 0.  0.
         24    2    4    4    0    0 -0.35197080566E+03  0.25632753556E+03 -0.73581289284E+03  0.85875435896E+03  0.80319252010E+02 0.  0.
         13    1    5    5    0    0  0.11769894389E+03  0.81634079207E+02 -0.22318812562E+03  0.26519823472E+03  0.00000000000E+00 0. -1.
        -14    1    5    5    0    0  0.10995370656E+03  0.10104288505E+02 -0.10582996829E+03  0.15294409574E+03  0.00000000000E+00 0.  1.
         15    1    3    3    0    0  0.10953219122E+03 -0.20295481691E+03  0.24871067760E+03  0.33918743712E+03  0.17770000000E+01 0. -1.
        -16    1    3    3    0    0  0.14785963987E+02 -0.14511108637E+03  0.11495785209E+03  0.18571795787E+03  0.00000000000E+00 0.  1.
          2    1    6    6  502    0 -0.32285865940E+03  0.25817827640E+03 -0.69341383118E+03  0.80728958721E+03  0.00000000000E+00 0. -1.
         -1    1    6    6    0  502 -0.29112146266E+02 -0.18507408310E+01 -0.42399061658E+02  0.51464771750E+02  0.00000000000E+00 0.  1.
<mgrwt>
<rscale>  0 0.53635672E+03</rscale>
<asrwt>0</asrwt>
<pdfrwt beam="1">  1        1 0.19253573E+00 0.53635672E+03</pdfrwt>
<pdfrwt beam="2">  1       -2 0.84664588E-01 0.53635672E+03</pdfrwt>
<totfact> 0.11092335E+01</totfact>
</mgrwt>
</event>
<event>
12    3  0.1092576E-007  0.1294849E+04  0.7818608E-02  0.9033660E-01
          1   -1    0    0  501    0  0.00000000000E+00  0.00000000000E+00  0.12946777093E+04  0.12946777093E+04  0.00000000000E+00 0. -1.
         -2   -1    0    0    0  501 -0.00000000000E+00 -0.00000000000E+00 -0.13870727260E+04  0.13870727260E+04  0.00000000000E+00 0.  1.
        -24    2    1    2    0    0  0.11329867128E+04  0.57307178637E+03 -0.11275869467E+03  0.12773530358E+04  0.82741109383E+02 0.  0.
    5000000    2    1    2    0    0 -0.11329867128E+04 -0.57307178637E+03  0.20363677960E+02  0.14043973996E+04  0.59987266384E+03 0.  0.
        -24    2    4    4    0    0 -0.53120054118E+03 -0.90828014735E+02 -0.22657423281E+03  0.59055013237E+03  0.83605219129E+02 0.  0.
         24    2    4    4    0    0 -0.60178617160E+03 -0.48224377164E+03  0.24693791077E+03  0.81384726718E+03  0.81629595812E+02 0.  0.
         13    1    5    5    0    0 -0.87500641209E+02  0.13495041955E+02 -0.50495259107E+02  0.10192276273E+03  0.00000000000E+00 0. -1.
        -14    1    5    5    0    0 -0.44369989997E+03 -0.10432305669E+03 -0.17607897370E+03  0.48862736965E+03  0.00000000000E+00 0.  1.
         15    1    3    3    0    0  0.33263420603E+03  0.20052540131E+03 -0.59503575131E+02  0.39293738022E+03  0.17770000000E+01 0. -1.
        -16    1    3    3    0    0  0.80035250675E+03  0.37254638506E+03 -0.53255119541E+02  0.88441565558E+03  0.00000000000E+00 0.  1.
          4    1    6    6  502    0 -0.14097701315E+03 -0.77781061970E+02  0.70988950198E+02  0.17596545936E+03  0.00000000000E+00 0. -1.
         -3    1    6    6    0  502 -0.46080915845E+03 -0.40446270967E+03  0.17594896057E+03  0.63788180782E+03  0.00000000000E+00 0.  1.
<mgrwt>
<rscale>  0 0.12948486E+04</rscale>
<asrwt>0</asrwt>
<pdfrwt beam="1">  1        1 0.19918119E+00 0.12948486E+04</pdfrwt>
<pdfrwt beam="2">  1       -2 0.21339580E+00 0.12948486E+04</pdfrwt>
<totfact> 0.84021392E-01</totfact>
</mgrwt>
</event>
<event>
12    3  0.1092576E-007  0.7605330E+03  0.7818608E-02  0.9618969E-01
         -2   -1    0    0    0  501 -0.00000000000E+00  0.00000000000E+00  0.40352820589E+03  0.40352820589E+03  0.00000000000E+00 0.  1.
          1   -1    0    0  501    0  0.00000000000E+00 -0.00000000000E+00 -0.14762845099E+04  0.14762845099E+04  0.00000000000E+00 0. -1.
        -24    2    1    2    0    0  0.42627537182E+03  0.49389767947E+03 -0.45457306830E+03  0.79906129980E+03  0.78845900359E+02 0.  0.
    5000000    2    1    2    0    0 -0.42627537182E+03 -0.49389767947E+03 -0.61818323567E+03  0.10807514159E+04  0.60018955321E+03 0.  0.
        -24    2    4    4    0    0  0.13706217142E+03 -0.10842538405E+03 -0.95607113573E+02  0.21863853859E+03  0.90110974101E+02 0.  0.
         24    2    4    4    0    0 -0.56333754324E+03 -0.38547229543E+03 -0.52257612210E+03  0.86211287735E+03  0.64920965336E+02 0.  0.
         13    1    5    5    0    0  0.76642942987E+02 -0.34896740916E+02 -0.90074416676E+02  0.12330986893E+03  0.00000000000E+00 0. -1.
        -14    1    5    5    0    0  0.60419228430E+02 -0.73528643130E+02 -0.55326968965E+01  0.95328669662E+02  0.00000000000E+00 0.  1.
         15    1    3    3    0    0  0.25157765042E+03  0.23205791526E+03 -0.24468939904E+03  0.42073536808E+03  0.17770000000E+01 0. -1.
        -16    1    3    3    0    0  0.17469772141E+03  0.26183976422E+03 -0.20988366926E+03  0.37832593172E+03  0.00000000000E+00 0.  1.
          4    1    6    6  502    0 -0.31401602757E+03 -0.24652785832E+03 -0.32783749619E+03  0.51658443106E+03  0.00000000000E+00 0. -1.
         -3    1    6    6    0  502 -0.24932151567E+03 -0.13894443711E+03 -0.19473862590E+03  0.34552844629E+03  0.00000000000E+00 0.  1.
<mgrwt>
<rscale>  0 0.76053298E+03</rscale>
<asrwt>0</asrwt>
<pdfrwt beam="1">  1        1 0.22712069E+00 0.76053298E+03</pdfrwt>
<pdfrwt beam="2">  1       -2 0.62081264E-01 0.76053298E+03</pdfrwt>
<totfact> 0.14789523E+01</totfact>
</mgrwt>
</event>
<event>
12    3  0.1092576E-007  0.1239959E+04  0.7818608E-02  0.9078582E-01
          1   -1    0    0  501    0  0.00000000000E+00  0.00000000000E+00  0.11524300960E+04  0.11524300960E+04  0.00000000000E+00 0. -1.
         -2   -1    0    0    0  501 -0.00000000000E+00 -0.00000000000E+00 -0.16439673872E+04  0.16439673872E+04  0.00000000000E+00 0.  1.
        -24    2    1    2    0    0  0.81615623877E+03  0.83999939530E+03 -0.82970436812E+03  0.14376447086E+04  0.81871725181E+02 0.  0.
    5000000    2    1    2    0    0 -0.81615623877E+03 -0.83999939530E+03  0.33816707696E+03  0.13587527747E+04  0.60011843881E+03 0.  0.
        -24    2    4    4    0    0 -0.30047510650E+03 -0.71193580996E+03  0.16365966205E+03  0.79392537653E+03  0.79969565297E+02 0.  0.
         24    2    4    4    0    0 -0.51568113226E+03 -0.12806358533E+03  0.17450741490E+03  0.56482739816E+03  0.79055928261E+02 0.  0.
         13    1    5    5    0    0 -0.34769479449E+02 -0.37339225034E+02  0.19947987365E+02  0.54781900544E+02  0.00000000000E+00 0. -1.
        -14    1    5    5    0    0 -0.26570562705E+03 -0.67459658493E+03  0.14371167469E+03  0.73914347598E+03  0.00000000000E+00 0.  1.
         15    1    3    3    0    0  0.17662275098E+03  0.15090339964E+03 -0.13509778804E+03  0.26874151568E+03  0.17770000000E+01 0. -1.
        -16    1    3    3    0    0  0.63953348779E+03  0.68909599566E+03 -0.69460658007E+03  0.11689031929E+04  0.00000000000E+00 0.  1.
          4    1    6    6  502    0 -0.42542186037E+03 -0.10882853939E+03  0.17455046357E+03  0.47254129406E+03  0.00000000000E+00 0. -1.
         -3    1    6    6    0  502 -0.90259271898E+02 -0.19235045948E+02 -0.43048664762E-01  0.92286104097E+02  0.00000000000E+00 0.  1.
<mgrwt>
<rscale>  0 0.12399591E+04</rscale>
<asrwt>0</asrwt>
<pdfrwt beam="1">  1        1 0.17729694E+00 0.12399591E+04</pdfrwt>
<pdfrwt beam="2">  1       -2 0.25291806E+00 0.12399591E+04</pdfrwt>
<totfact> 0.60865712E-01</totfact>
</mgrwt>
</event>
<event>
12    3  0.1092576E-007  0.3648449E+03  0.7818608E-02  0.1056682E+00
          1   -1    0    0  501    0  0.00000000000E+00  0.00000000000E+00  0.78267608138E+03  0.78267608138E+03  0.00000000000E+00 0. -1.
         -2   -1    0    0    0  501 -0.00000000000E+00 -0.00000000000E+00 -0.32294222829E+03  0.32294222829E+03  0.00000000000E+00 0.  1.
        -24    2    1    2    0    0 -0.80298720529E+02 -0.19751859768E+03 -0.10881593486E+03  0.25192791622E+03  0.78519337371E+02 0.  0.
    5000000    2    1    2    0    0  0.80298720529E+02  0.19751859768E+03  0.56854978796E+03  0.85369039345E+03  0.60006411785E+03 0.  0.
        -24    2    4    4    0    0  0.19502024869E+03  0.27950853828E+03  0.59326085809E+03  0.68921841554E+03  0.83100290025E+02 0.  0.
         24    2    4    4    0    0 -0.11472152816E+03 -0.81989940596E+02 -0.24711070131E+02  0.16447197791E+03  0.80975398409E+02 0.  0.
         11    1    5    5    0    0  0.11963068680E+03  0.22795883685E+03  0.46890513429E+03  0.53492874057E+03  0.00000000000E+00 0. -1.
        -12    1    5    5    0    0  0.75389561896E+02  0.51549701430E+02  0.12435572379E+03  0.15428967497E+03  0.00000000000E+00 0.  1.
         15    1    3    3    0    0 -0.88372933934E+02 -0.12882122226E+03 -0.60411864620E+02  0.16750353391E+03  0.17770000000E+01 0. -1.
        -16    1    3    3    0    0  0.80742134048E+01 -0.68697375421E+02 -0.48404070243E+02  0.84424382307E+02  0.00000000000E+00 0.  1.
          4    1    6    6  502    0 -0.56483132007E+02 -0.79114890253E+02  0.81340327828E+01  0.97548308803E+02  0.00000000000E+00 0. -1.
         -3    1    6    6    0  502 -0.58238396157E+02 -0.28750503435E+01 -0.32845102914E+02  0.66923669107E+02  0.00000000000E+00 0.  1.
<mgrwt>
<rscale>  0 0.36484488E+03</rscale>
<asrwt>0</asrwt>
<pdfrwt beam="1">  1        1 0.12041170E+00 0.36484488E+03</pdfrwt>
<pdfrwt beam="2">  1       -2 0.49683420E-01 0.36484488E+03</pdfrwt>
<totfact> 0.81315128E+01</totfact>
</mgrwt>
</event>
<event>
12    3  0.1092576E-007  0.1196142E+04  0.7818608E-02  0.9116240E-01
         -2   -1    0    0    0  501 -0.00000000000E+00  0.00000000000E+00  0.11571082476E+04  0.11571082476E+04  0.00000000000E+00 0.  1.
          1   -1    0    0  501    0  0.00000000000E+00 -0.00000000000E+00 -0.12785084814E+04  0.12785084814E+04  0.00000000000E+00 0. -1.
        -24    2    1    2    0    0 -0.11094211197E+04 -0.20691110775E+03  0.11040070257E+03  0.11366838282E+04  0.78958107024E+02 0.  0.
    5000000    2    1    2    0    0  0.11094211197E+04  0.20691110775E+03 -0.23180093640E+03  0.12989329009E+04  0.59988963944E+03 0.  0.
        -24    2    4    4    0    0  0.79129365523E+03 -0.12589433499E+03 -0.19922471754E+03  0.82939240141E+03  0.78779661411E+02 0.  0.
         24    2    4    4    0    0  0.31812746449E+03  0.33280544275E+03 -0.32576218869E+02  0.46954049948E+03  0.86270065659E+02 0.  0.
         13    1    5    5    0    0  0.39151814184E+03 -0.45498754294E+02 -0.13473334014E+03  0.41654491352E+03  0.00000000000E+00 0. -1.
        -14    1    5    5    0    0  0.39977551339E+03 -0.80395580699E+02 -0.64491377395E+02  0.41284748790E+03  0.00000000000E+00 0.  1.
         15    1    3    3    0    0 -0.76491876851E+03 -0.11976131562E+03  0.46543227322E+02  0.77563710901E+03  0.17770000000E+01 0. -1.
        -16    1    3    3    0    0 -0.34450235121E+03 -0.87149792132E+02  0.63857475244E+02  0.36104671914E+03  0.00000000000E+00 0.  1.
          4    1    6    6  502    0  0.20892400260E+03  0.23091208020E+03 -0.61483925921E+02  0.31741124868E+03  0.00000000000E+00 0. -1.
         -3    1    6    6    0  502  0.10920346189E+03  0.10189336255E+03  0.28907707052E+02  0.15212925079E+03  0.00000000000E+00 0.  1.
<mgrwt>
<rscale>  0 0.11961416E+04</rscale>
<asrwt>0</asrwt>
<pdfrwt beam="1">  1        1 0.19669361E+00 0.11961416E+04</pdfrwt>
<pdfrwt beam="2">  1       -2 0.17801665E+00 0.11961416E+04</pdfrwt>
<totfact> 0.14997425E+00</totfact>
</mgrwt>
</event>
<event>
12    3  0.1092576E-007  0.1363106E+04  0.7818608E-02  0.8980966E-01
          1   -1    0    0  501    0  0.00000000000E+00  0.00000000000E+00  0.18007939737E+04  0.18007939737E+04  0.00000000000E+00 0. -1.
         -2   -1    0    0    0  501 -0.00000000000E+00 -0.00000000000E+00 -0.15495849826E+04  0.15495849826E+04  0.00000000000E+00 0.  1.
        -24    2    1    2    0    0  0.26394448213E+03  0.12726358059E+04 -0.84085632736E+03  0.15498575448E+04  0.75831798443E+02 0.  0.
    5000000    2    1    2    0    0 -0.26394448213E+03 -0.12726358059E+04  0.10920653185E+04  0.18005214115E+04  0.60000175774E+03 0.  0.
        -24    2    4    4    0    0 -0.34166650280E+03 -0.12731967241E+04  0.10022416039E+04  0.16578128267E+04  0.78033571654E+02 0.  0.
         24    2    4    4    0    0  0.77722020676E+02  0.56091817615E+00  0.89823714586E+02  0.14270858483E+03  0.79097492723E+02 0.  0.
         11    1    5    5    0    0 -0.17434231008E+03 -0.56932395063E+03  0.41143542408E+03  0.72374312434E+03  0.00000000000E+00 0. -1.
        -12    1    5    5    0    0 -0.16732419272E+03 -0.70387277348E+03  0.59080617983E+03  0.93406970235E+03  0.00000000000E+00 0.  1.
         15    1    3    3    0    0  0.18886780745E+03  0.91549667723E+03 -0.64468141320E+03  0.11355274092E+04  0.17770000000E+01 0. -1.
        -16    1    3    3    0    0  0.75076674672E+02  0.35713912870E+03 -0.19617491416E+03  0.41433013561E+03  0.00000000000E+00 0.  1.
          4    1    6    6  502    0  0.11175473211E+02  0.32063212728E+02  0.45489189697E+02  0.56764488822E+02  0.00000000000E+00 0. -1.
         -3    1    6    6    0  502  0.66546547465E+02 -0.31502294552E+02  0.44334524889E+02  0.85944096008E+02  0.00000000000E+00 0.  1.
<mgrwt>
<rscale>  0 0.13631056E+04</rscale>
<asrwt>0</asrwt>
<pdfrwt beam="1">  1        1 0.27704523E+00 0.13631056E+04</pdfrwt>
<pdfrwt beam="2">  1       -2 0.23839769E+00 0.13631056E+04</pdfrwt>
<totfact> 0.25842361E-01</totfact>
</mgrwt>
</event>
<event>
12    3  0.1092576E-007  0.9139720E+03  0.7818608E-02  0.9408282E-01
          3   -1    0    0  501    0  0.00000000000E+00  0.00000000000E+00  0.30381524674E+03  0.30381524674E+03  0.00000000000E+00 0. -1.
         -4   -1    0    0    0  501 -0.00000000000E+00 -0.00000000000E+00 -0.32439966442E+04  0.32439966442E+04  0.00000000000E+00 0.  1.
        -24    2    1    2    0    0 -0.12542034097E+03  0.89099976598E+03 -0.12892321237E+04  0.15741650050E+04  0.79152695647E+02 0.  0.
    5000000    2    1    2    0    0  0.12542034097E+03 -0.89099976598E+03 -0.16509492737E+04  0.19736468859E+04  0.60003139998E+03 0.  0.
        -24    2    4    4    0    0 -0.23089496290E+02 -0.13616924496E+03 -0.83294008429E+03  0.84789333965E+03  0.77837929633E+02 0.  0.
         24    2    4    4    0    0  0.14850983726E+03 -0.75483052102E+03 -0.81800918945E+03  0.11257535463E+04  0.79735347920E+02 0.  0.
         11    1    5    5    0    0 -0.37448468398E+02 -0.22955206959E+02 -0.26255355051E+03  0.26620235949E+03  0.00000000000E+00 0. -1.
        -12    1    5    5    0    0  0.14358972108E+02 -0.11321403800E+03 -0.57038653378E+03  0.58169098016E+03  0.00000000000E+00 0.  1.
         15    1    3    3    0    0 -0.60666903055E+02  0.38198717089E+03 -0.48758328373E+03  0.62236266610E+03  0.17770000000E+01 0. -1.
        -16    1    3    3    0    0 -0.64753437912E+02  0.50901259509E+03 -0.80164883996E+03  0.95180233888E+03  0.00000000000E+00 0.  1.
          4    1    6    6  502    0  0.16189617062E+02 -0.14993061474E+03 -0.12034006902E+03  0.19293269590E+03  0.00000000000E+00 0. -1.
         -3    1    6    6    0  502  0.13232022019E+03 -0.60489990628E+03 -0.69766912044E+03  0.93282085038E+03  0.00000000000E+00 0.  1.
<mgrwt>
<rscale>  0 0.91397202E+03</rscale>
<asrwt>0</asrwt>
<pdfrwt beam="1">  1        3 0.46740805E-01 0.91397202E+03</pdfrwt>
<pdfrwt beam="2">  1       -4 0.49907643E+00 0.91397202E+03</pdfrwt>
<totfact> 0.13270012E-02</totfact>
</mgrwt>
</event>
<event>
12    3  0.1092576E-007  0.4034202E+03  0.7818608E-02  0.1042602E+00
         -2   -1    0    0    0  501 -0.00000000000E+00  0.00000000000E+00  0.10120820322E+03  0.10120820322E+03  0.00000000000E+00 0.  1.
          1   -1    0    0  501    0  0.00000000000E+00 -0.00000000000E+00 -0.23464662021E+04  0.23464662021E+04  0.00000000000E+00 0. -1.
        -24    2    1    2    0    0 -0.24516498952E+03 -0.90784695334E+02 -0.10495647715E+04  0.10845737421E+04  0.79788842688E+02 0.  0.
    5000000    2    1    2    0    0  0.24516498952E+03  0.90784695334E+02 -0.11956932274E+04  0.13631006632E+04  0.60001115919E+03 0.  0.
        -24    2    4    4    0    0 -0.12357887109E+03 -0.54371118936E+02 -0.72209984728E+03  0.73970561596E+03  0.86650175355E+02 0.  0.
         24    2    4    4    0    0  0.36874386061E+03  0.14515581427E+03 -0.47359338007E+03  0.62339504726E+03  0.85372420319E+02 0.  0.
         11    1    5    5    0    0 -0.66838034807E+02 -0.29957387716E+02 -0.18354081387E+03  0.19761578462E+03  0.00000000000E+00 0. -1.
        -12    1    5    5    0    0 -0.56740836284E+02 -0.24413731221E+02 -0.53855903342E+03  0.54208983135E+03  0.00000000000E+00 0.  1.
         15    1    3    3    0    0 -0.43657646174E+02  0.13957045999E+02 -0.19830261784E+03  0.20353838747E+03  0.17770000000E+01 0. -1.
        -16    1    3    3    0    0 -0.20150734334E+03 -0.10474174133E+03 -0.85126215367E+03  0.88103535461E+03  0.00000000000E+00 0.  1.
          4    1    6    6  502    0  0.22396003964E+03  0.64232689797E+02 -0.22044935593E+03  0.32075201686E+03  0.00000000000E+00 0. -1.
         -3    1    6    6    0  502  0.14478382097E+03  0.80923124473E+02 -0.25314402415E+03  0.30264303040E+03  0.00000000000E+00 0.  1.
<mgrwt>
<rscale>  0 0.40342019E+03</rscale>
<asrwt>0</asrwt>
<pdfrwt beam="1">  1        1 0.36099478E+00 0.40342019E+03</pdfrwt>
<pdfrwt beam="2">  1       -2 0.15570494E-01 0.40342019E+03</pdfrwt>
<totfact> 0.54917524E+01</totfact>
</mgrwt>
</event>
<event>
12    3  0.1092576E-007  0.5498652E+03  0.7818608E-02  0.1001525E+00
         -2   -1    0    0    0  501 -0.00000000000E+00  0.00000000000E+00  0.49429216045E+03  0.49429216045E+03  0.00000000000E+00 0.  1.
          1   -1    0    0  501    0  0.00000000000E+00 -0.00000000000E+00 -0.26018605924E+04  0.26018605924E+04  0.00000000000E+00 0. -1.
        -24    2    1    2    0    0  0.40043271139E+03  0.30982339536E+03 -0.22418759604E+04  0.22997052310E+04  0.79368979167E+02 0.  0.
    5000000    2    1    2    0    0 -0.40043271139E+03 -0.30982339536E+03  0.13430752852E+03  0.79644752181E+03  0.59996104049E+03 0.  0.
        -24    2    4    4    0    0 -0.42050512904E+03 -0.30877298887E+03  0.30285325065E+03  0.60850382612E+03  0.79946812097E+02 0.  0.
         24    2    4    4    0    0  0.20072417648E+02 -0.10504064858E+01 -0.16854572214E+03  0.18794369569E+03  0.80691802522E+02 0.  0.
         11    1    5    5    0    0 -0.42412603195E+03 -0.30600934316E+03  0.29840951999E+03  0.60214022512E+03  0.00000000000E+00 0. -1.
        -12    1    5    5    0    0  0.36209029126E+01 -0.27636457086E+01  0.44437306644E+01  0.63636010028E+01  0.00000000000E+00 0.  1.
         15    1    3    3    0    0  0.12095996057E+03  0.11059154045E+03 -0.57748349741E+03  0.60029338526E+03  0.17770000000E+01 0. -1.
        -16    1    3    3    0    0  0.27947275082E+03  0.19923185491E+03 -0.16643924630E+04  0.16994118457E+04  0.00000000000E+00 0.  1.
          2    1    6    6  502    0  0.21824982959E+02  0.28252824552E+02 -0.14766480415E+03  0.15191920998E+03  0.00000000000E+00 0. -1.
         -1    1    6    6    0  502 -0.17525653105E+01 -0.29303231038E+02 -0.20880917983E+02  0.36024485704E+02  0.00000000000E+00 0.  1.
<mgrwt>
<rscale>  0 0.54986516E+03</rscale>
<asrwt>0</asrwt>
<pdfrwt beam="1">  1        1 0.40028624E+00 0.54986516E+03</pdfrwt>
<pdfrwt beam="2">  1       -2 0.76044949E-01 0.54986516E+03</pdfrwt>
<totfact> 0.17350584E+00</totfact>
</mgrwt>
</event>
<event>
12    3  0.1092576E-007  0.4417628E+03  0.7818608E-02  0.1030207E+00
          1   -1    0    0  501    0  0.00000000000E+00  0.00000000000E+00  0.23927677177E+04  0.23927677177E+04  0.00000000000E+00 0. -1.
         -2   -1    0    0    0  501 -0.00000000000E+00 -0.00000000000E+00 -0.41867954216E+03  0.41867954216E+03  0.00000000000E+00 0.  1.
        -24    2    1    2    0    0  0.23025761895E+03 -0.22505224129E+03 -0.29398347177E+03  0.44336130913E+03  0.80472892095E+02 0.  0.
    5000000    2    1    2    0    0 -0.23025761895E+03  0.22505224129E+03  0.22680716473E+04  0.23680859507E+04  0.60001249178E+03 0.  0.
        -24    2    4    4    0    0 -0.35847496451E+03  0.98501545318E+02  0.19965404172E+04  0.20325265159E+04  0.82362284665E+02 0.  0.
         24    2    4    4    0    0  0.12821734556E+03  0.12655069597E+03  0.27153123009E+03  0.33555943475E+03  0.80100929980E+02 0.  0.
         13    1    5    5    0    0 -0.18015019161E+03  0.43277684421E+02  0.77720321019E+03  0.79898177666E+03  0.00000000000E+00 0. -1.
        -14    1    5    5    0    0 -0.17832477290E+03  0.55223860897E+02  0.12193372070E+04  0.12335447393E+04  0.00000000000E+00 0.  1.
         15    1    3    3    0    0  0.43743380986E+02 -0.93003269069E+02 -0.10329776182E+03  0.14572809188E+03  0.17770000000E+01 0. -1.
        -16    1    3    3    0    0  0.18651423797E+03 -0.13204897222E+03 -0.19068570996E+03  0.29763321725E+03  0.00000000000E+00 0.  1.
          4    1    6    6  502    0  0.41663636143E+02  0.45097281421E+02  0.34567574006E+02  0.70459495747E+02  0.00000000000E+00 0. -1.
         -3    1    6    6    0  502  0.86553709417E+02  0.81453414547E+02  0.23696365609E+03  0.26509993901E+03  0.00000000000E+00 0.  1.
<mgrwt>
<rscale>  0 0.44176278E+03</rscale>
<asrwt>0</asrwt>
<pdfrwt beam="1">  1        1 0.36811810E+00 0.44176278E+03</pdfrwt>
<pdfrwt beam="2">  1       -2 0.64412239E-01 0.44176278E+03</pdfrwt>
<totfact> 0.35533434E+00</totfact>
</mgrwt>
</event>
<event>
12    3  0.1092576E-007  0.1585318E+04  0.7818608E-02  0.8829619E-01
         -2   -1    0    0    0  501 -0.00000000000E+00  0.00000000000E+00  0.19638967831E+04  0.19638967831E+04  0.00000000000E+00 0.  1.
          1   -1    0    0  501    0  0.00000000000E+00 -0.00000000000E+00 -0.16223514341E+04  0.16223514341E+04  0.00000000000E+00 0. -1.
        -24    2    1    2    0    0  0.55808371786E+03 -0.14379186595E+04 -0.62903209808E+03  0.16676772042E+04  0.79989809453E+02 0.  0.
    5000000    2    1    2    0    0 -0.55808371786E+03  0.14379186595E+04  0.97057744703E+03  0.19185710129E+04  0.59985551886E+03 0.  0.
        -24    2    4    4    0    0  0.49773797057E+02  0.50473823090E+03  0.15645154012E+03  0.53673150189E+03  0.79784134402E+02 0.  0.
         24    2    4    4    0    0 -0.60785751491E+03  0.93318042861E+03  0.81412590691E+03  0.13818395111E+04  0.79768234491E+02 0.  0.
         13    1    5    5    0    0  0.18056498340E+02  0.31103479483E+02 -0.27023034982E+01  0.36066133872E+02  0.00000000000E+00 0. -1.
        -14    1    5    5    0    0  0.31717298718E+02  0.47363475142E+03  0.15915384362E+03  0.50066536802E+03  0.00000000000E+00 0.  1.
         15    1    3    3    0    0  0.36497598025E+03 -0.83162032456E+03 -0.36930036139E+03  0.98040080836E+03  0.17770000000E+01 0. -1.
        -16    1    3    3    0    0  0.19310773760E+03 -0.60629833496E+03 -0.25973173669E+03  0.68727639589E+03  0.00000000000E+00 0.  1.
          2    1    6    6  502    0 -0.18091640781E+03  0.22704418046E+03  0.23876402162E+03  0.37588304632E+03  0.00000000000E+00 0. -1.
         -1    1    6    6    0  502 -0.42694110711E+03  0.70613624815E+03  0.57536188529E+03  0.10059564647E+04  0.00000000000E+00 0.  1.
<mgrwt>
<rscale>  0 0.15853180E+04</rscale>
<asrwt>0</asrwt>
<pdfrwt beam="1">  1        1 0.24959253E+00 0.15853180E+04</pdfrwt>
<pdfrwt beam="2">  1       -2 0.30213797E+00 0.15853180E+04</pdfrwt>
<totfact> 0.13588894E-01</totfact>
</mgrwt>
</event>
<event>
12    3  0.1092576E-007  0.4414976E+03  0.7818608E-02  0.1030288E+00
          1   -1    0    0  501    0  0.00000000000E+00  0.00000000000E+00  0.97695654914E+03  0.97695654914E+03  0.00000000000E+00 0. -1.
         -2   -1    0    0    0  501 -0.00000000000E+00 -0.00000000000E+00 -0.22324956666E+03  0.22324956666E+03  0.00000000000E+00 0.  1.
        -24    2    1    2    0    0  0.10980415068E+02  0.25316648979E+03  0.32560255497E+03  0.42035009320E+03  0.80394875338E+02 0.  0.
    5000000    2    1    2    0    0 -0.10980415068E+02 -0.25316648979E+03  0.42810442751E+03  0.77985602260E+03  0.60057320459E+03 0.  0.
        -24    2    4    4    0    0  0.26128162817E+03 -0.19273525247E+03  0.11590561471E+03  0.35353314800E+03  0.78336507741E+02 0.  0.
         24    2    4    4    0    0 -0.27226204324E+03 -0.60431237318E+02  0.31219881279E+03  0.42632287461E+03  0.80650728891E+02 0.  0.
         13    1    5    5    0    0  0.20429996388E+03 -0.12332616330E+03  0.11208510811E+03  0.26364917837E+03  0.00000000000E+00 0. -1.
        -14    1    5    5    0    0  0.56981664287E+02 -0.69409089173E+02  0.38205066078E+01  0.89883969624E+02  0.00000000000E+00 0.  1.
         15    1    3    3    0    0  0.43567962169E+02  0.13518680407E+03  0.15321658010E+03  0.20893089161E+03  0.17770000000E+01 0. -1.
        -16    1    3    3    0    0 -0.32587547100E+02  0.11797968572E+03  0.17238597487E+03  0.21141920159E+03  0.00000000000E+00 0.  1.
          4    1    6    6  502    0 -0.15084450899E+03 -0.73856624800E+02  0.17283596852E+03  0.24100028824E+03  0.00000000000E+00 0. -1.
         -3    1    6    6    0  502 -0.12141753425E+03  0.13425387482E+02  0.13936284428E+03  0.18532258637E+03  0.00000000000E+00 0.  1.
<mgrwt>
<rscale>  0 0.44149760E+03</rscale>
<asrwt>0</asrwt>
<pdfrwt beam="1">  1        1 0.15030100E+00 0.44149760E+03</pdfrwt>
<pdfrwt beam="2">  1       -2 0.34346088E-01 0.44149760E+03</pdfrwt>
<totfact> 0.11485570E+02</totfact>
</mgrwt>
</event>
<event>
12    3  0.1092576E-007  0.6391893E+03  0.7818608E-02  0.9827279E-01
          1   -1    0    0  501    0  0.00000000000E+00  0.00000000000E+00  0.94608587111E+03  0.94608587111E+03  0.00000000000E+00 0. -1.
         -2   -1    0    0    0  501 -0.00000000000E+00 -0.00000000000E+00 -0.73943550372E+03  0.73943550372E+03  0.00000000000E+00 0.  1.
        -24    2    1    2    0    0 -0.52926760774E+03 -0.89133123152E+02 -0.40290222752E+03  0.67582551749E+03  0.79630464683E+02 0.  0.
    5000000    2    1    2    0    0  0.52926760774E+03  0.89133123152E+02  0.60955259491E+03  0.10096958573E+04  0.59988535915E+03 0.  0.
        -24    2    4    4    0    0  0.61337378938E+03  0.61977881069E+01  0.34396163229E+03  0.70773470257E+03  0.79454305469E+02 0.  0.
         24    2    4    4    0    0 -0.84106181634E+02  0.82935335045E+02  0.26559096262E+03  0.30196115477E+03  0.81791564242E+02 0.  0.
         13    1    5    5    0    0  0.19687623713E+03  0.26005586483E+02  0.79119950774E+02  0.21376742008E+03  0.00000000000E+00 0. -1.
        -14    1    5    5    0    0  0.41649755224E+03 -0.19807798376E+02  0.26484168152E+03  0.49396728249E+03  0.00000000000E+00 0.  1.
         15    1    3    3    0    0 -0.27011325393E+03 -0.82578941539E+02 -0.19063929519E+03  0.34077404556E+03  0.17770000000E+01 0. -1.
        -16    1    3    3    0    0 -0.25915435382E+03 -0.65541816130E+01 -0.21226293233E+03  0.33505147193E+03  0.00000000000E+00 0.  1.
          4    1    6    6  502    0 -0.36613690179E+02  0.18336715273E+02  0.18033851813E+03  0.18492911766E+03  0.00000000000E+00 0. -1.
         -3    1    6    6    0  502 -0.47492491455E+02  0.64598619773E+02  0.85252444483E+02  0.11703203712E+03  0.00000000000E+00 0.  1.
<mgrwt>
<rscale>  0 0.63918928E+03</rscale>
<asrwt>0</asrwt>
<pdfrwt beam="1">  1        1 0.14555167E+00 0.63918928E+03</pdfrwt>
<pdfrwt beam="2">  1       -2 0.11375931E+00 0.63918928E+03</pdfrwt>
<totfact> 0.91998793E+00</totfact>
</mgrwt>
</event>
<event>
12    3  0.1092576E-007  0.5959828E+03  0.7818608E-02  0.9913776E-01
          1   -1    0    0  501    0  0.00000000000E+00  0.00000000000E+00  0.63991014493E+03  0.63991014493E+03  0.00000000000E+00 0. -1.
         -2   -1    0    0    0  501 -0.00000000000E+00 -0.00000000000E+00 -0.78155312806E+03  0.78155312806E+03  0.00000000000E+00 0.  1.
        -24    2    1    2    0    0 -0.25516538484E+03 -0.51678151443E+03 -0.74102153646E+02  0.58679849931E+03  0.81662980267E+02 0.  0.
    5000000    2    1    2    0    0  0.25516538484E+03  0.51678151443E+03 -0.67540829483E+02  0.83466477368E+03  0.59994250849E+03 0.  0.
        -24    2    4    4    0    0  0.37023310380E+02  0.27174921613E+03  0.24367337695E+03  0.37551687471E+03  0.80111463460E+02 0.  0.
         24    2    4    4    0    0  0.21814207446E+03  0.24503229830E+03 -0.31121420643E+03  0.45914789897E+03  0.79597229761E+02 0.  0.
         13    1    5    5    0    0  0.20209011560E+01  0.13674336431E+03  0.72725611474E+02  0.15489301562E+03  0.00000000000E+00 0. -1.
        -14    1    5    5    0    0  0.35002409224E+02  0.13500585182E+03  0.17094776548E+03  0.22062385909E+03  0.00000000000E+00 0.  1.
         15    1    3    3    0    0 -0.12189860968E+03 -0.31264927753E+03 -0.14782981317E+02  0.33590256928E+03  0.17770000000E+01 0. -1.
        -16    1    3    3    0    0 -0.13326677516E+03 -0.20413223690E+03 -0.59319172329E+02  0.25089593004E+03  0.00000000000E+00 0.  1.
          4    1    6    6  502    0  0.43193185980E+02  0.10071376816E+03 -0.11995121904E+03  0.16247218027E+03  0.00000000000E+00 0. -1.
         -3    1    6    6    0  502  0.17494888848E+03  0.14431853014E+03 -0.19126298739E+03  0.29667571870E+03  0.00000000000E+00 0.  1.
<mgrwt>
<rscale>  0 0.59598279E+03</rscale>
<asrwt>0</asrwt>
<pdfrwt beam="1">  1        1 0.98447715E-01 0.59598279E+03</pdfrwt>
<pdfrwt beam="2">  1       -2 0.12023894E+00 0.59598279E+03</pdfrwt>
<totfact> 0.14955551E+01</totfact>
</mgrwt>
</event>
<event>
12    3  0.1092576E-007  0.4629525E+03  0.7818608E-02  0.1023928E+00
         -2   -1    0    0    0  501 -0.00000000000E+00  0.00000000000E+00  0.12411041433E+04  0.12411041433E+04  0.00000000000E+00 0.  1.
          1   -1    0    0  501    0  0.00000000000E+00 -0.00000000000E+00 -0.25420455465E+03  0.25420455465E+03  0.00000000000E+00 0. -1.
        -24    2    1    2    0    0  0.97127490466E+02  0.37440739693E+03  0.47017267561E+03  0.61401143942E+03  0.79580491138E+02 0.  0.
    5000000    2    1    2    0    0 -0.97127490466E+02 -0.37440739693E+03  0.51672691309E+03  0.88129725857E+03  0.60005292015E+03 0.  0.
        -24    2    4    4    0    0  0.10180205599E+03 -0.25718683867E+02  0.44750218904E+03  0.46613547493E+03  0.77452969537E+02 0.  0.
         24    2    4    4    0    0 -0.19892954645E+03 -0.34868871306E+03  0.69224724052E+02  0.41516178364E+03  0.80065355263E+02 0.  0.
         13    1    5    5    0    0  0.57419338176E+02  0.20371458714E+02  0.15140558592E+03  0.16320425293E+03  0.00000000000E+00 0. -1.
        -14    1    5    5    0    0  0.44382717810E+02 -0.46090142581E+02  0.29609660311E+03  0.30293122199E+03  0.00000000000E+00 0.  1.
         15    1    3    3    0    0 -0.13915429055E+02  0.54242031253E+02  0.66934428994E+02  0.87288101331E+02  0.17770000000E+01 0. -1.
        -16    1    3    3    0    0  0.11104291952E+03  0.32016536567E+03  0.40323824662E+03  0.52672333809E+03  0.00000000000E+00 0.  1.
          2    1    6    6  502    0 -0.99263696042E+02 -0.23378743607E+03  0.17843398147E+02  0.25461389097E+03  0.00000000000E+00 0. -1.
         -1    1    6    6    0  502 -0.99665850410E+02 -0.11490127699E+03  0.51381325904E+02  0.16054789268E+03  0.00000000000E+00 0.  1.
<mgrwt>
<rscale>  0 0.46295251E+03</rscale>
<asrwt>0</asrwt>
<pdfrwt beam="1">  1        1 0.39108394E-01 0.46295251E+03</pdfrwt>
<pdfrwt beam="2">  1       -2 0.19093910E+00 0.46295251E+03</pdfrwt>
<totfact> 0.15271341E+01</totfact>
</mgrwt>
</event>
<event>
12    3  0.1092576E-007  0.6862307E+03  0.7818608E-02  0.9741074E-01
         -2   -1    0    0    0  501 -0.00000000000E+00  0.00000000000E+00  0.74068327295E+03  0.74068327295E+03  0.00000000000E+00 0.  1.
          1   -1    0    0  501    0  0.00000000000E+00 -0.00000000000E+00 -0.85386648582E+03  0.85386648582E+03  0.00000000000E+00 0. -1.
        -24    2    1    2    0    0 -0.38141612039E+03  0.52273214300E+03 -0.25599909684E+03  0.70059482085E+03  0.81058097686E+02 0.  0.
    5000000    2    1    2    0    0  0.38141612039E+03 -0.52273214300E+03  0.14281588397E+03  0.89395493792E+03  0.60002658616E+03 0.  0.
        -24    2    4    4    0    0  0.24513878703E+03 -0.51996773063E+03  0.31513956980E+03  0.66050130063E+03  0.80557767306E+02 0.  0.
         24    2    4    4    0    0  0.13627733337E+03 -0.27644123700E+01 -0.17232368583E+03  0.23345363729E+03  0.78904971329E+02 0.  0.
         13    1    5    5    0    0  0.10898087597E+03 -0.19239996998E+03  0.81150507644E+02  0.23554189578E+03  0.00000000000E+00 0. -1.
        -14    1    5    5    0    0  0.13615791106E+03 -0.32756776065E+03  0.23398906216E+03  0.42495940485E+03  0.00000000000E+00 0.  1.
         15    1    3    3    0    0 -0.27749219263E+03  0.40155412253E+03 -0.22713260901E+03  0.53836791332E+03  0.17770000000E+01 0. -1.
        -16    1    3    3    0    0 -0.10392392776E+03  0.12117802048E+03 -0.28866487832E+02  0.16222690753E+03  0.00000000000E+00 0.  1.
          2    1    6    6  502    0  0.14242902014E+03 -0.92060541363E+00 -0.13725733702E+03  0.19780406936E+03  0.00000000000E+00 0. -1.
         -1    1    6    6    0  502 -0.61516867711E+01 -0.18438069563E+01 -0.35066348815E+02  0.35649567927E+02  0.00000000000E+00 0.  1.
<mgrwt>
<rscale>  0 0.68623073E+03</rscale>
<asrwt>0</asrwt>
<pdfrwt beam="1">  1        1 0.13136407E+00 0.68623073E+03</pdfrwt>
<pdfrwt beam="2">  1       -2 0.11395127E+00 0.68623073E+03</pdfrwt>
<totfact> 0.10818060E+01</totfact>
</mgrwt>
</event>
<event>
12    3  0.1092576E-007  0.5778527E+03  0.7818608E-02  0.9952451E-01
          1   -1    0    0  501    0  0.00000000000E+00  0.00000000000E+00  0.11100110129E+04  0.11100110129E+04  0.00000000000E+00 0. -1.
         -2   -1    0    0    0  501 -0.00000000000E+00 -0.00000000000E+00 -0.41560590111E+03  0.41560590111E+03  0.00000000000E+00 0.  1.
        -24    2    1    2    0    0 -0.68263938707E+02 -0.49293685211E+03  0.36096427935E+02  0.50530843392E+03  0.79918432066E+02 0.  0.
    5000000    2    1    2    0    0  0.68263938707E+02  0.49293685211E+03  0.65830868381E+03  0.10203084800E+04  0.60001030472E+03 0.  0.
        -24    2    4    4    0    0  0.12866858255E+03  0.53350964731E+03  0.26936919539E+03  0.61668993669E+03  0.80984978119E+02 0.  0.
         24    2    4    4    0    0 -0.60404643843E+02 -0.40572795201E+02  0.38893948843E+03  0.40361854335E+03  0.79618654676E+02 0.  0.
         13    1    5    5    0    0  0.63973266232E+02  0.23035739946E+03  0.16135483340E+03  0.28843108803E+03  0.00000000000E+00 0. -1.
        -14    1    5    5    0    0  0.64695316318E+02  0.30315224785E+03  0.10801436199E+03  0.32825884866E+03  0.00000000000E+00 0.  1.
         15    1    3    3    0    0 -0.57857128929E+02 -0.27750652475E+03 -0.14219322418E+02  0.28383563114E+03  0.17770000000E+01 0. -1.
        -16    1    3    3    0    0 -0.10406809777E+02 -0.21543032736E+03  0.50315750353E+02  0.22147280278E+03  0.00000000000E+00 0.  1.
          2    1    6    6  502    0 -0.73616368930E+02 -0.51912698717E+02  0.33739071739E+03  0.34920881180E+03  0.00000000000E+00 0. -1.
         -1    1    6    6    0  502  0.13211725087E+02  0.11339903516E+02  0.51548771041E+02  0.54409731550E+02  0.00000000000E+00 0.  1.
<mgrwt>
<rscale>  0 0.57785269E+03</rscale>
<asrwt>0</asrwt>
<pdfrwt beam="1">  1        1 0.17077092E+00 0.57785269E+03</pdfrwt>
<pdfrwt beam="2">  1       -2 0.63939370E-01 0.57785269E+03</pdfrwt>
<totfact> 0.25842767E+01</totfact>
</mgrwt>
</event>
<event>
12    3  0.1092576E-007  0.9642107E+03  0.7818608E-02  0.9348693E-01
          1   -1    0    0  501    0  0.00000000000E+00  0.00000000000E+00  0.10904857876E+04  0.10904857876E+04  0.00000000000E+00 0. -1.
         -2   -1    0    0    0  501 -0.00000000000E+00 -0.00000000000E+00 -0.13336076335E+04  0.13336076335E+04  0.00000000000E+00 0.  1.
        -24    2    1    2    0    0 -0.20447491686E+03  0.93023142841E+03  0.49665503187E+03  0.10770432266E+04  0.78837740246E+02 0.  0.
    5000000    2    1    2    0    0  0.20447491686E+03 -0.93023142841E+03 -0.73977687775E+03  0.13470501945E+04  0.60011156942E+03 0.  0.
        -24    2    4    4    0    0  0.15343570764E+03 -0.29930568677E+03  0.29537144683E+02  0.34746066172E+03  0.82036930838E+02 0.  0.
         24    2    4    4    0    0  0.51039209221E+02 -0.63092574164E+03 -0.76931402243E+03  0.99958953282E+03  0.81626445897E+02 0.  0.
         13    1    5    5    0    0  0.11413735690E+03 -0.21292552242E+03 -0.16168894812E+02  0.24212816337E+03  0.00000000000E+00 0. -1.
        -14    1    5    5    0    0  0.39298350738E+02 -0.86380164345E+02  0.45706039494E+02  0.10533249835E+03  0.00000000000E+00 0.  1.
         15    1    3    3    0    0 -0.12090879940E+03  0.41571450004E+03  0.25538042995E+03  0.50265276787E+03  0.17770000000E+01 0. -1.
        -16    1    3    3    0    0 -0.83566117461E+02  0.51451692837E+03  0.24127460193E+03  0.57439045875E+03  0.00000000000E+00 0.  1.
          4    1    6    6  502    0 -0.55233277437E+01 -0.39791953827E+03 -0.49902536132E+03  0.63827641138E+03  0.00000000000E+00 0. -1.
         -3    1    6    6    0  502  0.56562536965E+02 -0.23300620337E+03 -0.27028866111E+03  0.36131312143E+03  0.00000000000E+00 0.  1.
<mgrwt>
<rscale>  0 0.96421069E+03</rscale>
<asrwt>0</asrwt>
<pdfrwt beam="1">  1        1 0.16776704E+00 0.96421069E+03</pdfrwt>
<pdfrwt beam="2">  1       -2 0.20517041E+00 0.96421069E+03</pdfrwt>
<totfact> 0.13933417E+00</totfact>
</mgrwt>
</event>
<event>
12    3  0.1092576E-007  0.7667319E+03  0.7818608E-02  0.9609460E-01
          1   -1    0    0  501    0  0.00000000000E+00  0.00000000000E+00  0.12092696497E+04  0.12092696497E+04  0.00000000000E+00 0. -1.
         -2   -1    0    0    0  501 -0.00000000000E+00 -0.00000000000E+00 -0.61908753514E+03  0.61908753514E+03  0.00000000000E+00 0.  1.
        -24    2    1    2    0    0 -0.56243917559E+03  0.50945246368E+03  0.25323691449E+03  0.80398742451E+03  0.79919990797E+02 0.  0.
    5000000    2    1    2    0    0  0.56243917559E+03 -0.50945246368E+03  0.33694520010E+03  0.10243697604E+04  0.59993474570E+03 0.  0.
        -24    2    4    4    0    0  0.39508260785E+03 -0.40431100094E+03 -0.61550219982E+02  0.57420950476E+03  0.79815244594E+02 0.  0.
         24    2    4    4    0    0  0.16735656774E+03 -0.10514146273E+03  0.39849542008E+03  0.45016025561E+03  0.69157125064E+02 0.  0.
         11    1    5    5    0    0  0.25394807948E+03 -0.28922647575E+03 -0.10309657473E+02  0.38502970065E+03  0.00000000000E+00 0. -1.
        -12    1    5    5    0    0  0.14113452837E+03 -0.11508452519E+03 -0.51240562510E+02  0.18917980411E+03  0.00000000000E+00 0.  1.
         15    1    3    3    0    0 -0.29715558687E+03  0.22045547433E+03  0.14088863767E+03  0.39592275120E+03  0.17770000000E+01 0. -1.
        -16    1    3    3    0    0 -0.26528358872E+03  0.28899698935E+03  0.11234827683E+03  0.40806467331E+03  0.00000000000E+00 0.  1.
          4    1    6    6  502    0  0.49907949215E+02 -0.60709915121E+02  0.20437969716E+03  0.21896930789E+03  0.00000000000E+00 0. -1.
         -1    1    6    6    0  502  0.11744861853E+03 -0.44431547613E+02  0.19411572293E+03  0.23119094771E+03  0.00000000000E+00 0.  1.
<mgrwt>
<rscale>  0 0.76673187E+03</rscale>
<asrwt>0</asrwt>
<pdfrwt beam="1">  1        1 0.18604148E+00 0.76673187E+03</pdfrwt>
<pdfrwt beam="2">  1       -2 0.95244236E-01 0.76673187E+03</pdfrwt>
<totfact> 0.87636612E+00</totfact>
</mgrwt>
</event>
<event>
12    3  0.1092576E-007  0.1066182E+04  0.7818608E-02  0.9238795E-01
         -2   -1    0    0    0  501 -0.00000000000E+00  0.00000000000E+00  0.10788336932E+04  0.10788336932E+04  0.00000000000E+00 0.  1.
          1   -1    0    0  501    0  0.00000000000E+00 -0.00000000000E+00 -0.10629391244E+04  0.10629391244E+04  0.00000000000E+00 0. -1.
        -24    2    1    2    0    0 -0.92765364399E+03 -0.32623177571E+03  0.62912063632E+02  0.98886211078E+03  0.83197906820E+02 0.  0.
    5000000    2    1    2    0    0  0.92765364399E+03  0.32623177571E+03 -0.47017494847E+02  0.11529107069E+04  0.60001999849E+03 0.  0.
        -24    2    4    4    0    0  0.17639330334E+01  0.20013162145E+03  0.16488638113E+02  0.21307875747E+03  0.71238362784E+02 0.  0.
         24    2    4    4    0    0  0.92588971095E+03  0.12610015426E+03 -0.63506132959E+02  0.93983194944E+03  0.77961904178E+02 0.  0.
         11    1    5    5    0    0  0.24766695988E+02  0.16833864575E+03 -0.90912289353E+00  0.17015321151E+03  0.00000000000E+00 0. -1.
        -12    1    5    5    0    0 -0.23002762955E+02  0.31792975700E+02  0.17397761006E+02  0.42925545954E+02  0.00000000000E+00 0.  1.
         15    1    3    3    0    0 -0.67894920353E+03 -0.26792210570E+03  0.22597891329E+02  0.73025207848E+03  0.17770000000E+01 0. -1.
        -16    1    3    3    0    0 -0.24870444045E+03 -0.58309670011E+02  0.40314172303E+02  0.25861003230E+03  0.00000000000E+00 0.  1.
          4    1    6    6  502    0  0.58227956219E+03  0.11683095733E+03 -0.34928070618E+02  0.59491085992E+03  0.00000000000E+00 0. -1.
         -3    1    6    6    0  502  0.34361014876E+03  0.92691969286E+01 -0.28578062341E+02  0.34492108951E+03  0.00000000000E+00 0.  1.
<mgrwt>
<rscale>  0 0.10661816E+04</rscale>
<asrwt>0</asrwt>
<pdfrwt beam="1">  1        1 0.16352910E+00 0.10661816E+04</pdfrwt>
<pdfrwt beam="2">  1       -2 0.16597441E+00 0.10661816E+04</pdfrwt>
<totfact> 0.26713655E+00</totfact>
</mgrwt>
</event>
<event>
12    3  0.1092576E-007  0.4872690E+03  0.7818608E-02  0.1017156E+00
         -2   -1    0    0    0  501 -0.00000000000E+00  0.00000000000E+00  0.11007684494E+04  0.11007684494E+04  0.00000000000E+00 0.  1.
          1   -1    0    0  501    0  0.00000000000E+00 -0.00000000000E+00 -0.27138170912E+03  0.27138170912E+03  0.00000000000E+00 0. -1.
        -24    2    1    2    0    0  0.20133533145E+03  0.24512766403E+03  0.37617528369E+02  0.32962961094E+03  0.81345648968E+02 0.  0.
    5000000    2    1    2    0    0 -0.20133533145E+03 -0.24512766403E+03  0.79176921187E+03  0.10425205475E+04  0.59943900426E+03 0.  0.
        -24    2    4    4    0    0 -0.70987542892E+02 -0.42486014049E+03  0.56947982024E+03  0.71850594807E+03  0.79988508699E+02 0.  0.
         24    2    4    4    0    0 -0.13034778856E+03  0.17973247646E+03  0.22228939163E+03  0.32401459948E+03  0.79237478289E+02 0.  0.
         13    1    5    5    0    0 -0.17083224710E+02 -0.35707945566E+02  0.24053251265E+02  0.46319033231E+02  0.00000000000E+00 0. -1.
        -14    1    5    5    0    0 -0.53904318182E+02 -0.38915219493E+03  0.54542656898E+03  0.67218691484E+03  0.00000000000E+00 0.  1.
         15    1    3    3    0    0  0.13387682452E+03  0.14985521893E+03 -0.15141385438E+02  0.20152421707E+03  0.17770000000E+01 0. -1.
        -16    1    3    3    0    0  0.67458506928E+02  0.95272445101E+02  0.52758913807E+02  0.12810539387E+03  0.00000000000E+00 0.  1.
          4    1    6    6  502    0 -0.12361789322E+03  0.15233055215E+03  0.15168396604E+03  0.24797985038E+03  0.00000000000E+00 0. -1.
         -3    1    6    6    0  502 -0.67298953428E+01  0.27401924313E+02  0.70605425590E+02  0.76034749096E+02  0.00000000000E+00 0.  1.
<mgrwt>
<rscale>  0 0.48726897E+03</rscale>
<asrwt>0</asrwt>
<pdfrwt beam="1">  1        1 0.41751033E-01 0.48726897E+03</pdfrwt>
<pdfrwt beam="2">  1       -2 0.16934899E+00 0.48726897E+03</pdfrwt>
<totfact> 0.19625867E+01</totfact>
</mgrwt>
</event>
<event>
12    3  0.1092576E-007  0.8044925E+03  0.7818608E-02  0.9553537E-01
          1   -1    0    0  501    0  0.00000000000E+00  0.00000000000E+00  0.20756708796E+04  0.20756708796E+04  0.00000000000E+00 0. -1.
         -2   -1    0    0    0  501 -0.00000000000E+00 -0.00000000000E+00 -0.50873833769E+03  0.50873833769E+03  0.00000000000E+00 0.  1.
        -24    2    1    2    0    0  0.65919589734E+03 -0.34830468251E+03  0.14346499834E+04  0.16183041817E+04  0.69515945696E+02 0.  0.
    5000000    2    1    2    0    0 -0.65919589734E+03  0.34830468251E+03  0.13228255849E+03  0.96610503558E+03  0.60000406796E+03 0.  0.
        -24    2    4    4    0    0 -0.48029722089E+03  0.43352989684E+03 -0.89875020275E+02  0.65815555154E+03  0.80359311203E+02 0.  0.
         24    2    4    4    0    0 -0.17889867645E+03 -0.85225214336E+02  0.22215757877E+03  0.30794948405E+03  0.78808764265E+02 0.  0.
         13    1    5    5    0    0 -0.38074329067E+03  0.32456882796E+03 -0.38153151232E+02  0.50176293249E+03  0.00000000000E+00 0. -1.
        -14    1    5    5    0    0 -0.99553930221E+02  0.10896106888E+03 -0.51721869043E+02  0.15639261905E+03  0.00000000000E+00 0.  1.
         15    1    3    3    0    0  0.41864318826E+03 -0.25357340303E+03  0.97395891808E+03  0.10900278536E+04  0.17770000000E+01 0. -1.
        -16    1    3    3    0    0  0.24055270908E+03 -0.94731279484E+02  0.46069106534E+03  0.52827632811E+03  0.00000000000E+00 0.  1.
          2    1    6    6  502    0 -0.52329559703E+02 -0.67319319585E+02  0.83037186804E+02  0.11901868761E+03  0.00000000000E+00 0. -1.
         -1    1    6    6    0  502 -0.12656911675E+03 -0.17905894750E+02  0.13912039196E+03  0.18893079644E+03  0.00000000000E+00 0.  1.
<mgrwt>
<rscale>  0 0.80449253E+03</rscale>
<asrwt>0</asrwt>
<pdfrwt beam="1">  1        1 0.31933398E+00 0.80449253E+03</pdfrwt>
<pdfrwt beam="2">  1       -2 0.78267438E-01 0.80449253E+03</pdfrwt>
<totfact> 0.34976304E+00</totfact>
</mgrwt>
</event>
<event>
12    3  0.1092576E-007  0.8354714E+03  0.7818608E-02  0.9510047E-01
          1   -1    0    0  501    0  0.00000000000E+00  0.00000000000E+00  0.10942227629E+04  0.10942227629E+04  0.00000000000E+00 0. -1.
         -2   -1    0    0    0  501 -0.00000000000E+00 -0.00000000000E+00 -0.79177304205E+03  0.79177304205E+03  0.00000000000E+00 0.  1.
        -24    2    1    2    0    0  0.57825335808E+03  0.45123499369E+03 -0.26183821825E+03  0.78303854971E+03  0.81241320366E+02 0.  0.
    5000000    2    1    2    0    0 -0.57825335808E+03 -0.45123499369E+03  0.56428793905E+03  0.11029572552E+04  0.60008654624E+03 0.  0.
        -24    2    4    4    0    0 -0.33128585379E+03  0.85867284695E+02  0.21500313826E+03  0.41178348134E+03  0.78840208921E+02 0.  0.
         24    2    4    4    0    0 -0.24696750429E+03 -0.53710227839E+03  0.34928480079E+03  0.69117377386E+03  0.79053829647E+02 0.  0.
         13    1    5    5    0    0 -0.23376630135E+03  0.47032904188E+02  0.10759631467E+03  0.26160226423E+03  0.00000000000E+00 0. -1.
        -14    1    5    5    0    0 -0.97519552439E+02  0.38834380507E+02  0.10740682359E+03  0.15018121711E+03  0.00000000000E+00 0.  1.
         15    1    3    3    0    0  0.32331633547E+03  0.23602427677E+03 -0.10199338109E+03  0.41309408071E+03  0.17770000000E+01 0. -1.
        -16    1    3    3    0    0  0.25493702261E+03  0.21521071693E+03 -0.15984483715E+03  0.36994446900E+03  0.00000000000E+00 0.  1.
          4    1    6    6  502    0 -0.24616210808E+03 -0.50822962781E+03  0.31601656696E+03  0.64711637952E+03  0.00000000000E+00 0. -1.
         -3    1    6    6    0  502 -0.80539621042E+00 -0.28872650576E+02  0.33268233832E+02  0.44057394346E+02  0.00000000000E+00 0.  1.
<mgrwt>
<rscale>  0 0.83547135E+03</rscale>
<asrwt>0</asrwt>
<pdfrwt beam="1">  1        1 0.16834196E+00 0.83547135E+03</pdfrwt>
<pdfrwt beam="2">  1       -2 0.12181124E+00 0.83547135E+03</pdfrwt>
<totfact> 0.58313643E+00</totfact>
</mgrwt>
</event>
<event>
12    3  0.1092576E-007  0.2442890E+04  0.7818608E-02  0.8423618E-01
         -2   -1    0    0    0  501 -0.00000000000E+00  0.00000000000E+00  0.17832375077E+04  0.17832375077E+04  0.00000000000E+00 0.  1.
          1   -1    0    0  501    0  0.00000000000E+00 -0.00000000000E+00 -0.36286995159E+04  0.36286995159E+04  0.00000000000E+00 0. -1.
        -24    2    1    2    0    0 -0.77970546085E+03 -0.23078424200E+04 -0.15437709378E+04  0.28850688842E+04  0.79476517659E+02 0.  0.
    5000000    2    1    2    0    0  0.77970546085E+03  0.23078424200E+04 -0.30169107039E+03  0.25268681393E+04  0.59997320793E+03 0.  0.
        -24    2    4    4    0    0  0.13064814178E+03  0.68160779606E+03  0.15484028453E+03  0.71560309529E+03  0.80337735066E+02 0.  0.
         24    2    4    4    0    0  0.64905731906E+03  0.16262346240E+04 -0.45653135492E+03  0.18112650441E+04  0.79660065933E+02 0.  0.
         11    1    5    5    0    0  0.75361821979E+02  0.55536880672E+03  0.13358896062E+03  0.57615963595E+03  0.00000000000E+00 0. -1.
        -12    1    5    5    0    0  0.55286319803E+02  0.12623898933E+03  0.21251323905E+02  0.13944345934E+03  0.00000000000E+00 0.  1.
         15    1    3    3    0    0 -0.58803821177E+03 -0.17042893357E+04 -0.11810316848E+04  0.21552795819E+04  0.17770000000E+01 0. -1.
        -16    1    3    3    0    0 -0.19166724908E+03 -0.60355308440E+03 -0.36273925305E+03  0.72978930230E+03  0.00000000000E+00 0.  1.
          2    1    6    6  502    0  0.60134328718E+03  0.14782868592E+04 -0.43646812857E+03  0.16545241656E+04  0.00000000000E+00 0. -1.
         -1    1    6    6    0  502  0.47714031888E+02  0.14794776478E+03 -0.20063226350E+02  0.15674087850E+03  0.00000000000E+00 0.  1.
<mgrwt>
<rscale>  0 0.24428903E+04</rscale>
<asrwt>0</asrwt>
<pdfrwt beam="1">  1        1 0.55826146E+00 0.24428903E+04</pdfrwt>
<pdfrwt beam="2">  1       -2 0.27434423E+00 0.24428903E+04</pdfrwt>
<totfact> 0.66711458E-03</totfact>
</mgrwt>
</event>
<event>
12    3  0.1092576E-007  0.6185736E+03  0.7818608E-02  0.9867604E-01
          1   -1    0    0  501    0  0.00000000000E+00  0.00000000000E+00  0.56650809970E+03  0.56650809970E+03  0.00000000000E+00 0. -1.
         -2   -1    0    0    0  501 -0.00000000000E+00 -0.00000000000E+00 -0.78650697656E+03  0.78650697656E+03  0.00000000000E+00 0.  1.
        -24    2    1    2    0    0  0.48861887427E+03  0.13126732099E+03 -0.24386523085E+03  0.56776319554E+03  0.83098023674E+02 0.  0.
    5000000    2    1    2    0    0 -0.48861887427E+03 -0.13126732099E+03  0.23866353993E+02  0.78525188072E+03  0.60005949661E+03 0.  0.
        -24    2    4    4    0    0 -0.48190191424E+03 -0.27920821505E+03 -0.10437125954E+03  0.57214171815E+03  0.79158723642E+02 0.  0.
         24    2    4    4    0    0 -0.67169600261E+01  0.14794089406E+03  0.12823761353E+03  0.21311016257E+03  0.83901312148E+02 0.  0.
         11    1    5    5    0    0 -0.16785618800E+03 -0.14095810605E+03 -0.48504563301E+02  0.22449405375E+03  0.00000000000E+00 0. -1.
        -12    1    5    5    0    0 -0.31404572625E+03 -0.13825010900E+03 -0.55866696239E+02  0.34764766440E+03  0.00000000000E+00 0.  1.
         15    1    3    3    0    0  0.16947610064E+03  0.12646262716E+02 -0.56278549705E+02  0.17903214665E+03  0.17770000000E+01 0. -1.
        -16    1    3    3    0    0  0.31914277363E+03  0.11862105828E+03 -0.18758668114E+03  0.38873104889E+03  0.00000000000E+00 0.  1.
          2    1    6    6  502    0  0.26870716366E+02  0.11210102173E+03  0.11363002443E+03  0.16186555199E+03  0.00000000000E+00 0. -1.
         -1    1    6    6    0  502 -0.33587676392E+02  0.35839872324E+02  0.14607589106E+02  0.51244610576E+02  0.00000000000E+00 0.  1.
<mgrwt>
<rscale>  0 0.61857362E+03</rscale>
<asrwt>0</asrwt>
<pdfrwt beam="1">  1        1 0.87155093E-01 0.61857362E+03</pdfrwt>
<pdfrwt beam="2">  1       -2 0.12100107E+00 0.61857362E+03</pdfrwt>
<totfact> 0.17482879E+01</totfact>
</mgrwt>
</event>
<event>
12    3  0.1092576E-007  0.5855143E+03  0.7818608E-02  0.9935924E-01
         -2   -1    0    0    0  501 -0.00000000000E+00  0.00000000000E+00  0.10500838362E+04  0.10500838362E+04  0.00000000000E+00 0.  1.
          1   -1    0    0  501    0  0.00000000000E+00 -0.00000000000E+00 -0.63936987563E+03  0.63936987563E+03  0.00000000000E+00 0. -1.
        -24    2    1    2    0    0 -0.12139596979E+03  0.50105257643E+03 -0.32023993455E+03  0.61198520284E+03  0.78623196232E+02 0.  0.
    5000000    2    1    2    0    0  0.12139596979E+03 -0.50105257643E+03  0.73095389510E+03  0.10774685090E+04  0.60071134933E+03 0.  0.
        -24    2    4    4    0    0 -0.10960355632E+03 -0.35929808807E+03  0.11582451062E+03  0.40035857980E+03  0.75918505724E+02 0.  0.
         24    2    4    4    0    0  0.23099952611E+03 -0.14175448837E+03  0.61512938448E+03  0.67710992917E+03  0.81477484536E+02 0.  0.
         13    1    5    5    0    0 -0.19435709008E+02 -0.19334629665E+03  0.62034835239E+02  0.20398249434E+03  0.00000000000E+00 0. -1.
        -14    1    5    5    0    0 -0.90167847311E+02 -0.16595179141E+03  0.53789675380E+02  0.19637608546E+03  0.00000000000E+00 0.  1.
         15    1    3    3    0    0 -0.85802448548E+02  0.32706930771E+03 -0.25209868304E+03  0.42177398680E+03  0.17770000000E+01 0. -1.
        -16    1    3    3    0    0 -0.35593521244E+02  0.17398326872E+03 -0.68141251505E+02  0.19021121604E+03  0.00000000000E+00 0.  1.
          4    1    6    6  502    0  0.59987862722E+02 -0.49692657152E+02  0.27082599677E+03  0.28180600486E+03  0.00000000000E+00 0. -1.
         -3    1    6    6    0  502  0.17101166339E+03 -0.92061831213E+02  0.34430338771E+03  0.39530392431E+03  0.00000000000E+00 0.  1.
<mgrwt>
<rscale>  0 0.58551429E+03</rscale>
<asrwt>0</asrwt>
<pdfrwt beam="1">  1        1 0.98364596E-01 0.58551429E+03</pdfrwt>
<pdfrwt beam="2">  1       -2 0.16155136E+00 0.58551429E+03</pdfrwt>
<totfact> 0.70024396E+00</totfact>
</mgrwt>
</event>
<event>
12    3  0.1092576E-007  0.9295201E+03  0.7818608E-02  0.9389414E-01
          1   -1    0    0  501    0  0.00000000000E+00  0.00000000000E+00  0.20308910732E+04  0.20308910732E+04  0.00000000000E+00 0. -1.
         -2   -1    0    0    0  501 -0.00000000000E+00 -0.00000000000E+00 -0.49065761212E+03  0.49065761212E+03  0.00000000000E+00 0.  1.
        -24    2    1    2    0    0  0.74096908295E+03 -0.40329368829E+03  0.11197925145E+04  0.14042309653E+04  0.79046489356E+02 0.  0.
    5000000    2    1    2    0    0 -0.74096908295E+03  0.40329368829E+03  0.42044094663E+03  0.11173177201E+04  0.59995609594E+03 0.  0.
        -24    2    4    4    0    0 -0.56100124353E+03  0.54626155476E+03  0.36393117367E+03  0.86729629234E+03  0.81442483265E+02 0.  0.
         24    2    4    4    0    0 -0.17996783942E+03 -0.14296786647E+03  0.56509772963E+02  0.25002142772E+03  0.80555110410E+02 0.  0.
         11    1    5    5    0    0 -0.37755381275E+03  0.34223449554E+03  0.27392745674E+03  0.57853918019E+03  0.00000000000E+00 0. -1.
        -12    1    5    5    0    0 -0.18344743078E+03  0.20402705922E+03  0.90003716931E+02  0.28875711215E+03  0.00000000000E+00 0.  1.
         15    1    3    3    0    0  0.64927980491E+03 -0.33729773170E+03  0.92939432287E+03  0.11828402217E+04  0.17770000000E+01 0. -1.
        -16    1    3    3    0    0  0.91689278040E+02 -0.65995956591E+02  0.19039819159E+03  0.22139074360E+03  0.00000000000E+00 0.  1.
          4    1    6    6  502    0 -0.32905423746E+02 -0.34786230617E+02 -0.20230335969E+02  0.51981874205E+02  0.00000000000E+00 0. -1.
         -3    1    6    6    0  502 -0.14706241567E+03 -0.10818163585E+03  0.76740108932E+02  0.19803955352E+03  0.00000000000E+00 0.  1.
<mgrwt>
<rscale>  0 0.92952009E+03</rscale>
<asrwt>0</asrwt>
<pdfrwt beam="1">  1        1 0.31244478E+00 0.92952009E+03</pdfrwt>
<pdfrwt beam="2">  1       -2 0.75485788E-01 0.92952009E+03</pdfrwt>
<totfact> 0.39914463E+00</totfact>
</mgrwt>
</event>
<event>
12    3  0.1092576E-007  0.1180638E+04  0.7818608E-02  0.9129975E-01
          1   -1    0    0  501    0  0.00000000000E+00  0.00000000000E+00  0.10962345803E+04  0.10962345803E+04  0.00000000000E+00 0. -1.
         -2   -1    0    0    0  501 -0.00000000000E+00 -0.00000000000E+00 -0.13775205593E+04  0.13775205593E+04  0.00000000000E+00 0.  1.
        -24    2    1    2    0    0 -0.45248500834E+03  0.10359001907E+04  0.10196786619E+03  0.11378751834E+04  0.80812123248E+02 0.  0.
    5000000    2    1    2    0    0  0.45248500834E+03 -0.10359001907E+04 -0.38325384516E+03  0.13358799562E+04  0.59988320505E+03 0.  0.
        -24    2    4    4    0    0  0.52246863912E+03 -0.70860937399E+03 -0.10662014849E+03  0.89039653784E+03  0.79607881340E+02 0.  0.
         24    2    4    4    0    0 -0.69983630777E+02 -0.32729081674E+03 -0.27663369667E+03  0.44548341838E+03  0.99560467186E+02 0.  0.
         11    1    5    5    0    0  0.41786227096E+03 -0.54162851824E+03 -0.11247710094E+03  0.69326865464E+03  0.00000000000E+00 0. -1.
        -12    1    5    5    0    0  0.10460636816E+03 -0.16698085575E+03  0.58569524550E+01  0.19712788321E+03  0.00000000000E+00 0.  1.
         15    1    3    3    0    0 -0.16910458804E+03  0.31477592081E+03  0.82676662014E+01  0.35742377377E+03  0.17770000000E+01 0. -1.
        -16    1    3    3    0    0 -0.28338042030E+03  0.72112426991E+03  0.93700199991E+02  0.78045140960E+03  0.00000000000E+00 0.  1.
          4    1    6    6  502    0 -0.15222490268E+02 -0.26352839279E+03 -0.19376017356E+03  0.32744761852E+03  0.00000000000E+00 0. -1.
         -3    1    6    6    0  502 -0.54761140509E+02 -0.63762423948E+02 -0.82873523107E+02  0.11803579986E+03  0.00000000000E+00 0.  1.
<mgrwt>
<rscale>  0 0.11806383E+04</rscale>
<asrwt>0</asrwt>
<pdfrwt beam="1">  1        1 0.16865147E+00 0.11806383E+04</pdfrwt>
<pdfrwt beam="2">  1       -2 0.21192624E+00 0.11806383E+04</pdfrwt>
<totfact> 0.12166053E+00</totfact>
</mgrwt>
</event>
<event>
12    3  0.1092576E-007  0.8701596E+03  0.7818608E-02  0.9463672E-01
         -2   -1    0    0    0  501 -0.00000000000E+00  0.00000000000E+00  0.10914726199E+04  0.10914726199E+04  0.00000000000E+00 0.  1.
          1   -1    0    0  501    0  0.00000000000E+00 -0.00000000000E+00 -0.71123820328E+03  0.71123820328E+03  0.00000000000E+00 0. -1.
        -24    2    1    2    0    0  0.16700914291E+00 -0.77568640448E+03  0.21290146454E+03  0.80785879752E+03  0.74962504835E+02 0.  0.
    5000000    2    1    2    0    0 -0.16700914291E+00  0.77568640448E+03  0.16733295205E+03  0.99485202563E+03  0.60003400743E+03 0.  0.
        -24    2    4    4    0    0  0.10383905206E+03 -0.51379225052E+02  0.30626464025E+02  0.14644509259E+03  0.84177261452E+02 0.  0.
         24    2    4    4    0    0 -0.10400606121E+03  0.82706562954E+03  0.13670648803E+03  0.84840693304E+03  0.79062278196E+02 0.  0.
         11    1    5    5    0    0  0.91307227316E+02 -0.15575793772E+02 -0.71606735156E+01  0.92902585308E+02  0.00000000000E+00 0. -1.
        -12    1    5    5    0    0  0.12531824749E+02 -0.35803431279E+02  0.37787137540E+02  0.53542507285E+02  0.00000000000E+00 0.  1.
         15    1    3    3    0    0  0.25673310085E+01 -0.55858781620E+03  0.11806210570E+03  0.57093673741E+03  0.17770000000E+01 0. -1.
        -16    1    3    3    0    0 -0.24003218656E+01 -0.21709858829E+03  0.94839358838E+02  0.23692206011E+03  0.00000000000E+00 0.  1.
          4    1    6    6  502    0 -0.46822796078E+02  0.48321812334E+03  0.42541162596E+02  0.48734164553E+03  0.00000000000E+00 0. -1.
         -1    1    6    6    0  502 -0.57183265129E+02  0.34384750620E+03  0.94165325431E+02  0.36106528751E+03  0.00000000000E+00 0.  1.
<mgrwt>
<rscale>  0 0.87015960E+03</rscale>
<asrwt>0</asrwt>
<pdfrwt beam="1">  1        1 0.10942126E+00 0.87015960E+03</pdfrwt>
<pdfrwt beam="2">  1       -2 0.16791887E+00 0.87015960E+03</pdfrwt>
<totfact> 0.51852917E+00</totfact>
</mgrwt>
</event>
<event>
12    3  0.1092576E-007  0.7219801E+03  0.7818608E-02  0.9680364E-01
         -2   -1    0    0    0  501 -0.00000000000E+00  0.00000000000E+00  0.45011746535E+03  0.45011746535E+03  0.00000000000E+00 0.  1.
          1   -1    0    0  501    0  0.00000000000E+00 -0.00000000000E+00 -0.15216054159E+04  0.15216054159E+04  0.00000000000E+00 0. -1.
        -24    2    1    2    0    0  0.70056609588E+03 -0.14016578889E+02 -0.29177862636E+03  0.76378012235E+03  0.85064618516E+02 0.  0.
    5000000    2    1    2    0    0 -0.70056609588E+03  0.14016578889E+02 -0.77970932416E+03  0.12079427589E+04  0.60015811197E+03 0.  0.
        -24    2    4    4    0    0 -0.24047614420E+03  0.10925667585E+03 -0.66117408664E+03  0.71737471250E+03  0.87803804832E+02 0.  0.
         24    2    4    4    0    0 -0.46008995168E+03 -0.95240096964E+02 -0.11853523752E+03  0.49056804637E+03  0.76504678813E+02 0.  0.
         11    1    5    5    0    0 -0.84842220304E+02  0.32110390868E+01 -0.27353705367E+03  0.28641060184E+03  0.00000000000E+00 0. -1.
        -12    1    5    5    0    0 -0.15563392389E+03  0.10604563677E+03 -0.38763703298E+03  0.43096411066E+03  0.00000000000E+00 0.  1.
         15    1    3    3    0    0  0.38600095288E+03 -0.13536876872E+02 -0.20593062293E+03  0.43771059143E+03  0.17770000000E+01 0. -1.
        -16    1    3    3    0    0  0.31456514300E+03 -0.47970201780E+00 -0.85848003423E+02  0.32606953092E+03  0.00000000000E+00 0.  1.
          2    1    6    6  502    0 -0.95055050604E+02 -0.16169366787E+02 -0.57068821334E+02  0.11204356937E+03  0.00000000000E+00 0. -1.
         -1    1    6    6    0  502 -0.36503490108E+03 -0.79070730177E+02 -0.61466416185E+02  0.37852447701E+03  0.00000000000E+00 0.  1.
<mgrwt>
<rscale>  0 0.72198013E+03</rscale>
<asrwt>0</asrwt>
<pdfrwt beam="1">  1        1 0.23409315E+00 0.72198013E+03</pdfrwt>
<pdfrwt beam="2">  1       -2 0.69248840E-01 0.72198013E+03</pdfrwt>
<totfact> 0.10939538E+01</totfact>
</mgrwt>
</event>
<event>
12    3  0.1092576E-007  0.9504372E+03  0.7818608E-02  0.9364640E-01
         -2   -1    0    0    0  501 -0.00000000000E+00  0.00000000000E+00  0.22417301503E+04  0.22417301503E+04  0.00000000000E+00 0.  1.
          1   -1    0    0  501    0  0.00000000000E+00 -0.00000000000E+00 -0.74068979185E+03  0.74068979185E+03  0.00000000000E+00 0. -1.
        -24    2    1    2    0    0 -0.56213243011E+03  0.74320919531E+03 -0.19585475743E+03  0.95565286981E+03  0.80997188842E+02 0.  0.
    5000000    2    1    2    0    0  0.56213243011E+03 -0.74320919531E+03  0.16968951159E+04  0.20267670723E+04  0.59998246163E+03 0.  0.
        -24    2    4    4    0    0  0.40151687732E+03 -0.67911616793E+03  0.16512226454E+04  0.18317318314E+04  0.79313964973E+02 0.  0.
         24    2    4    4    0    0  0.16061555279E+03 -0.64093027376E+02  0.45672470489E+02  0.19503524098E+03  0.77765665368E+02 0.  0.
         11    1    5    5    0    0  0.21331391536E+03 -0.43393815973E+03  0.98295163311E+03  0.10954446887E+04  0.00000000000E+00 0. -1.
        -12    1    5    5    0    0  0.18820296196E+03 -0.24517800820E+03  0.66827101228E+03  0.73628714266E+03  0.00000000000E+00 0.  1.
         15    1    3    3    0    0 -0.40796359753E+03  0.48380553537E+03 -0.15050928891E+03  0.65050618502E+03  0.17770000000E+01 0. -1.
        -16    1    3    3    0    0 -0.15416883258E+03  0.25940365993E+03 -0.45345468520E+02  0.30514668479E+03  0.00000000000E+00 0.  1.
          4    1    6    6  502    0  0.28660847272E+02 -0.18125000574E+02 -0.21338046844E+02  0.40065846494E+02  0.00000000000E+00 0. -1.
         -3    1    6    6    0  502  0.13195470551E+03 -0.45968026802E+02  0.67010517333E+02  0.15496939449E+03  0.00000000000E+00 0.  1.
<mgrwt>
<rscale>  0 0.95043717E+03</rscale>
<asrwt>0</asrwt>
<pdfrwt beam="1">  1        1 0.11395228E+00 0.95043717E+03</pdfrwt>
<pdfrwt beam="2">  1       -2 0.34488156E+00 0.95043717E+03</pdfrwt>
<totfact> 0.37535160E-01</totfact>
</mgrwt>
</event>
<event>
12    3  0.1092576E-007  0.4621281E+03  0.7818608E-02  0.1024166E+00
         -2   -1    0    0    0  501 -0.00000000000E+00  0.00000000000E+00  0.10976168811E+03  0.10976168811E+03  0.00000000000E+00 0.  1.
          1   -1    0    0  501    0  0.00000000000E+00 -0.00000000000E+00 -0.32854675372E+04  0.32854675372E+04  0.00000000000E+00 0. -1.
        -24    2    1    2    0    0  0.82529529771E+02 -0.43862728614E+03 -0.12292370857E+04  0.13100942400E+04  0.78218191247E+02 0.  0.
    5000000    2    1    2    0    0 -0.82529529771E+02  0.43862728614E+03 -0.19464687635E+04  0.20851349853E+04  0.59986851942E+03 0.  0.
        -24    2    4    4    0    0 -0.42815808809E+02  0.31137084189E+03 -0.33455788422E+03  0.46572489003E+03  0.78649225324E+02 0.  0.
         24    2    4    4    0    0 -0.39713720962E+02  0.12725644426E+03 -0.16119108792E+04  0.16194100953E+04  0.80380295914E+02 0.  0.
         11    1    5    5    0    0 -0.16297871343E+02  0.27814966790E+03 -0.26698105750E+03  0.38589084392E+03  0.00000000000E+00 0. -1.
        -12    1    5    5    0    0 -0.26517937466E+02  0.33221173987E+02 -0.67576826721E+02  0.79834046109E+02  0.00000000000E+00 0.  1.
         15    1    3    3    0    0  0.31835147727E+02 -0.32555597163E+03 -0.94522108732E+03  0.10002230896E+04  0.17770000000E+01 0. -1.
        -16    1    3    3    0    0  0.50694382044E+02 -0.11307131452E+03 -0.28401599836E+03  0.30987115042E+03  0.00000000000E+00 0.  1.
          4    1    6    6  502    0 -0.22469413432E+02  0.13224634180E+03 -0.15085142877E+04  0.15144666802E+04  0.00000000000E+00 0. -1.
         -3    1    6    6    0  502 -0.17244307531E+02 -0.49898975425E+01 -0.10339659158E+03  0.10494341509E+03  0.00000000000E+00 0.  1.
<mgrwt>
<rscale>  0 0.46212810E+03</rscale>
<asrwt>0</asrwt>
<pdfrwt beam="1">  1        1 0.50545658E+00 0.46212810E+03</pdfrwt>
<pdfrwt beam="2">  1       -2 0.16886412E-01 0.46212810E+03</pdfrwt>
<totfact> 0.10475158E+01</totfact>
</mgrwt>
</event>
<event>
12    3  0.1092576E-007  0.1182717E+04  0.7818608E-02  0.9128120E-01
          1   -1    0    0  501    0  0.00000000000E+00  0.00000000000E+00  0.10817079501E+04  0.10817079501E+04  0.00000000000E+00 0. -1.
         -2   -1    0    0    0  501 -0.00000000000E+00 -0.00000000000E+00 -0.13401755014E+04  0.13401755014E+04  0.00000000000E+00 0.  1.
        -24    2    1    2    0    0 -0.28510348201E+03  0.10869383869E+04 -0.24698645598E+02  0.11267496804E+04  0.78966871404E+02 0.  0.
    5000000    2    1    2    0    0  0.28510348201E+03 -0.10869383869E+04 -0.23376890566E+03  0.12951337711E+04  0.60000377618E+03 0.  0.
        -24    2    4    4    0    0  0.12906694874E+02  0.53796996512E+02 -0.57830841744E+01  0.97716871392E+02  0.80339549948E+02 0.  0.
         24    2    4    4    0    0  0.27219678714E+03 -0.11407353834E+04 -0.22798582149E+03  0.11974168997E+04  0.80382778151E+02 0.  0.
         13    1    5    5    0    0  0.22262967459E+02  0.22104837840E+02 -0.39542681420E+02  0.50476600815E+02  0.00000000000E+00 0. -1.
        -14    1    5    5    0    0 -0.93562725851E+01  0.31692158672E+02  0.33759597245E+02  0.47240270577E+02  0.00000000000E+00 0.  1.
         15    1    3    3    0    0 -0.21161801471E+03  0.90827132866E+03 -0.35325964514E+02  0.93326848876E+03  0.17770000000E+01 0. -1.
        -16    1    3    3    0    0 -0.73485467301E+02  0.17866705824E+03  0.10627318916E+02  0.19348119162E+03  0.00000000000E+00 0.  1.
          4    1    6    6  502    0  0.69672112497E+02 -0.17251685738E+03 -0.45757164674E+02  0.19159850589E+03  0.00000000000E+00 0. -1.
         -3    1    6    6    0  502  0.20252467464E+03 -0.96821852603E+03 -0.18222865681E+03  0.10058183938E+04  0.00000000000E+00 0.  1.
<mgrwt>
<rscale>  0 0.11827169E+04</rscale>
<asrwt>0</asrwt>
<pdfrwt beam="1">  1        1 0.16641661E+00 0.11827169E+04</pdfrwt>
<pdfrwt beam="2">  1       -2 0.20618085E+00 0.11827169E+04</pdfrwt>
<totfact> 0.13586235E+00</totfact>
</mgrwt>
</event>
<event>
12    3  0.1092576E-007  0.8993638E+03  0.7818608E-02  0.9426377E-01
         -2   -1    0    0    0  501 -0.00000000000E+00  0.00000000000E+00  0.28466075518E+03  0.28466075518E+03  0.00000000000E+00 0.  1.
          1   -1    0    0  501    0  0.00000000000E+00 -0.00000000000E+00 -0.33229770349E+04  0.33229770349E+04  0.00000000000E+00 0. -1.
        -24    2    1    2    0    0 -0.57918699137E+03 -0.64544471505E+03 -0.16322067394E+04  0.18500380665E+04  0.80532950837E+02 0.  0.
    5000000    2    1    2    0    0  0.57918699137E+03  0.64544471505E+03 -0.14061095402E+04  0.17575997235E+04  0.59996358034E+03 0.  0.
        -24    2    4    4    0    0  0.20763698068E+03  0.46149565968E+03 -0.11615113785E+04  0.12693644816E+04  0.78013750418E+02 0.  0.
         24    2    4    4    0    0  0.37155001069E+03  0.18394905537E+03 -0.24459816174E+03  0.48823524185E+03  0.81601012498E+02 0.  0.
         11    1    5    5    0    0  0.89196319779E+02  0.27287648598E+03 -0.59479753264E+03  0.66045564945E+03  0.00000000000E+00 0. -1.
        -12    1    5    5    0    0  0.11844066090E+03  0.18861917370E+03 -0.56671384585E+03  0.60890883219E+03  0.00000000000E+00 0.  1.
         15    1    3    3    0    0 -0.53506177064E+03 -0.56363585030E+03 -0.14816281717E+04  0.16730814885E+04  0.17770000000E+01 0. -1.
        -16    1    3    3    0    0 -0.44125220730E+02 -0.81808864757E+02 -0.15057856772E+03  0.17695657805E+03  0.00000000000E+00 0.  1.
          4    1    6    6  502    0  0.29534360003E+03  0.17169355612E+03 -0.17289106688E+03  0.38288097406E+03  0.00000000000E+00 0. -1.
         -3    1    6    6    0  502  0.76206410659E+02  0.12255499249E+02 -0.71707094858E+02  0.10535426778E+03  0.00000000000E+00 0.  1.
<mgrwt>
<rscale>  0 0.89936379E+03</rscale>
<asrwt>0</asrwt>
<pdfrwt beam="1">  1        1 0.51122725E+00 0.89936379E+03</pdfrwt>
<pdfrwt beam="2">  1       -2 0.43793961E-01 0.89936379E+03</pdfrwt>
<totfact> 0.15633852E+00</totfact>
</mgrwt>
</event>
<event>
12    3  0.1092576E-007  0.9786603E+03  0.7818608E-02  0.9332264E-01
          1   -1    0    0  501    0  0.00000000000E+00  0.00000000000E+00  0.13338205475E+04  0.13338205475E+04  0.00000000000E+00 0. -1.
         -2   -1    0    0    0  501 -0.00000000000E+00 -0.00000000000E+00 -0.74629511137E+03  0.74629511137E+03  0.00000000000E+00 0.  1.
        -24    2    1    2    0    0  0.90162886833E+03  0.81963146662E+02  0.28970664141E+03  0.95385064449E+03  0.79047709015E+02 0.  0.
    5000000    2    1    2    0    0 -0.90162886833E+03 -0.81963146662E+02  0.29781879473E+03  0.11262650144E+04  0.60010355316E+03 0.  0.
        -24    2    4    4    0    0 -0.14061387859E+03  0.18915746581E+03 -0.29139797168E+02  0.25104890389E+03  0.81385592341E+02 0.  0.
         24    2    4    4    0    0 -0.76101498973E+03 -0.27112061247E+03  0.32695859190E+03  0.87521611050E+03  0.80318853030E+02 0.  0.
         13    1    5    5    0    0 -0.67603285202E+02  0.14076799431E+03  0.69512339638E+01  0.15631427333E+03  0.00000000000E+00 0. -1.
        -14    1    5    5    0    0 -0.73010593392E+02  0.48389471494E+02 -0.36091031132E+02  0.94734630559E+02  0.00000000000E+00 0.  1.
         15    1    3    3    0    0  0.53080082153E+03  0.59901244962E+02  0.20963122005E+03  0.57383453837E+03  0.17770000000E+01 0. -1.
        -16    1    3    3    0    0  0.37082804680E+03  0.22061901700E+02  0.80075421361E+02  0.38001610611E+03  0.00000000000E+00 0.  1.
          4    1    6    6  502    0 -0.11052137200E+03 -0.42615055512E+02  0.79652360870E+02  0.14274282895E+03  0.00000000000E+00 0. -1.
         -3    1    6    6    0  502 -0.65049361773E+03 -0.22850555695E+03  0.24730623103E+03  0.73247328154E+03  0.00000000000E+00 0.  1.
<mgrwt>
<rscale>  0 0.97866032E+03</rscale>
<asrwt>0</asrwt>
<pdfrwt beam="1">  1        1 0.20520316E+00 0.97866032E+03</pdfrwt>
<pdfrwt beam="2">  1       -2 0.11481463E+00 0.97866032E+03</pdfrwt>
<totfact> 0.44477115E+00</totfact>
</mgrwt>
</event>
<event>
12    3  0.1092576E-007  0.1527735E+04  0.7818608E-02  0.8866216E-01
          1   -1    0    0  501    0  0.00000000000E+00  0.00000000000E+00  0.13186973023E+04  0.13186973023E+04  0.00000000000E+00 0. -1.
         -2   -1    0    0    0  501 -0.00000000000E+00 -0.00000000000E+00 -0.18041536006E+04  0.18041536006E+04  0.00000000000E+00 0.  1.
        -24    2    1    2    0    0 -0.14205670572E+04  0.42398072863E+03 -0.26685460292E+03  0.15086769329E+04  0.84405488944E+02 0.  0.
    5000000    2    1    2    0    0  0.14205670572E+04 -0.42398072863E+03 -0.21860169536E+03  0.16141739699E+04  0.60000040154E+03 0.  0.
        -24    2    4    4    0    0 -0.21366057526E+02 -0.80017115940E+02 -0.12909156003E+02  0.11548037634E+03  0.79434399060E+02 0.  0.
         24    2    4    4    0    0  0.14419331147E+04 -0.34396361269E+03 -0.20569253935E+03  0.14986935936E+04  0.79315777950E+02 0.  0.
         11    1    5    5    0    0  0.60081627191E+01 -0.16473688278E+02  0.29507430700E+02  0.34324464909E+02  0.00000000000E+00 0. -1.
        -12    1    5    5    0    0 -0.27374220245E+02 -0.63543427662E+02 -0.42416586704E+02  0.81155911434E+02  0.00000000000E+00 0.  1.
         15    1    3    3    0    0 -0.47958686621E+03  0.10630998664E+03 -0.10678805702E+03  0.50270490584E+03  0.17770000000E+01 0. -1.
        -16    1    3    3    0    0 -0.94098019096E+03  0.31767074199E+03 -0.16006654590E+03  0.10059720271E+04  0.00000000000E+00 0.  1.
          2    1    6    6  502    0  0.24690939040E+03 -0.29600529914E+02 -0.26428872386E+02  0.25007783535E+03  0.00000000000E+00 0. -1.
         -1    1    6    6    0  502  0.11950237243E+04 -0.31436308278E+03 -0.17926366697E+03  0.12486157583E+04  0.00000000000E+00 0.  1.
<mgrwt>
<rscale>  0 0.15277346E+04</rscale>
<asrwt>0</asrwt>
<pdfrwt beam="1">  1        1 0.20287651E+00 0.15277346E+04</pdfrwt>
<pdfrwt beam="2">  1       -2 0.27756209E+00 0.15277346E+04</pdfrwt>
<totfact> 0.31552809E-01</totfact>
</mgrwt>
</event>
<event>
12    3  0.1092576E-007  0.3592137E+03  0.7818608E-02  0.1058896E+00
          1   -1    0    0  501    0  0.00000000000E+00  0.00000000000E+00  0.20326729237E+04  0.20326729237E+04  0.00000000000E+00 0. -1.
         -2   -1    0    0    0  501 -0.00000000000E+00 -0.00000000000E+00 -0.86129459684E+02  0.86129459684E+02  0.00000000000E+00 0.  1.
        -24    2    1    2    0    0 -0.17264256828E+03 -0.45281243752E+02  0.31277919245E+03  0.36913551335E+03  0.81082406026E+02 0.  0.
    5000000    2    1    2    0    0  0.17264256828E+03  0.45281243752E+02  0.16337642716E+04  0.17496668701E+04  0.60024379517E+03 0.  0.
        -24    2    4    4    0    0  0.29882052199E+03  0.16765378054E+03  0.13841654887E+04  0.14280801474E+04  0.78085291188E+02 0.  0.
         24    2    4    4    0    0 -0.12617795371E+03 -0.12237253679E+03  0.24959878285E+03  0.32158672265E+03  0.10110664679E+03 0.  0.
         13    1    5    5    0    0  0.20412290238E+03  0.10238206067E+03  0.10540330510E+04  0.10784868651E+04  0.00000000000E+00 0. -1.
        -14    1    5    5    0    0  0.94697619607E+02  0.65271719866E+02  0.33013243773E+03  0.34959328228E+03  0.00000000000E+00 0.  1.
         15    1    3    3    0    0 -0.11860944646E+03  0.95397612415E+01  0.18556494794E+03  0.22044662725E+03  0.17770000000E+01 0. -1.
        -16    1    3    3    0    0 -0.54033121823E+02 -0.54821004993E+02  0.12721424451E+03  0.14868888610E+03  0.00000000000E+00 0.  1.
          2    1    6    6  502    0 -0.26871727360E+02 -0.47987457144E+02  0.15818068601E+03  0.16746944557E+03  0.00000000000E+00 0. -1.
         -1    1    6    6    0  502 -0.99306226346E+02 -0.74385079643E+02  0.91418096841E+02  0.15411727708E+03  0.00000000000E+00 0.  1.
<mgrwt>
<rscale>  0 0.35921368E+03</rscale>
<asrwt>0</asrwt>
<pdfrwt beam="1">  1        1 0.31271887E+00 0.35921368E+03</pdfrwt>
<pdfrwt beam="2">  1       -2 0.13250688E-01 0.35921368E+03</pdfrwt>
<totfact> 0.11677223E+02</totfact>
</mgrwt>
</event>
<event>
12    3  0.1092576E-007  0.4888927E+03  0.7818608E-02  0.1016719E+00
          3   -1    0    0  501    0  0.00000000000E+00  0.00000000000E+00  0.17071338325E+03  0.17071338325E+03  0.00000000000E+00 0. -1.
         -4   -1    0    0    0  501 -0.00000000000E+00 -0.00000000000E+00 -0.20984510822E+04  0.20984510822E+04  0.00000000000E+00 0.  1.
        -24    2    1    2    0    0  0.41278384427E+03  0.54922771652E+02 -0.10142603853E+04  0.10995371751E+04  0.82769905962E+02 0.  0.
    5000000    2    1    2    0    0 -0.41278384427E+03 -0.54922771652E+02 -0.91347731366E+03  0.11696272903E+04  0.60015013357E+03 0.  0.
        -24    2    4    4    0    0 -0.48234664771E+03 -0.23825310556E+02 -0.36582788683E+03  0.61098209905E+03  0.79013597582E+02 0.  0.
         24    2    4    4    0    0  0.69562803443E+02 -0.31097461096E+02 -0.54764942683E+03  0.55864519130E+03  0.79740324402E+02 0.  0.
         11    1    5    5    0    0 -0.27593828417E+03  0.37108939768E+01 -0.25176403268E+03  0.37355165045E+03  0.00000000000E+00 0. -1.
        -12    1    5    5    0    0 -0.20640836355E+03 -0.27536204532E+02 -0.11406385415E+03  0.23743044860E+03  0.00000000000E+00 0.  1.
         15    1    3    3    0    0  0.17621073536E+03  0.96712230906E+01 -0.53133762359E+03  0.55988086571E+03  0.17770000000E+01 0. -1.
        -16    1    3    3    0    0  0.23657310891E+03  0.45251548561E+02 -0.48292276169E+03  0.53965630939E+03  0.00000000000E+00 0.  1.
          4    1    6    6  502    0  0.22228792772E+02 -0.86697453899E+01 -0.41986564068E+03  0.42054302983E+03  0.00000000000E+00 0. -1.
         -3    1    6    6    0  502  0.47334010670E+02 -0.22427715706E+02 -0.12778378615E+03  0.13810216147E+03  0.00000000000E+00 0.  1.
<mgrwt>
<rscale>  0 0.48889271E+03</rscale>
<asrwt>0</asrwt>
<pdfrwt beam="1">  1        3 0.26263597E-01 0.48889271E+03</pdfrwt>
<pdfrwt beam="2">  1       -4 0.32283864E+00 0.48889271E+03</pdfrwt>
<totfact> 0.74394624E-01</totfact>
</mgrwt>
</event>
<event>
12    3  0.1092576E-007  0.4972131E+03  0.7818608E-02  0.1014509E+00
         -2   -1    0    0    0  501 -0.00000000000E+00  0.00000000000E+00  0.26526415267E+03  0.26526415267E+03  0.00000000000E+00 0.  1.
          1   -1    0    0  501    0  0.00000000000E+00 -0.00000000000E+00 -0.11434472796E+04  0.11434472796E+04  0.00000000000E+00 0. -1.
        -24    2    1    2    0    0 -0.20007912754E+03  0.31684931770E+03 -0.21636451255E+03  0.43996511605E+03  0.79564776429E+02 0.  0.
    5000000    2    1    2    0    0  0.20007912754E+03 -0.31684931770E+03 -0.66181861440E+03  0.96874631625E+03  0.60003366528E+03 0.  0.
        -24    2    4    4    0    0  0.56756970226E+02 -0.42414251818E+03 -0.22570685253E+03  0.49045556021E+03  0.80528528284E+02 0.  0.
         24    2    4    4    0    0  0.14332215731E+03  0.10729320048E+03 -0.43611176187E+03  0.47829075603E+03  0.80718689419E+02 0.  0.
         11    1    5    5    0    0 -0.26101153234E+01  0.26646702565E+00 -0.10672015722E+02  0.10989796460E+02  0.00000000000E+00 0. -1.
        -12    1    5    5    0    0  0.59367085549E+02 -0.42440898520E+03 -0.21503483681E+03  0.47946576375E+03  0.00000000000E+00 0.  1.
         15    1    3    3    0    0 -0.96365042088E+02  0.10747871233E+03 -0.11799760820E+03  0.18645237518E+03  0.17770000000E+01 0. -1.
        -16    1    3    3    0    0 -0.10371408545E+03  0.20937060536E+03 -0.98366904352E+02  0.25351274087E+03  0.00000000000E+00 0.  1.
          2    1    6    6  502    0  0.29051976657E+02  0.49003482023E+02 -0.21735722264E+03  0.22469873349E+03  0.00000000000E+00 0. -1.
         -1    1    6    6    0  502  0.11427018066E+03  0.58289718460E+02 -0.21875453922E+03  0.25359202254E+03  0.00000000000E+00 0.  1.
<mgrwt>
<rscale>  0 0.49721314E+03</rscale>
<asrwt>0</asrwt>
<pdfrwt beam="1">  1        1 0.17591497E+00 0.49721314E+03</pdfrwt>
<pdfrwt beam="2">  1       -2 0.40809869E-01 0.49721314E+03</pdfrwt>
<totfact> 0.61586639E+01</totfact>
</mgrwt>
</event>
<event>
12    3  0.1092576E-007  0.1089395E+04  0.7818608E-02  0.9215590E-01
         -2   -1    0    0    0  501 -0.00000000000E+00  0.00000000000E+00  0.13582937853E+04  0.13582937853E+04  0.00000000000E+00 0.  1.
          1   -1    0    0  501    0  0.00000000000E+00 -0.00000000000E+00 -0.13330309105E+04  0.13330309105E+04  0.00000000000E+00 0. -1.
        -24    2    1    2    0    0  0.46538898649E+03  0.95904479654E+03 -0.69160436365E+03  0.12733186752E+04  0.81670204276E+02 0.  0.
    5000000    2    1    2    0    0 -0.46538898649E+03 -0.95904479654E+03  0.71686723846E+03  0.14180060206E+04  0.60040703392E+03 0.  0.
        -24    2    4    4    0    0 -0.47724060771E+03 -0.78041201504E+03  0.31632262046E+03  0.97190624735E+03  0.87978648236E+02 0.  0.
         24    2    4    4    0    0  0.11851621223E+02 -0.17863278149E+03  0.40054461800E+03  0.44609977325E+03  0.80739613201E+02 0.  0.
         13    1    5    5    0    0 -0.11828881111E+03 -0.25523359787E+03  0.71177966273E+02  0.29017707560E+03  0.00000000000E+00 0. -1.
        -14    1    5    5    0    0 -0.35895179660E+03 -0.52517841717E+03  0.24514465418E+03  0.68172917175E+03  0.00000000000E+00 0.  1.
         15    1    3    3    0    0  0.40743381570E+03  0.83921401883E+03 -0.57146658682E+03  0.10940108323E+04  0.17770000000E+01 0. -1.
        -16    1    3    3    0    0  0.57955170783E+02  0.11983077771E+03 -0.12013777682E+03  0.17930784291E+03  0.00000000000E+00 0.  1.
          2    1    6    6  502    0  0.39436127435E+02 -0.15190299312E+03  0.30221916885E+03  0.34053803530E+03  0.00000000000E+00 0. -1.
         -1    1    6    6    0  502 -0.27584506212E+02 -0.26729788372E+02  0.98325449151E+02  0.10556173796E+03  0.00000000000E+00 0.  1.
<mgrwt>
<rscale>  0 0.10893951E+04</rscale>
<asrwt>0</asrwt>
<pdfrwt beam="1">  1        1 0.20508168E+00 0.10893951E+04</pdfrwt>
<pdfrwt beam="2">  1       -2 0.20896827E+00 0.10893951E+04</pdfrwt>
<totfact> 0.86232514E-01</totfact>
</mgrwt>
</event>
<event>
12    3  0.1092576E-007  0.4955585E+03  0.7818608E-02  0.1014945E+00
         -2   -1    0    0    0  501 -0.00000000000E+00  0.00000000000E+00  0.46533543683E+03  0.46533543683E+03  0.00000000000E+00 0.  1.
          1   -1    0    0  501    0  0.00000000000E+00 -0.00000000000E+00 -0.72602665066E+03  0.72602665066E+03  0.00000000000E+00 0. -1.
        -24    2    1    2    0    0 -0.38972120241E+03 -0.11127340220E+03 -0.21536328419E+03  0.46586792825E+03  0.79919939608E+02 0.  0.
    5000000    2    1    2    0    0  0.38972120241E+03  0.11127340220E+03 -0.45327929639E+02  0.72549415923E+03  0.60001897322E+03 0.  0.
        -24    2    4    4    0    0  0.28208980646E+03 -0.12184444841E+03 -0.23621867685E+03  0.39568131172E+03  0.79647401930E+02 0.  0.
         24    2    4    4    0    0  0.10763139595E+03  0.23311785061E+03  0.19089074722E+03  0.32981284751E+03  0.80054902055E+02 0.  0.
         13    1    5    5    0    0  0.17178469488E+03 -0.31094581255E+02 -0.12772357099E+03  0.21631034410E+03  0.00000000000E+00 0. -1.
        -14    1    5    5    0    0  0.11030511158E+03 -0.90749867152E+02 -0.10849510587E+03  0.17937096763E+03  0.00000000000E+00 0.  1.
         15    1    3    3    0    0 -0.16881741431E+03 -0.71147268569E+02 -0.13432024248E+03  0.22717028518E+03  0.17770000000E+01 0. -1.
        -16    1    3    3    0    0 -0.22090378811E+03 -0.40126133635E+02 -0.81043041717E+02  0.23869764308E+03  0.00000000000E+00 0.  1.
          2    1    6    6  502    0  0.95642721947E+02  0.12598383351E+03  0.13716117924E+03  0.20936247433E+03  0.00000000000E+00 0. -1.
         -1    1    6    6    0  502  0.11988674005E+02  0.10713401710E+03  0.53729567979E+02  0.12045037318E+03  0.00000000000E+00 0.  1.
<mgrwt>
<rscale>  0 0.49555852E+03</rscale>
<asrwt>0</asrwt>
<pdfrwt beam="1">  1        1 0.11169641E+00 0.49555852E+03</pdfrwt>
<pdfrwt beam="2">  1       -2 0.71590067E-01 0.49555852E+03</pdfrwt>
<totfact> 0.41744058E+01</totfact>
</mgrwt>
</event>
<event>
12    3  0.1092576E-007  0.5756052E+03  0.7818608E-02  0.9957351E-01
         -2   -1    0    0    0  501 -0.00000000000E+00  0.00000000000E+00  0.16424507049E+03  0.16424507049E+03  0.00000000000E+00 0.  1.
          1   -1    0    0  501    0  0.00000000000E+00 -0.00000000000E+00 -0.26438730442E+04  0.26438730442E+04  0.00000000000E+00 0. -1.
        -24    2    1    2    0    0 -0.15772662184E+03  0.45484883154E+03 -0.57785472245E+03  0.75665935000E+03  0.82777683504E+02 0.  0.
    5000000    2    1    2    0    0  0.15772662184E+03 -0.45484883154E+03 -0.19017732512E+04  0.20514587647E+04  0.59998034737E+03 0.  0.
        -24    2    4    4    0    0 -0.15442775829E+03 -0.11976808214E+03 -0.21484580032E+03  0.30157174363E+03  0.81206358216E+02 0.  0.
         24    2    4    4    0    0  0.31215438013E+03 -0.33508074940E+03 -0.16869274509E+04  0.17498870210E+04  0.81614312949E+02 0.  0.
         13    1    5    5    0    0 -0.26910204378E+02 -0.46828429929E+02 -0.20093864095E+02  0.57626593892E+02  0.00000000000E+00 0. -1.
        -14    1    5    5    0    0 -0.12751755391E+03 -0.72939652207E+02 -0.19475193623E+03  0.24394514974E+03  0.00000000000E+00 0.  1.
         15    1    3    3    0    0  0.24965170477E+01  0.83397169316E+02 -0.11206985425E+03  0.13972877444E+03  0.17770000000E+01 0. -1.
        -16    1    3    3    0    0 -0.16022313889E+03  0.37145166222E+03 -0.46578486821E+03  0.61693057555E+03  0.00000000000E+00 0.  1.
          4    1    6    6  502    0  0.26800911704E+03 -0.31563446787E+03 -0.15625483614E+04  0.16164811740E+04  0.00000000000E+00 0. -1.
         -3    1    6    6    0  502  0.44145263094E+02 -0.19446281528E+02 -0.12437908950E+03  0.13340584704E+03  0.00000000000E+00 0.  1.
<mgrwt>
<rscale>  0 0.57560521E+03</rscale>
<asrwt>0</asrwt>
<pdfrwt beam="1">  1        1 0.40674964E+00 0.57560521E+03</pdfrwt>
<pdfrwt beam="2">  1       -2 0.25268476E-01 0.57560521E+03</pdfrwt>
<totfact> 0.14386799E+01</totfact>
</mgrwt>
</event>
<event>
12    3  0.1092576E-007  0.5925876E+03  0.7818608E-02  0.9920905E-01
         -2   -1    0    0    0  501 -0.00000000000E+00  0.00000000000E+00  0.47312746555E+03  0.47312746555E+03  0.00000000000E+00 0.  1.
          1   -1    0    0  501    0  0.00000000000E+00 -0.00000000000E+00 -0.13368420250E+04  0.13368420250E+04  0.00000000000E+00 0. -1.
        -24    2    1    2    0    0  0.56589318214E+03  0.35040604986E+01 -0.79992567469E+03  0.98282907440E+03  0.76318624387E+02 0.  0.
    5000000    2    1    2    0    0 -0.56589318214E+03 -0.35040604986E+01 -0.63788884715E+02  0.82714041610E+03  0.59987071448E+03 0.  0.
        -24    2    4    4    0    0 -0.47312047359E+03  0.63299876865E+02  0.20395082017E+03  0.52520002770E+03  0.79932941317E+02 0.  0.
         24    2    4    4    0    0 -0.92772708554E+02 -0.66803937364E+02 -0.26773970489E+03  0.30194038839E+03  0.80086872018E+02 0.  0.
         11    1    5    5    0    0 -0.25981650681E+03  0.36096230145E+02  0.68661932748E+02  0.27114943490E+03  0.00000000000E+00 0. -1.
        -12    1    5    5    0    0 -0.21330396678E+03  0.27203646720E+02  0.13528888743E+03  0.25405059280E+03  0.00000000000E+00 0.  1.
         15    1    3    3    0    0  0.14096470626E+03  0.29817303911E+02 -0.17551699167E+03  0.22708917218E+03  0.17770000000E+01 0. -1.
        -16    1    3    3    0    0  0.42492847588E+03 -0.26313243413E+02 -0.62440868302E+03  0.75573990223E+03  0.00000000000E+00 0.  1.
          2    1    6    6  502    0 -0.10506795183E+03 -0.47965771851E+02 -0.23898801290E+03  0.26543409744E+03  0.00000000000E+00 0. -1.
         -1    1    6    6    0  502  0.12295243281E+02 -0.18838165513E+02 -0.28751691986E+02  0.36506290955E+02  0.00000000000E+00 0.  1.
<mgrwt>
<rscale>  0 0.59258756E+03</rscale>
<asrwt>0</asrwt>
<pdfrwt beam="1">  1        1 0.20566801E+00 0.59258756E+03</pdfrwt>
<pdfrwt beam="2">  1       -2 0.72788840E-01 0.59258756E+03</pdfrwt>
<totfact> 0.13406512E+01</totfact>
</mgrwt>
</event>
<event>
12    3  0.1092576E-007  0.9832279E+03  0.7818608E-02  0.9327134E-01
          1   -1    0    0  501    0  0.00000000000E+00  0.00000000000E+00  0.15308536248E+04  0.15308536248E+04  0.00000000000E+00 0. -1.
         -2   -1    0    0    0  501 -0.00000000000E+00 -0.00000000000E+00 -0.66319073633E+03  0.66319073633E+03  0.00000000000E+00 0.  1.
        -24    2    1    2    0    0  0.48154080223E+03  0.77792301495E+03  0.45222013133E+03  0.10236955682E+04  0.80023795595E+02 0.  0.
    5000000    2    1    2    0    0 -0.48154080223E+03 -0.77792301495E+03  0.41544275711E+03  0.11703487929E+04  0.60006487243E+03 0.  0.
        -24    2    4    4    0    0 -0.23166826198E+03 -0.11636478868E+02  0.23626752581E+03  0.34062809955E+03  0.79997294936E+02 0.  0.
         24    2    4    4    0    0 -0.24987254025E+03 -0.76628653608E+03  0.17917523130E+03  0.82972069332E+03  0.81861612827E+02 0.  0.
         11    1    5    5    0    0 -0.17304670125E+03  0.24838995965E+02  0.18573781327E+03  0.25506993514E+03  0.00000000000E+00 0. -1.
        -12    1    5    5    0    0 -0.58621560737E+02 -0.36475474833E+02  0.50529712541E+02  0.85558164409E+02  0.00000000000E+00 0.  1.
         15    1    3    3    0    0  0.22376194041E+03  0.36573966415E+03  0.16761525044E+03  0.46036174669E+03  0.17770000000E+01 0. -1.
        -16    1    3    3    0    0  0.25777886182E+03  0.41218335081E+03  0.28460488089E+03  0.56333382155E+03  0.00000000000E+00 0.  1.
          2    1    6    6  502    0 -0.89477499256E+02 -0.35802425706E+03  0.49675934733E+02  0.37236445858E+03  0.00000000000E+00 0. -1.
         -1    1    6    6    0  502 -0.16039504099E+03 -0.40826227902E+03  0.12949929657E+03  0.45735623474E+03  0.00000000000E+00 0.  1.
<mgrwt>
<rscale>  0 0.98322785E+03</rscale>
<asrwt>0</asrwt>
<pdfrwt beam="1">  1        1 0.23551594E+00 0.98322785E+03</pdfrwt>
<pdfrwt beam="2">  1       -2 0.10202934E+00 0.98322785E+03</pdfrwt>
<totfact> 0.43145785E+00</totfact>
</mgrwt>
</event>
<event>
12    3  0.1092576E-007  0.8593999E+03  0.7818608E-02  0.9477807E-01
          1   -1    0    0  501    0  0.00000000000E+00  0.00000000000E+00  0.22018526704E+04  0.22018526704E+04  0.00000000000E+00 0. -1.
         -2   -1    0    0    0  501 -0.00000000000E+00 -0.00000000000E+00 -0.38120153721E+03  0.38120153721E+03  0.00000000000E+00 0.  1.
        -24    2    1    2    0    0  0.73102245775E+03  0.30228333843E+03  0.53314553307E+03  0.95723161359E+03  0.79241101619E+02 0.  0.
    5000000    2    1    2    0    0 -0.73102245775E+03 -0.30228333843E+03  0.12875056001E+04  0.16258225940E+04  0.59988281062E+03 0.  0.
        -24    2    4    4    0    0 -0.40689983118E+03  0.87484826838E+02  0.85394176354E+03  0.95360318277E+03  0.83195114823E+02 0.  0.
         24    2    4    4    0    0 -0.32412262657E+03 -0.38976816527E+03  0.43356383659E+03  0.67221941126E+03  0.83226418688E+02 0.  0.
         13    1    5    5    0    0 -0.75061955262E+02  0.36259968507E+02  0.11582310434E+03  0.14270274679E+03  0.00000000000E+00 0. -1.
        -14    1    5    5    0    0 -0.33183787592E+03  0.51224858331E+02  0.73811865920E+03  0.81090043598E+03  0.00000000000E+00 0.  1.
         15    1    3    3    0    0  0.14985177155E+03  0.75336140409E+02  0.15032351686E+03  0.22523633130E+03  0.17770000000E+01 0. -1.
        -16    1    3    3    0    0  0.58117068620E+03  0.22694719802E+03  0.38282201621E+03  0.73199528229E+03  0.00000000000E+00 0.  1.
          2    1    6    6  502    0 -0.18562064996E+03 -0.19713740222E+03  0.18100670926E+03  0.32570171913E+03  0.00000000000E+00 0. -1.
         -1    1    6    6    0  502 -0.13850197661E+03 -0.19263076305E+03  0.25255712732E+03  0.34651769213E+03  0.00000000000E+00 0.  1.
<mgrwt>
<rscale>  0 0.85939995E+03</rscale>
<asrwt>0</asrwt>
<pdfrwt beam="1">  1        1 0.33874656E+00 0.85939995E+03</pdfrwt>
<pdfrwt beam="2">  1       -2 0.58646392E-01 0.85939995E+03</pdfrwt>
<totfact> 0.53406279E+00</totfact>
</mgrwt>
</event>
<event>
12    3  0.1092576E-007  0.4503557E+03  0.7818608E-02  0.1027616E+00
         -2   -1    0    0    0  501 -0.00000000000E+00  0.00000000000E+00  0.59965337400E+03  0.59965337400E+03  0.00000000000E+00 0.  1.
          1   -1    0    0  501    0  0.00000000000E+00 -0.00000000000E+00 -0.43626180466E+03  0.43626180466E+03  0.00000000000E+00 0. -1.
        -24    2    1    2    0    0  0.27383098259E+03 -0.45806884756E+02 -0.12486817106E+03  0.31466615495E+03  0.79630717763E+02 0.  0.
    5000000    2    1    2    0    0 -0.27383098259E+03  0.45806884756E+02  0.28825974039E+03  0.72124902371E+03  0.60002066511E+03 0.  0.
        -24    2    4    4    0    0 -0.20732459839E+03  0.28562138230E+03  0.28401388027E+03  0.46016433507E+03  0.80772940769E+02 0.  0.
         24    2    4    4    0    0 -0.66506384200E+02 -0.23981449755E+03  0.42458601234E+01  0.26108468864E+03  0.78823187842E+02 0.  0.
         13    1    5    5    0    0 -0.14954150476E+03  0.20395756516E+03  0.15395028289E+03  0.29607775944E+03  0.00000000000E+00 0. -1.
        -14    1    5    5    0    0 -0.57783093624E+02  0.81663817143E+02  0.13006359738E+03  0.16408657563E+03  0.00000000000E+00 0.  1.
         15    1    3    3    0    0  0.20455387328E+03 -0.16600997567E+01 -0.71494209606E+02  0.21670169067E+03  0.17770000000E+01 0. -1.
        -16    1    3    3    0    0  0.69277109310E+02 -0.44146784999E+02 -0.53373961450E+02  0.97964464276E+02  0.00000000000E+00 0.  1.
          2    1    6    6  502    0  0.17421950957E+02 -0.25456710418E+02  0.56854667185E+00  0.30852742597E+02  0.00000000000E+00 0. -1.
         -1    1    6    6    0  502 -0.83928335157E+02 -0.21435778713E+03  0.36773134516E+01  0.23023194605E+03  0.00000000000E+00 0.  1.
<mgrwt>
<rscale>  0 0.45035566E+03</rscale>
<asrwt>0</asrwt>
<pdfrwt beam="1">  1        1 0.67117201E-01 0.45035566E+03</pdfrwt>
<pdfrwt beam="2">  1       -2 0.92254365E-01 0.45035566E+03</pdfrwt>
<totfact> 0.48568826E+01</totfact>
</mgrwt>
</event>
<event>
12    3  0.1092576E-007  0.5796436E+03  0.7818608E-02  0.9948563E-01
         -2   -1    0    0    0  501 -0.00000000000E+00  0.00000000000E+00  0.31988855970E+03  0.31988855970E+03  0.00000000000E+00 0.  1.
          1   -1    0    0  501    0  0.00000000000E+00 -0.00000000000E+00 -0.12194244783E+04  0.12194244783E+04  0.00000000000E+00 0. -1.
        -24    2    1    2    0    0 -0.35295217445E+03 -0.24640673250E+03 -0.59945795726E+03  0.74228433618E+03  0.79653486697E+02 0.  0.
    5000000    2    1    2    0    0  0.35295217445E+03  0.24640673250E+03 -0.30007796137E+03  0.79702870186E+03  0.59993037381E+03 0.  0.
        -24    2    4    4    0    0  0.35998239203E+03  0.40388749648E+03 -0.27478343559E+03  0.61178030292E+03  0.77825254122E+02 0.  0.
         24    2    4    4    0    0 -0.70302175792E+01 -0.15748076398E+03 -0.25294525780E+02  0.18524839894E+03  0.93954996101E+02 0.  0.
         13    1    5    5    0    0  0.78342957665E+02  0.13766992366E+03 -0.66314858750E+02  0.17172154026E+03  0.00000000000E+00 0. -1.
        -14    1    5    5    0    0  0.28163943436E+03  0.26621757282E+03 -0.20846857684E+03  0.44005876266E+03  0.00000000000E+00 0.  1.
         15    1    3    3    0    0 -0.68884154653E+02 -0.69745451772E+02 -0.91749661364E+02  0.13427811771E+03  0.17770000000E+01 0. -1.
        -16    1    3    3    0    0 -0.28406801979E+03 -0.17666128073E+03 -0.50770829590E+03  0.60800621847E+03  0.00000000000E+00 0.  1.
          4    1    6    6  502    0 -0.47033978787E+02 -0.10255792777E+03 -0.23954875717E+00  0.11282899048E+03  0.00000000000E+00 0. -1.
         -3    1    6    6    0  502  0.40003761208E+02 -0.54922836213E+02 -0.25054977023E+02  0.72419408463E+02  0.00000000000E+00 0.  1.
<mgrwt>
<rscale>  0 0.57964362E+03</rscale>
<asrwt>0</asrwt>
<pdfrwt beam="1">  1        1 0.18760376E+00 0.57964362E+03</pdfrwt>
<pdfrwt beam="2">  1       -2 0.49213625E-01 0.57964362E+03</pdfrwt>
<totfact> 0.37049305E+01</totfact>
</mgrwt>
</event>
<event>
12    3  0.1092576E-007  0.9505437E+03  0.7818608E-02  0.9364515E-01
          1   -1    0    0  501    0  0.00000000000E+00  0.00000000000E+00  0.54456488879E+03  0.54456488879E+03  0.00000000000E+00 0. -1.
         -2   -1    0    0    0  501 -0.00000000000E+00 -0.00000000000E+00 -0.17305253862E+04  0.17305253862E+04  0.00000000000E+00 0.  1.
        -24    2    1    2    0    0  0.70200273231E+03  0.48864430756E+03 -0.75922409645E+03  0.11464975497E+04  0.80338704139E+02 0.  0.
    5000000    2    1    2    0    0 -0.70200273231E+03 -0.48864430756E+03 -0.42673640101E+03  0.11285927253E+04  0.60003040610E+03 0.  0.
        -24    2    4    4    0    0 -0.61086461337E+03 -0.61480389882E+03 -0.36190546271E+03  0.94203643704E+03  0.72922389605E+02 0.  0.
         24    2    4    4    0    0 -0.91138118939E+02  0.12615959126E+03 -0.64830938299E+02  0.18655628829E+03  0.79861122897E+02 0.  0.
         13    1    5    5    0    0 -0.90903189815E+01 -0.22085897449E+02 -0.18621222318E+02  0.30284826001E+02  0.00000000000E+00 0. -1.
        -14    1    5    5    0    0 -0.60177429439E+03 -0.59271800137E+03 -0.34328424039E+03  0.91175161104E+03  0.00000000000E+00 0.  1.
         15    1    3    3    0    0  0.53648186918E+03  0.40787902141E+03 -0.61833153548E+03  0.91461201477E+03  0.17770000000E+01 0. -1.
        -16    1    3    3    0    0  0.16552086313E+03  0.80765286148E+02 -0.14089256097E+03  0.23188553494E+03  0.00000000000E+00 0.  1.
          4    1    6    6  502    0 -0.19919278395E+02 -0.88521534962E+01 -0.36193785051E+01  0.22096112194E+02  0.00000000000E+00 0. -1.
         -3    1    6    6    0  502 -0.71218840544E+02  0.13501174475E+03 -0.61211559794E+02  0.16446017610E+03  0.00000000000E+00 0.  1.
<mgrwt>
<rscale>  0 0.95054371E+03</rscale>
<asrwt>0</asrwt>
<pdfrwt beam="1">  1        1 0.83779216E-01 0.95054371E+03</pdfrwt>
<pdfrwt beam="2">  1       -2 0.26623467E+00 0.95054371E+03</pdfrwt>
<totfact> 0.17794969E+00</totfact>
</mgrwt>
</event>
<event>
12    3  0.1092576E-007  0.7683664E+03  0.7818608E-02  0.9606969E-01
         -2   -1    0    0    0  501 -0.00000000000E+00  0.00000000000E+00  0.41880133852E+03  0.41880133852E+03  0.00000000000E+00 0.  1.
          1   -1    0    0  501    0  0.00000000000E+00 -0.00000000000E+00 -0.28699801934E+04  0.28699801934E+04  0.00000000000E+00 0. -1.
        -24    2    1    2    0    0  0.34245225385E+03 -0.61996034881E+03 -0.22209075801E+04  0.23325008860E+04  0.80656825975E+02 0.  0.
    5000000    2    1    2    0    0 -0.34245225385E+03  0.61996034881E+03 -0.23027127477E+03  0.95628064592E+03  0.59985284322E+03 0.  0.
        -24    2    4    4    0    0 -0.60317838916E+02  0.51474552189E+03  0.63090335788E+02  0.52831973363E+03  0.80871233941E+02 0.  0.
         24    2    4    4    0    0 -0.28213441494E+03  0.10521482692E+03 -0.29336161056E+03  0.42796091229E+03  0.80121907120E+02 0.  0.
         11    1    5    5    0    0 -0.18823856677E+02  0.39164483287E+03  0.24764422417E+02  0.39287821181E+03  0.00000000000E+00 0. -1.
        -12    1    5    5    0    0 -0.41493982239E+02  0.12310068902E+03  0.38325913371E+02  0.13544152183E+03  0.00000000000E+00 0.  1.
         15    1    3    3    0    0  0.11641350376E+03 -0.21545707095E+03 -0.89759110960E+03  0.93040142468E+03  0.17770000000E+01 0. -1.
        -16    1    3    3    0    0  0.22603875009E+03 -0.40450327786E+03 -0.13233164705E+04  0.14020994614E+04  0.00000000000E+00 0.  1.
          2    1    6    6  502    0 -0.21608564698E+03  0.53615074496E+02 -0.17630434341E+03  0.28399085293E+03  0.00000000000E+00 0. -1.
         -1    1    6    6    0  502 -0.66048767960E+02  0.51599752421E+02 -0.11705726715E+03  0.14397005936E+03  0.00000000000E+00 0.  1.
<mgrwt>
<rscale>  0 0.76836639E+03</rscale>
<asrwt>0</asrwt>
<pdfrwt beam="1">  1        1 0.44153541E+00 0.76836639E+03</pdfrwt>
<pdfrwt beam="2">  1       -2 0.64430975E-01 0.76836639E+03</pdfrwt>
<totfact> 0.15425625E+00</totfact>
</mgrwt>
</event>
<event>
12    3  0.1092576E-007  0.6059690E+03  0.7818608E-02  0.9893099E-01
          1   -1    0    0  501    0  0.00000000000E+00  0.00000000000E+00  0.31559143581E+04  0.31559143581E+04  0.00000000000E+00 0. -1.
         -2   -1    0    0    0  501 -0.00000000000E+00 -0.00000000000E+00 -0.20819736888E+03  0.20819736888E+03  0.00000000000E+00 0.  1.
        -24    2    1    2    0    0  0.18160773792E+03  0.42255166808E+03  0.19053160502E+03  0.50515947586E+03  0.85746841786E+02 0.  0.
    5000000    2    1    2    0    0 -0.18160773792E+03 -0.42255166808E+03  0.27571853842E+04  0.28589522512E+04  0.60000454052E+03 0.  0.
        -24    2    4    4    0    0  0.10557383983E+01  0.13876953561E+03  0.65586875947E+03  0.67536819304E+03  0.81855164268E+02 0.  0.
         24    2    4    4    0    0 -0.18266347632E+03 -0.56132120369E+03  0.21013166248E+04  0.21835840581E+04  0.63720813209E+02 0.  0.
         11    1    5    5    0    0 -0.35846674204E+02  0.80943970976E+02  0.44162696513E+03  0.45041235199E+03  0.00000000000E+00 0. -1.
        -12    1    5    5    0    0  0.36902412603E+02  0.57825564639E+02  0.21424179434E+03  0.22495584105E+03  0.00000000000E+00 0.  1.
         15    1    3    3    0    0  0.92865036334E+02  0.29257430431E+03  0.96262773480E+02  0.32170377337E+03  0.17770000000E+01 0. -1.
        -16    1    3    3    0    0  0.88742701586E+02  0.12997736377E+03  0.94268831538E+02  0.18345570249E+03  0.00000000000E+00 0.  1.
          4    1    6    6  502    0 -0.11949654223E+03 -0.34474905311E+03  0.14067685927E+04  0.14533166230E+04  0.00000000000E+00 0. -1.
         -3    1    6    6    0  502 -0.63166934090E+02 -0.21657215058E+03  0.69454803209E+03  0.73026743516E+03  0.00000000000E+00 0.  1.
<mgrwt>
<rscale>  0 0.60596900E+03</rscale>
<asrwt>0</asrwt>
<pdfrwt beam="1">  1        1 0.48552525E+00 0.60596900E+03</pdfrwt>
<pdfrwt beam="2">  1       -2 0.32030367E-01 0.60596900E+03</pdfrwt>
<totfact> 0.40261186E+00</totfact>
</mgrwt>
</event>
<event>
12    3  0.1092576E-007  0.7776298E+03  0.7818608E-02  0.9592974E-01
          1   -1    0    0  501    0  0.00000000000E+00  0.00000000000E+00  0.91017793488E+03  0.91017793488E+03  0.00000000000E+00 0. -1.
         -2   -1    0    0    0  501 -0.00000000000E+00 -0.00000000000E+00 -0.67651389561E+03  0.67651389561E+03  0.00000000000E+00 0.  1.
        -24    2    1    2    0    0 -0.64508489139E+03  0.17011387828E+03  0.87314953285E+02  0.67756307841E+03  0.79966089527E+02 0.  0.
    5000000    2    1    2    0    0  0.64508489139E+03 -0.17011387828E+03  0.14634908598E+03  0.90912875208E+03  0.60001981985E+03 0.  0.
        -24    2    4    4    0    0  0.33652081866E+03  0.20631824745E+03  0.40795670541E+02  0.40456889775E+03  0.78728810928E+02 0.  0.
         24    2    4    4    0    0  0.30856407273E+03 -0.37643212572E+03  0.10555341544E+03  0.50455985433E+03  0.80784842847E+02 0.  0.
         11    1    5    5    0    0  0.15330714030E+03  0.12442437277E+03  0.49989705191E+02  0.20367492343E+03  0.00000000000E+00 0. -1.
        -12    1    5    5    0    0  0.18321367835E+03  0.81893874673E+02 -0.91940346491E+01  0.20089397432E+03  0.00000000000E+00 0.  1.
         15    1    3    3    0    0 -0.44221603860E+03  0.13756922459E+03  0.29217301969E+02  0.46404431342E+03  0.17770000000E+01 0. -1.
        -16    1    3    3    0    0 -0.20286885279E+03  0.32544653681E+02  0.58097651316E+02  0.21351876499E+03  0.00000000000E+00 0.  1.
          2    1    6    6  502    0  0.17439616933E+03 -0.17964739403E+03  0.18791547838E+02  0.25107833903E+03  0.00000000000E+00 0. -1.
         -1    1    6    6    0  502  0.13416790341E+03 -0.19678473169E+03  0.86761867606E+02  0.25348151530E+03  0.00000000000E+00 0.  1.
<mgrwt>
<rscale>  0 0.77762976E+03</rscale>
<asrwt>0</asrwt>
<pdfrwt beam="1">  1        1 0.14002737E+00 0.77762976E+03</pdfrwt>
<pdfrwt beam="2">  1       -2 0.10407906E+00 0.77762976E+03</pdfrwt>
<totfact> 0.11977991E+01</totfact>
</mgrwt>
</event>
<event>
12    3  0.1092576E-007  0.8208973E+03  0.7818608E-02  0.9530252E-01
         -2   -1    0    0    0  501 -0.00000000000E+00  0.00000000000E+00  0.61713878384E+03  0.61713878384E+03  0.00000000000E+00 0.  1.
          1   -1    0    0  501    0  0.00000000000E+00 -0.00000000000E+00 -0.13916095392E+04  0.13916095392E+04  0.00000000000E+00 0. -1.
        -24    2    1    2    0    0 -0.55752553370E+03 -0.54028527810E+03 -0.37011806960E+02  0.78129087655E+03  0.79389278053E+02 0.  0.
    5000000    2    1    2    0    0  0.55752553370E+03  0.54028527810E+03 -0.73745894845E+03  0.12274574465E+04  0.60005264765E+03 0.  0.
        -24    2    4    4    0    0  0.39649318279E+03  0.13507339908E+03 -0.64760193391E+03  0.77533128409E+03  0.79364149041E+02 0.  0.
         24    2    4    4    0    0  0.16103235091E+03  0.40521187902E+03 -0.89857014540E+02  0.45212616244E+03  0.78839702973E+02 0.  0.
         13    1    5    5    0    0  0.29089197448E+03  0.13456275621E+03 -0.49749240250E+03  0.59179723446E+03  0.00000000000E+00 0. -1.
        -14    1    5    5    0    0  0.10560120831E+03  0.51064286664E+00 -0.15010953141E+03  0.18353404963E+03  0.00000000000E+00 0.  1.
         15    1    3    3    0    0 -0.45238018936E+03 -0.46564480653E+03 -0.86781229621E+01  0.64926988928E+03  0.17770000000E+01 0. -1.
        -16    1    3    3    0    0 -0.10514534433E+03 -0.74640471572E+02 -0.28333683997E+02  0.13202098727E+03  0.00000000000E+00 0.  1.
          2    1    6    6  502    0  0.14238246806E+03  0.31918331638E+03 -0.42235387892E+02  0.35204344143E+03  0.00000000000E+00 0. -1.
         -1    1    6    6    0  502  0.18649882854E+02  0.86028562644E+02 -0.47621626647E+02  0.10008272101E+03  0.00000000000E+00 0.  1.
<mgrwt>
<rscale>  0 0.82089726E+03</rscale>
<asrwt>0</asrwt>
<pdfrwt beam="1">  1        1 0.21409377E+00 0.82089726E+03</pdfrwt>
<pdfrwt beam="2">  1       -2 0.94944429E-01 0.82089726E+03</pdfrwt>
<totfact> 0.65114816E+00</totfact>
</mgrwt>
</event>
<event>
12    3  0.1092576E-007  0.8449903E+03  0.7818608E-02  0.9497086E-01
          1   -1    0    0  501    0  0.00000000000E+00  0.00000000000E+00  0.17663820978E+04  0.17663820978E+04  0.00000000000E+00 0. -1.
         -2   -1    0    0    0  501 -0.00000000000E+00 -0.00000000000E+00 -0.50791436950E+03  0.50791436950E+03  0.00000000000E+00 0.  1.
        -24    2    1    2    0    0 -0.63330503793E+03  0.38206514151E+03  0.10705451774E+04  0.13035600406E+04  0.78439525380E+02 0.  0.
    5000000    2    1    2    0    0  0.63330503793E+03 -0.38206514151E+03  0.18792255087E+03  0.97073642668E+03  0.59997106724E+03 0.  0.
        -24    2    4    4    0    0  0.73331171188E+03 -0.28052038673E+03  0.15400278533E+03  0.80406173939E+03  0.79753800556E+02 0.  0.
         24    2    4    4    0    0 -0.10000667395E+03 -0.10154475478E+03  0.33919765536E+02  0.16667468729E+03  0.79480996659E+02 0.  0.
         11    1    5    5    0    0  0.10311361857E+03 -0.10865328364E+02  0.18058066909E+02  0.10524527293E+03  0.00000000000E+00 0. -1.
        -12    1    5    5    0    0  0.63019809332E+03 -0.26965505837E+03  0.13594471842E+03  0.69881646646E+03  0.00000000000E+00 0.  1.
         15    1    3    3    0    0 -0.41370786258E+03  0.27220783388E+03  0.65915079263E+03  0.82445995994E+03  0.17770000000E+01 0. -1.
        -16    1    3    3    0    0 -0.21959717534E+03  0.10985730764E+03  0.41139438475E+03  0.47910008064E+03  0.00000000000E+00 0.  1.
          4    1    6    6  502    0 -0.49867493373E+02 -0.97795798599E+02  0.38154108312E+02  0.11621755934E+03  0.00000000000E+00 0. -1.
         -3    1    6    6    0  502 -0.50139180581E+02 -0.37489561853E+01 -0.42343427764E+01  0.50457127946E+02  0.00000000000E+00 0.  1.
<mgrwt>
<rscale>  0 0.84499034E+03</rscale>
<asrwt>0</asrwt>
<pdfrwt beam="1">  1        1 0.27175109E+00 0.84499034E+03</pdfrwt>
<pdfrwt beam="2">  1       -2 0.78140673E-01 0.84499034E+03</pdfrwt>
<totfact> 0.56257922E+00</totfact>
</mgrwt>
</event>
<event>
12    3  0.1092576E-007  0.9540071E+03  0.7818608E-02  0.9360479E-01
          1   -1    0    0  501    0  0.00000000000E+00  0.00000000000E+00  0.12915654994E+04  0.12915654994E+04  0.00000000000E+00 0. -1.
         -4   -1    0    0    0  501 -0.00000000000E+00 -0.00000000000E+00 -0.73088931509E+03  0.73088931509E+03  0.00000000000E+00 0.  1.
        -24    2    1    2    0    0  0.86859313644E+03 -0.17245696444E+02  0.38323481971E+03  0.95183435862E+03  0.66092877707E+02 0.  0.
    5000000    2    1    2    0    0 -0.86859313644E+03  0.17245696444E+02  0.17744136462E+03  0.10706204559E+04  0.59999272660E+03 0.  0.
        -24    2    4    4    0    0  0.42722990186E+02 -0.96990880363E+02 -0.36154933507E+01  0.13112873986E+03  0.77130991565E+02 0.  0.
         24    2    4    4    0    0 -0.91131612663E+03  0.11423657681E+03  0.18105685797E+03  0.93949171604E+03  0.79473395205E+02 0.  0.
         11    1    5    5    0    0  0.26735424771E+02 -0.10970093143E+02 -0.28064311572E+02  0.40283141204E+02  0.00000000000E+00 0. -1.
        -12    1    5    5    0    0  0.15987565416E+02 -0.86020787220E+02  0.24448818221E+02  0.90845598651E+02  0.00000000000E+00 0.  1.
         15    1    3    3    0    0  0.21000706558E+03  0.13745887686E+02  0.69179339655E+02  0.22154199554E+03  0.17770000000E+01 0. -1.
        -16    1    3    3    0    0  0.65858607086E+03 -0.30991584131E+02  0.31405548006E+03  0.73029236308E+03  0.00000000000E+00 0.  1.
          4    1    6    6  502    0 -0.48822326461E+03  0.21444367567E+02  0.91764052150E+02  0.49723481201E+03  0.00000000000E+00 0. -1.
         -3    1    6    6    0  502 -0.42309286202E+03  0.92792209241E+02  0.89292805824E+02  0.44225690403E+03  0.00000000000E+00 0.  1.
<mgrwt>
<rscale>  0 0.95400706E+03</rscale>
<asrwt>0</asrwt>
<pdfrwt beam="1">  1        1 0.19870238E+00 0.95400706E+03</pdfrwt>
<pdfrwt beam="2">  1       -4 0.11244451E+00 0.95400706E+03</pdfrwt>
<totfact> 0.27340696E+00</totfact>
</mgrwt>
</event>
<event>
12    3  0.1092576E-007  0.1761194E+04  0.7818608E-02  0.8727213E-01
         -2   -1    0    0    0  501 -0.00000000000E+00  0.00000000000E+00  0.36460768711E+04  0.36460768711E+04  0.00000000000E+00 0.  1.
          1   -1    0    0  501    0  0.00000000000E+00 -0.00000000000E+00 -0.87203290813E+03  0.87203290813E+03  0.00000000000E+00 0. -1.
        -24    2    1    2    0    0  0.15565036712E+04 -0.72986569915E+03  0.10880181974E+04  0.20365818176E+04  0.92055878028E+02 0.  0.
    5000000    2    1    2    0    0 -0.15565036712E+04  0.72986569915E+03  0.16860257656E+04  0.24815279616E+04  0.59990876390E+03 0.  0.
        -24    2    4    4    0    0 -0.58460411761E+03  0.55757141192E+03  0.93571734065E+03  0.12387604866E+04  0.79452802178E+02 0.  0.
         24    2    4    4    0    0 -0.97189955356E+03  0.17229428723E+03  0.75030842492E+03  0.12427674751E+04  0.85054105878E+02 0.  0.
         11    1    5    5    0    0 -0.31217094339E+03  0.24418346151E+03  0.44369176740E+03  0.59492742855E+03  0.00000000000E+00 0. -1.
        -12    1    5    5    0    0 -0.27243317422E+03  0.31338795041E+03  0.49202557325E+03  0.64383305803E+03  0.00000000000E+00 0.  1.
         15    1    3    3    0    0  0.27302097310E+02 -0.27426615572E+02  0.22594062090E+02  0.44847219869E+02  0.17770000000E+01 0. -1.
        -16    1    3    3    0    0  0.15292015739E+04 -0.70243908357E+03  0.10654241353E+04  0.19917345977E+04  0.00000000000E+00 0.  1.
          4    1    6    6  502    0 -0.41027401801E+03  0.10586120073E+03  0.28816748512E+03  0.51241766475E+03  0.00000000000E+00 0. -1.
         -3    1    6    6    0  502 -0.56162553555E+03  0.66433086496E+02  0.46214093980E+03  0.73034981030E+03  0.00000000000E+00 0.  1.
<mgrwt>
<rscale>  0 0.17611942E+04</rscale>
<asrwt>0</asrwt>
<pdfrwt beam="1">  1        1 0.13415891E+00 0.17611942E+04</pdfrwt>
<pdfrwt beam="2">  1       -2 0.56093489E+00 0.17611942E+04</pdfrwt>
<totfact> 0.11447057E-02</totfact>
</mgrwt>
</event>
<event>
12    3  0.1092576E-007  0.1902812E+04  0.7818608E-02  0.8653458E-01
         -2   -1    0    0    0  501 -0.00000000000E+00  0.00000000000E+00  0.32430461236E+04  0.32430461236E+04  0.00000000000E+00 0.  1.
          1   -1    0    0  501    0  0.00000000000E+00 -0.00000000000E+00 -0.14446853818E+04  0.14446853818E+04  0.00000000000E+00 0. -1.
        -24    2    1    2    0    0 -0.10810031369E+04  0.15109061183E+04  0.19930156514E+04  0.27257948580E+04  0.80256717691E+02 0.  0.
    5000000    2    1    2    0    0  0.10810031369E+04 -0.15109061183E+04 -0.19465490966E+03  0.19619366474E+04  0.59991648940E+03 0.  0.
        -24    2    4    4    0    0  0.78151481867E+03 -0.14308119667E+04 -0.15519626305E+03  0.16395529212E+04  0.77843467895E+02 0.  0.
         24    2    4    4    0    0  0.29948831821E+03 -0.80094151617E+02 -0.39458646607E+02  0.32238372620E+03  0.79157793424E+02 0.  0.
         13    1    5    5    0    0  0.36114173807E+03 -0.65198034706E+03 -0.32262277795E+02  0.74601781648E+03  0.00000000000E+00 0. -1.
        -14    1    5    5    0    0  0.42037308061E+03 -0.77883161965E+03 -0.12293398526E+03  0.89353510473E+03  0.00000000000E+00 0.  1.
         15    1    3    3    0    0 -0.57847728334E+00  0.13193345167E+01  0.65217622310E+01  0.69113233995E+01  0.17770000000E+01 0. -1.
        -16    1    3    3    0    0 -0.10804246596E+04  0.15095867838E+04  0.19864938892E+04  0.27188835346E+04  0.00000000000E+00 0.  1.
          4    1    6    6  502    0  0.28513927238E+03 -0.59157413235E+02 -0.22968888416E+02  0.29211568603E+03  0.00000000000E+00 0. -1.
         -3    1    6    6    0  502  0.14349045835E+02 -0.20936738382E+02 -0.16489758191E+02  0.30268040169E+02  0.00000000000E+00 0.  1.
<mgrwt>
<rscale>  0 0.19028124E+04</rscale>
<asrwt>0</asrwt>
<pdfrwt beam="1">  1        1 0.22225929E+00 0.19028124E+04</pdfrwt>
<pdfrwt beam="2">  1       -2 0.49893017E+00 0.19028124E+04</pdfrwt>
<totfact> 0.93768702E-03</totfact>
</mgrwt>
</event>
<event>
12    3  0.1092576E-007  0.8266733E+03  0.7818608E-02  0.9522191E-01
         -2   -1    0    0    0  501 -0.00000000000E+00  0.00000000000E+00  0.81354154127E+03  0.81354154127E+03  0.00000000000E+00 0.  1.
          1   -1    0    0  501    0  0.00000000000E+00 -0.00000000000E+00 -0.12394192302E+04  0.12394192302E+04  0.00000000000E+00 0. -1.
        -24    2    1    2    0    0  0.61133019686E+03  0.42530527163E+03  0.34508004237E+03  0.82461766904E+03  0.79403279453E+02 0.  0.
    5000000    2    1    2    0    0 -0.61133019686E+03 -0.42530527163E+03 -0.77095773132E+03  0.12283431025E+04  0.59986812734E+03 0.  0.
        -24    2    4    4    0    0 -0.70320716335E+03 -0.40173353007E+03 -0.57237539301E+03  0.99472105279E+03  0.77241430399E+02 0.  0.
         24    2    4    4    0    0  0.91876966495E+02 -0.23571741557E+02 -0.19858233831E+03  0.23362204966E+03  0.78404802311E+02 0.  0.
         13    1    5    5    0    0 -0.59234172742E+03 -0.36540803318E+03 -0.47335059194E+03  0.84169622528E+03  0.00000000000E+00 0. -1.
        -14    1    5    5    0    0 -0.11086543593E+03 -0.36325496889E+02 -0.99024801069E+02  0.15302482751E+03  0.00000000000E+00 0.  1.
         15    1    3    3    0    0  0.13006706219E+03  0.81581771352E+02  0.10669293075E+03  0.18697477179E+03  0.17770000000E+01 0. -1.
        -16    1    3    3    0    0  0.48126313467E+03  0.34372350028E+03  0.23838711162E+03  0.63764289725E+03  0.00000000000E+00 0.  1.
          2    1    6    6  502    0  0.30000414117E+02 -0.14109460435E+02 -0.15205771558E+03  0.15562985122E+03  0.00000000000E+00 0. -1.
         -1    1    6    6    0  502  0.61876552377E+02 -0.94622811217E+01 -0.46524622731E+02  0.77992198446E+02  0.00000000000E+00 0.  1.
<mgrwt>
<rscale>  0 0.82667326E+03</rscale>
<asrwt>0</asrwt>
<pdfrwt beam="1">  1        1 0.19067988E+00 0.82667326E+03</pdfrwt>
<pdfrwt beam="2">  1       -2 0.12516024E+00 0.82667326E+03</pdfrwt>
<totfact> 0.42682728E+00</totfact>
</mgrwt>
</event>
<event>
12    3  0.1092576E-007  0.2066731E+04  0.7818608E-02  0.8576042E-01
         -2   -1    0    0    0  501 -0.00000000000E+00  0.00000000000E+00  0.21929240835E+04  0.21929240835E+04  0.00000000000E+00 0.  1.
          1   -1    0    0  501    0  0.00000000000E+00 -0.00000000000E+00 -0.19763880641E+04  0.19763880641E+04  0.00000000000E+00 0. -1.
        -24    2    1    2    0    0 -0.11910652629E+04 -0.16403280377E+04  0.31315346485E+03  0.20529168508E+04  0.84201971239E+02 0.  0.
    5000000    2    1    2    0    0  0.11910652629E+04  0.16403280377E+04 -0.96617445495E+02  0.21163952968E+04  0.60040119057E+03 0.  0.
        -24    2    4    4    0    0  0.91289750083E+03  0.78924975405E+03 -0.13338276018E+03  0.12167965836E+04  0.80659430913E+02 0.  0.
         24    2    4    4    0    0  0.27816776205E+03  0.85107828368E+03  0.36765314685E+02  0.89959871321E+03  0.78832782754E+02 0.  0.
         11    1    5    5    0    0  0.37191102646E+03  0.28021547317E+03 -0.75306967604E+02  0.47170929859E+03  0.00000000000E+00 0. -1.
        -12    1    5    5    0    0  0.54098647437E+03  0.50903428088E+03 -0.58075792576E+02  0.74508728499E+03  0.00000000000E+00 0.  1.
         15    1    3    3    0    0 -0.58047486912E+03 -0.73198545348E+03  0.13027910965E+03  0.94325478102E+03  0.17770000000E+01 0. -1.
        -16    1    3    3    0    0 -0.61059039376E+03 -0.90834258426E+03  0.18287435520E+03  0.11096620698E+04  0.00000000000E+00 0.  1.
          2    1    6    6  502    0  0.22603373187E+03  0.63601660057E+03  0.56970899774E+02  0.67738766417E+03  0.00000000000E+00 0. -1.
         -1    1    6    6    0  502  0.52134030178E+02  0.21506168312E+03 -0.20205585089E+02  0.22221104904E+03  0.00000000000E+00 0.  1.
<mgrwt>
<rscale>  0 0.20667309E+04</rscale>
<asrwt>0</asrwt>
<pdfrwt beam="1">  1        1 0.30405970E+00 0.20667309E+04</pdfrwt>
<pdfrwt beam="2">  1       -2 0.33737294E+00 0.20667309E+04</pdfrwt>
<totfact> 0.44751626E-02</totfact>
</mgrwt>
</event>
<event>
12    3  0.1092576E-007  0.5845226E+03  0.7818608E-02  0.9938047E-01
          1   -1    0    0  501    0  0.00000000000E+00  0.00000000000E+00  0.99240372722E+03  0.99240372722E+03  0.00000000000E+00 0. -1.
         -2   -1    0    0    0  501 -0.00000000000E+00 -0.00000000000E+00 -0.43584500268E+03  0.43584500268E+03  0.00000000000E+00 0.  1.
        -24    2    1    2    0    0  0.47138473714E+03 -0.12191128065E+03  0.30901479011E+02  0.49369258874E+03  0.75574731330E+02 0.  0.
    5000000    2    1    2    0    0 -0.47138473714E+03  0.12191128065E+03  0.52565724553E+03  0.93455614116E+03  0.60001142526E+03 0.  0.
        -24    2    4    4    0    0  0.45428207460E+02  0.13587634097E+03 -0.35373888193E+02  0.16739619887E+03  0.79019449274E+02 0.  0.
         24    2    4    4    0    0 -0.51681294460E+03 -0.13965060321E+02  0.56103113372E+03  0.76715994228E+03  0.80546889597E+02 0.  0.
         11    1    5    5    0    0  0.20648593755E+01  0.10006364913E+03 -0.46018775122E+02  0.11015772867E+03  0.00000000000E+00 0. -1.
        -12    1    5    5    0    0  0.43363348085E+02  0.35812691836E+02  0.10644886928E+02  0.57238470204E+02  0.00000000000E+00 0.  1.
         15    1    3    3    0    0  0.20218538775E+03 -0.14671099797E+02  0.20082958311E+02  0.20371709582E+03  0.17770000000E+01 0. -1.
        -16    1    3    3    0    0  0.26919934939E+03 -0.10724018085E+03  0.10818520701E+02  0.28997549292E+03  0.00000000000E+00 0.  1.
          2    1    6    6  502    0 -0.17803927635E+03  0.22654492962E+02  0.15542721773E+03  0.23742120795E+03  0.00000000000E+00 0. -1.
         -1    1    6    6    0  502 -0.33877366825E+03 -0.36619553283E+02  0.40560391600E+03  0.52973873433E+03  0.00000000000E+00 0.  1.
<mgrwt>
<rscale>  0 0.58452259E+03</rscale>
<asrwt>0</asrwt>
<pdfrwt beam="1">  1        1 0.15267750E+00 0.58452259E+03</pdfrwt>
<pdfrwt beam="2">  1       -2 0.67053077E-01 0.58452259E+03</pdfrwt>
<totfact> 0.28601409E+01</totfact>
</mgrwt>
</event>
<event>
12    3  0.1092576E-007  0.3453943E+03  0.7818608E-02  0.1064521E+00
          1   -1    0    0  501    0  0.00000000000E+00  0.00000000000E+00  0.13399852454E+04  0.13399852454E+04  0.00000000000E+00 0. -1.
         -2   -1    0    0    0  501 -0.00000000000E+00 -0.00000000000E+00 -0.16297525217E+03  0.16297525217E+03  0.00000000000E+00 0.  1.
        -24    2    1    2    0    0  0.10599160629E+03  0.10513380152E+03  0.21450659907E+01  0.17533499554E+03  0.91926179758E+02 0.  0.
    5000000    2    1    2    0    0 -0.10599160629E+03 -0.10513380152E+03  0.11748649273E+04  0.13276255021E+04  0.59999544964E+03 0.  0.
        -24    2    4    4    0    0  0.12658748942E+03  0.14341550733E+03  0.18475818976E+03  0.27734515552E+03  0.78691463220E+02 0.  0.
         24    2    4    4    0    0 -0.23257909571E+03 -0.24854930886E+03  0.99010673753E+03  0.10502803466E+04  0.83112333581E+02 0.  0.
         13    1    5    5    0    0  0.58953633897E+02  0.10195568952E+03  0.15006253624E+03  0.19075968745E+03  0.00000000000E+00 0. -1.
        -14    1    5    5    0    0  0.67633855526E+02  0.41459817817E+02  0.34695653518E+02  0.86585468064E+02  0.00000000000E+00 0.  1.
         15    1    3    3    0    0  0.68281610815E+02  0.54639414498E+02  0.45737120190E+02  0.98706057992E+02  0.17770000000E+01 0. -1.
        -16    1    3    3    0    0  0.37709995473E+02  0.50494387026E+02 -0.43592054199E+02  0.76628937543E+02  0.00000000000E+00 0.  1.
          2    1    6    6  502    0 -0.12233416605E+03 -0.98847776621E+02  0.56099788256E+03  0.58262780175E+03  0.00000000000E+00 0. -1.
         -1    1    6    6    0  502 -0.11024492966E+03 -0.14970153224E+03  0.42910885497E+03  0.46765254482E+03  0.00000000000E+00 0.  1.
<mgrwt>
<rscale>  0 0.34539427E+03</rscale>
<asrwt>0</asrwt>
<pdfrwt beam="1">  1        1 0.20615157E+00 0.34539427E+03</pdfrwt>
<pdfrwt beam="2">  1       -2 0.25073117E-01 0.34539427E+03</pdfrwt>
<totfact> 0.11332731E+02</totfact>
</mgrwt>
</event>
<event>
12    3  0.1092576E-007  0.5652885E+03  0.7818608E-02  0.9980159E-01
          1   -1    0    0  501    0  0.00000000000E+00  0.00000000000E+00  0.24882175181E+04  0.24882175181E+04  0.00000000000E+00 0. -1.
         -2   -1    0    0    0  501 -0.00000000000E+00 -0.00000000000E+00 -0.69196117249E+03  0.69196117249E+03  0.00000000000E+00 0.  1.
        -24    2    1    2    0    0 -0.48645408075E+03 -0.11812680767E+03 -0.52573791506E+03  0.73022295718E+03  0.78953761728E+02 0.  0.
    5000000    2    1    2    0    0  0.48645408075E+03  0.11812680767E+03  0.23219942606E+04  0.24499557334E+04  0.60002852740E+03 0.  0.
        -24    2    4    4    0    0  0.42040033197E+02 -0.10295458963E+03  0.96893095319E+02  0.16881150908E+03  0.82109937041E+02 0.  0.
         24    2    4    4    0    0  0.44441404756E+03  0.22108139730E+03  0.22251011653E+04  0.22811442243E+04  0.78504434371E+02 0.  0.
         11    1    5    5    0    0  0.41389923256E+02 -0.19791099937E+02  0.71054887195E+01  0.46425223250E+02  0.00000000000E+00 0. -1.
        -12    1    5    5    0    0  0.65010994170E+00 -0.83163489697E+02  0.89787606600E+02  0.12238628584E+03  0.00000000000E+00 0.  1.
         15    1    3    3    0    0 -0.27263074519E+03 -0.31481246926E+02 -0.31453983200E+03  0.41744108060E+03  0.17770000000E+01 0. -1.
        -16    1    3    3    0    0 -0.21382333557E+03 -0.86645560742E+02 -0.21119808306E+03  0.31278187658E+03  0.00000000000E+00 0.  1.
          4    1    6    6  502    0  0.34048240775E+03  0.17045610035E+03  0.15410911141E+04  0.15874335810E+04  0.00000000000E+00 0. -1.
         -3    1    6    6    0  502  0.10393163980E+03  0.50625296949E+02  0.68401005123E+03  0.69371064330E+03  0.00000000000E+00 0.  1.
<mgrwt>
<rscale>  0 0.56528845E+03</rscale>
<asrwt>0</asrwt>
<pdfrwt beam="1">  1        1 0.38280269E+00 0.56528845E+03</pdfrwt>
<pdfrwt beam="2">  1       -2 0.10645557E+00 0.56528845E+03</pdfrwt>
<totfact> 0.95208168E-01</totfact>
</mgrwt>
</event>
<event>
12    3  0.1092576E-007  0.4182130E+03  0.7818608E-02  0.1037649E+00
         -2   -1    0    0    0  501 -0.00000000000E+00  0.00000000000E+00  0.27925338632E+03  0.27925338632E+03  0.00000000000E+00 0.  1.
          1   -1    0    0  501    0  0.00000000000E+00 -0.00000000000E+00 -0.69604386049E+03  0.69604386049E+03  0.00000000000E+00 0. -1.
        -24    2    1    2    0    0  0.19315837272E+03 -0.79036050740E+02 -0.21094141519E+03  0.30719919549E+03  0.79487173807E+02 0.  0.
    5000000    2    1    2    0    0 -0.19315837272E+03  0.79036050740E+02 -0.20584905898E+03  0.66809805131E+03  0.60035349321E+03 0.  0.
        -24    2    4    4    0    0 -0.20767920246E+03  0.31096811674E+03 -0.77802119243E+02  0.39016957225E+03  0.79669972908E+02 0.  0.
         24    2    4    4    0    0  0.14520829738E+02 -0.23193206600E+03 -0.12804693974E+03  0.27792847907E+03  0.82733807866E+02 0.  0.
         13    1    5    5    0    0 -0.19670050031E+03  0.23912256449E+03 -0.61281194943E+02  0.31563598104E+03  0.00000000000E+00 0. -1.
        -14    1    5    5    0    0 -0.10978702153E+02  0.71845552249E+02 -0.16520924300E+02  0.74533591210E+02  0.00000000000E+00 0.  1.
         15    1    3    3    0    0  0.17457970920E+03 -0.51294816351E+02 -0.20350037789E+03  0.27299229766E+03  0.17770000000E+01 0. -1.
        -16    1    3    3    0    0  0.18578663517E+02 -0.27741234389E+02 -0.74410373058E+01  0.34206897838E+02  0.00000000000E+00 0.  1.
          2    1    6    6  502    0 -0.11356701424E+02 -0.18348115587E+03 -0.12617643803E+03  0.22296816531E+03  0.00000000000E+00 0. -1.
         -1    1    6    6    0  502  0.25877531162E+02 -0.48450910134E+02 -0.18705017036E+01  0.54960313759E+02  0.00000000000E+00 0.  1.
<mgrwt>
<rscale>  0 0.41821304E+03</rscale>
<asrwt>0</asrwt>
<pdfrwt beam="1">  1        1 0.10708367E+00 0.41821304E+03</pdfrwt>
<pdfrwt beam="2">  1       -2 0.42962060E-01 0.41821304E+03</pdfrwt>
<totfact> 0.12873896E+02</totfact>
</mgrwt>
</event>
<event>
12    3  0.1092576E-007  0.6011350E+03  0.7818608E-02  0.9903054E-01
         -2   -1    0    0    0  501 -0.00000000000E+00  0.00000000000E+00  0.30498853472E+03  0.30498853472E+03  0.00000000000E+00 0.  1.
          1   -1    0    0  501    0  0.00000000000E+00 -0.00000000000E+00 -0.12581955364E+04  0.12581955364E+04  0.00000000000E+00 0. -1.
        -24    2    1    2    0    0  0.19601905002E+03  0.41919762783E+03 -0.46970419907E+03  0.66422932295E+03  0.80177551058E+02 0.  0.
    5000000    2    1    2    0    0 -0.19601905002E+03 -0.41919762783E+03 -0.48350280259E+03  0.89895474814E+03  0.60016211139E+03 0.  0.
        -24    2    4    4    0    0 -0.18796753391E+03 -0.55516549093E+03 -0.32302502870E+03  0.67399547745E+03  0.79901303670E+02 0.  0.
         24    2    4    4    0    0 -0.80515161103E+01  0.13596786310E+03 -0.16047777389E+03  0.22495927070E+03  0.79381804282E+02 0.  0.
         11    1    5    5    0    0 -0.66321051885E+01 -0.49942899065E+02 -0.63874225383E+01  0.50784615317E+02  0.00000000000E+00 0. -1.
        -12    1    5    5    0    0 -0.18133542872E+03 -0.50522259187E+03 -0.31663760616E+03  0.62321086213E+03  0.00000000000E+00 0.  1.
         15    1    3    3    0    0  0.55791722561E+02  0.50813233032E+02 -0.76331738531E+02  0.10735172562E+03  0.17770000000E+01 0. -1.
        -16    1    3    3    0    0  0.14022732746E+03  0.36838439480E+03 -0.39337246054E+03  0.55687759733E+03  0.00000000000E+00 0.  1.
          4    1    6    6  502    0  0.17067469852E+02  0.17857515853E+02 -0.69533476305E+02  0.73790878343E+02  0.00000000000E+00 0. -1.
         -3    1    6    6    0  502 -0.25118985962E+02  0.11811034725E+03 -0.90944297585E+02  0.15116839235E+03  0.00000000000E+00 0.  1.
<mgrwt>
<rscale>  0 0.60113502E+03</rscale>
<asrwt>0</asrwt>
<pdfrwt beam="1">  1        1 0.19356854E+00 0.60113502E+03</pdfrwt>
<pdfrwt beam="2">  1       -2 0.46921314E-01 0.60113502E+03</pdfrwt>
<totfact> 0.38163724E+01</totfact>
</mgrwt>
</event>
<event>
12    3  0.1092576E-007  0.1318986E+04  0.7818608E-02  0.9014643E-01
         -2   -1    0    0    0  501 -0.00000000000E+00  0.00000000000E+00  0.10810625266E+04  0.10810625266E+04  0.00000000000E+00 0.  1.
          1   -1    0    0  501    0  0.00000000000E+00 -0.00000000000E+00 -0.23149037526E+04  0.23149037526E+04  0.00000000000E+00 0. -1.
        -24    2    1    2    0    0  0.12849174762E+04 -0.13188219493E+03 -0.14633265693E+04  0.19534525342E+04  0.79033670986E+02 0.  0.
    5000000    2    1    2    0    0 -0.12849174762E+04  0.13188219493E+03  0.22948534325E+03  0.14425137450E+04  0.59981376099E+03 0.  0.
        -24    2    4    4    0    0 -0.36785319066E+03  0.21301995669E+03 -0.13590484210E+03  0.44908159222E+03  0.50106671617E+02 0.  0.
         24    2    4    4    0    0 -0.91706428551E+03 -0.81137761755E+02  0.36539018535E+03  0.99343215279E+03  0.76205081896E+02 0.  0.
         13    1    5    5    0    0 -0.87476230369E+02  0.45642239276E+02 -0.10236537743E+02  0.99197235802E+02  0.00000000000E+00 0. -1.
        -14    1    5    5    0    0 -0.28037696029E+03  0.16737771741E+03 -0.12566830435E+03  0.34988435642E+03  0.00000000000E+00 0.  1.
         15    1    3    3    0    0  0.78947655679E+03 -0.91691766817E+02 -0.95547506334E+03  0.12428259605E+04  0.17770000000E+01 0. -1.
        -16    1    3    3    0    0  0.49544091938E+03 -0.40190428114E+02 -0.50785150593E+03  0.71062657365E+03  0.00000000000E+00 0.  1.
          4    1    6    6  502    0 -0.19456797670E+03 -0.26338720961E+02  0.46397177148E+02  0.20175015199E+03  0.00000000000E+00 0. -1.
         -3    1    6    6    0  502 -0.72249630881E+03 -0.54799040794E+02  0.31899300820E+03  0.79168200080E+03  0.00000000000E+00 0.  1.
<mgrwt>
<rscale>  0 0.13189864E+04</rscale>
<asrwt>0</asrwt>
<pdfrwt beam="1">  1        1 0.35613904E+00 0.13189864E+04</pdfrwt>
<pdfrwt beam="2">  1       -2 0.16631731E+00 0.13189864E+04</pdfrwt>
<totfact> 0.34816992E-01</totfact>
</mgrwt>
</event>
<event>
12    3  0.1092576E-007  0.6152425E+03  0.7818608E-02  0.9874278E-01
         -2   -1    0    0    0  501 -0.00000000000E+00  0.00000000000E+00  0.26063087647E+03  0.26063087647E+03  0.00000000000E+00 0.  1.
          1   -1    0    0  501    0  0.00000000000E+00 -0.00000000000E+00 -0.25887681303E+04  0.25887681303E+04  0.00000000000E+00 0. -1.
        -24    2    1    2    0    0  0.14029361820E+03  0.47615835199E+03 -0.13285280171E+03  0.52008808438E+03  0.80203947004E+02 0.  0.
    5000000    2    1    2    0    0 -0.14029361820E+03 -0.47615835199E+03 -0.21952844521E+04  0.23293109224E+04  0.60000539334E+03 0.  0.
        -24    2    4    4    0    0 -0.26150856356E+03 -0.53041886046E+03 -0.19407039321E+04  0.20303696233E+04  0.79612553983E+02 0.  0.
         24    2    4    4    0    0  0.12121494535E+03  0.54260508475E+02 -0.25458052006E+03  0.29894129915E+03  0.83170868630E+02 0.  0.
         13    1    5    5    0    0 -0.24133153208E+03 -0.43631417665E+03 -0.15634301832E+04  0.16410133780E+04  0.00000000000E+00 0. -1.
        -14    1    5    5    0    0 -0.20177031478E+02 -0.94104683809E+02 -0.37727374888E+03  0.38935624524E+03  0.00000000000E+00 0.  1.
         15    1    3    3    0    0  0.99677499330E+02  0.42968372381E+03 -0.11784898437E+03  0.45656899503E+03  0.17770000000E+01 0. -1.
        -16    1    3    3    0    0  0.40616118871E+02  0.46474628175E+02 -0.15003817340E+02  0.63519089343E+02  0.00000000000E+00 0.  1.
          2    1    6    6  502    0  0.58456041177E+02  0.26974467631E+02 -0.45203682226E+02  0.78664499877E+02  0.00000000000E+00 0. -1.
         -1    1    6    6    0  502  0.62758904177E+02  0.27286040844E+02 -0.20937683783E+03  0.22027679928E+03  0.00000000000E+00 0.  1.
<mgrwt>
<rscale>  0 0.61524251E+03</rscale>
<asrwt>0</asrwt>
<pdfrwt beam="1">  1        1 0.39827201E+00 0.61524251E+03</pdfrwt>
<pdfrwt beam="2">  1       -2 0.40097059E-01 0.61524251E+03</pdfrwt>
<totfact> 0.65687226E+00</totfact>
</mgrwt>
</event>
<event>
12    3  0.1092576E-007  0.4608220E+03  0.7818608E-02  0.1024543E+00
         -2   -1    0    0    0  501 -0.00000000000E+00  0.00000000000E+00  0.78559651918E+03  0.78559651918E+03  0.00000000000E+00 0.  1.
          1   -1    0    0  501    0  0.00000000000E+00 -0.00000000000E+00 -0.83486772888E+03  0.83486772888E+03  0.00000000000E+00 0. -1.
        -24    2    1    2    0    0  0.27625348339E+03 -0.63545647033E+02 -0.65738287422E+03  0.72034786745E+03  0.79967308809E+02 0.  0.
    5000000    2    1    2    0    0 -0.27625348339E+03  0.63545647033E+02  0.60811166453E+03  0.90011638062E+03  0.60004638636E+03 0.  0.
        -24    2    4    4    0    0 -0.41776251163E+03  0.14817152928E+03  0.29924404844E+03  0.54094587880E+03  0.81210375229E+02 0.  0.
         24    2    4    4    0    0  0.14150902825E+03 -0.84625882242E+02  0.30886761608E+03  0.35917050182E+03  0.80111797457E+02 0.  0.
         13    1    5    5    0    0 -0.22858662541E+03  0.46326920219E+02  0.18443811627E+03  0.29734735174E+03  0.00000000000E+00 0. -1.
        -14    1    5    5    0    0 -0.18917588622E+03  0.10184460906E+03  0.11480593217E+03  0.24359852705E+03  0.00000000000E+00 0.  1.
         15    1    3    3    0    0  0.22837293855E+03 -0.20072495149E+02 -0.49295046805E+03  0.54365469353E+03  0.17770000000E+01 0. -1.
        -16    1    3    3    0    0  0.47880544843E+02 -0.43473151883E+02 -0.16443240617E+03  0.17669317392E+03  0.00000000000E+00 0.  1.
          4    1    6    6  502    0  0.34940442788E+02  0.10809511529E+02  0.37368221591E+02  0.52288278482E+02  0.00000000000E+00 0. -1.
         -3    1    6    6    0  502  0.10656858546E+03 -0.95435393772E+02  0.27149939449E+03  0.30688222334E+03  0.00000000000E+00 0.  1.
<mgrwt>
<rscale>  0 0.46082197E+03</rscale>
<asrwt>0</asrwt>
<pdfrwt beam="1">  1        1 0.12844119E+00 0.46082197E+03</pdfrwt>
<pdfrwt beam="2">  1       -2 0.12086100E+00 0.46082197E+03</pdfrwt>
<totfact> 0.10050474E+01</totfact>
</mgrwt>
</event>
<event>
12    3  0.1092576E-007  0.8011048E+03  0.7818608E-02  0.9558419E-01
         -2   -1    0    0    0  501 -0.00000000000E+00  0.00000000000E+00  0.10352572920E+04  0.10352572920E+04  0.00000000000E+00 0.  1.
          1   -1    0    0  501    0  0.00000000000E+00 -0.00000000000E+00 -0.72601637882E+03  0.72601637882E+03  0.00000000000E+00 0. -1.
        -24    2    1    2    0    0 -0.10806544429E+02 -0.73021643432E+03 -0.80603069560E+02  0.73877426919E+03  0.77186421348E+02 0.  0.
    5000000    2    1    2    0    0  0.10806544429E+02  0.73021643432E+03  0.38984398272E+03  0.10224994016E+04  0.60016153916E+03 0.  0.
        -24    2    4    4    0    0  0.22880167381E+03  0.29144702405E+03  0.36300727684E+03  0.52530899648E+03  0.82967975669E+02 0.  0.
         24    2    4    4    0    0 -0.21799512938E+03  0.43876941027E+03  0.26836705889E+02  0.49719040513E+03  0.80234770209E+02 0.  0.
         13    1    5    5    0    0  0.11923309589E+03  0.88923973203E+02  0.15817897570E+03  0.21712805558E+03  0.00000000000E+00 0. -1.
        -14    1    5    5    0    0  0.10956857792E+03  0.20252305085E+03  0.20482830113E+03  0.30818094090E+03  0.00000000000E+00 0.  1.
         15    1    3    3    0    0  0.20418423415E+02 -0.51887534050E+03 -0.78129173064E+02  0.52512461036E+03  0.17770000000E+01 0. -1.
        -16    1    3    3    0    0 -0.31224967843E+02 -0.21134109382E+03 -0.24738964964E+01  0.21364965883E+03  0.00000000000E+00 0.  1.
          2    1    6    6  502    0 -0.15724194372E+03  0.33444665835E+03 -0.13762401121E+02  0.36982293038E+03  0.00000000000E+00 0. -1.
         -1    1    6    6    0  502 -0.60753185663E+02  0.10432275192E+03  0.40599107009E+02  0.12736747476E+03  0.00000000000E+00 0.  1.
<mgrwt>
<rscale>  0 0.80110483E+03</rscale>
<asrwt>0</asrwt>
<pdfrwt beam="1">  1        1 0.11169483E+00 0.80110483E+03</pdfrwt>
<pdfrwt beam="2">  1       -2 0.15927035E+00 0.80110483E+03</pdfrwt>
<totfact> 0.58519794E+00</totfact>
</mgrwt>
</event>
<event>
12    3  0.1092576E-007  0.9371046E+03  0.7818608E-02  0.9380352E-01
         -2   -1    0    0    0  501 -0.00000000000E+00  0.00000000000E+00  0.56790305584E+03  0.56790305584E+03  0.00000000000E+00 0.  1.
          1   -1    0    0  501    0  0.00000000000E+00 -0.00000000000E+00 -0.19196374902E+04  0.19196374902E+04  0.00000000000E+00 0. -1.
        -24    2    1    2    0    0 -0.33432286803E+03 -0.85006072862E+03 -0.28449524952E+03  0.95998400347E+03  0.79099415212E+02 0.  0.
    5000000    2    1    2    0    0  0.33432286803E+03  0.85006072862E+03 -0.10672391848E+04  0.15275565425E+04  0.60004540715E+03 0.  0.
        -24    2    4    4    0    0  0.15138730802E+03  0.67879842827E+03 -0.39390702552E+03  0.80370775009E+03  0.84249507759E+02 0.  0.
         24    2    4    4    0    0  0.18293556001E+03  0.17126230036E+03 -0.67333215928E+03  0.72384879245E+03  0.88230850429E+02 0.  0.
         11    1    5    5    0    0  0.13078579444E+03  0.56026753897E+03 -0.36013255925E+03  0.67874892227E+03  0.00000000000E+00 0. -1.
        -12    1    5    5    0    0  0.20601513579E+02  0.11853088929E+03 -0.33774466274E+02  0.12495882782E+03  0.00000000000E+00 0.  1.
         15    1    3    3    0    0 -0.79951162633E+02 -0.25328619879E+03 -0.50642834069E+02  0.27039589730E+03  0.17770000000E+01 0. -1.
        -16    1    3    3    0    0 -0.25437170539E+03 -0.59677452983E+03 -0.23385241546E+03  0.68958810617E+03  0.00000000000E+00 0.  1.
          4    1    6    6  502    0  0.12008937103E+03  0.16053128566E+03 -0.54121076417E+03  0.57714889064E+03  0.00000000000E+00 0. -1.
         -3    1    6    6    0  502  0.62846188977E+02  0.10731014700E+02 -0.13212139510E+03  0.14669990181E+03  0.00000000000E+00 0.  1.
<mgrwt>
<rscale>  0 0.93710456E+03</rscale>
<asrwt>0</asrwt>
<pdfrwt beam="1">  1        1 0.29532884E+00 0.93710456E+03</pdfrwt>
<pdfrwt beam="2">  1       -2 0.87369702E-01 0.93710456E+03</pdfrwt>
<totfact> 0.34025637E+00</totfact>
</mgrwt>
</event>
<event>
12    3  0.1092576E-007  0.2320349E+03  0.7818608E-02  0.1125216E+00
         -2   -1    0    0    0  501 -0.00000000000E+00  0.00000000000E+00  0.56213941522E+03  0.56213941522E+03  0.00000000000E+00 0.  1.
          1   -1    0    0  501    0  0.00000000000E+00 -0.00000000000E+00 -0.45490659249E+03  0.45490659249E+03  0.00000000000E+00 0. -1.
        -24    2    1    2    0    0 -0.19899087943E+03  0.42622707422E+02 -0.21425017338E+03  0.30635641228E+03  0.80852020806E+02 0.  0.
    5000000    2    1    2    0    0  0.19899087943E+03 -0.42622707422E+02  0.32148299610E+03  0.71068959543E+03  0.60026187534E+03 0.  0.
        -24    2    4    4    0    0  0.10236831587E+03  0.33731901278E+02  0.47792450132E+03  0.49658876902E+03  0.81064562473E+02 0.  0.
         24    2    4    4    0    0  0.96622563559E+02 -0.76354608700E+02 -0.15644150522E+03  0.21410082641E+03  0.78735463778E+02 0.  0.
         11    1    5    5    0    0 -0.45899777432E+00  0.25133265482E+02  0.16967623709E+03  0.17152818178E+03  0.00000000000E+00 0. -1.
        -12    1    5    5    0    0  0.10282731364E+03  0.85986357963E+01  0.30824826423E+03  0.32506058723E+03  0.00000000000E+00 0.  1.
         15    1    3    3    0    0 -0.94338287452E+02  0.50579661847E+02 -0.69794233052E+02  0.12779830738E+03  0.17770000000E+01 0. -1.
        -16    1    3    3    0    0 -0.10465259198E+03 -0.79569544247E+01 -0.14445594033E+03  0.17855810490E+03  0.00000000000E+00 0.  1.
          2    1    6    6  502    0  0.77640553761E+02 -0.54909193588E+02 -0.57567322785E+02  0.11116236675E+03  0.00000000000E+00 0. -1.
         -1    1    6    6    0  502  0.18982009798E+02 -0.21445415112E+02 -0.98874182437E+02  0.10293845966E+03  0.00000000000E+00 0.  1.
<mgrwt>
<rscale>  0 0.23203489E+03</rscale>
<asrwt>0</asrwt>
<pdfrwt beam="1">  1        1 0.69985630E-01 0.23203489E+03</pdfrwt>
<pdfrwt beam="2">  1       -2 0.86482987E-01 0.23203489E+03</pdfrwt>
<totfact> 0.54902998E+01</totfact>
</mgrwt>
</event>
<event>
12    3  0.1092576E-007  0.1003704E+04  0.7818608E-02  0.9304492E-01
         -2   -1    0    0    0  501 -0.00000000000E+00  0.00000000000E+00  0.12997474379E+04  0.12997474379E+04  0.00000000000E+00 0.  1.
          1   -1    0    0  501    0  0.00000000000E+00 -0.00000000000E+00 -0.12148809966E+04  0.12148809966E+04  0.00000000000E+00 0. -1.
        -24    2    1    2    0    0  0.39851860881E+03 -0.85278983477E+03  0.75794634472E+03  0.12110921042E+04  0.78700950069E+02 0.  0.
    5000000    2    1    2    0    0 -0.39851860881E+03  0.85278983477E+03 -0.67307990346E+03  0.13035363303E+04  0.60008568067E+03 0.  0.
        -24    2    4    4    0    0  0.96313504198E+02  0.28926855814E+03 -0.38329152290E+03  0.49616550915E+03  0.79468428517E+02 0.  0.
         24    2    4    4    0    0 -0.49483211301E+03  0.56352127664E+03 -0.28978838056E+03  0.80737082116E+03  0.73859921932E+02 0.  0.
         11    1    5    5    0    0  0.31671255386E+02  0.20207890205E+03 -0.27614774042E+03  0.34365175049E+03  0.00000000000E+00 0. -1.
        -12    1    5    5    0    0  0.64642248812E+02  0.87189656082E+02 -0.10714378248E+03  0.15251375867E+03  0.00000000000E+00 0.  1.
         15    1    3    3    0    0  0.34694033044E+02 -0.90320979527E+02  0.50357590292E+02  0.10908987075E+03  0.17770000000E+01 0. -1.
        -16    1    3    3    0    0  0.36382457577E+03 -0.76246885525E+03  0.70758875442E+03  0.11020022335E+04  0.00000000000E+00 0.  1.
          4    1    6    6  502    0 -0.14526559557E+03  0.21189492444E+03 -0.11711998827E+03  0.28234490240E+03  0.00000000000E+00 0. -1.
         -3    1    6    6    0  502 -0.34956651744E+03  0.35162635220E+03 -0.17266839230E+03  0.52502591876E+03  0.00000000000E+00 0.  1.
<mgrwt>
<rscale>  0 0.10037038E+04</rscale>
<asrwt>0</asrwt>
<pdfrwt beam="1">  1        1 0.18690477E+00 0.10037038E+04</pdfrwt>
<pdfrwt beam="2">  1       -2 0.19996114E+00 0.10037038E+04</pdfrwt>
<totfact> 0.12124817E+00</totfact>
</mgrwt>
</event>
<event>
12    3  0.1092576E-007  0.1144159E+04  0.7818608E-02  0.9163189E-01
          1   -1    0    0  501    0  0.00000000000E+00  0.00000000000E+00  0.95131206172E+03  0.95131206172E+03  0.00000000000E+00 0. -1.
         -2   -1    0    0    0  501 -0.00000000000E+00 -0.00000000000E+00 -0.17030156448E+04  0.17030156448E+04  0.00000000000E+00 0.  1.
        -24    2    1    2    0    0 -0.90819740753E+03  0.58482279844E+03  0.19132990831E+03  0.10999357163E+04  0.80070028998E+02 0.  0.
    5000000    2    1    2    0    0  0.90819740753E+03 -0.58482279844E+03 -0.94303349143E+03  0.15543919903E+04  0.59998504716E+03 0.  0.
        -24    2    4    4    0    0  0.84526006387E+03 -0.28633558393E+03 -0.82429699442E+03  0.12175015738E+04  0.79949390519E+02 0.  0.
         24    2    4    4    0    0  0.62937343660E+02 -0.29848721451E+03 -0.11873649701E+03  0.33689041644E+03  0.79630838972E+02 0.  0.
         11    1    5    5    0    0  0.46168408225E+03 -0.11501517594E+03 -0.42763826180E+03  0.63973054129E+03  0.00000000000E+00 0. -1.
        -12    1    5    5    0    0  0.38357598162E+03 -0.17132040799E+03 -0.39665873262E+03  0.57777103253E+03  0.00000000000E+00 0.  1.
         15    1    3    3    0    0 -0.79291027072E+03  0.51199204031E+03  0.19384979848E+03  0.96354732569E+03  0.17770000000E+01 0. -1.
        -16    1    3    3    0    0 -0.11528713682E+03  0.72830758124E+02 -0.25198901671E+01  0.13638839060E+03  0.00000000000E+00 0.  1.
          4    1    6    6  502    0 -0.10164068864E+02 -0.10313244061E+03 -0.61860332192E+02  0.12069096611E+03  0.00000000000E+00 0. -1.
         -3    1    6    6    0  502  0.73101412525E+02 -0.19535477390E+03 -0.56876164814E+02  0.21619945033E+03  0.00000000000E+00 0.  1.
<mgrwt>
<rscale>  0 0.11441595E+04</rscale>
<asrwt>0</asrwt>
<pdfrwt beam="1">  1        1 0.14635570E+00 0.11441595E+04</pdfrwt>
<pdfrwt beam="2">  1       -2 0.26200240E+00 0.11441595E+04</pdfrwt>
<totfact> 0.77419035E-01</totfact>
</mgrwt>
</event>
<event>
12    3  0.1092576E-007  0.8268806E+03  0.7818608E-02  0.9521903E-01
         -2   -1    0    0    0  501 -0.00000000000E+00  0.00000000000E+00  0.81038310549E+03  0.81038310549E+03  0.00000000000E+00 0.  1.
          1   -1    0    0  501    0  0.00000000000E+00 -0.00000000000E+00 -0.11825382845E+04  0.11825382845E+04  0.00000000000E+00 0. -1.
        -24    2    1    2    0    0 -0.68639222573E+03  0.32010301311E+03 -0.63505331754E+03  0.99158478480E+03  0.79670840167E+02 0.  0.
    5000000    2    1    2    0    0  0.68639222573E+03 -0.32010301311E+03  0.26289813848E+03  0.10013366052E+04  0.59996611507E+03 0.  0.
        -24    2    4    4    0    0  0.55310760740E+03 -0.43294397788E+03  0.35257069725E+03  0.78988888504E+03  0.79055934629E+02 0.  0.
         24    2    4    4    0    0  0.13328461833E+03  0.11284096477E+03 -0.89672558761E+02  0.21144772020E+03  0.78556335017E+02 0.  0.
         11    1    5    5    0    0  0.51231354911E+02 -0.73190093277E+02  0.44977492210E+02  0.10002207899E+03  0.00000000000E+00 0. -1.
        -12    1    5    5    0    0  0.50187625249E+03 -0.35975388460E+03  0.30759320504E+03  0.68986680605E+03  0.00000000000E+00 0.  1.
         15    1    3    3    0    0 -0.34171644195E+03  0.19998456526E+03 -0.31078461823E+03  0.50334301395E+03  0.17770000000E+01 0. -1.
        -16    1    3    3    0    0 -0.34467578379E+03  0.12011844785E+03 -0.32426869932E+03  0.48824177085E+03  0.00000000000E+00 0.  1.
          4    1    6    6  502    0  0.23877400422E+02  0.59806098115E+02 -0.55864271372E+02  0.85250902860E+02  0.00000000000E+00 0. -1.
         -3    1    6    6    0  502  0.10940721791E+03  0.53034866655E+02 -0.33808287389E+02  0.12619681734E+03  0.00000000000E+00 0.  1.
<mgrwt>
<rscale>  0 0.82688058E+03</rscale>
<asrwt>0</asrwt>
<pdfrwt beam="1">  1        1 0.18192897E+00 0.82688058E+03</pdfrwt>
<pdfrwt beam="2">  1       -2 0.12467432E+00 0.82688058E+03</pdfrwt>
<totfact> 0.47388018E+00</totfact>
</mgrwt>
</event>
<event>
12    3  0.1092576E-007  0.1550402E+04  0.7818608E-02  0.8851611E-01
          1   -1    0    0  501    0  0.00000000000E+00  0.00000000000E+00  0.19294057228E+04  0.19294057228E+04  0.00000000000E+00 0. -1.
         -2   -1    0    0    0  501 -0.00000000000E+00 -0.00000000000E+00 -0.12912957450E+04  0.12912957450E+04  0.00000000000E+00 0.  1.
        -24    2    1    2    0    0 -0.15048997530E+04  0.39771458418E+01  0.52801708905E+03  0.15968219405E+04  0.79367367379E+02 0.  0.
    5000000    2    1    2    0    0  0.15048997530E+04 -0.39771458418E+01  0.11009288873E+03  0.16238795273E+04  0.60010431652E+03 0.  0.
        -24    2    4    4    0    0  0.53778016388E+03  0.24588665267E+03  0.17089930885E+03  0.62003839457E+03  0.74654446332E+02 0.  0.
         24    2    4    4    0    0  0.96711958915E+03 -0.24986379852E+03 -0.60806420118E+02  0.10038411327E+04  0.79040379008E+02 0.  0.
         13    1    5    5    0    0  0.26186149252E+03  0.15796278241E+03  0.10185642960E+03  0.32233276927E+03  0.00000000000E+00 0. -1.
        -14    1    5    5    0    0  0.27591867135E+03  0.87923870266E+02  0.69042879253E+02  0.29770562531E+03  0.00000000000E+00 0.  1.
         15    1    3    3    0    0 -0.22208532190E+03  0.22494044473E+02  0.97179612430E+02  0.24346438557E+03  0.17770000000E+01 0. -1.
        -16    1    3    3    0    0 -0.12828144311E+04 -0.18516898631E+02  0.43083747662E+03  0.13533575549E+04  0.00000000000E+00 0.  1.
          4    1    6    6  502    0  0.40981527391E+03 -0.11930456097E+03  0.10946059956E+02  0.42696832813E+03  0.00000000000E+00 0. -1.
         -3    1    6    6    0  502  0.55730431524E+03 -0.13055923755E+03 -0.71752480074E+02  0.57687280460E+03  0.00000000000E+00 0.  1.
<mgrwt>
<rscale>  0 0.15504015E+04</rscale>
<asrwt>0</asrwt>
<pdfrwt beam="1">  1        1 0.29683165E+00 0.15504015E+04</pdfrwt>
<pdfrwt beam="2">  1       -2 0.19866088E+00 0.15504015E+04</pdfrwt>
<totfact> 0.37120885E-01</totfact>
</mgrwt>
</event>
<event>
12    3  0.1092576E-007  0.5675967E+03  0.7818608E-02  0.9975011E-01
          1   -1    0    0  501    0  0.00000000000E+00  0.00000000000E+00  0.68914536575E+03  0.68914536575E+03  0.00000000000E+00 0. -1.
         -2   -1    0    0    0  501 -0.00000000000E+00 -0.00000000000E+00 -0.70395969064E+03  0.70395969064E+03  0.00000000000E+00 0.  1.
        -24    2    1    2    0    0  0.38412270063E+03 -0.26942072923E+03  0.30793797874E+03  0.56598297615E+03  0.73301787550E+02 0.  0.
    5000000    2    1    2    0    0 -0.38412270063E+03  0.26942072923E+03 -0.32275230363E+03  0.82712208025E+03  0.59985340514E+03 0.  0.
        -24    2    4    4    0    0 -0.23610971456E+03  0.39632762540E+03 -0.38584869833E+03  0.60680564028E+03  0.80687564785E+02 0.  0.
         24    2    4    4    0    0 -0.14801298607E+03 -0.12690689616E+03  0.63096394700E+02  0.22031643997E+03  0.80901015788E+02 0.  0.
         13    1    5    5    0    0 -0.17682871543E+03  0.22191985428E+03 -0.24566371233E+03  0.37532316193E+03  0.00000000000E+00 0. -1.
        -14    1    5    5    0    0 -0.59280999125E+02  0.17440777112E+03 -0.14018498600E+03  0.23148247835E+03  0.00000000000E+00 0.  1.
         15    1    3    3    0    0  0.20247490286E+03 -0.12968277830E+03  0.19953698967E+03  0.31246100116E+03  0.17770000000E+01 0. -1.
        -16    1    3    3    0    0  0.18164779777E+03 -0.13973795093E+03  0.10840098907E+03  0.25352197498E+03  0.00000000000E+00 0.  1.
          4    1    6    6  502    0 -0.63135325662E+02 -0.33801695479E+02 -0.13494974672E+02  0.72874812556E+02  0.00000000000E+00 0. -1.
         -3    1    6    6    0  502 -0.84877660412E+02 -0.93105200685E+02  0.76591369372E+02  0.14744162741E+03  0.00000000000E+00 0.  1.
<mgrwt>
<rscale>  0 0.56759665E+03</rscale>
<asrwt>0</asrwt>
<pdfrwt beam="1">  1        1 0.10602236E+00 0.56759665E+03</pdfrwt>
<pdfrwt beam="2">  1       -2 0.10830149E+00 0.56759665E+03</pdfrwt>
<totfact> 0.17351003E+01</totfact>
</mgrwt>
</event>
<event>
12    3  0.1092576E-007  0.6145366E+03  0.7818608E-02  0.9875698E-01
         -2   -1    0    0    0  501 -0.00000000000E+00  0.00000000000E+00  0.12148296898E+04  0.12148296898E+04  0.00000000000E+00 0.  1.
          1   -1    0    0  501    0  0.00000000000E+00 -0.00000000000E+00 -0.40136064590E+03  0.40136064590E+03  0.00000000000E+00 0. -1.
        -24    2    1    2    0    0 -0.45944906961E+03 -0.23486182132E+03  0.63533484346E+02  0.52598652657E+03  0.79823554291E+02 0.  0.
    5000000    2    1    2    0    0  0.45944906961E+03  0.23486182132E+03  0.74993555957E+03  0.10902038091E+04  0.59990622542E+03 0.  0.
        -24    2    4    4    0    0  0.69086797124E+02  0.30035628588E+03  0.55894167489E+03  0.64342784854E+03  0.81220172040E+02 0.  0.
         24    2    4    4    0    0  0.39036227249E+03 -0.65494464558E+02  0.19099388468E+03  0.44677596061E+03  0.80360850699E+02 0.  0.
         11    1    5    5    0    0  0.66828444852E+02  0.22243201938E+03  0.47577108730E+03  0.52943382193E+03  0.00000000000E+00 0. -1.
        -12    1    5    5    0    0  0.22583522719E+01  0.77924266497E+02  0.83170587589E+02  0.11399402662E+03  0.00000000000E+00 0.  1.
         15    1    3    3    0    0 -0.16156124034E+03 -0.58187390066E+02 -0.96470234719E+01  0.17200008585E+03  0.17770000000E+01 0.  1.
        -16    1    3    3    0    0 -0.29788782928E+03 -0.17667443125E+03  0.73180507818E+02  0.35398644072E+03  0.00000000000E+00 0.  1.
          4    1    6    6  502    0  0.29590784807E+03 -0.76671823951E+02  0.16847635241E+03  0.34903338588E+03  0.00000000000E+00 0. -1.
         -3    1    6    6    0  502  0.94454424421E+02  0.11177359393E+02  0.22517532263E+02  0.97742574730E+02  0.00000000000E+00 0.  1.
<mgrwt>
<rscale>  0 0.61453656E+03</rscale>
<asrwt>0</asrwt>
<pdfrwt beam="1">  1        1 0.61747792E-01 0.61453656E+03</pdfrwt>
<pdfrwt beam="2">  1       -2 0.18689687E+00 0.61453656E+03</pdfrwt>
<totfact> 0.88174268E+00</totfact>
</mgrwt>
</event>
